Membrane in water
40344
    1TMC1    C1    1   0.582   2.762  12.554  0.4203 -0.3577 -0.3834
    1TMC1    C2    2   0.656   2.863  12.499 -0.2681  0.4071  0.3620
    1TMC1    C3    3   0.663   2.983  12.566 -0.5511 -0.7592  0.0081
    1TMC1    C4    4   0.499   2.785  12.659 -0.1752 -0.3124 -0.1583
    1TMC1    C5    5   0.491   2.918  12.712  0.1863  0.2538  0.2926
    1TMC1    C6    6   0.575   3.013  12.670  0.0033  0.0401 -0.5207
    1TMC1     C    7   0.583   2.626  12.517  0.2172 -0.5334 -1.1440
    1TMC1     O    8   0.496   2.556  12.568  0.1185 -0.0534 -0.4908
    1TMC1     H    9   0.707   2.852  12.404  0.3500  1.2477  0.5852
    1TMC1    H1   10   0.422   2.714  12.687 -0.2047 -0.7687 -1.4287
    1TMC1    H2   11   0.567   3.113  12.711 -1.5367  0.3913 -1.6614
    1TMC1    C7   12   0.383   2.962  12.797 -0.3502  0.1945 -0.2935
    1TMC1    C8   13   0.794   3.055  12.547 -0.0551 -0.8864 -0.4769
    1TMC1    O1   14   0.315   3.062  12.775 -0.4400 -0.4751 -0.1677
    1TMC1    O2   15   0.808   3.148  12.624 -0.3127  0.6775  0.9421
    1TMC1    O3   16   0.349   2.858  12.870  0.0360  0.3841  0.2825
    1TMC1    H3   17   0.432   2.807  12.878 -0.9562 -1.2456  0.3514
    1TMC1    O5   18   0.893   2.968  12.505  0.3159  0.4150  0.3800
    1TMC1    H5   19   0.870   2.900  12.438  0.5679  1.1096 -0.4095
    2MPD2     C   20   0.704   2.232  12.226  1.1605  0.3037  0.0473
    2MPD2    C1   21   0.622   2.234  12.336 -0.2136  0.3258  0.2685
    2MPD2    C2   22   0.609   2.357  12.403 -0.1979 -0.2550 -0.0108
    2MPD2    C3   23   0.682   2.470  12.358 -0.2643  0.6251  0.7000
    2MPD2    C4   24   0.769   2.460  12.249  0.2596  0.5633 -0.0088
    2MPD2    C5   25   0.775   2.341  12.180 -0.9185  0.0009 -0.9931
    2MPD2     H   26   0.551   2.355  12.494 -0.6411  1.7740 -0.2389
    2MPD2    H1   27   0.836   2.544  12.234  2.2475 -0.4664  2.9760
    2MPD2    H2   28   0.720   2.145  12.163  0.7694 -0.0675  0.4665
    2MPD2    H3   29   0.848   2.324  12.102  0.8392 -0.3911  0.7356
    2MPD2     N   30   0.671   2.598  12.418 -0.3640  0.5940  0.4887
    2MPD2    H5   31   0.727   2.676  12.384  1.9914 -1.5086 -0.4971
    2MPD2    N1   32   0.540   2.125  12.378  0.1608  0.0533 -0.1505
    2MPD2    H7   33   0.488   2.147  12.462  0.4135  0.8364 -0.2028
    3TMC1    C1   34   0.518   2.947  11.394  0.4900  0.1356 -0.1028
    3TMC1    C2   35   0.563   2.813  11.391  0.4569 -0.6390  0.3991
    3TMC1    C3   36   0.696   2.803  11.389 -0.3656 -0.5150 -0.5137
    3TMC1    C4   37   0.595   3.055  11.391 -0.2747 -0.8555  0.5741
    3TMC1    C5   38   0.731   3.030  11.378 -0.3318 -0.6572  0.2579
    3TMC1    C6   39   0.777   2.905  11.380 -0.4487 -0.4578 -0.5978
    3TMC1     C   40   0.378   2.961  11.399 -0.3970 -0.0914 -0.5822
    3TMC1     O   41   0.311   2.866  11.363 -0.1903 -0.1348  0.2022
    3TMC1     H   42   0.496   2.728  11.387  0.8544 -0.8639 -1.3092
    3TMC1    H1   43   0.568   3.158  11.410 -0.8382 -1.2513  1.9304
    3TMC1    H2   44   0.884   2.891  11.362 -0.7508 -1.5303 -1.5937
    3TMC1    C7   45   0.825   3.127  11.423 -0.3520  0.5051 -0.3523
    3TMC1    C8   46   0.764   2.679  11.356  0.5050  0.4163 -0.2263
    3TMC1    O1   47   0.796   3.206  11.507  0.2799 -0.1924 -0.2885
    3TMC1    O2   48   0.886   2.664  11.344 -0.0076  0.0932 -0.1485
    3TMC1    O3   49   0.886   3.168  11.308  0.1419  0.2249 -0.1235
    3TMC1    H3   50   0.863   3.106  11.236 -1.8276 -0.7266  1.3339
    3TMC1    O5   51   0.685   2.573  11.359 -0.3177  0.5702 -0.1258
    3TMC1    H5   52   0.600   2.598  11.402  0.1445  1.9821 -0.0292
    4MPD2     C   53   4.719   3.189  11.619 -0.9403  0.0925  0.0755
    4MPD2    C1   54   0.050   3.291  11.558  0.0576 -0.3908  0.5190
    4MPD2    C2   55   0.176   3.254  11.493 -0.2201 -0.4325 -0.1715
    4MPD2    C3   56   0.209   3.119  11.481  0.2325  0.4595 -0.1790
    4MPD2    C4   57   0.108   3.022  11.512 -0.2476 -0.5957  0.0553
    4MPD2    C5   58   0.003   3.057  11.591  0.3833 -0.3842  0.7250
    4MPD2     H   59   0.249   3.330  11.471 -1.0002  0.4991  0.4692
    4MPD2    H1   60   0.136   2.918  11.508  0.6296 -0.3605  0.1161
    4MPD2    H2   61   4.632   3.202  11.683 -0.6815  0.5124  0.3385
    4MPD2    H3   62   4.682   2.986  11.644 -1.9706  0.3078 -1.1023
    4MPD2     N   63   0.339   3.082  11.446 -0.0907  0.4623  0.3292
    4MPD2    H5   64   0.416   3.148  11.447 -0.3605  0.7807  0.2474
    4MPD2    N1   65   4.741   3.423  11.555 -0.1552  0.1493 -0.5889
    4MPD2    H7   66   0.052   3.500  11.515  0.3810 -0.0307 -0.2482
    5TCq1    O1   67   0.237   0.543  12.098  0.1182 -0.5994  0.7360
    5TCq1    C1   68   0.108   0.529  12.076 -0.2612  0.1324 -0.2545
    5TCq1    O2   69   0.024   0.543  12.164 -0.2688  0.1484 -0.4436
    5TCq1    C2   70   0.088   0.451  11.953  0.6282 -0.2488  0.1643
    5TCq1    C3   71   0.003   0.345  11.952  0.0167  0.4569 -0.4492
    5TCq1    C4   72   4.731   0.272  11.837  0.2180 -0.5659  0.2063
    5TCq1    C5   73   0.067   0.309  11.729 -0.3374 -0.1517  0.1242
    5TCq1    C6   74   0.149   0.425  11.731  0.0228  0.7900  0.3499
    5TCq1    C7   75   0.153   0.499  11.840  0.3078  0.0235  0.2080
    5TCq1    C8   76   0.266   0.421  11.650  0.0173  0.0191 -0.7417
    5TCq1    O4   77   0.312   0.313  11.613  0.1924  0.0806 -0.3979
    5TCq1    C9   78   4.641   0.160  11.828  0.0827 -0.2689 -0.0222
    5TCq1    O5   79   4.542   0.164  11.911 -0.1313 -0.5200 -0.0501
    5TCq1    O6   80   4.666   0.064  11.748  0.5926  0.4324 -0.5776
    5TCq1    H1   81   0.283   0.490  12.030  1.4698  0.2943  0.9668
    5TCq1    H2   82   4.688   0.310  12.039  1.7520  0.1648  0.5510
    5TCq1    H3   83   0.079   0.238  11.649 -1.7227 -1.4770  1.0913
    5TCq1    H4   84   0.211   0.590  11.845 -0.6862  0.8098 -2.5063
    6MPD2     C   85   0.461   0.714  11.545 -0.7202  0.0629  0.7443
    6MPD2    C1   86   0.421   0.581  11.553  0.0506 -0.1042  0.8066
    6MPD2    C2   87   0.501   0.497  11.482 -0.3926  0.6677  0.7086
    6MPD2    C3   88   0.615   0.538  11.413 -0.3564  0.0389  0.6161
    6MPD2    C4   89   0.645   0.672  11.405  0.6523 -0.3293  0.3766
    6MPD2    C5   90   0.564   0.762  11.476 -0.2370  0.7281 -0.0486
    6MPD2     H   91   0.461   0.396  11.476 -0.2079  0.6541 -0.2893
    6MPD2    H1   92   0.727   0.710  11.345  0.4115 -0.9278 -0.3383
    6MPD2    H2   93   0.394   0.791  11.582  0.8391  0.5433  2.5936
    6MPD2    H3   94   0.587   0.867  11.465  3.6445  0.0452  1.6763
    6MPD2     N   95   0.695   0.444  11.348 -0.1658  0.3650  0.1407
    6MPD2    H5   96   0.647   0.355  11.337 -3.2404  1.7874  1.9328
    6MPD2    N1   97   0.306   0.550  11.628  0.0538  0.2512  0.5466
    6MPD2    H7   98   0.237   0.619  11.657 -0.6452  0.2103 -1.0441
    7TCq1    O1   99   2.732   4.436  13.824  0.1985 -0.4478  0.1163
    7TCq1    C1  100   2.738   4.525  13.726 -0.0197  0.0403  0.4019
    7TCq1    O2  101   2.706   4.640  13.742 -0.6885  0.3310 -0.3948
    7TCq1    C2  102   2.848   4.480  13.638  0.2108  0.0733 -0.2806
    7TCq1    C3  103   2.932   4.576  13.603  0.0958  0.6929  0.4232
    7TCq1    C4  104   3.009   4.546  13.497 -0.6860 -0.6522  0.3972
    7TCq1    C5  105   3.016   4.428  13.437 -0.4611 -0.6170 -0.0823
    7TCq1    C6  106   2.932   4.330  13.487  0.1374  0.4001  0.4535
    7TCq1    C7  107   2.852   4.351  13.594 -0.2440 -0.4946  0.4146
    7TCq1    C8  108   2.911   4.207  13.404 -0.3686 -0.9652 -0.0798
    7TCq1    O4  109   2.810   4.142  13.434 -0.6600  0.1591 -0.2423
    7TCq1    C9  110   3.096   4.652  13.447 -0.3442 -0.5661  0.0520
    7TCq1    O5  111   3.115   4.649  13.323  0.1830  0.5399 -0.3618
    7TCq1    O6  112   3.126   0.004  13.528 -0.1042 -0.6975  0.6087
    7TCq1    H1  113   2.800   4.366  13.826  0.7040  0.0170 -0.6839
    7TCq1    H2  114   2.922   4.675  13.645 -0.1096  1.6964 -1.9640
    7TCq1    H3  115   3.070   4.422  13.342 -1.6498 -1.1593 -0.7303
    7TCq1    H4  116   2.774   4.281  13.621  0.1246 -0.6132  1.1788
    8MPD2     C  117   3.063   3.879  13.066 -0.2813 -0.0064  0.0995
    8MPD2    C1  118   2.947   3.875  13.142  0.5988  0.7288 -0.6483
    8MPD2    C2  119   2.930   3.984  13.220  0.1520 -0.3649 -0.1291
    8MPD2    C3  120   3.027   4.075  13.234 -0.3861 -0.0859 -0.2147
    8MPD2    C4  121   3.142   4.076  13.164 -0.4982 -0.1741 -0.2065
    8MPD2    C5  122   3.153   3.983  13.067 -0.6050 -0.2160 -0.3084
    8MPD2     H  123   2.837   3.990  13.277  0.0412 -0.9242 -0.2573
    8MPD2    H1  124   3.214   4.156  13.176  0.2977 -0.9800  0.3016
    8MPD2    H2  125   3.080   3.802  12.993 -0.1150 -1.3568  1.5604
    8MPD2    H3  126   3.242   3.982  13.005  0.0377  0.5452  0.6128
    8MPD2     N  127   3.016   4.186  13.323 -0.6750 -0.1681 -0.4010
    8MPD2    H5  128   3.096   4.248  13.326 -0.6479 -0.3144  1.8654
    8MPD2    N1  129   2.853   3.771  13.135  0.1266  0.3833 -0.5601
    8MPD2    H7  130   2.792   3.764  13.216  1.0900 -2.6620 -0.1091
    9TMC1    C1  131   0.323   3.351  12.189 -0.1850  0.9470  0.3773
    9TMC1    C2  132   0.435   3.430  12.166 -1.0459 -0.2789 -0.2014
    9TMC1    C3  133   0.414   3.561  12.201 -0.1234  0.4769  0.6107
    9TMC1    C4  134   0.198   3.402  12.226  0.0587  0.0143 -0.3628
    9TMC1    C5  135   0.186   3.534  12.234  0.4888 -0.0396 -0.2360
    9TMC1    C6  136   0.291   3.615  12.215  0.0555 -0.1648  0.0175
    9TMC1     C  137   0.341   3.206  12.162  0.1912 -0.3099  0.2707
    9TMC1     O  138   0.445   3.186  12.098 -0.0917  0.0193 -0.0159
    9TMC1     H  139   0.528   3.376  12.152 -0.3970  0.4988  1.2078
    9TMC1    H1  140   0.106   3.345  12.232  0.7532 -1.2399 -1.6657
    9TMC1    H2  141   0.298   3.723  12.229  0.6039 -0.5742  2.8220
    9TMC1    C7  142   0.076   3.581  12.312  0.2551 -0.3635  1.0036
    9TMC1    C8  143   0.517   3.654  12.161  0.4393  0.2871  0.1369
    9TMC1    O1  144   4.706   3.539  12.284  0.3955 -0.3663  0.0457
    9TMC1    O2  145   0.507   3.775  12.152 -0.4960  0.4691  0.3504
    9TMC1    O3  146   0.094   3.691  12.385 -0.4582  0.1175 -0.2114
    9TMC1    H3  147   0.187   3.707  12.411 -0.8404  1.1152  0.5870
    9TMC1    O5  148   0.635   3.591  12.152  0.8608 -0.2533  0.1203
    9TMC1    H5  149   0.635   3.510  12.207  1.0475  1.3441  2.4671
   10MPD2     C  150   0.362   2.924  12.200  0.2978  0.0908 -0.0278
   10MPD2    C1  151   0.275   2.997  12.266  0.3357 -0.5092  0.0529
   10MPD2    C2  152   0.194   2.933  12.364 -0.7558 -0.3577  0.1272
   10MPD2    C3  153   0.228   2.797  12.404 -0.5175 -0.3094  0.5416
   10MPD2    C4  154   0.320   2.735  12.331 -0.5469  0.3140 -0.4775
   10MPD2    C5  155   0.394   2.792  12.239 -0.1350  0.6818  0.2577
   10MPD2     H  156   0.112   2.981  12.417  0.1519 -1.5025  2.5419
   10MPD2    H1  157   0.336   2.631  12.355  0.4090  0.2537 -1.3452
   10MPD2    H2  158   0.429   2.967  12.126  0.2018  0.3967  0.0608
   10MPD2    H3  159   0.470   2.742  12.180 -0.8202 -2.1029  1.7415
   10MPD2     N  160   0.170   2.727  12.518  0.2539 -0.1024  0.1457
   10MPD2    H5  161   0.208   2.637  12.544  3.0244  1.3510  1.2805
   10MPD2    N1  162   0.258   3.130  12.240 -0.0143  0.1550  0.6286
   10MPD2    H7  163   0.182   3.179  12.286  0.7061  1.4921  0.3921
   11TCq1    O1  164   0.811   3.627  14.498 -0.0694 -0.6261 -0.4447
   11TCq1    C1  165   0.711   3.583  14.417 -0.1314  0.4096  0.1592
   11TCq1    O2  166   0.631   3.654  14.354  0.2129 -0.5459 -0.0509
   11TCq1    C2  167   0.705   3.439  14.431 -0.6361  0.0816 -0.3925
   11TCq1    C3  168   0.819   3.360  14.437  0.8204 -0.0233 -0.2868
   11TCq1    C4  169   0.815   3.218  14.409  0.1024  0.0428 -0.1412
   11TCq1    C5  170   0.699   3.155  14.379 -0.1467 -0.8030 -0.3480
   11TCq1    C6  171   0.591   3.237  14.358 -0.6452 -0.2676  0.3496
   11TCq1    C7  172   0.598   3.375  14.370 -0.5093 -0.4336  0.3535
   11TCq1    C8  173   0.468   3.184  14.304 -0.5992  0.1570 -0.3380
   11TCq1    O4  174   0.372   3.261  14.316 -0.1828 -0.4078 -0.3410
   11TCq1    C9  175   0.933   3.140  14.391 -0.2153 -0.3730 -0.2653
   11TCq1    O5  176   1.041   3.195  14.435 -0.3810 -0.3442  0.2304
   11TCq1    O6  177   0.923   3.044  14.314 -0.9559 -0.4377  0.7175
   11TCq1    H1  178   0.850   3.558  14.556  1.0373 -1.0194 -1.6589
   11TCq1    H2  179   0.916   3.395  14.469 -0.1280  2.5837 -0.2923
   11TCq1    H3  180   0.697   3.050  14.352 -0.2408 -1.1834  1.1007
   11TCq1    H4  181   0.512   3.441  14.367 -2.6834 -3.2726 -1.3046
   12MPD2     C  182   0.234   3.051  14.189 -0.7220  0.5979  0.3067
   12MPD2    C1  183   0.362   3.003  14.180  0.0897  0.4028 -0.2256
   12MPD2    C2  184   0.388   2.890  14.114  0.4168  0.1056  0.4295
   12MPD2    C3  185   0.296   2.810  14.059  1.2459  0.8795 -0.6188
   12MPD2    C4  186   0.169   2.866  14.051  0.7385  0.1034  0.3079
   12MPD2    C5  187   0.139   2.981  14.122  0.6123 -0.6387  0.4283
   12MPD2     H  188   0.493   2.863  14.108  0.1749 -0.7206 -0.1401
   12MPD2    H1  189   0.100   2.803  13.998 -0.3797  0.7078  1.0437
   12MPD2    H2  190   0.195   3.137  14.242  2.9486  1.1374  2.1204
   12MPD2    H3  191   0.036   3.014  14.130  0.6027 -0.8759  1.3357
   12MPD2     N  192   0.326   2.683  14.007 -0.4087  0.1257  0.4799
   12MPD2    H5  193   0.262   2.640  13.941  0.8635 -0.6287 -0.2728
   12MPD2    N1  194   0.476   3.065  14.234 -0.5965 -0.2010  0.5298
   12MPD2    H7  195   0.566   3.019  14.225 -0.4522 -0.0149  1.0034
   13TCq1    O1  196   0.804   3.921  12.439 -0.5627 -0.6352  0.5531
   13TCq1    C1  197   0.742   3.836  12.521 -0.5566 -0.6726 -0.7129
   13TCq1    O2  198   0.619   3.823  12.540  0.1934  0.0267  0.1750
   13TCq1    C2  199   0.814   3.716  12.507  0.2797  0.8421 -0.3545
   13TCq1    C3  200   0.940   3.710  12.556 -0.3725  0.1362  0.2448
   13TCq1    C4  201   1.005   3.597  12.551 -0.3121  0.1791  0.2828
   13TCq1    C5  202   0.956   3.484  12.503  0.2462  0.7853  0.1130
   13TCq1    C6  203   0.833   3.492  12.458 -0.2595 -0.7168  0.5835
   13TCq1    C7  204   0.752   3.608  12.469  1.1301  0.4785  0.2603
   13TCq1    C8  205   0.789   3.392  12.360  0.1909 -0.1809  0.2098
   13TCq1    O4  206   0.674   3.401  12.317  0.3156 -0.1734 -0.1801
   13TCq1    C9  207   1.141   3.588  12.595  0.2050  0.5659 -0.2268
   13TCq1    O5  208   1.217   3.502  12.542  0.0613  0.1066  0.0006
   13TCq1    O6  209   1.171   3.681  12.676  0.3026  0.1304  1.1321
   13TCq1    H1  210   0.890   3.886  12.409  0.5517  0.4024  2.5095
   13TCq1    H2  211   0.990   3.798  12.594  0.4365 -0.5779  0.8102
   13TCq1    H3  212   1.012   3.391  12.506 -1.0348 -0.0709 -2.3740
   13TCq1    H4  213   0.652   3.607  12.426  1.3468 -0.9311 -0.2077
   14MPD2     C  214   1.025   3.183  12.173 -0.6376  0.0512 -0.1213
   14MPD2    C1  215   0.903   3.232  12.212  0.2304  0.3377  0.2459
   14MPD2    C2  216   0.785   3.180  12.159  0.8264 -0.8076 -0.3013
   14MPD2    C3  217   0.791   3.103  12.045 -0.3504  0.1394  0.1979
   14MPD2    C4  218   0.917   3.074  11.996  0.2212 -1.0138 -0.0353
   14MPD2    C5  219   1.027   3.102  12.068 -0.0900 -0.0917  0.1595
   14MPD2     H  220   0.690   3.223  12.185  1.1070 -0.0926 -0.4661
   14MPD2    H1  221   0.936   3.023  11.902  1.0627 -1.8869  0.6136
   14MPD2    H2  222   1.117   3.209  12.224 -2.6023  1.4790  2.6987
   14MPD2    H3  223   1.120   3.059  12.032  0.5915 -0.5388  2.4670
   14MPD2     N  224   0.677   3.075  11.966 -0.3402 -0.1085  0.2485
   14MPD2    H5  225   0.588   3.117  11.992 -0.2287  0.6346 -0.5841
   14MPD2    N1  226   0.898   3.326  12.309  0.1672 -0.2754 -0.2450
   14MPD2    H7  227   0.990   3.362  12.332 -0.6235  0.5553  1.6804
   15TCq1    O1  228   2.236   1.905   0.943 -0.2991 -0.1436 -0.1365
   15TCq1    C1  229   2.281   1.791   0.896  0.7493 -0.1239  0.6871
   15TCq1    O2  230   2.268   1.751   0.783  0.0425 -0.2760 -0.4921
   15TCq1    C2  231   2.273   1.685   1.000  0.2425  0.2765 -0.7936
   15TCq1    C3  232   2.237   1.721   1.127  1.0495  0.3965  1.0892
   15TCq1    C4  233   2.252   1.628   1.226  0.0885  0.3024  0.2833
   15TCq1    C5  234   2.282   1.499   1.200  0.5635  0.0856  1.3991
   15TCq1    C6  235   2.309   1.463   1.073  0.2270 -0.1432 -0.2070
   15TCq1    C7  236   2.305   1.557   0.975  0.4525  0.0502  0.3808
   15TCq1    C8  237   2.342   1.319   1.053  0.0530 -0.5740 -0.6730
   15TCq1    O4  238   2.350   1.242   1.147 -0.3288  0.2502 -0.3196
   15TCq1    C9  239   2.201   1.655   1.363  0.1246 -0.0803  0.4601
   15TCq1    O5  240   2.182   1.774   1.399  0.5368  0.1611  0.7946
   15TCq1    O6  241   2.186   1.555   1.439 -0.3411  0.5259  0.2391
   15TCq1    H1  242   2.261   1.924   1.036 -1.1761  0.5148 -0.0322
   15TCq1    H2  243   2.183   1.812   1.151  2.7518  1.8059 -0.4374
   15TCq1    H3  244   2.295   1.420   1.273  2.0266 -1.5019 -0.5667
   15TCq1    H4  245   2.328   1.534   0.872 -1.0186 -0.7283  0.2210
   16MPD2     C  246   2.358   1.146   0.738 -0.1519  0.4534 -0.1737
   16MPD2    C1  247   2.388   1.167   0.873  0.1567 -0.0216  0.0357
   16MPD2    C2  248   2.437   1.061   0.945  0.7303  0.0842 -0.0766
   16MPD2    C3  249   2.452   0.937   0.886 -0.6866  0.0265  0.5125
   16MPD2    C4  250   2.409   0.918   0.759 -0.3640  0.2595 -0.0790
   16MPD2    C5  251   2.364   1.023   0.683 -0.2543  0.1683  0.5115
   16MPD2     H  252   2.464   1.063   1.050  0.6131 -1.7563 -0.0015
   16MPD2    H1  253   2.429   0.826   0.705  2.6769  0.4298  0.7953
   16MPD2    H2  254   2.321   1.225   0.674 -0.4515 -1.6155 -2.5768
   16MPD2    H3  255   2.335   1.001   0.581 -0.6685  2.0684  0.2201
   16MPD2     N  256   2.511   0.834   0.959 -0.3922 -0.0386 -0.6405
   16MPD2    H5  257   2.543   0.853   1.053 -0.7348 -0.0144 -0.5277
   16MPD2    N1  258   2.351   1.290   0.918  0.0757 -0.5066  0.1919
   16MPD2    H7  259   2.320   1.365   0.857  1.9474 -0.6390 -0.9371
   17TMC1    C1  260   4.739   1.905  11.050 -0.4925 -0.5958 -0.7801
   17TMC1    C2  261   0.042   1.951  10.930  0.4094  0.3405  0.3651
   17TMC1    C3  262   4.714   1.912  10.816 -0.9156 -0.2274 -0.4471
   17TMC1    C4  263   4.637   1.823  11.060  0.4644 -0.4269  0.1993
   17TMC1    C5  264   4.562   1.802  10.947  0.6612  0.4154  0.1535
   17TMC1    C6  265   4.602   1.839  10.822 -0.3693  0.5250  0.0921
   17TMC1     C  266   0.046   1.957  11.177  0.5547 -0.1058  0.2921
   17TMC1     O  267   4.723   1.932  11.275  0.6365 -0.2965 -0.2638
   17TMC1     H  268   0.125   2.021  10.925  0.0432  0.4960 -3.8420
   17TMC1    H1  269   4.597   1.784  11.153 -1.1050  0.4600 -0.1099
   17TMC1    H2  270   4.545   1.799  10.739 -1.0241  2.1610 -0.2472
   17TMC1    C7  271   4.443   1.719  10.958  0.2697  0.5687 -0.6415
   17TMC1    C8  272   0.059   1.896  10.702 -0.0995  0.2710 -0.1520
   17TMC1    O1  273   4.435   1.611  11.013  0.1088 -0.3916  0.4256
   17TMC1    O2  274   0.016   1.844  10.601 -0.1468 -0.5165  0.8089
   17TMC1    O3  275   4.357   1.827  10.986  0.5892  0.2199 -0.2455
   17TMC1    H3  276   4.380   1.893  10.917  1.0699 -1.8702 -2.0891
   17TMC1    O5  277   0.172   1.851  10.765 -0.0469  0.4959 -0.5290
   17TMC1    H5  278   0.213   1.919  10.823  1.0836 -2.2687  1.8921
   18MPD2     C  279   0.173   2.091  11.414  0.3465 -0.5885 -0.1680
   18MPD2    C1  280   0.225   2.076  11.288  1.0394 -0.7594  0.3799
   18MPD2    C2  281   0.347   2.136  11.255  0.9041  0.5478  0.1883
   18MPD2    C3  282   0.417   2.212  11.345  0.3657  0.6395  0.2427
   18MPD2    C4  283   0.367   2.224  11.473 -0.4039 -0.1225  0.2315
   18MPD2    C5  284   0.244   2.163  11.504  0.0656 -0.3026 -0.9811
   18MPD2     H  285   0.387   2.119  11.156  0.3427  0.4554 -0.0238
   18MPD2    H1  286   0.430   2.267  11.550  1.8850 -1.6306 -0.8023
   18MPD2    H2  287   0.079   2.051  11.447  0.5242 -0.4049  0.5569
   18MPD2    H3  288   0.221   2.157  11.609 -2.4732  2.4108 -1.3921
   18MPD2     N  289   0.549   2.256  11.321  0.1781 -0.5663 -0.0715
   18MPD2    H5  290   0.608   2.283  11.399  0.5136  0.1885 -0.5879
   18MPD2    N1  291   0.167   2.021  11.172 -0.1079  0.6049  0.2397
   18MPD2    H7  292   0.228   2.010  11.091 -2.6367 -0.5997 -1.5088
   19TMC2    C1  293   2.085   2.674  14.278  0.1237  1.0836 -0.4636
   19TMC2    C2  294   2.091   2.723  14.406  0.8369  1.1846 -0.6969
   19TMC2    C3  295   1.974   2.778  14.455 -0.3594 -0.4225 -0.3127
   19TMC2    C4  296   1.965   2.651  14.215  0.7673 -0.1818 -0.0635
   19TMC2    C5  297   1.855   2.688  14.285  0.1702  0.1951  0.1294
   19TMC2    C6  298   1.852   2.758  14.398  0.4542 -0.1444 -0.4249
   19TMC2     C  299   2.198   2.629  14.205  0.0105  0.6352  0.2621
   19TMC2     O  300   2.192   2.606  14.084  0.0480 -0.7051  0.3581
   19TMC2     H  301   2.183   2.754  14.456  0.3648  1.6375 -0.1129
   19TMC2    H1  302   1.968   2.589  14.126 -1.4828 -1.8850  1.0573
   19TMC2    H2  303   1.761   2.796  14.443  1.7965  2.3030  0.2212
   19TMC2    C7  304   1.740   2.615  14.253  0.1464  0.0208 -0.3122
   19TMC2    C8  305   1.981   2.876  14.560  0.9839  0.0852  0.4861
   19TMC2    O1  306   1.766   2.525  14.172  0.2381 -0.1640 -0.8180
   19TMC2    O2  307   2.076   2.871  14.640  0.2206 -0.3447 -0.2205
   19TMC2    O5  308   1.906   2.985  14.533  0.0031 -0.4309 -0.0437
   19TMC2    H5  309   1.848   2.978  14.454  0.9840 -0.0585 -0.8118
   20MPD2     C  310   2.438   2.486  14.132  0.1299 -0.5579 -0.2177
   20MPD2    C1  311   2.418   2.534  14.256  0.0047  0.6618  0.9471
   20MPD2    C2  312   2.512   2.515  14.355  0.2406  0.5660 -0.1878
   20MPD2    C3  313   2.629   2.445  14.324  0.2758 -0.2312  0.4420
   20MPD2    C4  314   2.640   2.388  14.201  0.2146  0.2186  0.1091
   20MPD2    C5  315   2.543   2.408  14.106 -0.6111  0.1266  0.6025
   20MPD2     H  316   2.494   2.539  14.459 -2.2812 -2.1990 -0.0053
   20MPD2    H1  317   2.728   2.330  14.172 -1.1284 -1.8232  0.0874
   20MPD2    H2  318   2.372   2.500  14.047 -1.6183 -0.7318  1.1049
   20MPD2    H3  319   2.556   2.363  14.008  0.5233  0.0123  0.7966
   20MPD2     N  320   2.735   2.439  14.413 -0.9353 -0.0273 -0.2029
   20MPD2    H5  321   2.801   2.363  14.396 -1.4670 -0.2621 -1.2528
   20MPD2    N1  322   2.300   2.607  14.292 -0.2867 -0.2695  0.5905
   20MPD2    H7  323   2.297   2.648  14.385  0.3429  0.4398  0.3065
   21TMC2    C1  324   4.388   2.687  14.076  0.7123  0.5135 -0.1769
   21TMC2    C2  325   4.425   2.562  14.074  0.1596 -1.1544  0.6707
   21TMC2    C3  326   4.377   2.487  14.178 -1.0907 -0.0722  0.9093
   21TMC2    C4  327   4.284   2.738  14.144  0.5667  0.0619 -0.4776
   21TMC2    C5  328   4.240   2.668  14.256  0.2816  0.2403 -0.3851
   21TMC2    C6  329   4.288   2.537  14.274  0.1446  0.0166  0.3573
   21TMC2     C  330   4.508   2.763  14.093 -0.2967 -0.2129  0.7543
   21TMC2     O  331   4.615   2.702  14.104  0.0139 -0.0571 -0.4254
   21TMC2     H  332   4.490   2.523  13.997  0.4848 -0.0992  0.4141
   21TMC2    H1  333   4.245   2.839  14.130 -0.0661 -0.3781 -1.8781
   21TMC2    H2  334   4.269   2.481  14.365 -1.8883  0.8204  0.4338
   21TMC2    C7  335   4.238   2.755  14.376 -0.7332 -0.4925  0.4857
   21TMC2    C8  336   4.437   2.355  14.196  0.0068 -0.2051  0.5190
   21TMC2    O1  337   4.279   2.711  14.483  0.5351 -0.4119 -0.4539
   21TMC2    O2  338   4.448   2.274  14.105  0.1586  0.2840 -0.2198
   21TMC2    O5  339   4.541   2.382  14.277 -0.1566  0.0094  0.1238
   21TMC2    H5  340   4.531   2.461  14.334  0.9189 -0.0283  0.3684
   22MPD2     C  341   4.629   3.051  14.491 -0.0290 -0.4752  0.4139
   22MPD2    C1  342   4.647   2.917  14.462  0.7353  0.0661  0.6695
   22MPD2    C2  343   4.602   2.863  14.344 -0.9975 -0.3988  0.4155
   22MPD2    C3  344   4.538   2.941  14.250 -0.0586 -0.6086 -0.1911
   22MPD2    C4  345   4.519   3.077  14.283 -0.1140  0.4322 -0.2276
   22MPD2    C5  346   4.560   3.123  14.398 -0.2667 -0.3040  0.7792
   22MPD2     H  347   4.632   2.759  14.335 -1.7296 -0.6275  0.6176
   22MPD2    H1  348   4.444   3.135  14.231  1.3106  1.6479 -0.9062
   22MPD2    H2  349   4.672   3.098  14.579  0.4424 -0.2371  0.0585
   22MPD2    H3  350   4.522   3.217  14.437  3.0418  0.1576  2.8851
   22MPD2     N  351   4.481   2.889  14.130 -0.0360  0.0846  0.0170
   22MPD2    H5  352   4.400   2.931  14.086 -0.0455 -0.4229 -0.4648
   22MPD2    N1  353   4.718   2.830  14.543  0.0622  0.0245 -0.3423
   22MPD2    H7  354   4.722   2.732  14.515 -2.0390  0.2302 -1.3036
   23TMC2    C1  355   0.858   3.903  14.916 -0.1616  0.0893  0.3401
   23TMC2    C2  356   0.884   4.005  14.823  0.2163 -0.3688  0.4544
   23TMC2    C3  357   0.814   4.008  14.714  0.1272  0.2208 -0.4212
   23TMC2    C4  358   0.760   3.808  14.901 -0.2159  0.2762  0.4986
   23TMC2    C5  359   0.686   3.821  14.788  0.5196  0.9626 -0.1826
   23TMC2    C6  360   0.713   3.919  14.691  0.2475  0.0045  0.6256
   23TMC2     C  361   0.974   3.864  15.001  0.7317  0.5552  0.7974
   23TMC2     O  362   0.941   3.773  15.077 -0.0131 -0.0871 -0.6886
   23TMC2     H  363   0.944   4.092  14.846  0.0575 -0.4116  1.0260
   23TMC2    H1  364   0.757   3.721  14.967  0.7687 -0.9542 -1.0852
   23TMC2    H2  365   0.650   3.932  14.603 -1.4582 -1.9869  1.5378
   23TMC2    C7  366   0.581   3.718  14.772  0.2681 -0.0122  0.1141
   23TMC2    C8  367   0.821   4.115  14.622 -0.1040 -0.0961 -0.3352
   23TMC2    O1  368   0.584   3.618  14.843  0.0606  0.1826  0.0745
   23TMC2    O2  369   0.721   4.152  14.554 -0.0053  0.0608 -0.4456
   23TMC2    O5  370   0.945   4.176  14.625 -0.2944 -0.5206  0.1977
   23TMC2    H5  371   1.015   4.126  14.673  1.5379  0.9160 -0.9630
   24MPD2     C  372   1.451   3.687  15.022  0.5538 -0.5495 -0.0066
   24MPD2    C1  373   1.350   3.676  15.109 -0.4410 -0.4456 -0.3982
   24MPD2    C2  374   1.234   3.748  15.090 -0.4126  0.3594  0.6948
   24MPD2    C3  375   1.216   3.828  14.975 -0.2166  0.7492  0.2481
   24MPD2    C4  376   1.317   3.828  14.884 -0.3334  0.0970  0.5820
   24MPD2    C5  377   1.432   3.754  14.909 -0.6620 -0.1776 -0.0283
   24MPD2     H  378   1.159   3.737  15.167 -0.3749  1.1386  0.8433
   24MPD2    H1  379   1.299   3.867  14.784 -3.2716 -1.5872  0.4282
   24MPD2    H2  380   1.547   3.638  15.038 -0.0722 -1.1495  1.9660
   24MPD2    H3  381   1.508   3.759  14.832 -0.1409  0.8411  0.5509
   24MPD2     N  382   1.098   3.886  14.935 -0.0285  0.0148 -0.2112
   24MPD2    H5  383   1.100   3.943  14.851  1.1373  1.3916  0.7554
   24MPD2    N1  384   1.347   3.598  15.222 -0.0111  0.3972  0.4224
   24MPD2    H7  385   1.284   3.617  15.299  1.9506  1.0832  1.8662
   25TMC2    C1  386   0.433   1.585  11.912  0.5192 -1.0092 -0.3138
   25TMC2    C2  387   0.515   1.684  11.878 -0.5037  0.2885  0.0791
   25TMC2    C3  388   0.506   1.803  11.944  0.5956  0.0115  0.2836
   25TMC2    C4  389   0.341   1.601  12.006  0.0009  1.1440 -0.6624
   25TMC2    C5  390   0.324   1.720  12.072 -0.5397  0.0336 -0.0972
   25TMC2    C6  391   0.406   1.828  12.034  0.1542  0.0790 -0.3177
   25TMC2     C  392   0.454   1.459  11.852 -0.3422 -0.0935  1.2076
   25TMC2     O  393   0.563   1.437  11.804 -0.0582  0.0923  0.0559
   25TMC2     H  394   0.596   1.671  11.807 -0.1350  0.8236  0.4058
   25TMC2    H1  395   0.289   1.508  12.024  0.6413  1.3145  2.1322
   25TMC2    H2  396   0.384   1.929  12.068  0.9289  0.9622 -2.4401
   25TMC2    C7  397   0.193   1.758  12.113  0.1629 -0.0218 -0.1546
   25TMC2    C8  398   0.579   1.909  11.881 -0.5719 -0.3091  0.2936
   25TMC2    O1  399   0.159   1.878  12.120  0.3516  0.5896  0.7854
   25TMC2    O2  400   0.623   1.894  11.768 -0.3635 -0.1040 -0.1584
   25TMC2    O5  401   0.590   2.018  11.962 -0.5909  0.2012  0.2439
   25TMC2    H5  402   0.570   2.007  12.058  0.8564 -1.1749  0.3984
   26MPD2     C  403   0.329   1.076  11.546  0.1594  0.4486  0.1713
   26MPD2    C1  404   0.211   1.134  11.591 -0.5265 -0.2200  0.0860
   26MPD2    C2  405   0.222   1.230  11.691 -0.2993  0.3149 -0.0942
   26MPD2    C3  406   0.343   1.288  11.733 -0.4913  0.2847 -0.0143
   26MPD2    C4  407   0.454   1.241  11.663 -0.2730  0.2409  0.1385
   26MPD2    C5  408   0.450   1.132  11.576  0.0179  0.4445 -0.0772
   26MPD2     H  409   0.130   1.270  11.731 -0.9978 -0.8223 -0.5640
   26MPD2    H1  410   0.554   1.275  11.684  0.3826 -2.2128  0.9519
   26MPD2    H2  411   0.338   1.004  11.465 -1.1752  0.8646 -0.3453
   26MPD2    H3  412   0.538   1.094  11.526  0.8227  2.3914 -0.1401
   26MPD2     N  413   0.339   1.394  11.829 -0.1217 -0.3551 -0.1235
   26MPD2    H5  414   0.248   1.436  11.847  0.9379  2.1252 -0.6647
   26MPD2    N1  415   0.097   1.072  11.544  0.1208 -0.1073  0.3322
   26MPD2    H7  416   0.112   1.008  11.467 -0.4837  2.4049 -1.8847
   27TMC2    C1  417   3.867   3.531  12.148 -0.8167  0.5320  0.0558
   27TMC2    C2  418   3.971   3.609  12.101 -0.1466  0.7454  0.5807
   27TMC2    C3  419   4.069   3.651  12.189  0.1597 -0.2406  0.0164
   27TMC2    C4  420   3.852   3.515  12.279 -0.4444 -0.4694  0.6869
   27TMC2    C5  421   3.943   3.572  12.365  0.5213 -0.4823 -0.1387
   27TMC2    C6  422   4.059   3.627  12.321  0.1947  0.4455  0.2415
   27TMC2     C  423   3.758   3.504  12.060 -0.3940 -0.0244  0.2940
   27TMC2     O  424   3.770   3.514  11.940 -0.1777  0.1614 -0.0508
   27TMC2     H  425   3.977   3.640  11.997  2.0644 -1.7632 -0.0596
   27TMC2    H1  426   3.772   3.455  12.323  0.2566  0.3439  3.0840
   27TMC2    H2  427   4.137   3.655  12.391  0.6429  2.3812 -1.0396
   27TMC2    C7  428   3.912   3.571  12.502 -0.0041  0.0155  0.1424
   27TMC2    C8  429   4.202   3.674  12.146 -0.3264  0.4252 -0.1031
   27TMC2    O1  430   3.826   3.494  12.542  0.4379 -0.2149  0.2716
   27TMC2    O2  431   4.229   3.735  12.041  0.5151  0.4942  0.1185
   27TMC2    O5  432   4.291   3.599  12.219 -0.5872  0.5045 -0.6187
   27TMC2    H5  433   4.252   3.552  12.296  0.8038  0.1943 -0.0966
   28MPD2     C  434   3.263   3.400  11.981 -0.1175 -0.4071 -0.4153
   28MPD2    C1  435   3.275   3.457  12.111  0.7381  0.2365 -0.0999
   28MPD2    C2  436   3.404   3.488  12.154  0.2189 -0.1598 -0.9289
   28MPD2    C3  437   3.513   3.469  12.078 -0.4233 -0.4776  0.3062
   28MPD2    C4  438   3.500   3.421  11.948  0.5686  0.5978  0.0001
   28MPD2    C5  439   3.376   3.385  11.902 -0.2038  0.5832 -0.0000
   28MPD2     H  440   3.428   3.536  12.249  0.3768  1.5629 -1.8372
   28MPD2    H1  441   3.582   3.412  11.878  0.6367 -1.2458  0.3244
   28MPD2    H2  442   3.167   3.365  11.945 -0.9209  1.2280  0.1316
   28MPD2    H3  443   3.365   3.339  11.804  1.6608  1.0037 -0.3940
   28MPD2     N  444   3.636   3.498  12.132  0.3644  0.5891 -0.0713
   28MPD2    H5  445   3.638   3.536  12.226 -2.1152 -0.4056  0.3507
   28MPD2    N1  446   3.157   3.483  12.189  0.0444  0.0645  0.3685
   28MPD2    H7  447   3.069   3.478  12.139 -0.1105 -2.7959  0.9470
   29TMC2    C1  448   3.128   1.212  14.571  0.0198  0.7596 -0.4428
   29TMC2    C2  449   3.085   1.183  14.698 -0.4116  0.1982 -0.1241
   29TMC2    C3  450   3.096   1.281  14.794 -0.7306 -0.3933  0.0972
   29TMC2    C4  451   3.176   1.340  14.537 -0.7444  0.4889 -0.4981
   29TMC2    C5  452   3.187   1.431  14.638 -0.2701  0.3276 -0.1228
   29TMC2    C6  453   3.148   1.403  14.767  0.7355  0.2272  0.2783
   29TMC2     C  454   3.165   1.104  14.481  0.2180  0.2849  0.6567
   29TMC2     O  455   3.166   0.997  14.538 -0.4975 -0.2388 -0.0355
   29TMC2     H  456   3.062   1.082  14.730 -1.4343 -0.1271 -1.8669
   29TMC2    H1  457   3.216   1.345  14.437 -1.4263 -0.4033 -0.8142
   29TMC2    H2  458   3.139   1.481  14.842 -1.2134  1.6618 -1.4539
   29TMC2    C7  459   3.218   1.566  14.606  0.1046  0.2732  0.7407
   29TMC2    C8  460   3.076   1.253  14.935 -0.8563 -0.3024 -0.0205
   29TMC2    O1  461   3.201   1.605  14.492  0.0634  0.3807 -0.3703
   29TMC2    O2  462   3.161   1.294  15.018 -0.1618 -0.0382  0.8407
   29TMC2    O5  463   3.005   1.140  14.942  0.0853 -0.0035 -0.0941
   29TMC2    H5  464   2.932   1.149  14.877 -2.7422 -1.2932  2.9440
   30MPD2     C  465   3.347   0.882  14.061 -0.2913 -0.4312 -0.3343
   30MPD2    C1  466   3.333   0.830  14.191  0.7536  0.2804 -0.2319
   30MPD2    C2  467   3.295   0.912  14.292  0.8152  0.3730  0.5816
   30MPD2    C3  468   3.239   1.040  14.260 -0.1801 -0.1388 -0.1024
   30MPD2    C4  469   3.245   1.079  14.131  0.0810 -0.0313  0.2144
   30MPD2    C5  470   3.306   1.005  14.038 -0.9036 -0.0741  0.1634
   30MPD2     H  471   3.296   0.875  14.394  0.2533 -1.4638 -0.0754
   30MPD2    H1  472   3.209   1.178  14.109  1.8292  0.4927 -0.2846
   30MPD2    H2  473   3.381   0.839  13.968  0.0422  0.4783 -0.6307
   30MPD2    H3  474   3.312   1.039  13.935 -1.3592  1.4458  0.6489
   30MPD2     N  475   3.190   1.132  14.349  0.4409 -0.1333 -0.0231
   30MPD2    H5  476   3.177   1.224  14.309  0.8474  0.0530  0.2677
   30MPD2    N1  477   3.382   0.699  14.232 -0.2219  0.1987 -0.3264
   30MPD2    H7  478   3.371   0.674  14.330 -0.5406 -2.9747 -1.1651
   31TMC2    C1  479   0.708   4.245  15.872  0.4017  0.2278 -0.4597
   31TMC2    C2  480   0.578   4.286  15.923 -0.3073 -0.1013 -0.3318
   31TMC2    C3  481   0.570   4.295  16.060  0.2130  0.3657  0.1386
   31TMC2    C4  482   0.801   4.199  15.955  0.0237  0.7308  0.7517
   31TMC2    C5  483   0.778   4.202  16.092 -0.0360  0.3329  0.1228
   31TMC2    C6  484   0.665   4.255  16.147 -0.1260  0.4147 -0.2580
   31TMC2     C  485   0.747   4.274  15.738  0.3017  0.0651 -0.3775
   31TMC2     O  486   0.676   4.336  15.667  0.5621  0.0791 -0.5480
   31TMC2     H  487   0.505   4.323  15.852 -1.1513 -1.7847 -0.3538
   31TMC2    H1  488   0.874   4.127  15.921 -0.1357  0.3374  1.2344
   31TMC2    H2  489   0.641   4.260  16.252 -2.5122  0.2426 -0.8001
   31TMC2    C7  490   0.894   4.171  16.176 -0.5110  0.4817 -0.1634
   31TMC2    C8  491   0.441   4.309  16.118 -0.2461 -0.5229  0.3413
   31TMC2    O1  492   0.980   4.091  16.139  0.0771 -0.1731 -0.0540
   31TMC2    O2  493   0.409   4.228  16.205 -0.4670  0.1496  0.6881
   31TMC2    O5  494   0.369   4.402  16.056 -0.4489 -0.3242  0.0317
   31TMC2    H5  495   0.425   4.471  16.014  0.4503 -0.3271  1.2330
   32MPD2     C  496   1.139   4.369  15.413 -0.1472  0.1820 -0.0407
   32MPD2    C1  497   1.015   4.411  15.404  0.5532 -0.7833 -0.1395
   32MPD2    C2  498   0.931   4.374  15.506  0.7261 -0.3059  0.1949
   32MPD2    C3  499   0.965   4.293  15.611  0.9299  0.1645  0.6201
   32MPD2    C4  500   1.099   4.252  15.619  0.8775 -0.0896  0.7753
   32MPD2    C5  501   1.177   4.287  15.513 -0.2610 -0.4152 -0.3583
   32MPD2     H  502   0.829   4.410  15.499  0.2665 -1.7765 -0.5770
   32MPD2    H1  503   1.148   4.194  15.696 -0.7078  0.0255  1.8592
   32MPD2    H2  504   1.206   4.398  15.333  0.5956 -0.1578  0.4564
   32MPD2    H3  505   1.279   4.254  15.527 -0.5662 -0.8591  0.7868
   32MPD2     N  506   0.884   4.261  15.722 -0.8138  0.5745 -0.5449
   32MPD2    H5  507   0.922   4.198  15.793  0.3325 -1.2282 -2.7725
   32MPD2    N1  508   0.980   4.503  15.297 -0.1708 -0.0753  0.0762
   32MPD2    H7  509   1.061   4.529  15.241 -0.9314  1.4177 -0.3025
   33TMC2    C1  510   0.833   3.062  10.517  0.2795  0.8934  0.3379
   33TMC2    C2  511   0.705   3.040  10.490 -0.8149  0.6361  0.1299
   33TMC2    C3  512   0.623   3.140  10.448  0.0757 -0.2732 -0.3354
   33TMC2    C4  513   0.894   3.176  10.489 -0.4077 -0.4234  0.8817
   33TMC2    C5  514   0.813   3.280  10.457  0.8970  0.1637 -0.4530
   33TMC2    C6  515   0.682   3.263  10.434 -0.2033  0.5011 -0.0975
   33TMC2     C  516   0.886   2.969  10.610  0.7855 -0.5584  0.4532
   33TMC2     O  517   0.829   2.860  10.619  0.2585 -0.7656 -0.8894
   33TMC2     H  518   0.665   2.939  10.493  0.9311 -0.0359  0.9672
   33TMC2    H1  519   1.002   3.184  10.487 -0.6105  2.6462  1.8059
   33TMC2    H2  520   0.611   3.339  10.402  0.5824  1.5279  0.5952
   33TMC2    C7  521   0.870   3.412  10.450 -0.3242 -0.5956 -0.5228
   33TMC2    C8  522   0.496   3.122  10.379  0.0223 -0.4267  0.0775
   33TMC2    O1  523   0.991   3.412  10.443 -0.5157  0.6165 -0.2953
   33TMC2    O2  524   0.455   3.190  10.286 -0.3921 -0.2926 -0.7004
   33TMC2    O5  525   0.470   2.993  10.395  0.1247 -0.4432  0.2889
   33TMC2    H5  526   0.497   2.977  10.488  0.2676 -0.3634  0.2611
   34MPD2     C  527   1.193   2.803  10.996 -0.4735  0.7240  0.6240
   34MPD2    C1  528   1.074   2.749  10.951 -0.2560  0.5646 -0.7513
   34MPD2    C2  529   1.024   2.800  10.831 -0.5738 -0.5488  0.6865
   34MPD2    C3  530   1.066   2.926  10.786 -0.1044  0.3448 -0.0872
   34MPD2    C4  531   1.165   2.991  10.855  0.5411  0.5512 -0.6756
   34MPD2    C5  532   1.234   2.925  10.948  0.4234  0.8714 -0.6685
   34MPD2     H  533   0.955   2.740  10.773 -1.0243  1.5953 -0.9997
   34MPD2    H1  534   1.202   3.084  10.814 -0.5697  0.8529 -0.9933
   34MPD2    H2  535   1.257   2.763  11.073  1.9354  1.5102 -0.9443
   34MPD2    H3  536   1.330   2.967  10.977  2.4584 -1.9013 -3.4186
   34MPD2     N  537   1.000   3.008  10.681  0.0333  0.6858 -0.8426
   34MPD2    H5  538   1.036   3.103  10.670  0.8236  0.4203 -0.5887
   34MPD2    N1  539   1.026   2.632  11.020  0.0185 -0.1276 -0.0681
   34MPD2    H7  540   1.076   2.610  11.106  1.2031  1.6574 -0.2814
   35TMC2    C1  541   2.152   4.138  11.673 -0.4472  0.1479 -0.4249
   35TMC2    C2  542   2.083   4.237  11.728  0.0762 -0.3367 -0.1636
   35TMC2    C3  543   1.969   4.203  11.797 -0.0827 -0.5908  0.4391
   35TMC2    C4  544   2.112   4.008  11.666 -0.2124  0.3450 -0.1585
   35TMC2    C5  545   1.995   3.977  11.741  0.5741 -0.1414 -0.2511
   35TMC2    C6  546   1.918   4.076  11.799 -0.4543 -0.3824 -0.8942
   35TMC2     C  547   2.264   4.173  11.587  0.2344  0.4949 -0.4197
   35TMC2     O  548   2.272   4.291  11.546  0.6853 -0.2172 -0.4631
   35TMC2     H  549   2.137   4.331  11.736 -0.5188 -0.0360  0.3745
   35TMC2    H1  550   2.176   3.934  11.619 -0.2639  1.0080 -1.2764
   35TMC2    H2  551   1.839   4.050  11.869 -0.4725  1.0911 -0.3813
   35TMC2    C7  552   1.967   3.838  11.773 -0.4730  1.0111 -0.2272
   35TMC2    C8  553   1.931   4.279  11.914  0.3926 -0.2612 -0.0708
   35TMC2    O1  554   1.851   3.804  11.788  0.2568 -0.4954 -0.5445
   35TMC2    O2  555   1.951   4.240  12.026 -0.3517 -0.0378 -0.4620
   35TMC2    O5  556   1.954   4.409  11.876  0.1159 -0.1744  0.4716
   35TMC2    H5  557   1.920   4.427  11.786 -0.0892 -1.1275  0.3546
   36MPD2     C  558   2.715   4.055  11.362 -0.5037 -0.4562 -0.0528
   36MPD2    C1  559   2.696   3.978  11.470  0.5114 -0.6706 -0.3367
   36MPD2    C2  560   2.584   3.991  11.551 -0.3243 -0.4198 -0.5843
   36MPD2    C3  561   2.485   4.086  11.531  0.0739 -0.1533  0.1866
   36MPD2    C4  562   2.505   4.160  11.421 -0.3261 -0.7671 -0.4822
   36MPD2    C5  563   2.618   4.154  11.341  0.0087 -0.1999 -0.0749
   36MPD2     H  564   2.573   3.924  11.636 -0.2057  3.0453  2.2026
   36MPD2    H1  565   2.432   4.232  11.385 -1.9754 -3.0869 -1.8024
   36MPD2    H2  566   2.806   4.044  11.303  0.3457  0.7966  1.0377
   36MPD2    H3  567   2.631   4.216  11.253  1.7301  1.6094  1.4485
   36MPD2     N  568   2.376   4.095  11.617  0.4470  0.8488 -0.7011
   36MPD2    H5  569   2.369   4.038  11.701  2.4132  0.7134 -0.6363
   36MPD2    N1  570   2.807   3.900  11.517 -0.1554 -0.5601 -0.9675
   36MPD2    H7  571   2.895   3.897  11.465  1.3284  0.9756  1.4564
   37TMC2    C1  572   4.450   3.898  12.331 -0.3445 -0.0889  0.2722
   37TMC2    C2  573   4.340   3.954  12.276 -0.0784  0.5153 -0.0040
   37TMC2    C3  574   4.349   4.024  12.162  0.0464 -0.1655  0.8033
   37TMC2    C4  575   4.564   3.885  12.255  0.3577 -0.0524 -0.8982
   37TMC2    C5  576   4.564   3.945  12.131 -0.0219  0.1231 -0.1052
   37TMC2    C6  577   4.468   4.029  12.088 -0.3905 -0.4064  0.6743
   37TMC2     C  578   4.432   3.870  12.471  0.6637  0.7454 -0.0751
   37TMC2     O  579   4.312   3.864  12.507 -0.4553  0.1548  0.2726
   37TMC2     H  580   4.243   3.968  12.324 -0.0537 -1.1550  0.5115
   37TMC2    H1  581   4.651   3.836  12.298  0.6219 -0.1698 -1.5675
   37TMC2    H2  582   4.486   4.101  12.009 -0.4390  0.6506  1.6158
   37TMC2    C7  583   4.691   3.963  12.071  0.5461  0.3293 -0.1427
   37TMC2    C8  584   4.235   4.102  12.105 -0.0874  0.5494  0.2702
   37TMC2    O1  585   0.045   3.948  12.150  0.4845 -0.3455  0.1658
   37TMC2    O2  586   4.136   4.122  12.177 -0.2178 -0.1461 -0.6668
   37TMC2    O5  587   4.237   4.084  11.970 -0.2233  0.1061  0.5184
   37TMC2    H5  588   4.316   4.037  11.936  0.2915  1.0012  0.4822
   38MPD2     C  589   4.599   3.829  12.949  0.3359  0.0985 -0.5430
   38MPD2    C1  590   4.709   3.824  12.872 -0.4268 -0.1287 -0.3089
   38MPD2    C2  591   4.691   3.824  12.730 -0.5255  0.1035 -0.7174
   38MPD2    C3  592   4.564   3.829  12.673  0.0370 -0.6645  0.5235
   38MPD2    C4  593   4.459   3.831  12.756 -0.3716  0.4823  0.1803
   38MPD2    C5  594   4.475   3.829  12.893 -0.5605 -0.2471  1.3621
   38MPD2     H  595   0.043   3.821  12.675  0.7259 -0.7779  1.4228
   38MPD2    H1  596   4.356   3.827  12.723  0.0135  1.4639 -1.1481
   38MPD2    H2  597   4.609   3.832  13.057  0.5877 -1.2308 -0.5306
   38MPD2    H3  598   4.391   3.816  12.961 -1.0655  0.8015  0.9507
   38MPD2     N  599   4.549   3.848  12.537 -0.1289 -0.7039  0.2320
   38MPD2    H5  600   4.641   3.860  12.495 -0.2010  2.0934  0.9069
   38MPD2    N1  601   0.100   3.831  12.927 -0.2164 -0.0173 -0.2195
   38MPD2    H7  602   0.168   3.837  12.852  2.4195  2.3843  2.3633
   39TMC2    C1  603   3.143   0.559   1.664 -0.3688 -0.2459  0.5155
   39TMC2    C2  604   3.096   0.580   1.785  0.1423  0.4334  0.2741
   39TMC2    C3  605   3.163   0.659   1.869  0.7254 -0.4422  0.2243
   39TMC2    C4  606   3.272   0.599   1.636  0.0559  0.1455 -0.3234
   39TMC2    C5  607   3.352   0.661   1.730  0.0737 -0.5488  0.2722
   39TMC2    C6  608   3.292   0.693   1.849 -0.1263 -0.4754  0.3569
   39TMC2     C  609   3.084   0.459   1.585 -0.6550  0.8014 -0.7917
   39TMC2     O  610   2.963   0.450   1.600 -0.5375 -0.4381  0.1655
   39TMC2     H  611   2.995   0.547   1.802  0.3691  0.1144  1.0004
   39TMC2    H1  612   3.305   0.568   1.537  1.1254 -2.0210  0.7086
   39TMC2    H2  613   3.339   0.753   1.926 -0.0525 -0.5828  0.3953
   39TMC2    C7  614   3.473   0.728   1.690  1.0020 -0.2669  0.3937
   39TMC2    C8  615   3.095   0.685   1.998 -0.5516  0.6194 -0.0946
   39TMC2    O1  616   3.523   0.695   1.580  0.2458  0.0551 -0.0167
   39TMC2    O2  617   3.165   0.739   2.086 -0.1035 -0.4208 -0.1509
   39TMC2    O5  618   2.962   0.709   1.982  0.2898  0.3828 -0.1175
   39TMC2    H5  619   2.922   0.671   1.901 -1.4967  0.2522  0.8334
   40MPD2     C  620   3.212   0.200   1.364  0.5473  0.0824  0.0547
   40MPD2    C1  621   3.117   0.275   1.419  0.0690 -0.6244 -0.5246
   40MPD2    C2  622   2.990   0.263   1.373 -0.5638  0.1824 -0.5488
   40MPD2    C3  623   2.957   0.162   1.287  0.6781 -0.0529 -0.1979
   40MPD2    C4  624   3.054   0.075   1.242  0.2747  0.5510  0.1014
   40MPD2    C5  625   3.185   0.094   1.278 -0.0988  0.0194  0.2382
   40MPD2     H  626   2.915   0.332   1.412  0.7952  0.0347  2.3657
   40MPD2    H1  627   3.043   4.721   1.191  0.5975  0.0939  0.8738
   40MPD2    H2  628   3.315   0.220   1.391  0.5509  0.3063 -0.1232
   40MPD2    H3  629   3.258   0.017   1.254  1.7192  1.6799  0.4773
   40MPD2     N  630   2.832   0.148   1.227  0.3215  0.2647 -0.1383
   40MPD2    H5  631   2.830   0.072   1.159  1.3126 -1.6051  1.9016
   40MPD2    N1  632   3.163   0.366   1.516  0.4982 -0.1922  0.5039
   40MPD2    H7  633   3.264   0.376   1.517  0.5593 -0.7531 -0.5762
   41TMC2    C1  634   2.253   4.258  13.295  0.1675 -0.5566 -0.7010
   41TMC2    C2  635   2.280   4.342  13.396 -0.2076  0.0514  0.2941
   41TMC2    C3  636   2.349   4.453  13.360 -0.3441 -0.0738 -0.3735
   41TMC2    C4  637   2.275   4.290  13.161  0.4598  0.3332 -0.0955
   41TMC2    C5  638   2.327   4.413  13.131  0.2480  0.4161  0.0165
   41TMC2    C6  639   2.370   4.494  13.230  0.5210  0.0392 -0.6113
   41TMC2     C  640   2.160   4.152  13.321  0.0235 -0.6375  0.3786
   41TMC2     O  641   2.127   4.091  13.218 -1.0905 -0.0461 -0.0886
   41TMC2     H  642   2.256   4.324  13.500 -2.1993 -1.5811 -0.4480
   41TMC2    H1  643   2.245   4.224  13.080 -1.7751  1.9537 -0.6006
   41TMC2    H2  644   2.433   4.581  13.218  0.1953  0.8208  3.0733
   41TMC2    C7  645   2.387   4.423  12.997  0.1897  0.2344  0.5719
   41TMC2    C8  646   2.439   4.501  13.452  0.1815 -0.1007  0.7373
   41TMC2    O1  647   2.381   4.321  12.928 -0.0185  0.0518  0.2439
   41TMC2    O2  648   2.560   4.506  13.430  0.8369  0.2242 -0.3340
   41TMC2    O5  649   2.375   4.524  13.574 -0.1666  0.1696  0.1993
   41TMC2    H5  650   2.278   4.530  13.573 -0.0965  1.1066 -2.6881
   42MPD2     C  651   1.905   4.033  13.399 -0.0627  0.6138  0.0036
   42MPD2    C1  652   1.992   4.094  13.489  0.2106 -0.4051 -0.2328
   42MPD2    C2  653   1.947   4.115  13.623  1.4357  0.1950 -0.1988
   42MPD2    C3  654   1.822   4.065  13.666 -0.4412 -0.1006 -0.1986
   42MPD2    C4  655   1.750   4.001  13.571  0.0284  0.0495 -0.1279
   42MPD2    C5  656   1.785   3.981  13.436 -0.1169 -0.4589  0.3408
   42MPD2     H  657   2.017   4.157  13.694  0.4564  0.1518  0.7957
   42MPD2    H1  658   1.653   3.958  13.593  1.0473 -1.0136  2.3315
   42MPD2    H2  659   1.931   4.018  13.295  3.4767  0.2012  0.9626
   42MPD2    H3  660   1.715   3.936  13.367 -1.7638  1.9209  0.4358
   42MPD2     N  661   1.761   4.092  13.793 -0.0732 -0.3823  0.6135
   42MPD2    H5  662   1.669   4.051  13.807 -0.7440  0.5962 -0.9685
   42MPD2    N1  663   2.111   4.153  13.449 -0.0050  0.1478 -0.5955
   42MPD2    H7  664   2.170   4.190  13.522 -0.3673  0.6757 -0.5732
   43TMC2    C1  665   2.894   2.222   0.652  0.6453  0.2220 -0.1324
   43TMC2    C2  666   2.759   2.239   0.623 -0.3533 -0.0627 -0.0486
   43TMC2    C3  667   2.686   2.347   0.672  0.2435 -0.2301 -0.1380
   43TMC2    C4  668   2.966   2.307   0.726  0.0096  0.1994 -0.3217
   43TMC2    C5  669   2.893   2.410   0.774 -0.0716  0.1922 -1.1710
   43TMC2    C6  670   2.759   2.433   0.753 -0.1582  0.0005  0.2407
   43TMC2     C  671   2.979   2.133   0.566 -0.2185 -0.6693 -0.4365
   43TMC2     O  672   3.099   2.118   0.586 -1.0951  0.3341  0.2531
   43TMC2     H  673   2.712   2.167   0.556  0.1842  0.2568 -0.7745
   43TMC2    H1  674   3.073   2.290   0.729  0.1911  1.4103 -0.1143
   43TMC2    H2  675   2.703   2.508   0.808 -2.0600 -1.4318  0.2467
   43TMC2    C7  676   2.970   2.518   0.814  0.8258  0.6359 -0.1687
   43TMC2    C8  677   2.571   2.399   0.594  0.1968 -0.4670 -0.1763
   43TMC2    O1  678   2.913   2.624   0.812  0.1381 -0.6207  0.0424
   43TMC2    O2  679   2.500   2.329   0.523  0.4086 -0.2633 -0.0281
   43TMC2    O5  680   2.538   2.516   0.656 -0.1973  0.1880 -0.1895
   43TMC2    H5  681   2.620   2.568   0.665  1.4401 -2.4042 -0.2380
   44MPD2     C  682   2.995   1.772   0.193 -0.1178  0.4453 -0.0883
   44MPD2    C1  683   3.068   1.779   0.314 -0.0605  0.3599 -0.2301
   44MPD2    C2  684   3.048   1.892   0.398  0.1500  0.3668 -0.3284
   44MPD2    C3  685   2.941   1.980   0.372  0.1115  0.0550 -0.0969
   44MPD2    C4  686   2.862   1.956   0.263 -0.0363 -0.3729 -0.7003
   44MPD2    C5  687   2.889   1.854   0.179  0.7564  0.9026  0.3139
   44MPD2     H  688   3.111   1.905   0.485 -1.1043 -1.5252  0.8414
   44MPD2    H1  689   2.790   2.031   0.230  2.1019  2.0935  0.2639
   44MPD2    H2  690   3.009   1.695   0.117  0.8724  2.3118 -1.8087
   44MPD2    H3  691   2.825   1.841   0.092 -0.8565 -1.6818  1.8907
   44MPD2     N  692   2.909   2.090   0.462 -0.4147 -0.7124 -0.4957
   44MPD2    H5  693   2.816   2.131   0.449  0.2071  0.9110  0.1511
   44MPD2    N1  694   3.177   1.692   0.330  0.0875  0.5483  0.4336
   44MPD2    H7  695   3.236   1.703   0.412 -0.8673  2.4060  0.8873
   45TMC2    C1  696   4.434   3.988  10.008  0.5450 -0.8577  0.0821
   45TMC2    C2  697   4.509   3.902  10.082 -0.1585 -0.5724  0.6663
   45TMC2    C3  698   4.607   3.958  10.158 -0.0959  0.0574 -0.0359
   45TMC2    C4  699   4.444   4.123  10.015  0.0223 -0.2184 -0.1264
   45TMC2    C5  700   4.547   4.178  10.087 -0.3271  0.1190 -0.0198
   45TMC2    C6  701   4.622   4.094  10.163 -0.2704 -0.7691 -0.4975
   45TMC2     C  702   4.335   3.920   9.930 -0.3662  0.1199 -0.2833
   45TMC2     O  703   4.340   3.799   9.940 -0.3848  0.0280 -0.0646
   45TMC2     H  704   4.499   3.794  10.082 -0.9107 -0.5036  0.3011
   45TMC2    H1  705   4.371   4.180   9.958  0.2907 -2.0720 -2.3103
   45TMC2    H2  706   4.700   4.135  10.226 -0.7999 -1.3484  0.5187
   45TMC2    C7  707   4.566   4.317  10.103 -0.2042  0.9613  0.3576
   45TMC2    C8  708   4.683   3.868  10.246 -0.1357 -0.5302 -0.2199
   45TMC2    O1  709   4.630   4.351  10.206 -0.0960 -0.1988 -0.2833
   45TMC2    O2  710   0.058   3.903  10.247 -0.3875 -0.4634  0.7159
   45TMC2    O5  711   4.596   3.840  10.346  0.3801 -0.3463  0.5904
   45TMC2    H5  712   4.507   3.843  10.304  0.6440  0.9139  0.1166
   46MPD2     C  713   4.124   3.825   9.765 -0.4083  0.5854  0.3585
   46MPD2    C1  714   4.160   3.964   9.760 -1.1266 -0.4854 -0.4205
   46MPD2    C2  715   4.085   4.052   9.688  0.2145  0.0615  0.6215
   46MPD2    C3  716   3.973   4.002   9.616  1.1500 -0.4906 -0.5939
   46MPD2    C4  717   3.948   3.868   9.606  0.0658  0.2020  0.0578
   46MPD2    C5  718   4.026   3.782   9.678 -0.1923 -0.0173  0.3641
   46MPD2     H  719   4.111   4.157   9.691  1.4512 -0.3064  2.7221
   46MPD2    H1  720   3.868   3.827   9.544 -1.4822  2.1750  0.7763
   46MPD2    H2  721   4.155   3.752   9.840 -2.8617 -0.4636  0.3328
   46MPD2    H3  722   3.991   3.680   9.684 -1.1423  0.1762 -2.0064
   46MPD2     N  723   3.885   4.099   9.565 -0.1407  0.5457 -0.3259
   46MPD2    H5  724   3.920   4.193   9.580 -0.3614  0.6928 -0.7254
   46MPD2    N1  725   4.260   4.008   9.852  0.2375  0.6683 -0.0047
   46MPD2    H7  726   4.289   4.105   9.859  2.0213  0.0528  1.0704
   47TMC2    C1  727   1.580   4.022   8.651  0.1122 -0.1942 -0.0545
   47TMC2    C2  728   1.552   4.095   8.534  0.2185  0.6451  0.3634
   47TMC2    C3  729   1.423   4.147   8.520 -0.3294  0.1298  0.6473
   47TMC2    C4  730   1.486   3.997   8.747 -0.3937  0.8663 -0.8095
   47TMC2    C5  731   1.361   4.045   8.725 -0.5399  0.3061 -0.5979
   47TMC2    C6  732   1.331   4.127   8.620 -0.5285 -0.0281  0.2052
   47TMC2     C  733   1.722   3.980   8.663 -0.0862  0.0288 -0.2158
   47TMC2     O  734   1.788   3.992   8.565  0.0937 -0.4988 -0.2930
   47TMC2     H  735   1.631   4.102   8.460  0.7790  0.3821  0.9226
   47TMC2    H1  736   1.504   3.931   8.831 -0.7632  1.0496 -0.5891
   47TMC2    H2  737   1.235   4.175   8.606 -0.9668 -0.9394  0.0882
   47TMC2    C7  738   1.255   4.024   8.815  0.3799  0.2403  0.3081
   47TMC2    C8  739   1.391   4.244   8.412  0.1784 -0.0160  0.3494
   47TMC2    O1  740   1.153   4.034   8.758 -0.9225 -0.0216 -0.0258
   47TMC2    O2  741   1.279   4.287   8.399 -0.4620 -0.3744  0.9658
   47TMC2    O5  742   1.480   4.232   8.308 -0.0211  0.7063  0.0475
   47TMC2    H5  743   1.572   4.248   8.338  0.0351  0.2090  0.1519
   48MPD2     C  744   1.990   3.893   8.760 -0.4803 -0.2450  0.0096
   48MPD2    C1  745   1.876   3.892   8.830 -0.2441  0.5281  0.6614
   48MPD2    C2  746   1.888   3.848   8.961 -0.3000  0.3120  0.3499
   48MPD2    C3  747   2.008   3.820   9.023 -0.7315 -0.1602  0.1959
   48MPD2    C4  748   2.121   3.839   8.950  0.0022 -0.4107  0.1283
   48MPD2    C5  749   2.111   3.867   8.817  0.4969  0.2947 -0.3211
   48MPD2     H  750   1.798   3.846   9.022  0.4405 -0.9306  1.3997
   48MPD2    H1  751   2.221   3.816   8.984  0.2729  0.7104  0.0978
   48MPD2    H2  752   2.000   3.921   8.656  1.0519 -1.4979 -0.1705
   48MPD2    H3  753   2.196   3.885   8.753  1.6095  0.6955  1.2818
   48MPD2     N  754   2.009   3.780   9.157 -0.4883 -0.5120 -0.0043
   48MPD2    H5  755   1.921   3.755   9.202 -0.6450 -1.3724 -0.7890
   48MPD2    N1  756   1.749   3.937   8.789  1.0888  0.6636 -0.1949
   48MPD2    H7  757   1.676   3.929   8.859  0.5178 -0.4488 -0.9059
   49TMC2    C1  758   4.678   1.808  10.222  0.5002  0.1055  0.4625
   49TMC2    C2  759   4.565   1.814  10.142  0.0321 -0.2514  0.5013
   49TMC2    C3  760   4.462   1.724  10.167  0.8777  0.2520  0.2166
   49TMC2    C4  761   4.687   1.730  10.335  0.6882  0.0264 -0.4552
   49TMC2    C5  762   4.579   1.653  10.359  0.0947  0.3859 -0.1802
   49TMC2    C6  763   4.472   1.640  10.272 -0.3637 -0.0563  0.8398
   49TMC2     C  764   0.035   1.906  10.203 -0.1919  0.2944  0.3135
   49TMC2     O  765   0.052   1.946  10.089 -0.3174 -0.4381 -0.3177
   49TMC2     H  766   4.558   1.883  10.059 -0.0141 -0.4779  0.3132
   49TMC2    H1  767   0.032   1.719  10.400  0.4739 -0.7777 -0.3086
   49TMC2    H2  768   4.391   1.571  10.294 -0.2531 -0.1116  1.0774
   49TMC2    C7  769   4.573   1.556  10.467 -0.1405 -0.0957 -0.6179
   49TMC2    C8  770   4.371   1.673  10.067 -0.2287  0.0924  0.5119
   49TMC2    O1  771   4.504   1.461  10.445  0.5738  0.5318 -0.2903
   49TMC2    O2  772   4.327   1.561  10.086 -0.8122 -0.3954 -0.0597
   49TMC2    O5  773   4.301   1.781  10.011 -0.3038  0.6887  0.1874
   49TMC2    H5  774   4.343   1.867  10.031 -2.9892  1.6809  1.5076
   50MPD2     C  775   0.252   2.104  10.216 -1.2352 -0.3642  0.3914
   50MPD2    C1  776   0.189   2.046  10.325 -0.3707  0.2187 -0.1707
   50MPD2    C2  777   0.216   2.108  10.447  0.3110 -0.6686 -0.2746
   50MPD2    C3  778   0.294   2.222  10.462 -0.1785  0.6377  0.0876
   50MPD2    C4  779   0.350   2.277  10.348 -0.5782  0.4879  0.8202
   50MPD2    C5  780   0.327   2.216  10.222  0.4595 -0.0038 -0.4322
   50MPD2     H  781   0.158   2.074  10.533 -2.0345  1.5081 -0.9906
   50MPD2    H1  782   0.410   2.367  10.346  0.4288 -0.1925  0.6953
   50MPD2    H2  783   0.233   2.065  10.116  1.2407  0.0953 -0.2551
   50MPD2    H3  784   0.351   2.266  10.129  1.3942  0.1396 -0.1087
   50MPD2     N  785   0.299   2.309  10.579 -0.1014  0.2556 -0.1593
   50MPD2    H5  786   0.346   2.399  10.574 -0.3104  0.1946 -3.0393
   50MPD2    N1  787   0.103   1.936  10.318 -0.0412 -0.1158 -0.1470
   50MPD2    H7  788   0.070   1.901  10.408  0.0220 -1.3485 -0.5993
   51TMC2    C1  789   1.538   4.517   1.550 -0.1471  0.2148  0.0341
   51TMC2    C2  790   1.675   4.515   1.573 -0.6353  0.1993  0.6189
   51TMC2    C3  791   1.740   4.620   1.516 -0.0364  0.6953 -1.0655
   51TMC2    C4  792   1.471   4.627   1.484  0.4093  0.0842  0.5344
   51TMC2    C5  793   1.549   4.728   1.438 -0.0433  0.4016 -0.2620
   51TMC2    C6  794   1.684   4.721   1.446 -0.1299  0.3712 -0.5086
   51TMC2     C  795   1.456   4.408   1.573 -0.1678 -0.2834 -0.5374
   51TMC2     O  796   1.352   4.400   1.507 -0.1239  0.1588  0.5008
   51TMC2     H  797   1.735   4.428   1.594  0.9371  0.9614 -0.6824
   51TMC2    H1  798   1.362   4.628   1.480  0.3450 -0.5217  1.9945
   51TMC2    H2  799   1.748   0.059   1.409  0.9306 -0.5756 -0.6768
   51TMC2    C7  800   1.488   0.062   1.326 -0.3484  0.5843 -0.5251
   51TMC2    C8  801   1.880   4.600   1.503  0.1373 -0.4464 -0.6451
   51TMC2    O1  802   1.385   0.012   1.280  0.3309 -0.0264 -1.3372
   51TMC2    O2  803   1.944   4.559   1.599  0.7083  0.4384 -0.1123
   51TMC2    O5  804   1.905   4.587   1.374  0.2108 -0.5607  0.3185
   51TMC2    H5  805   1.825   4.614   1.324 -1.7196 -0.7247  3.3257
   52MPD2     C  806   1.338   3.954   1.789  0.0376 -0.3519  0.5013
   52MPD2    C1  807   1.266   4.039   1.710 -0.0796  0.0522  1.1435
   52MPD2    C2  808   1.324   4.159   1.682  0.3895 -0.0092 -0.2830
   52MPD2    C3  809   1.451   4.195   1.711 -0.3999 -0.4404 -0.7677
   52MPD2    C4  810   1.521   4.107   1.789 -0.4653  0.4653  0.3030
   52MPD2    C5  811   1.462   3.991   1.833  0.3650 -0.0019 -0.1416
   52MPD2     H  812   1.267   4.234   1.629  2.0556  0.6612 -1.1594
   52MPD2    H1  813   1.623   4.114   1.823  0.0307  1.5250 -1.4159
   52MPD2    H2  814   1.295   3.861   1.827  0.5159 -1.0424 -0.6453
   52MPD2    H3  815   1.529   3.932   1.894  0.5110 -0.8718 -1.1448
   52MPD2     N  816   1.511   4.319   1.667  0.0510  0.1542  0.1015
   52MPD2    H5  817   1.605   4.337   1.700 -0.5912  1.9691  0.9615
   52MPD2    N1  818   1.133   4.011   1.666 -0.4426 -0.7000  0.1406
   52MPD2    H7  819   1.098   4.092   1.615  1.6971 -0.3512 -0.7725
   53TMC2    C1  820   0.621   4.222  12.001 -0.6384 -0.5269 -0.0750
   53TMC2    C2  821   0.750   4.173  11.990 -0.2619  0.4069  0.0766
   53TMC2    C3  822   0.827   4.159  12.103 -0.2012 -0.7316  0.0387
   53TMC2    C4  823   0.575   4.261  12.123 -0.3371 -1.0616  0.5934
   53TMC2    C5  824   0.660   4.246  12.235 -0.1427  0.1921 -0.2725
   53TMC2    C6  825   0.791   4.199  12.232 -0.3695 -0.0835  0.3509
   53TMC2     C  826   0.530   4.198  11.892 -0.1799  0.0113  0.5749
   53TMC2     O  827   0.569   4.223  11.779  0.4543  0.4823 -0.3248
   53TMC2     H  828   0.796   4.142  11.897  3.7492  0.8151  1.9587
   53TMC2    H1  829   0.477   4.307  12.130 -0.1841 -0.7461  0.6847
   53TMC2    H2  830   0.863   4.190  12.312 -1.5328 -0.0100  1.4041
   53TMC2    C7  831   0.579   4.248  12.357 -0.1203 -0.1890 -1.1088
   53TMC2    C8  832   0.963   4.113  12.082  0.3928 -0.2396  0.8287
   53TMC2    O1  833   0.465   4.286  12.344 -0.1892 -1.1222  0.0273
   53TMC2    O2  834   1.031   4.065  12.171  0.0520 -0.2384  0.1524
   53TMC2    O5  835   1.011   4.152  11.964 -0.5735  0.1142  0.2676
   53TMC2    H5  836   0.956   4.197  11.897  0.7977  2.2565  0.5672
   54MPD2     C  837   0.285   4.182  11.737 -0.1926  0.3022 -0.3228
   54MPD2    C1  838   0.294   4.147  11.868 -0.2913  0.8225 -0.1555
   54MPD2    C2  839   0.189   4.079  11.936 -0.8826 -1.0059 -0.0367
   54MPD2    C3  840   0.066   4.067  11.875  0.3848  0.3830  0.6420
   54MPD2    C4  841   0.056   4.110  11.747  0.2825  0.1942 -0.0603
   54MPD2    C5  842   0.165   4.161  11.680 -0.5539 -0.1044  0.3865
   54MPD2     H  843   0.206   4.053  12.040 -0.6944 -0.6323  0.0271
   54MPD2    H1  844   4.704   4.095  11.694  0.1912  0.3324  0.0606
   54MPD2    H2  845   0.366   4.225  11.678  0.0476 -4.1229 -3.1989
   54MPD2    H3  846   0.148   4.188  11.576  0.8392 -0.2861  0.1202
   54MPD2     N  847   4.694   4.005  11.935  0.3668  0.6170  0.1980
   54MPD2    H5  848   4.607   4.018  11.883  0.2237 -0.9330  0.0451
   54MPD2    N1  849   0.410   4.166  11.941 -0.2919 -0.0921 -0.4587
   54MPD2    H7  850   0.412   4.139  12.039 -0.9452  0.0951 -0.3909
   55TMC2    C1  851   1.593   1.553  17.670  0.3676  0.2319  0.4989
   55TMC2    C2  852   1.530   1.499  17.561  0.3654  0.5322  0.0610
   55TMC2    C3  853   1.483   1.371  17.561 -0.4887 -0.0716  0.1884
   55TMC2    C4  854   1.596   1.474   0.025 -0.2422  0.2928 -0.0412
   55TMC2    C5  855   1.532   1.354   0.026  0.8865 -0.5048 -0.2917
   55TMC2    C6  856   1.477   1.298  17.678 -0.4518 -0.3085  0.3221
   55TMC2     C  857   1.641   1.692  17.676 -0.0194  0.1691  0.5655
   55TMC2     O  858   1.696   1.721   0.024 -0.7404 -0.2509 -0.1093
   55TMC2     H  859   1.514   1.555  17.469  0.1068 -2.4436 -1.7159
   55TMC2    H1  860   1.633   1.522   0.115  0.8978 -2.0895  0.7535
   55TMC2    H2  861   1.452   1.195  17.698  1.8549 -0.1173  4.2678
   55TMC2    C7  862   1.549   1.268   0.153 -0.5929 -0.0922 -0.3518
   55TMC2    C8  863   1.431   1.313  17.443 -0.0077 -0.3433 -0.1279
   55TMC2    O1  864   1.537   1.148   0.134 -0.3006  0.7034  0.4975
   55TMC2    O2  865   1.473   1.350  17.336 -0.3369 -0.2569  0.1498
   55TMC2    O5  866   1.380   1.191  17.469 -0.4009  0.6515  0.1750
   55TMC2    H5  867   1.325   1.196  17.550 -0.2241  2.6280  0.1858
   56MPD2     C  868   1.626   1.995  17.465 -0.0434  0.2738 -1.2559
   56MPD2    C1  869   1.624   1.917  17.576  0.0481 -0.2480 -0.3356
   56MPD2    C2  870   1.609   1.984  17.699 -0.0830  1.0184  0.8489
   56MPD2    C3  871   1.606   2.123  17.714 -1.0177 -0.0455 -0.9194
   56MPD2    C4  872   1.605   2.191  17.598 -0.1549 -0.3559 -0.1444
   56MPD2    C5  873   1.618   2.131  17.477  0.4260 -0.4091 -0.3330
   56MPD2     H  874   1.595   1.924   0.028  2.1475 -0.6583  0.0771
   56MPD2    H1  875   1.602   2.300  17.595 -1.2532 -0.4040 -0.5837
   56MPD2    H2  876   1.623   1.950  17.366 -2.6886  1.1170 -1.5331
   56MPD2    H3  877   1.619   2.200  17.392 -0.3417  0.0771  0.0516
   56MPD2     N  878   1.574   2.177   0.080 -0.2535  0.3521 -0.3196
   56MPD2    H5  879   1.565   2.112   0.158  0.3898 -1.6086 -1.8824
   56MPD2    N1  880   1.609   1.776  17.567 -0.6589 -0.6304  0.3037
   56MPD2    H7  881   1.603   1.738  17.473  0.9422 -0.1901  0.0291
   57TMC2    C1  882   0.619   2.344  13.514 -0.1205  0.4091 -0.0406
   57TMC2    C2  883   0.566   2.222  13.489  0.0073  0.4030 -0.0914
   57TMC2    C3  884   0.651   2.116  13.480 -0.1586  0.4076  0.3938
   57TMC2    C4  885   0.754   2.363  13.515 -0.4887 -0.4179  0.8319
   57TMC2    C5  886   0.835   2.250  13.495 -0.3883 -0.7654  0.3666
   57TMC2    C6  887   0.789   2.124  13.484  0.3185 -0.3638  0.0842
   57TMC2     C  888   0.528   2.455  13.543  0.1913  0.8509 -0.1305
   57TMC2     O  889   0.411   2.431  13.523  0.1973 -0.0452  0.5496
   57TMC2     H  890   0.458   2.215  13.486  0.0660 -1.1640  1.7947
   57TMC2    H1  891   0.803   2.457  13.493 -0.6636 -0.5644 -0.2207
   57TMC2    H2  892   0.850   2.036  13.469  0.7617  0.0337 -0.4443
   57TMC2    C7  893   0.976   2.278  13.485 -0.3413 -0.2776 -0.6049
   57TMC2    C8  894   0.591   1.989  13.464  0.3008 -0.5065 -0.3437
   57TMC2    O1  895   1.005   2.396  13.510  0.5481 -0.2515  0.2109
   57TMC2    O2  896   0.476   1.969  13.502  0.4625  0.5446 -0.2672
   57TMC2    O5  897   0.675   1.890  13.425 -0.2893  0.1387 -0.3205
   57TMC2    H5  898   0.758   1.915  13.379  0.4367 -0.8748  0.4702
   58MPD2     C  899   0.359   2.894  13.749 -0.0916 -0.1714  0.4635
   58MPD2    C1  900   0.296   2.794  13.679  0.2330 -0.0352 -1.0534
   58MPD2    C2  901   0.362   2.688  13.629 -0.1586  0.1058 -0.1153
   58MPD2    C3  902   0.501   2.681  13.633 -0.0590 -0.0868  0.1981
   58MPD2    C4  903   0.564   2.788  13.699  0.0504  0.2963  0.1349
   58MPD2    C5  904   0.497   2.893  13.749  0.0192 -0.4738 -0.9171
   58MPD2     H  905   0.300   2.601  13.613  0.6151 -0.5100  0.1866
   58MPD2    H1  906   0.668   2.780  13.727  0.1208  1.7231  0.2946
   58MPD2    H2  907   0.305   2.974  13.799  0.8066  0.3590  0.5879
   58MPD2    H3  908   0.546   2.972  13.804 -3.3906  0.5660  0.6105
   58MPD2     N  909   0.576   2.570  13.596 -0.5366  0.3064  0.5338
   58MPD2    H5  910   0.677   2.576  13.600 -0.5081 -2.0451  3.2436
   58MPD2    N1  911   0.146   2.782  13.681  0.1920 -0.2645  0.3274
   58MPD2    H7  912   0.108   2.699  13.638 -3.2231  0.3521  2.1766
   59TMC2    C1  913   2.822   3.033  12.589  0.0451  0.0782  0.0110
   59TMC2    C2  914   2.765   2.919  12.643  0.3165 -0.4842  0.0371
   59TMC2    C3  915   2.715   2.823  12.554  0.1360  0.6283 -0.2329
   59TMC2    C4  916   2.829   3.048  12.451 -0.2505 -0.2251 -0.1917
   59TMC2    C5  917   2.786   2.946  12.373 -0.3423 -0.2608 -0.2979
   59TMC2    C6  918   2.735   2.828  12.420 -0.3128 -0.3019 -0.1331
   59TMC2     C  919   2.862   3.142  12.677 -0.4727 -0.3289  0.1088
   59TMC2     O  920   2.886   3.247  12.620 -0.4227  0.1655  0.6199
   59TMC2     H  921   2.747   2.909  12.750  0.7939  5.0108  0.6127
   59TMC2    H1  922   2.873   3.139  12.414 -0.3974 -0.7312 -1.5969
   59TMC2    H2  923   2.702   2.744  12.361  0.4337 -0.8392  0.2092
   59TMC2    C7  924   2.808   2.943  12.228  0.2129  0.9445  0.8128
   59TMC2    C8  925   2.693   2.685  12.598 -0.1530 -0.9896 -0.0258
   59TMC2    O1  926   2.784   2.837  12.173 -0.2851  0.0090  0.0206
   59TMC2    O2  927   2.653   2.597  12.520  0.4461  0.5103  0.1640
   59TMC2    O5  928   2.721   2.661  12.729 -0.0263  0.3961  0.4861
   59TMC2    H5  929   2.754   2.741  12.775  0.7210  0.2811  0.1500
   60MPD2     C  930   3.014   3.321  12.855  0.0173  0.4026 -0.2180
   60MPD2    C1  931   2.965   3.194  12.890  0.2532 -0.1174 -0.1474
   60MPD2    C2  932   2.988   3.155  13.015  0.0737 -0.4439  0.0597
   60MPD2    C3  933   3.054   3.231  13.113  0.0121 -0.3628 -0.0063
   60MPD2    C4  934   3.088   3.363  13.078  0.0651  0.4357  0.6323
   60MPD2    C5  935   3.074   3.398  12.943 -0.9317 -0.0423  0.1461
   60MPD2     H  936   2.958   3.056  13.047 -0.1564 -0.2298  0.5179
   60MPD2    H1  937   3.141   3.432  13.143 -0.5828 -0.1535  1.7998
   60MPD2    H2  938   3.014   3.357  12.753  0.5425  4.0380  1.0618
   60MPD2    H3  939   3.099   3.500  12.919  0.5154 -0.8889 -1.8744
   60MPD2     N  940   3.088   3.198  13.251  0.0467  0.1351 -0.2748
   60MPD2    H5  941   3.132   3.268  13.310  1.7664 -1.8940  0.8570
   60MPD2    N1  942   2.915   3.098  12.798 -0.4845 -0.2064  0.6478
   60MPD2    H7  943   2.909   3.002  12.830  3.8960 -0.8459 -0.3972
   61TMC2    C1  944   2.671   4.361  15.410  0.1609 -0.6981 -0.3131
   61TMC2    C2  945   2.747   4.378  15.525 -0.6069 -0.0853 -0.4565
   61TMC2    C3  946   2.706   4.465  15.623  0.0888  0.0210  0.0977
   61TMC2    C4  947   2.554   4.431  15.400 -0.2195  0.0601  0.6626
   61TMC2    C5  948   2.511   4.520  15.492  0.4984  0.6106 -0.5872
   61TMC2    C6  949   2.592   4.541  15.604  0.4320 -0.3032  0.4704
   61TMC2     C  950   2.728   4.296  15.295 -0.8686 -0.5939  0.2745
   61TMC2     O  951   2.802   4.207  15.326 -0.5317 -0.5998  0.1731
   61TMC2     H  952   2.849   4.343  15.535  0.4209  3.0426  0.1604
   61TMC2    H1  953   2.499   4.426  15.307 -1.2656  0.1955  1.2608
   61TMC2    H2  954   2.576   4.614  15.682  1.7432  2.0294 -1.4292
   61TMC2    C7  955   2.415   4.625  15.467  0.0360 -0.9586  0.6128
   61TMC2    C8  956   2.783   4.455  15.745 -0.0917 -0.6319 -0.1045
   61TMC2    O1  957   2.448   4.738  15.506 -0.5966 -0.1814  0.3116
   61TMC2    O2  958   2.904   4.438  15.744 -0.3205  0.0835 -0.7964
   61TMC2    O5  959   2.715   4.480  15.857 -0.3217  0.2631 -0.2811
   61TMC2    H5  960   2.618   4.492  15.847 -0.1813  0.0838 -1.8453
   62MPD2     C  961   2.860   4.247  15.034 -0.4612  0.0126  0.2361
   62MPD2    C1  962   2.764   4.343  15.053 -0.0116 -0.7224 -0.9545
   62MPD2    C2  963   2.721   4.424  14.945 -0.3831  0.5947  0.1201
   62MPD2    C3  964   2.774   4.407  14.823  0.5538 -0.1924  0.3035
   62MPD2    C4  965   2.882   4.322  14.808  0.5056 -0.3421 -0.0713
   62MPD2    C5  966   2.918   4.236  14.912 -0.0413  0.1755 -0.1958
   62MPD2     H  967   2.637   4.492  14.953 -0.7239  0.0370  1.2724
   62MPD2    H1  968   2.924   4.292  14.713 -0.8762 -0.2316 -0.7250
   62MPD2    H2  969   2.894   4.181  15.113 -3.1349 -1.0559  0.4731
   62MPD2    H3  970   2.983   4.150  14.900  3.1585  2.8005 -1.8240
   62MPD2     N  971   2.738   4.488  14.711 -0.3126 -0.3119  0.1786
   62MPD2    H5  972   2.804   4.499  14.635 -0.2729 -0.6418  0.1641
   62MPD2    N1  973   2.696   4.354  15.177  0.1674 -0.4899  0.0496
   62MPD2    H7  974   2.651   4.444  15.191 -0.2426 -0.9079  1.3808
   63TMC2    C1  975   1.783   0.121  10.194 -0.0509  0.0011 -0.6615
   63TMC2    C2  976   1.915   0.087  10.193  0.1265  0.7663  0.0118
   63TMC2    C3  977   1.980   0.076  10.076  0.1424 -0.2700  0.1082
   63TMC2    C4  978   1.720   0.147  10.075  0.5559 -0.2007 -0.8614
   63TMC2    C5  979   1.783   0.140   9.962  0.6782  0.5676 -0.2820
   63TMC2    C6  980   1.913   0.101   9.958 -0.6764  0.1777  0.0555
   63TMC2     C  981   1.709   0.149  10.319  0.6156  0.6005  0.2803
   63TMC2     O  982   1.628   0.240  10.318 -0.1920  0.6429  0.4084
   63TMC2     H  983   1.955   0.048  10.286 -0.6975 -0.9176 -0.3492
   63TMC2    H1  984   1.615   0.176  10.077  0.6902  0.1858  0.4475
   63TMC2    H2  985   1.964   0.117   9.863  1.2938 -0.3706  1.0174
   63TMC2    C7  986   1.711   0.179   9.836  0.4235 -0.5128  0.8020
   63TMC2    C8  987   2.118   0.019  10.074  0.1164  0.5436 -0.3083
   63TMC2    O1  988   1.606   0.242   9.844 -0.5239  0.0380  0.5514
   63TMC2    O2  989   2.183   0.002  10.177 -0.4557  0.7938  0.4026
   63TMC2    O5  990   2.132   4.699   9.959 -0.0393 -0.2853  0.3584
   63TMC2    H5  991   2.062   4.714   9.892  0.9146  0.0393 -0.5662
   64MPD2     C  992   1.511   0.016  10.781  0.5404 -0.8128 -0.6657
   64MPD2    C1  993   1.581   4.651  10.727  0.0100 -0.1641 -0.4132
   64MPD2    C2  994   1.657   4.673  10.610 -0.6444  0.1981 -0.5826
   64MPD2    C3  995   1.653   0.049  10.539  0.0185 -0.5054 -0.3160
   64MPD2    C4  996   1.577   0.152  10.586 -0.1108  0.3881  0.5589
   64MPD2    C5  997   1.510   0.132  10.704 -0.9786 -0.4794  1.0650
   64MPD2     H  998   1.703   4.586  10.564  0.3840  0.5778 -0.2744
   64MPD2    H1  999   1.568   0.250  10.540  0.7362  0.2520  0.1126
   64MPD2    H2 1000   1.454   0.012  10.873  1.9936 -0.9227  0.2211
   64MPD2    H3 1001   1.457   0.214  10.751  0.6116  0.0160  2.0191
   64MPD2     N 1002   1.722   0.055  10.414 -0.1534 -0.4618  0.3803
   64MPD2    H5 1003   1.775   4.716  10.379  0.8372  0.0945  0.5904
   64MPD2    N1 1004   1.578   4.520  10.779  0.1231 -0.5229 -0.1476
   64MPD2    H7 1005   1.656   4.459  10.753 -0.8699 -2.1789  0.7924
   65TMC2    C1 1006   3.184   4.284  15.638 -0.8092  1.3174  0.2610
   65TMC2    C2 1007   3.151   4.260  15.503  0.1497 -0.1496  0.2845
   65TMC2    C3 1008   3.130   4.365  15.420  0.1278  0.7154 -0.0024
   65TMC2    C4 1009   3.204   4.407  15.680 -0.4985  0.1604  0.2086
   65TMC2    C5 1010   3.186   4.511  15.591 -0.2970 -0.2213 -0.1444
   65TMC2    C6 1011   3.146   4.496  15.463 -0.1094 -0.0303  0.6864
   65TMC2     C 1012   3.191   4.178  15.738 -0.3975  0.4022  1.3470
   65TMC2     O 1013   3.253   4.202  15.838 -0.4270  0.8526  0.4809
   65TMC2     H 1014   3.147   4.160  15.459  1.7213  1.0608 -2.6070
   65TMC2    H1 1015   3.238   4.431  15.780 -1.6696 -0.7105  0.8073
   65TMC2    H2 1016   3.097   4.573  15.405 -2.7859 -1.5713  0.9297
   65TMC2    C7 1017   3.175   4.643  15.646 -0.9601  0.0204  0.5402
   65TMC2    C8 1018   3.095   4.342  15.286 -0.0427  0.0470 -0.6003
   65TMC2    O1 1019   3.201   4.738  15.575 -0.0219 -0.3126  0.0326
   65TMC2    O2 1020   3.100   4.225  15.245 -0.1487  0.1374 -0.3673
   65TMC2    O5 1021   3.140   4.451  15.219 -0.2956 -0.2317  0.0767
   65TMC2    H5 1022   3.184   4.516  15.277 -0.4061  2.5563 -2.9828
   66MPD2     C 1023   3.186   3.921  15.898 -0.2641 -0.3529 -0.7748
   66MPD2    C1 1024   3.147   3.935  15.770  0.4663 -0.3040 -0.3114
   66MPD2    C2 1025   3.108   3.822  15.704  0.0527  0.0623 -0.4472
   66MPD2    C3 1026   3.092   3.705  15.768  0.2391 -0.0988 -0.2824
   66MPD2    C4 1027   3.140   3.690  15.894  0.3405  0.2931 -0.0008
   66MPD2    C5 1028   3.194   3.796  15.957 -0.5668 -0.8412  0.0821
   66MPD2     H 1029   3.084   3.824  15.598 -2.2269  1.4385  0.0992
   66MPD2    H1 1030   3.125   3.596  15.947  0.2141 -0.1696 -0.8509
   66MPD2    H2 1031   3.225   3.998  15.964 -1.3366  0.7336 -1.4053
   66MPD2    H3 1032   3.239   3.773  16.053  1.9427  0.9371 -0.6834
   66MPD2     N 1033   3.029   3.587  15.710 -0.0301  0.4666  0.3953
   66MPD2    H5 1034   3.025   3.503  15.766 -0.4189  1.1113  1.3454
   66MPD2    N1 1035   3.134   4.059  15.699 -0.1281  0.2772  0.3957
   66MPD2    H7 1036   3.100   4.052  15.603 -1.2916 -1.0287  0.8868
   67TMC2    C1 1037   3.181   3.158  14.165 -0.1981 -0.0208 -0.0350
   67TMC2    C2 1038   3.115   3.278  14.172  0.3532  0.6426  0.4655
   67TMC2    C3 1039   3.165   3.376  14.251 -0.1034  0.2922  0.1044
   67TMC2    C4 1040   3.291   3.132  14.241 -0.0514 -0.5236  0.1031
   67TMC2    C5 1041   3.339   3.227  14.317  0.2777 -0.1219 -0.0584
   67TMC2    C6 1042   3.283   3.356  14.316 -0.0114 -0.1759  0.6622
   67TMC2     C 1043   3.103   3.043  14.147 -0.0521 -0.0371  0.1518
   67TMC2     O 1044   3.154   2.948  14.094 -0.4353 -0.1086 -0.1344
   67TMC2     H 1045   3.039   3.302  14.099 -0.3577  0.3764  1.1186
   67TMC2    H1 1046   3.341   3.036  14.236 -0.1153 -0.4730 -1.4326
   67TMC2    H2 1047   3.319   3.442  14.371 -3.5772  0.5858  1.8406
   67TMC2    C7 1048   3.443   3.193  14.412 -1.1792  0.0185  0.7065
   67TMC2    C8 1049   3.107   3.505  14.236  0.2392  0.8402 -0.4027
   67TMC2    O1 1050   3.530   3.122  14.367 -0.0209 -0.8729  0.1320
   67TMC2    O2 1051   3.028   3.530  14.150  0.1857  0.2307  0.3692
   67TMC2    O5 1052   3.162   3.594  14.326 -0.3821 -0.4820 -0.1053
   67TMC2    H5 1053   3.201   3.554  14.406  0.3529 -1.2099 -0.8233
   68MPD2     C 1054   2.893   2.949  13.983  0.2080  0.1014 -0.1436
   68MPD2    C1 1055   2.869   3.025  14.096  0.0161 -0.3019  0.0848
   68MPD2    C2 1056   2.746   3.088  14.101  0.1233 -0.6933  0.4808
   68MPD2    C3 1057   2.653   3.072  14.012  0.1155  0.1977  0.5544
   68MPD2    C4 1058   2.679   2.995  13.903 -0.3248  0.1055 -0.3970
   68MPD2    C5 1059   2.803   2.942  13.886  0.1263  0.1560 -0.6208
   68MPD2     H 1060   2.738   3.168  14.173  0.1819  0.7984 -1.1673
   68MPD2    H1 1061   2.607   2.982  13.824 -0.1717 -0.4897 -0.4423
   68MPD2    H2 1062   2.988   2.904  13.957 -0.7114 -0.9422 -1.7455
   68MPD2    H3 1063   2.835   2.897  13.793  0.1045  0.5966 -0.8447
   68MPD2     N 1064   2.531   3.143  14.017  0.5620  0.2868  0.4120
   68MPD2    H5 1065   2.472   3.139  13.935 -0.0731  1.5712  0.8075
   68MPD2    N1 1066   2.974   3.074  14.176  0.0450 -0.1523 -0.1619
   68MPD2    H7 1067   2.950   3.138  14.251  1.2753  0.7601 -0.5389
   69TMC2    C1 1068   0.522   4.404  12.979 -0.2957 -0.1470 -0.3363
   69TMC2    C2 1069   0.420   4.492  12.999 -0.0020  0.8727  0.6912
   69TMC2    C3 1070   0.416   4.601  12.916 -0.8972  0.2605  0.5521
   69TMC2    C4 1071   0.622   4.422  12.888  0.4447 -0.5789 -0.0212
   69TMC2    C5 1072   0.606   4.530  12.800 -0.3576 -0.0252 -0.5255
   69TMC2    C6 1073   0.510   4.629  12.821  0.2386 -0.1858 -0.3377
   69TMC2     C 1074   0.540   4.318  13.095  0.3407 -0.5934  0.4936
   69TMC2     O 1075   0.449   4.324  13.172  0.0391  0.0854 -0.1731
   69TMC2     H 1076   0.339   4.483  13.071  0.9081 -2.0459  1.3741
   69TMC2    H1 1077   0.699   4.350  12.861 -0.9647 -1.7993 -0.7859
   69TMC2    H2 1078   0.521   4.726  12.775 -0.2866  0.4687  0.9292
   69TMC2    C7 1079   0.677   4.527  12.669 -0.0116 -0.5987 -0.1470
   69TMC2    C8 1080   0.334   4.711  12.945  0.4717  0.3118 -0.9448
   69TMC2    O1 1081   0.778   4.459  12.675 -0.4791 -0.6308 -0.5864
   69TMC2    O2 1082   0.327   0.015  13.059  0.0915 -0.5957  0.2699
   69TMC2    O5 1083   0.254   4.739  12.837 -0.4238  0.1175 -0.1437
   69TMC2    H5 1084   0.270   4.688  12.755 -0.8916  0.1360 -0.2424
   70MPD2     C 1085   0.795   4.068  13.196  0.0512  0.0860 -0.0434
   70MPD2    C1 1086   0.676   4.135  13.193  0.0631  0.3970 -0.0349
   70MPD2    C2 1087   0.571   4.076  13.267  0.1912 -0.1830  0.2975
   70MPD2    C3 1088   0.602   3.977  13.359  0.7664 -0.5615 -0.6363
   70MPD2    C4 1089   0.730   3.925  13.367  0.6129  0.8487 -0.5858
   70MPD2    C5 1090   0.824   3.963  13.277  0.1581  0.1633  0.6368
   70MPD2     H 1091   0.470   4.115  13.257  0.1227 -1.1028 -2.5204
   70MPD2    H1 1092   0.755   3.839  13.428  0.0063  0.5985 -0.6833
   70MPD2    H2 1093   0.869   4.098  13.123  2.0239  4.1092  3.5933
   70MPD2    H3 1094   0.919   3.910  13.273 -0.5757 -1.2414  1.8026
   70MPD2     N 1095   0.509   3.900  13.419 -0.2680 -0.2267 -0.2290
   70MPD2    H5 1096   0.547   3.820  13.469 -0.9218 -0.0107  0.6124
   70MPD2    N1 1097   0.653   4.238  13.100  0.4245 -0.8447 -0.7825
   70MPD2    H7 1098   0.728   4.257  13.035  2.2488 -1.2263  1.2050
   71TMC2    C1 1099   2.231   4.340   1.378  0.3111  0.0184 -0.0794
   71TMC2    C2 1100   2.287   4.408   1.479  0.4935  0.4709 -0.3032
   71TMC2    C3 1101   2.227   4.396   1.601  0.0595  0.0872 -1.0045
   71TMC2    C4 1102   2.112   4.265   1.396 -0.6809  0.1074 -0.0457
   71TMC2    C5 1103   2.055   4.262   1.521 -0.2490 -0.3783  0.0265
   71TMC2    C6 1104   2.109   4.328   1.626 -0.1355  0.0978  0.3258
   71TMC2     C 1105   2.283   4.363   1.245 -0.6559 -0.2337  0.3479
   71TMC2     O 1106   2.375   4.439   1.223  0.2787 -0.1822  0.4269
   71TMC2     H 1107   2.368   4.479   1.466 -0.7028  1.9259  0.1773
   71TMC2    H1 1108   2.075   4.196   1.321 -0.6476  1.6021 -1.4421
   71TMC2    H2 1109   2.064   4.322   1.725 -1.7898  2.9937 -0.2330
   71TMC2    C7 1110   1.918   4.213   1.538 -0.5152 -0.1678 -0.0810
   71TMC2    C8 1111   2.267   4.496   1.693  0.1872 -0.8649 -0.3757
   71TMC2    O1 1112   1.884   4.164   1.647  0.4119  0.0987 -0.1127
   71TMC2    O2 1113   2.383   4.529   1.712 -0.3533 -0.4617 -0.2588
   71TMC2    O5 1114   2.164   4.559   1.747 -0.0976  0.6121 -0.5161
   71TMC2    H5 1115   2.082   4.534   1.700 -0.2012 -1.3819  0.7163
   72MPD2     C 1116   2.282   4.263   0.741  0.9714  1.0299  0.8207
   72MPD2    C1 1117   2.381   4.319   0.820 -0.3505 -0.3750 -0.1153
   72MPD2    C2 1118   2.348   4.348   0.953 -0.5093  0.1703  0.2047
   72MPD2    C3 1119   2.228   4.312   1.013  0.0649  0.1390 -0.3319
   72MPD2    C4 1120   2.133   4.250   0.932  0.0964 -1.1930  0.5896
   72MPD2    C5 1121   2.163   4.229   0.802  0.4451 -0.0922  0.3277
   72MPD2     H 1122   2.424   4.405   1.006 -0.8332  1.3915 -0.6389
   72MPD2    H1 1123   2.028   4.231   0.952  0.3354 -2.9128  0.1576
   72MPD2    H2 1124   2.291   4.250   0.634 -2.2590  3.0185  0.3044
   72MPD2    H3 1125   2.090   4.193   0.731  0.8455  1.6398 -0.9523
   72MPD2     N 1126   2.197   4.322   1.147 -0.2491  0.2647  0.1349
   72MPD2    H5 1127   2.104   4.294   1.176 -0.1116 -0.9795 -0.6514
   72MPD2    N1 1128   2.511   4.356   0.772  0.0525 -0.1819  0.2748
   72MPD2    H7 1129   2.573   4.403   0.837 -1.0283  1.4310  0.1610
   73TMC2    C1 1130   2.379   1.072  13.980  0.3538  0.1011 -0.0046
   73TMC2    C2 1131   2.261   1.024  14.030  0.2468  0.4927  0.5206
   73TMC2    C3 1132   2.229   1.054  14.160 -0.5368  0.3005  0.8908
   73TMC2    C4 1133   2.465   1.140  14.066  0.5387 -0.1076 -0.2958
   73TMC2    C5 1134   2.432   1.171  14.194  0.3778 -0.1006  0.0400
   73TMC2    C6 1135   2.311   1.119  14.249  0.0975  0.1313 -0.1986
   73TMC2     C 1136   2.346   1.149  13.855 -0.5425  0.2062  0.0556
   73TMC2     O 1137   2.395   1.261  13.855  0.8762  0.0275 -0.2067
   73TMC2     H 1138   2.185   0.972  13.973 -1.1445  1.0290  1.8790
   73TMC2    H1 1139   2.561   1.171  14.025 -1.0784 -0.2793 -4.2083
   73TMC2    H2 1140   2.273   1.139  14.348 -1.9242  2.3548 -1.4002
   73TMC2    C7 1141   2.454   1.312  14.227  0.3300 -0.1567 -0.0227
   73TMC2    C8 1142   2.119   0.975  14.211  0.1303 -0.3011 -0.1137
   73TMC2    O1 1143   2.459   1.340  14.345 -0.1259  0.3866 -0.0932
   73TMC2    O2 1144   2.080   0.870  14.164 -0.9996  0.0903  0.2093
   73TMC2    O5 1145   2.059   1.048  14.307  0.8265  0.1391  0.0034
   73TMC2    H5 1146   2.064   1.146  14.300 -2.9968  0.3733  0.4483
   74MPD2     C 1147   2.147   1.249  13.400 -0.0667 -0.3394  1.0188
   74MPD2    C1 1148   2.190   1.329  13.503  0.3973  0.5059 -0.6413
   74MPD2    C2 1149   2.221   1.274  13.623  0.1497  0.1323  0.0500
   74MPD2    C3 1150   2.216   1.138  13.645 -0.1367  0.1977 -0.7408
   74MPD2    C4 1151   2.148   1.058  13.551  0.6179 -0.5429 -0.1812
   74MPD2    C5 1152   2.117   1.116  13.428  0.2860  0.0309 -0.6095
   74MPD2     H 1153   2.256   1.338  13.703 -1.3670  0.8149  0.1636
   74MPD2    H1 1154   2.140   0.950  13.546 -0.4009 -0.5184  0.8981
   74MPD2    H2 1155   2.106   1.288  13.307  0.8806 -1.8824 -0.0427
   74MPD2    H3 1156   2.066   1.052  13.357 -1.0650  2.1083 -1.5369
   74MPD2     N 1157   2.259   1.085  13.769 -0.1090  0.5260  0.1296
   74MPD2    H5 1158   2.242   0.985  13.777  1.5692  0.1765 -0.6910
   74MPD2    N1 1159   2.209   1.472  13.481  0.0208 -0.0009 -0.3412
   74MPD2    H7 1160   2.180   1.512  13.393  1.3919  0.8027 -0.4256
   75TMC2    C1 1161   2.363   3.293  14.093 -0.3831 -0.4539  0.2299
   75TMC2    C2 1162   2.286   3.350  14.188 -0.1690 -0.5838 -1.5507
   75TMC2    C3 1163   2.159   3.391  14.156 -0.1698  0.9252  0.4217
   75TMC2    C4 1164   2.329   3.308  13.960  0.3444 -0.3784 -0.0405
   75TMC2    C5 1165   2.206   3.359  13.933 -0.0109 -0.5982 -0.4236
   75TMC2    C6 1166   2.111   3.393  14.024 -0.7891  0.9327  0.5019
   75TMC2     C 1167   2.487   3.222  14.122  1.2547  0.9028  0.1620
   75TMC2     O 1168   2.529   3.240  14.235 -0.2267 -0.0412 -0.2383
   75TMC2     H 1169   2.308   3.340  14.294 -0.2481  1.1618 -1.3781
   75TMC2    H1 1170   2.399   3.293  13.879 -0.0234  0.1522 -0.4594
   75TMC2    H2 1171   2.016   3.431  13.990 -0.4729 -0.7453 -2.2815
   75TMC2    C7 1172   2.187   3.403  13.794 -0.2994 -0.1638  0.3065
   75TMC2    C8 1173   2.080   3.464  14.254 -0.4708 -0.4321  0.4866
   75TMC2    O1 1174   2.075   3.397  13.747  0.1109 -0.3964 -0.1602
   75TMC2    O2 1175   2.131   3.508  14.359 -0.0484 -0.7133  0.1910
   75TMC2    O5 1176   1.947   3.473  14.214 -0.0183 -0.1801 -0.4128
   75TMC2    H5 1177   1.920   3.400  14.154 -0.8993  0.0026 -0.2386
   76TMC2    C1 1178   1.853   3.664  12.182  1.1801 -1.0394  0.5063
   76TMC2    C2 1179   1.794   3.557  12.246 -0.2545  0.6715 -0.3053
   76TMC2    C3 1180   1.880   3.466  12.297 -0.3001  0.2689  0.6534
   76TMC2    C4 1181   1.985   3.683  12.174 -0.0071 -0.4168 -0.1652
   76TMC2    C5 1182   2.072   3.586  12.230  0.4100 -0.3007  0.0970
   76TMC2    C6 1183   2.016   3.471  12.286  0.8073  0.4850 -0.2414
   76TMC2     C 1184   1.769   3.772  12.132 -0.0870  0.2291  0.0267
   76TMC2     O 1185   1.804   3.892  12.119 -0.3429 -0.1683  0.7589
   76TMC2     H 1186   1.687   3.541  12.254 -0.0369 -0.8145 -0.3376
   76TMC2    H1 1187   2.021   3.755  12.101  2.0379 -0.4855  0.7881
   76TMC2    H2 1188   2.082   3.396  12.328  0.8902  0.1193 -1.0259
   76TMC2    C7 1189   2.208   3.570  12.195  0.5280  0.1955  0.3666
   76TMC2    C8 1190   1.836   3.362  12.383 -0.3824 -0.0017  0.2045
   76TMC2    O1 1191   2.249   3.457  12.158  0.4127 -0.7710  0.1879
   76TMC2    O2 1192   1.907   3.265  12.412 -0.0497 -0.2885  0.5839
   76TMC2    O5 1193   1.747   3.426  12.471 -0.3704 -0.0505  0.5916
   76TMC2    H5 1194   1.685   3.493  12.435 -1.3257 -1.0919  0.2918
   77MPD2     C 1195   1.272   3.835  12.022  0.8896  0.7162  0.2775
   77MPD2    C1 1196   1.364   3.938  12.035  0.3157 -0.4037 -0.3874
   77MPD2    C2 1197   1.496   3.899  12.046 -0.0307  0.0084  0.2919
   77MPD2    C3 1198   1.532   3.766  12.049 -0.0797 -0.0490 -0.5968
   77MPD2    C4 1199   1.441   3.669  12.016 -0.8975 -0.5753 -0.7164
   77MPD2    C5 1200   1.312   3.708  11.995  0.0060  0.2237 -0.4198
   77MPD2     H 1201   1.567   3.974  12.080  0.7069 -0.5343 -0.0425
   77MPD2    H1 1202   1.466   3.566  11.995 -2.5592 -0.8886 -1.1475
   77MPD2    H2 1203   1.169   3.867  12.032  0.2265 -1.3092 -0.0223
   77MPD2    H3 1204   1.239   3.632  11.971 -0.2336  0.5769 -0.8026
   77MPD2     N 1205   1.658   3.713  12.083 -0.7524  0.0581 -0.3158
   77MPD2    H5 1206   1.671   3.614  12.062  0.4786 -0.1783  1.5016
   77MPD2    N1 1207   1.309   4.066  12.058  0.9273 -0.0287 -0.2052
   77MPD2    H7 1208   1.208   4.076  12.057  0.8689 -0.7128 -0.6413
   78TMC2    C1 1209   2.656   3.790   1.725  0.0864 -0.0262  0.4940
   78TMC2    C2 1210   2.703   3.903   1.786 -0.0094  0.2576  0.1553
   78TMC2    C3 1211   2.790   3.982   1.717  0.7231  0.3537 -0.2821
   78TMC2    C4 1212   2.690   3.757   1.596  0.3710 -0.2157 -0.5202
   78TMC2    C5 1213   2.774   3.847   1.527 -0.0025  0.0490  0.1823
   78TMC2    C6 1214   2.827   3.963   1.586 -0.2139 -0.3933  0.2495
   78TMC2     C 1215   2.573   3.709   1.803 -0.1611  0.7677 -0.4883
   78TMC2     O 1216   2.579   3.725   1.923  0.1240  0.6152  0.2906
   78TMC2     H 1217   2.665   3.931   1.883 -1.5612 -0.7545 -0.1638
   78TMC2    H1 1218   2.641   3.678   1.540 -0.1515  0.3941 -0.9287
   78TMC2    H2 1219   2.880   4.039   1.530 -1.6904  1.4399  1.2921
   78TMC2    C7 1220   2.805   3.795   1.392 -0.1805  0.5162  0.3353
   78TMC2    C8 1221   2.849   4.102   1.780 -0.5800  0.6462  0.4638
   78TMC2    O1 1222   2.760   3.685   1.362  0.5344  0.2931  0.0342
   78TMC2    O2 1223   2.935   4.161   1.719  0.6618 -0.5307 -0.7086
   78TMC2    O5 1224   2.751   4.154   1.854  0.0309  0.6950  0.2484
   78TMC2    H5 1225   2.668   4.102   1.856  0.8803 -0.6034  1.6483
   79MPD1     C 1226   2.222   3.363   1.871 -0.0098  0.5896 -0.2783
   79MPD1    C1 1227   2.203   3.410   1.748  0.0682 -0.0790 -0.3937
   79MPD1    C2 1228   2.302   3.489   1.694 -0.0576 -0.0937 -0.2680
   79MPD1    C3 1229   2.392   3.555   1.784  0.6242  0.0852 -0.3279
   79MPD1    C4 1230   2.398   3.514   1.916  0.2030 -0.3585 -0.2204
   79MPD1    C5 1231   2.320   3.414   1.956 -0.7319  0.0163  0.1640
   79MPD1     H 1232   2.309   3.509   1.587  0.2483  0.4790 -0.1431
   79MPD1    H1 1233   2.469   3.551   1.989  0.1350  0.3864 -0.5395
   79MPD1    H2 1234   2.157   3.288   1.914 -1.3928  1.9489 -0.0072
   79MPD1    H3 1235   2.317   3.400   2.063  1.4391  1.3269  0.3927
   79MPD1     N 1236   2.484   3.640   1.725 -0.1136  0.7715  0.5383
   79MPD1    H5 1237   2.471   3.649   1.625  1.2303 -0.1515  0.2728
   79MPD1    N1 1238   2.116   3.349   1.654  0.2769  0.2217  0.4999
   79MPD1    H6 1239   2.098   3.414   1.578  1.5535  1.4356  1.2181
   79MPD1    H7 1240   2.032   3.301   1.686 -0.8315  0.6727 -1.7949
   80TMC2    C1 1241   4.622   3.279  12.548 -0.4256  0.1135  0.1655
   80TMC2    C2 1242   4.548   3.392  12.551 -0.2790 -0.5818  0.4676
   80TMC2    C3 1243   4.418   3.376  12.598  0.0522  0.2975  0.0609
   80TMC2    C4 1244   4.576   3.155  12.565 -0.1329 -0.2536  0.2345
   80TMC2    C5 1245   4.446   3.145  12.617 -0.2995  0.1834  0.1125
   80TMC2    C6 1246   4.372   3.254  12.638 -0.0994 -0.5570 -0.3074
   80TMC2     C 1247   0.024   3.279  12.514  0.6991 -0.1882  0.2709
   80TMC2     O 1248   0.064   3.203  12.426  0.3395 -0.3738  0.0847
   80TMC2     H 1249   4.575   3.492  12.519  0.6744 -1.1400 -0.4625
   80TMC2    H1 1250   4.635   3.065  12.552  1.1258  0.4816  0.8675
   80TMC2    H2 1251   4.273   3.249  12.684  0.4082  1.6371  1.0123
   80TMC2    C7 1252   4.401   3.026  12.693  0.0693  0.5460  0.6916
   80TMC2    C8 1253   4.323   3.486  12.577  0.2410 -0.0923 -0.4183
   80TMC2    O1 1254   4.281   3.016  12.710  0.2698 -0.2620  0.2633
   80TMC2    O2 1255   4.265   3.496  12.471 -0.0618 -0.3408  0.6647
   80TMC2    O5 1256   4.272   3.504  12.695  0.4833 -0.4318 -0.9091
   80TMC2    H5 1257   4.331   3.471  12.767  0.6787 -0.9694 -1.3163
   81MPD2     C 1258   0.322   3.278  12.549  0.0299  0.0684 -0.3434
   81MPD2    C1 1259   0.235   3.379  12.595 -0.0883  0.3563 -0.5311
   81MPD2    C2 1260   0.285   3.486  12.668  0.0113  0.5742 -0.1053
   81MPD2    C3 1261   0.426   3.501  12.683 -0.6946 -0.3389 -0.2125
   81MPD2    C4 1262   0.507   3.406  12.629  0.2235  0.1844  0.0426
   81MPD2    C5 1263   0.456   3.304  12.553 -1.0596 -0.2177  0.9257
   81MPD2     H 1264   0.216   3.556  12.713 -0.3504  1.3426 -1.8427
   81MPD2    H1 1265   0.614   3.420  12.623 -0.1739  2.4966 -1.5258
   81MPD2    H2 1266   0.287   3.184  12.507  1.9478 -0.7662 -0.0403
   81MPD2    H3 1267   0.532   3.242  12.507 -1.0373 -0.3004  1.0763
   81MPD2     N 1268   0.485   3.610  12.761  0.1293 -0.7294 -0.0055
   81MPD2    H5 1269   0.583   3.605  12.786  0.4309  0.5206 -0.9141
   81MPD2    N1 1270   0.092   3.367  12.590  0.1156  0.5362 -0.2339
   81MPD2    H7 1271   0.043   3.439  12.642  1.1423  1.0682 -0.0229
   82TMC2    C1 1272   3.474   2.794  10.953  0.0733 -0.0063 -0.1095
   82TMC2    C2 1273   3.551   2.758  10.846  0.3438  0.1533 -0.2844
   82TMC2    C3 1274   3.519   2.636  10.799 -0.6095 -0.3071 -0.8437
   82TMC2    C4 1275   3.376   2.712  11.002 -0.0390  0.3741 -0.1811
   82TMC2    C5 1276   3.356   2.589  10.950 -0.1425  0.1596  0.4215
   82TMC2    C6 1277   3.426   2.549  10.844 -0.5705  0.1679 -0.2797
   82TMC2     C 1278   3.451   2.934  10.967 -0.0495  0.2420  0.1471
   82TMC2     O 1279   3.337   2.975  10.985 -0.7441 -0.0696 -0.7225
   82TMC2     H 1280   3.620   2.830  10.802 -0.7380  0.9584 -0.6491
   82TMC2    H1 1281   3.311   2.750  11.079 -1.6334 -0.2591 -1.2281
   82TMC2    H2 1282   3.403   2.450  10.809  1.0593  0.7115 -2.8951
   82TMC2    C7 1283   3.290   2.497  11.040 -0.3056 -0.2162  0.2006
   82TMC2    C8 1284   3.565   2.630  10.660  0.0873 -0.0524  0.0289
   82TMC2    O1 1285   3.261   2.545  11.152 -0.8349 -0.8729 -0.4069
   82TMC2    O2 1286   3.611   2.727  10.604 -0.2799 -0.0908 -0.4604
   82TMC2    O5 1287   3.547   2.507  10.611  0.0726  0.1519  0.2695
   82TMC2    H5 1288   3.533   2.441  10.682  0.5267 -0.4405 -0.1950
   83MPD2     C 1289   3.572   3.422  10.902 -0.3335 -0.1256 -0.9351
   83MPD2    C1 1290   3.449   3.368  10.924 -0.3874  0.3120 -0.3409
   83MPD2    C2 1291   3.445   3.235  10.948 -0.1581 -0.7676  0.8445
   83MPD2    C3 1292   3.557   3.150  10.953 -0.5358  0.1924  0.3351
   83MPD2    C4 1293   3.674   3.214  10.936  0.5510  0.6904 -0.1131
   83MPD2    C5 1294   3.682   3.345  10.917 -0.2947  0.8416 -0.2046
   83MPD2     H 1295   3.350   3.184  10.956 -0.0335 -0.9116  1.4750
   83MPD2    H1 1296   3.772   3.174  10.960  0.3951 -0.5103 -1.5225
   83MPD2    H2 1297   3.583   3.526  10.873 -0.2751  0.7641  2.2815
   83MPD2    H3 1298   3.777   3.396  10.918  0.4272 -0.4397 -2.4835
   83MPD2     N 1299   3.565   3.009  10.960  0.5307  0.0804 -0.1748
   83MPD2    H5 1300   3.659   2.971  10.955  0.5188  0.2093 -1.2884
   83MPD2    N1 1301   3.330   3.446  10.898 -0.2587 -0.0318  0.0368
   83MPD2    H7 1302   3.345   3.540  10.862 -2.5717  0.7362  1.1297
   84TMC2    C1 1303   0.152   2.446  10.987  0.2266 -0.0927 -0.6642
   84TMC2    C2 1304   0.232   2.553  10.981  0.1043 -0.0554  0.2076
   84TMC2    C3 1305   0.327   2.566  10.889 -0.8006 -1.0589  0.0071
   84TMC2    C4 1306   0.172   2.345  10.900 -0.4404 -0.2277  0.6101
   84TMC2    C5 1307   0.263   2.363  10.800 -0.0426 -0.0311 -0.9435
   84TMC2    C6 1308   0.338   2.474  10.789 -0.2373  0.1220  0.1223
   84TMC2     C 1309   0.069   2.436  11.104  0.1823  0.5338 -0.3730
   84TMC2     O 1310   0.107   2.490  11.208  0.4106  0.1295 -0.9466
   84TMC2     H 1311   0.205   2.640  11.040 -0.1854  2.2956 -3.4241
   84TMC2    H1 1312   0.106   2.259  10.892 -0.1898 -0.1408 -2.4289
   84TMC2    H2 1313   0.415   2.484  10.714  0.3175 -0.5566  0.6003
   84TMC2    C7 1314   0.251   2.268  10.695  0.0790  0.5197  0.1372
   84TMC2    C8 1315   0.439   2.663  10.904 -0.3151 -0.1292  1.0446
   84TMC2    O1 1316   0.213   2.163  10.734 -0.5694  0.5102 -0.5308
   84TMC2    O2 1317   0.506   2.688  10.810 -0.1232  0.5209 -0.1516
   84TMC2    O5 1318   0.476   2.676  11.029  0.2852  0.4242 -0.5699
   84TMC2    H5 1319   0.421   2.632  11.098 -0.8279  1.1376 -0.9982
   85TMC2    C1 1320   0.638   4.681  16.365 -1.0503 -0.3967  0.0767
   85TMC2    C2 1321   0.546   0.016  16.429  0.3058 -0.1269 -0.6292
   85TMC2    C3 1322   0.534   0.145  16.387  0.0378 -0.0887  0.5649
   85TMC2    C4 1323   0.727   4.730  16.273 -0.1367  0.1668  0.5360
   85TMC2    C5 1324   0.693   0.117  16.221  0.4086  0.5247 -0.2625
   85TMC2    C6 1325   0.600   0.198  16.284 -0.0731  0.0251 -0.1878
   85TMC2     C 1326   0.635   4.541  16.401 -0.1058  0.1864  0.1586
   85TMC2     O 1327   0.735   4.469  16.372 -0.8566  0.4999 -0.0711
   85TMC2     H 1328   0.492   4.717  16.514 -0.0456 -0.8131 -1.1844
   85TMC2    H1 1329   0.789   4.660  16.217  1.7418 -0.3911  3.3153
   85TMC2    H2 1330   0.579   0.300  16.254  0.3517  0.0966 -0.2344
   85TMC2    C7 1331   0.754   0.151  16.098  0.3244  0.0113  0.5832
   85TMC2    C8 1332   0.402   0.189  16.406 -0.1373 -0.2379  1.0956
   85TMC2    O1 1333   0.860   0.098  16.070  0.3523  0.2324 -0.0978
   85TMC2    O2 1334   0.349   0.250  16.312  0.2228 -0.4889 -0.0002
   85TMC2    O5 1335   0.392   0.226  16.534 -0.3033 -0.2962  0.0595
   85TMC2    H5 1336   0.462   0.200  16.597 -0.3262 -0.8308 -0.1345
   86MPD2     C 1337   0.416   4.151  16.632  0.5638  0.2378  0.2082
   86MPD2    C1 1338   0.317   4.214  16.558  0.1425  0.3092 -0.5047
   86MPD2    C2 1339   0.359   4.335  16.496 -0.0025 -0.0918 -0.2296
   86MPD2    C3 1340   0.488   4.375  16.492  0.3528 -0.3129 -0.2824
   86MPD2    C4 1341   0.582   4.307  16.568  0.4036  0.6571 -0.0549
   86MPD2    C5 1342   0.545   4.193  16.636  0.1406 -0.1776  0.8724
   86MPD2     H 1343   0.285   4.385  16.435 -0.1621  2.0778  1.7810
   86MPD2    H1 1344   0.687   4.334  16.565  0.8032 -1.1088 -1.9868
   86MPD2    H2 1345   0.402   4.063  16.693  0.8330  1.9324  2.7242
   86MPD2    H3 1346   0.622   4.132  16.682  1.2566 -0.0646 -0.8622
   86MPD2     N 1347   0.514   4.504  16.449 -0.3257 -0.4739  0.3796
   86MPD2    H5 1348   0.432   4.553  16.418  0.0274  0.4627  0.9273
   86MPD2    N1 1349   0.184   4.170  16.541  0.4953  0.2553 -0.6116
   86MPD2    H7 1350   0.122   4.206  16.469  1.6253  0.6421 -1.3873
   87TMC2    C1 1351   3.223   3.450   1.212  0.2866  0.0106 -0.0388
   87TMC2    C2 1352   3.232   3.532   1.322  0.9777 -0.0082  0.3695
   87TMC2    C3 1353   3.115   3.552   1.405 -0.2794  0.0289  0.8118
   87TMC2    C4 1354   3.105   3.385   1.196  0.1629 -0.2078 -0.0418
   87TMC2    C5 1355   2.992   3.419   1.265  0.2677  0.9373 -0.2443
   87TMC2    C6 1356   2.997   3.495   1.373 -0.2332  0.0369  0.3764
   87TMC2     C 1357   3.319   3.454   1.108  0.4145 -0.5412  0.0795
   87TMC2     O 1358   3.267   3.439   0.997 -0.1702  0.0930  0.6661
   87TMC2     H 1359   3.323   3.591   1.327  0.9361  0.0620  0.3019
   87TMC2    H1 1360   3.092   3.326   1.106 -0.5757  4.6253 -3.1215
   87TMC2    H2 1361   2.909   3.517   1.432 -0.2558 -1.6890  0.9635
   87TMC2    C7 1362   2.870   3.344   1.233 -0.1404 -0.2358 -1.0121
   87TMC2    C8 1363   3.117   3.640   1.529 -0.3862 -0.3984 -0.6813
   87TMC2    O1 1364   2.882   3.253   1.153 -0.1347  0.2201  0.4429
   87TMC2    O2 1365   3.198   3.722   1.555  0.0165 -0.2468  0.3379
   87TMC2    O5 1366   3.023   3.616   1.627  0.4271 -0.1818  0.5989
   87TMC2    H5 1367   2.978   3.529   1.624 -0.6823  0.4626 -1.7818
   88MPD2     C 1368   2.586   3.254   1.212 -0.4113  0.7256 -0.2768
   88MPD2    C1 1369   2.622   3.377   1.255 -0.3991 -0.6157 -0.5765
   88MPD2    C2 1370   2.522   3.465   1.296  0.3580  0.2034  0.0709
   88MPD2    C3 1371   2.384   3.441   1.288 -0.4280 -0.7535 -0.1689
   88MPD2    C4 1372   2.351   3.312   1.246 -0.0070  0.9431  0.5393
   88MPD2    C5 1373   2.452   3.224   1.207  0.4792  0.3718 -0.0185
   88MPD2     H 1374   2.558   3.564   1.321 -0.2697  0.5157 -0.2610
   88MPD2    H1 1375   2.247   3.282   1.240  1.4527 -4.3615  1.4429
   88MPD2    H2 1376   2.665   3.187   1.181  1.9304  3.1483  0.4585
   88MPD2    H3 1377   2.433   3.123   1.172 -1.2873 -0.0346  2.1372
   88MPD2     N 1378   2.290   3.550   1.304 -0.4079 -0.3137  0.5879
   88MPD2    H5 1379   2.198   3.524   1.268 -0.5036 -1.0804  1.3991
   88MPD2    N1 1380   2.753   3.417   1.267  0.4886  0.2189 -0.7918
   88MPD2    H7 1381   2.759   3.510   1.308 -0.0309  0.4936 -1.3496
   89TMC2    C1 1382   3.815   1.399   2.089  0.3787 -0.4117 -0.2514
   89TMC2    C2 1383   3.746   1.351   2.204 -0.0729 -0.2809  0.3308
   89TMC2    C3 1384   3.693   1.448   2.283 -0.3668 -1.2007  0.5295
   89TMC2    C4 1385   3.825   1.531   2.056  0.1435  0.1538  0.4758
   89TMC2    C5 1386   3.754   1.621   2.134  0.3665  0.2922 -0.3922
   89TMC2    C6 1387   3.699   1.581   2.256 -0.4185 -0.0350 -0.1468
   89TMC2     C 1388   3.824   1.310   1.972 -0.4222 -0.5339 -0.4862
   89TMC2     O 1389   3.929   1.318   1.920  0.0803 -0.0115  0.0638
   89TMC2     H 1390   3.738   1.244   2.219 -1.3985  0.1761  2.7017
   89TMC2    H1 1391   3.844   1.555   1.952 -1.5726 -1.4192 -0.1933
   89TMC2    H2 1392   3.645   1.639   2.330 -0.9320  0.0635 -0.6066
   89TMC2    C7 1393   3.719   1.747   2.076 -0.0330  0.8594 -0.0843
   89TMC2    C8 1394   3.632   1.417   2.409  0.0669  0.3305 -0.0198
   89TMC2    O1 1395   3.622   1.798   2.120  0.5847  0.4664  0.3036
   89TMC2    O2 1396   3.565   1.496   2.470  0.3122  0.2424  0.2557
   89TMC2    O5 1397   3.667   1.300   2.464  1.0301 -0.1422 -0.2316
   89TMC2    H5 1398   3.734   1.255   2.409  0.5648 -2.0680  0.7732
   90MPD2     C 1399   3.720   0.902   1.681 -0.0545 -0.2524 -0.0440
   90MPD2    C1 1400   3.616   0.920   1.768 -0.5693  0.3174 -0.3410
   90MPD2    C2 1401   3.631   1.013   1.870  0.1917  0.0793  0.7063
   90MPD2    C3 1402   3.733   1.108   1.859 -0.4618  0.0474 -0.7718
   90MPD2    C4 1403   3.829   1.095   1.762  0.1230  0.2660  0.0859
   90MPD2    C5 1404   3.814   1.000   1.669  0.3302  0.2346  0.2459
   90MPD2     H 1405   3.550   1.024   1.942  0.0285  0.3844  0.4749
   90MPD2    H1 1406   3.914   1.160   1.746 -0.4773  1.3575  1.3858
   90MPD2    H2 1407   3.712   0.826   1.604  0.4124 -1.4387  1.0651
   90MPD2    H3 1408   3.879   0.988   1.583  1.4479  2.7678  0.7370
   90MPD2     N 1409   3.733   1.204   1.960 -0.0691  1.1426 -0.0314
   90MPD2    H5 1410   3.652   1.198   2.022 -0.6391 -0.7035 -0.9542
   90MPD2    N1 1411   3.502   0.829   1.776  0.5848 -0.1268  0.2429
   90MPD2    H7 1412   3.439   0.850   1.853 -1.0348 -4.0261 -0.0472
   91TMC2    C1 1413   0.439   0.580  16.512  0.9249  0.3396 -0.4448
   91TMC2    C2 1414   0.505   0.593  16.631  0.0704  0.2387 -0.7657
   91TMC2    C3 1415   0.432   0.565  16.747 -0.3169  0.3273 -0.6909
   91TMC2    C4 1416   0.304   0.547  16.509  0.0054  0.0190  0.6008
   91TMC2    C5 1417   0.238   0.510  16.628 -0.1999 -0.2725 -0.1163
   91TMC2    C6 1418   0.302   0.528  16.743 -0.0933  0.0687 -0.5963
   91TMC2     C 1419   0.504   0.569  16.381  0.0004  0.1451 -1.0082
   91TMC2     O 1420   0.438   0.570  16.276  0.4641 -0.4705  0.0657
   91TMC2     H 1421   0.611   0.613  16.640 -0.0015 -0.2731  1.1899
   91TMC2    H1 1422   0.261   0.546  16.409 -2.3154 -2.1730  1.6294
   91TMC2    H2 1423   0.256   0.495  16.835  1.1891  1.4689  0.5498
   91TMC2    C7 1424   0.095   0.463  16.621  0.1076 -0.7085  0.8136
   91TMC2    C8 1425   0.476   0.596  16.880  0.2046 -0.1089  0.0158
   91TMC2    O1 1426   0.052   0.404  16.720 -0.8738  0.6787 -0.2199
   91TMC2    O2 1427   0.434   0.546  16.984 -0.1268  0.2596  0.1802
   91TMC2    O5 1428   0.576   0.682  16.872  0.0374 -0.5701  0.4484
   91TMC2    H5 1429   0.583   0.723  16.783 -2.2406 -0.0905  0.5109
   92MPD2     C 1430   0.691   0.630  16.150  0.0155  0.7009  0.2201
   92MPD2    C1 1431   0.726   0.596  16.279 -0.3604  0.0919 -0.5348
   92MPD2    C2 1432   0.857   0.591  16.308 -0.6179  0.2349 -0.2483
   92MPD2    C3 1433   0.952   0.637  16.219  0.2535  0.8174  0.5820
   92MPD2    C4 1434   0.925   0.666  16.094 -0.4073  0.3873 -0.1121
   92MPD2    C5 1435   0.793   0.652  16.061 -0.6606  0.7850 -0.2976
   92MPD2     H 1436   0.879   0.571  16.412  1.5833  1.2395 -0.5215
   92MPD2    H1 1437   1.001   0.691  16.021  0.6453  1.7072  1.4427
   92MPD2    H2 1438   0.587   0.621  16.120  0.8820 -1.8911 -1.9405
   92MPD2    H3 1439   0.776   0.666  15.955 -2.5065 -0.9907 -0.2279
   92MPD2     N 1440   1.087   0.650  16.251  0.0544 -0.0430  0.3423
   92MPD2    H5 1441   1.142   0.690  16.175  0.0168 -0.4732  0.0904
   92MPD2    N1 1442   0.642   0.566  16.382 -0.4486 -0.4911 -1.0786
   92MPD2    H7 1443   0.689   0.535  16.467 -0.0639  1.8157 -0.4498
   93TMC2    C1 1444   2.688   1.085  13.673 -0.1270  0.0666 -0.7970
   93TMC2    C2 1445   2.611   1.191  13.643 -0.3233  0.7233 -0.8745
   93TMC2    C3 1446   2.669   1.317  13.644  1.0337  0.8396  0.6335
   93TMC2    C4 1447   2.822   1.104  13.710 -1.1340  0.0177 -0.5388
   93TMC2    C5 1448   2.866   1.228  13.727 -0.5486  0.1401  1.0298
   93TMC2    C6 1449   2.797   1.340  13.691 -0.5246 -0.4488  0.1415
   93TMC2     C 1450   2.622   0.963  13.707  0.8994  0.6785 -0.3434
   93TMC2     O 1451   2.537   0.922  13.629  0.0299  0.6518  0.4846
   93TMC2     H 1452   2.507   1.183  13.612 -0.2766 -0.3987 -0.7443
   93TMC2    H1 1453   2.885   1.020  13.736 -1.2694  0.1474  0.2079
   93TMC2    H2 1454   2.841   1.439  13.692 -0.3826 -0.5093 -1.3650
   93TMC2    C7 1455   2.988   1.255  13.800  0.8414 -0.1619  0.0293
   93TMC2    C8 1456   2.587   1.430  13.605 -0.1393 -0.2552  0.6138
   93TMC2    O1 1457   3.059   1.156  13.820  0.8418  0.6970  1.0215
   93TMC2    O2 1458   2.601   1.542  13.654  0.6309  0.9276  0.1860
   93TMC2    O5 1459   2.526   1.392  13.492 -0.1587 -0.0256 -0.1619
   93TMC2    H5 1460   2.553   1.304  13.458  0.6311  0.5497 -1.0351
   94MPD2     C 1461   2.633   0.794  14.033 -0.3046  0.1427 -0.0768
   94MPD2    C1 1462   2.579   0.821  13.905  0.7510  0.5183  0.1781
   94MPD2    C2 1463   2.452   0.768  13.870  0.3866  0.0761  0.2771
   94MPD2    C3 1464   2.372   0.703  13.970 -0.2673 -0.4932  0.2677
   94MPD2    C4 1465   2.428   0.682  14.097  0.0061  0.0427 -0.8076
   94MPD2    C5 1466   2.557   0.713  14.123 -0.1730  0.3621 -0.4855
   94MPD2     H 1467   2.428   0.779  13.765 -2.3802  1.9140  1.1248
   94MPD2    H1 1468   2.361   0.644  14.173 -0.9249  4.2610  0.4652
   94MPD2    H2 1469   2.729   0.835  14.063  0.2608 -0.7479 -0.6754
   94MPD2    H3 1470   2.598   0.708  14.223  0.6095 -0.7802 -0.8614
   94MPD2     N 1471   2.241   0.670  13.957  0.1155 -0.3244 -0.0926
   94MPD2    H5 1472   2.198   0.627  14.038  0.5032 -0.6290 -0.0506
   94MPD2    N1 1473   2.653   0.916  13.831 -0.6299 -0.2753  0.2995
   94MPD2    H7 1474   2.734   0.961  13.872 -1.3450  0.8166  0.5185
   95TMC2    C1 1475   2.408   3.004  16.307  0.4979 -0.1735 -0.3096
   95TMC2    C2 1476   2.323   2.895  16.334 -0.1288 -0.1489 -0.4328
   95TMC2    C3 1477   2.275   2.880  16.460  0.9251 -0.3792 -0.3806
   95TMC2    C4 1478   2.434   3.093  16.399  0.9909  0.0960 -0.0627
   95TMC2    C5 1479   2.377   3.074  16.526  1.1345  0.3899  0.2496
   95TMC2    C6 1480   2.307   2.961  16.565 -0.0830 -0.0266 -0.0070
   95TMC2     C 1481   2.457   3.035  16.174  0.5346 -0.1344  0.1734
   95TMC2     O 1482   2.528   3.133  16.155  0.1808  0.0114 -0.1289
   95TMC2     H 1483   2.294   2.821  16.260  0.6021 -1.4359  0.5652
   95TMC2    H1 1484   2.487   3.184  16.373 -0.3238  1.0483  0.6323
   95TMC2    H2 1485   2.264   2.949  16.664  0.8264  0.5726  0.4591
   95TMC2    C7 1486   2.382   3.179  16.624  0.6990 -0.3248  0.1230
   95TMC2    C8 1487   2.174   2.778  16.472 -0.6343  0.1103  0.2417
   95TMC2    O1 1488   2.329   3.160  16.736  0.3011 -0.3578  0.3863
   95TMC2    O2 1489   2.106   2.732  16.380 -0.2344 -0.0993  0.5649
   95TMC2    O5 1490   2.215   2.706  16.580 -0.1645  0.5964 -0.0903
   95TMC2    H5 1491   2.298   2.746  16.613  0.9964  0.8832 -3.3131
   96MPD2     C 1492   2.416   2.957  15.664 -0.4282 -0.1322  0.7432
   96MPD2    C1 1493   2.501   3.048  15.728 -0.0803 -0.7548 -0.7190
   96MPD2    C2 1494   2.504   3.044  15.870  0.5868  0.3528  0.0216
   96MPD2    C3 1495   2.418   2.962  15.942  0.4837  0.7264  0.3496
   96MPD2    C4 1496   2.334   2.875  15.869 -0.5119 -0.2214 -0.4299
   96MPD2    C5 1497   2.336   2.879  15.733 -0.1915 -0.5350  0.2320
   96MPD2     H 1498   2.571   3.106  15.928  0.6599  0.8335 -0.5885
   96MPD2    H1 1499   2.267   2.815  15.929  2.7718 -0.6520  2.8030
   96MPD2    H2 1500   2.409   2.960  15.556 -0.2892  3.7701  0.8367
   96MPD2    H3 1501   2.269   2.814  15.677 -0.6829 -0.0041  0.2044
   96MPD2     N 1502   2.401   2.952  16.083  0.5097  0.3010 -1.1857
   96MPD2    H5 1503   2.322   2.895  16.113 -0.4972  2.0904 -0.4382
   96MPD2    N1 1504   2.582   3.135  15.650 -0.4059 -0.2582  0.1247
   96MPD2    H7 1505   2.567   3.130  15.550 -1.5229 -0.7654  0.3100
   97TMC2    C1 1506   0.037   0.798   0.411  0.3651  0.1901  0.4864
   97TMC2    C2 1507   4.705   0.759   0.306 -0.1704 -0.0183  0.5938
   97TMC2    C3 1508   4.725   0.828   0.187  0.4519 -0.5174 -0.5436
   97TMC2    C4 1509   0.121   0.904   0.410 -0.5438  0.0656  0.5649
   97TMC2    C5 1510   0.125   0.977   0.295  0.7936 -0.4539 -0.0150
   97TMC2    C6 1511   0.064   0.941   0.183  0.3633 -0.3050  0.3602
   97TMC2     C 1512   0.025   0.705   0.520  0.2716 -0.3345 -0.0767
   97TMC2     O 1513   0.013   0.586   0.502  0.0782  0.1378 -0.1909
   97TMC2     H 1514   4.641   0.673   0.320 -0.9118  0.5140  0.5106
   97TMC2    H1 1515   0.193   0.920   0.489  0.2742  0.6242 -0.3011
   97TMC2    H2 1516   0.064   1.013   0.102  0.8315  0.0706  0.6994
   97TMC2    C7 1517   0.233   1.073   0.293 -0.2990  0.4213 -0.1096
   97TMC2    C8 1518   4.645   0.803   0.072 -0.5929 -0.5809  0.4277
   97TMC2    O1 1519   0.291   1.103   0.399 -0.0546 -0.0331  0.2949
   97TMC2    O2 1520   4.635   0.897  17.756  0.5630  0.7399  0.1281
   97TMC2    O5 1521   4.575   0.688   0.091 -0.7233 -0.3493 -0.1722
   97TMC2    H5 1522   4.613   0.629   0.160  0.3639  1.0918  0.4533
   98MPD2     C 1523   4.641   0.628   1.009  0.3911  0.1005  0.3604
   98MPD2    C1 1524   4.630   0.547   0.898  0.1090  0.0853  0.4672
   98MPD2    C2 1525   4.669   0.602   0.774 -0.0321 -0.3279  0.2218
   98MPD2    C3 1526   4.734   0.723   0.765  0.0528  0.3135 -0.7161
   98MPD2    C4 1527   0.018   0.790   0.882  0.0369 -0.6068 -0.0820
   98MPD2    C5 1528   4.708   0.745   1.003  0.0203  0.6499  0.1858
   98MPD2     H 1529   4.640   0.540   0.690 -1.5501 -1.9617  1.9453
   98MPD2    H1 1530   0.070   0.885   0.881  1.1136 -1.2147 -1.2983
   98MPD2    H2 1531   4.606   0.596   1.107  0.0751  1.9999  0.8569
   98MPD2    H3 1532   4.717   0.793   1.100  1.8575  0.7437 -0.0237
   98MPD2     N 1533   0.028   0.778   0.638 -0.0894 -0.0272  0.1563
   98MPD2    H5 1534   0.062   0.873   0.641 -2.8303  0.9384  0.8883
   98MPD2    N1 1535   4.560   0.430   0.919 -0.3106 -0.4291 -0.2710
   98MPD2    H7 1536   4.532   0.403   1.013  2.7588 -1.4968  0.3168
   99TMC2    C1 1537   3.703   2.565   1.225  0.1632  0.1755 -0.3087
   99TMC2    C2 1538   3.847   2.563   1.231  0.2971 -0.6481 -0.0042
   99TMC2    C3 1539   3.901   2.560   1.347  1.0476  0.4220 -0.0559
   99TMC2    C4 1540   3.630   2.531   1.342  0.3563 -0.7825 -0.2669
   99TMC2    C5 1541   3.707   2.495   1.451  0.0895  0.8995  0.0397
   99TMC2    C6 1542   3.838   2.529   1.467  0.0783  0.7249  0.5244
   99TMC2     C 1543   3.623   2.633   1.127 -0.7402  0.0985  0.4092
   99TMC2     O 1544   3.677   2.719   1.058  0.4107 -0.5396 -0.4324
   99TMC2     H 1545   3.894   2.586   1.136  1.5532 -2.5871  0.1469
   99TMC2    H1 1546   3.523   2.516   1.337  0.0551  1.3176  0.0392
   99TMC2    H2 1547   3.885   2.501   1.560 -0.2131 -0.4080  0.3313
   99TMC2    C7 1548   3.630   2.430   1.562 -0.7664  0.2917  0.3128
   99TMC2    C8 1549   4.036   2.512   1.349 -0.1474 -0.0955 -0.0152
   99TMC2    O1 1550   3.669   2.444   1.676 -0.3161 -0.3560  0.1308
   99TMC2    O2 1551   4.097   2.517   1.453  0.1202  0.2716  0.6984
   99TMC2    O5 1552   4.031   2.410   1.260  0.3839 -0.0095 -0.1975
   99TMC2    H5 1553   3.963   2.405   1.190 -1.0010 -3.4347  1.4174
  100MPD2     C 1554   3.403   2.749   0.978 -0.0693 -0.7254  0.0466
  100MPD2    C1 1555   3.400   2.624   1.031 -0.9154 -0.2164 -0.0856
  100MPD2    C2 1556   3.296   2.540   0.993 -0.2976  0.2562  0.5948
  100MPD2    C3 1557   3.192   2.576   0.908 -0.5692  0.5512 -0.3987
  100MPD2    C4 1558   3.195   2.703   0.856 -0.4728  0.2269 -0.5349
  100MPD2    C5 1559   3.306   2.778   0.891 -0.3603 -0.8649 -0.3794
  100MPD2     H 1560   3.289   2.448   1.051 -0.1422  0.4531  0.9244
  100MPD2    H1 1561   3.133   2.728   0.771 -0.7149 -0.5114 -0.5694
  100MPD2    H2 1562   3.470   2.827   1.010  0.3334 -0.7444 -0.7579
  100MPD2    H3 1563   3.322   2.873   0.840 -0.2280 -0.8367 -0.2850
  100MPD2     N 1564   3.089   2.483   0.875 -0.2947 -0.2668 -0.7203
  100MPD2    H5 1565   3.116   2.387   0.891  0.9343 -0.0326 -1.3900
  100MPD2    N1 1566   3.499   2.573   1.114  0.4758  0.5508  0.7745
  100MPD2    H7 1567   3.476   2.479   1.146 -0.0006  1.0165  1.8222
  101TMC2    C1 1568   3.834   3.647  13.468 -0.0087 -0.2119  0.7157
  101TMC2    C2 1569   3.807   3.695  13.594  0.4610 -0.1211  0.5871
  101TMC2    C3 1570   3.883   3.797  13.644  0.1679 -0.2113 -0.1895
  101TMC2    C4 1571   3.931   3.694  13.389 -0.8038 -0.1400 -0.2183
  101TMC2    C5 1572   4.003   3.796  13.444  0.1221 -0.0279 -0.1667
  101TMC2    C6 1573   3.982   3.848  13.567 -0.2685  0.5858  0.5172
  101TMC2     C 1574   3.767   3.513  13.448  0.4594 -0.3351  0.0244
  101TMC2     O 1575   3.655   3.496  13.499  0.6068 -0.1174 -0.2357
  101TMC2     H 1576   3.725   3.650  13.650  0.3685  0.4353  0.9068
  101TMC2    H1 1577   3.957   3.657  13.291  1.4828 -0.5291  0.5141
  101TMC2    H2 1578   4.047   3.931  13.590  1.3617 -0.4957 -0.2347
  101TMC2    C7 1579   4.110   3.850  13.368 -0.0584  0.1002 -0.0660
  101TMC2    C8 1580   3.856   3.873  13.772  0.5549 -0.5772 -0.2590
  101TMC2    O1 1581   4.098   3.870  13.248 -0.2982  0.9044  0.0737
  101TMC2    O2 1582   3.869   3.991  13.774  0.4781 -0.2452 -0.1926
  101TMC2    O5 1583   3.752   3.804  13.826  0.8610  0.0036  0.2331
  101TMC2    H5 1584   3.775   3.709  13.834 -0.7379 -0.5406 -1.7319
  102MPD2     C 1585   3.864   3.210  13.272 -0.6296  0.2805 -0.5090
  102MPD2    C1 1586   3.783   3.287  13.351 -0.4631 -0.5869 -0.1178
  102MPD2    C2 1587   3.676   3.229  13.413 -0.4720  1.0607  0.1758
  102MPD2    C3 1588   3.634   3.103  13.388 -0.3421  0.0097  0.4033
  102MPD2    C4 1589   3.707   3.020  13.296  0.6446 -0.4227 -0.6996
  102MPD2    C5 1590   3.826   3.076  13.242 -0.2408  1.0219  0.3214
  102MPD2     H 1591   3.619   3.287  13.485  0.8777  1.2315  1.1083
  102MPD2    H1 1592   3.690   2.913  13.285  1.4343 -0.6290  0.1146
  102MPD2    H2 1593   3.961   3.239  13.234 -0.6212  1.1796  0.2054
  102MPD2    H3 1594   3.891   3.025  13.171  0.0181 -1.1672  2.1531
  102MPD2     N 1595   3.515   3.063  13.457 -0.6266  0.3896 -0.3236
  102MPD2    H5 1596   3.478   3.129  13.525 -0.6722  0.2109 -0.1755
  102MPD2    N1 1597   3.828   3.418  13.365 -0.2568  0.0635  0.4978
  102MPD2    H7 1598   3.925   3.431  13.338 -0.5666 -0.6031 -0.9365
  103TMC2    C1 1599   2.805   4.096  12.351  0.5684  0.9007  0.0441
  103TMC2    C2 1600   2.934   4.047  12.337  0.5720 -0.8087 -0.3202
  103TMC2    C3 1601   3.025   4.131  12.392 -0.2478 -0.5135 -0.4420
  103TMC2    C4 1602   2.778   4.205  12.423  0.9507  0.2990  0.4049
  103TMC2    C5 1603   2.878   4.276  12.483  0.9527 -0.0245 -0.1413
  103TMC2    C6 1604   3.007   4.241  12.465 -0.2391  0.4775  0.0181
  103TMC2     C 1605   2.687   4.013  12.318 -0.5699 -0.2704  0.6432
  103TMC2     O 1606   2.589   4.026  12.391  0.6923 -0.0677  0.5656
  103TMC2     H 1607   2.959   3.957  12.281  1.0901 -1.4044  0.8578
  103TMC2    H1 1608   2.676   4.231  12.451  0.3148 -1.4131 -0.3165
  103TMC2    H2 1609   3.089   4.300  12.504  0.9856 -0.1709 -1.6499
  103TMC2    C7 1610   2.850   4.400  12.560 -0.2433  0.0874 -0.5731
  103TMC2    C8 1611   3.161   4.080  12.364 -0.1233 -0.2100 -0.6410
  103TMC2    O1 1612   2.951   4.465  12.588  0.4898 -0.2001 -0.2074
  103TMC2    O2 1613   3.191   3.992  12.283 -0.1927 -0.0274 -0.1502
  103TMC2    O5 1614   3.239   4.130  12.467  0.1809 -0.1467 -0.3849
  103TMC2    H5 1615   3.198   4.190  12.532 -0.3836 -1.1036  0.1471
  104MPD2     C 1616   2.656   3.758  12.055  0.2601  0.1828  0.6899
  104MPD2    C1 1617   2.624   3.823  12.171 -0.2885  0.2434 -0.2713
  104MPD2    C2 1618   2.496   3.801  12.220 -0.1538 -0.1829  0.1251
  104MPD2    C3 1619   2.415   3.700  12.168 -0.1351  0.0052 -0.4974
  104MPD2    C4 1620   2.460   3.629  12.061  0.0452 -1.1236  0.0185
  104MPD2    C5 1621   2.581   3.655  12.000  0.2650  0.1941  0.4778
  104MPD2     H 1622   2.472   3.840  12.319 -0.9282  0.4869 -0.3318
  104MPD2    H1 1623   2.400   3.557  12.007  0.3096 -1.2290 -0.1387
  104MPD2    H2 1624   2.746   3.784  12.001  0.5993 -0.0222  1.1500
  104MPD2    H3 1625   2.616   3.604  11.911 -2.5464  0.3038 -0.6885
  104MPD2     N 1626   2.284   3.680  12.222 -0.3486 -0.0002 -0.1162
  104MPD2    H5 1627   2.244   3.750  12.284 -0.0867  0.5360 -0.5557
  104MPD2    N1 1628   2.716   3.917  12.224  0.6088 -0.4272  0.3947
  104MPD2    H7 1629   2.805   3.923  12.175  1.6586 -2.3337  2.0556
  105TMC2    C1 1630   3.521   3.508   0.307 -0.0999  1.0755  0.1127
  105TMC2    C2 1631   3.601   3.564   0.211 -0.5633  0.0777 -0.3714
  105TMC2    C3 1632   3.728   3.605   0.243 -0.2478  0.4746  1.1341
  105TMC2    C4 1633   3.568   3.491   0.437  0.5017 -0.2997 -0.7600
  105TMC2    C5 1634   3.692   3.544   0.468  0.0108  0.0139  0.5934
  105TMC2    C6 1635   3.766   3.610   0.376 -0.1359  0.2564  0.4172
  105TMC2     C 1636   3.391   3.455   0.273  0.0719  0.7043 -0.3157
  105TMC2     O 1637   3.310   3.431   0.361  0.8565  0.2197  0.1662
  105TMC2     H 1638   3.570   3.608   0.117 -0.7825 -2.0483 -1.2902
  105TMC2    H1 1639   3.504   3.426   0.495  0.4064  2.2170  1.9430
  105TMC2    H2 1640   3.859   3.659   0.402  0.2645 -0.6250  0.6378
  105TMC2    C7 1641   3.731   3.552   0.608 -0.2701  0.4128  0.7397
  105TMC2    C8 1642   3.803   3.689   0.158  0.1734 -0.3434  0.0011
  105TMC2    O1 1643   3.837   3.608   0.629 -0.0508  0.5036 -0.2612
  105TMC2    O2 1644   3.752   3.756   0.072 -0.3184 -0.5460  0.7636
  105TMC2    O5 1645   3.936   3.680   0.186 -0.2642 -0.1225  0.0959
  105TMC2    H5 1646   3.963   3.613   0.252  0.4151 -0.5626 -0.6343
  106MPD2     C 1647   3.198   3.083  17.746 -0.8103  0.2378 -0.3442
  106MPD2    C1 1648   3.303   3.141  17.672  0.2777  0.7751  0.5031
  106MPD2    C2 1649   3.357   3.263  17.716 -0.2173  0.0352 -0.1764
  106MPD2    C3 1650   3.315   3.314   0.080  0.0051 -0.7877  0.3910
  106MPD2    C4 1651   3.207   3.258   0.142  0.3491 -0.3569 -0.0893
  106MPD2    C5 1652   3.138   3.151   0.085  0.2713 -0.5525 -0.0291
  106MPD2     H 1653   3.444   3.291  17.659 -0.9351  1.6036 -0.4825
  106MPD2    H1 1654   3.186   3.293   0.243  0.1763 -0.4461 -0.0945
  106MPD2    H2 1655   3.146   3.001  17.698  0.1204 -1.1374  0.9475
  106MPD2    H3 1656   3.056   3.123   0.149 -2.0767  1.3287 -2.1853
  106MPD2     N 1657   3.407   3.404   0.145  0.6408  0.5257 -0.4977
  106MPD2    H5 1658   3.494   3.420   0.095  0.8603  1.2859  0.1339
  106MPD2    N1 1659   3.369   3.080  17.555  0.4640 -0.3808  0.7637
  106MPD2    H7 1660   3.427   3.141  17.500 -1.3695  1.7955  1.2150
  107TMC2    C1 1661   4.472   2.449  11.905 -0.3631 -0.0165  0.3204
  107TMC2    C2 1662   4.595   2.502  11.891 -0.7188 -0.2989 -0.3497
  107TMC2    C3 1663   4.687   2.422  11.843  0.0671 -0.0517 -0.0157
  107TMC2    C4 1664   4.432   2.331  11.859 -0.1883 -0.2503  0.6075
  107TMC2    C5 1665   4.522   2.263  11.782  0.7786  0.0504  0.6095
  107TMC2    C6 1666   4.651   2.302  11.789  0.6860  0.1004 -0.9292
  107TMC2     C 1667   4.385   2.505  12.007 -0.0101  0.1094 -0.5546
  107TMC2     O 1668   4.307   2.423  12.057  0.2506  0.1401  0.3499
  107TMC2     H 1669   4.619   2.590  11.950 -1.5742 -0.2748 -0.0413
  107TMC2    H1 1670   4.331   2.292  11.859 -0.6054  0.8156  0.9719
  107TMC2    H2 1671   4.733   2.245  11.748 -0.5744 -1.5677 -1.1208
  107TMC2    C7 1672   4.476   2.221  11.644  0.2142 -0.1877  0.0888
  107TMC2    C8 1673   0.057   2.480  11.766 -0.4551  0.7413 -0.0341
  107TMC2    O1 1674   4.396   2.133  11.640 -0.1959 -0.3588  0.1041
  107TMC2    O2 1675   0.160   2.425  11.737  0.1576 -0.1692  0.0934
  107TMC2    O5 1676   4.730   2.558  11.684 -0.3827 -0.1973  0.1934
  107TMC2    H5 1677   4.633   2.566  11.694  0.1002  3.2950  2.1469
  108MPD2     C 1678   4.248   2.834  11.994  0.5134 -0.3425  0.6661
  108MPD2    C1 1679   4.270   2.713  12.053 -0.1904 -0.6207 -0.2872
  108MPD2    C2 1680   4.171   2.659  12.131 -0.2059 -0.4042 -0.0717
  108MPD2    C3 1681   4.046   2.711  12.146 -0.5834 -0.6472 -0.0952
  108MPD2    C4 1682   4.027   2.829  12.080 -0.4173  0.2034  0.6784
  108MPD2    C5 1683   4.124   2.889  12.005 -0.1396  0.6382  0.0670
  108MPD2     H 1684   4.191   2.566  12.183 -2.1572  0.6001  2.4384
  108MPD2    H1 1685   3.934   2.883  12.092 -0.0890  0.0830  3.7969
  108MPD2    H2 1686   4.324   2.887  11.938  0.3465 -0.4748  0.3111
  108MPD2    H3 1687   4.096   2.984  11.960 -2.7718  0.7398  1.9766
  108MPD2     N 1688   3.938   2.649  12.220  0.2301 -0.6048  0.3883
  108MPD2    H5 1689   3.852   2.702  12.227 -0.1456 -0.8043 -2.6371
  108MPD2    N1 1690   4.384   2.639  12.007  0.0942 -0.4186 -0.3251
  108MPD2    H7 1691   4.447   2.691  11.948  0.2588 -0.8602 -0.5373
  109TMC2    C1 1692   3.782   4.252   0.098  0.2080  0.1667 -0.3361
  109TMC2    C2 1693   3.726   4.330  17.761  0.4588  0.0918  0.6719
  109TMC2    C3 1694   3.781   4.446  17.733 -0.1864  0.4767 -0.4735
  109TMC2    C4 1695   3.888   4.297   0.173  0.9287  0.1584 -0.0717
  109TMC2    C5 1696   3.943   4.417   0.151  0.0149  0.0404 -0.1449
  109TMC2    C6 1697   3.882   4.494   0.056 -0.3665  0.5175 -0.3258
  109TMC2     C 1698   3.692   4.141   0.141  0.2947 -0.0574  0.0135
  109TMC2     O 1699   3.585   4.134   0.084  0.8667  0.1430  0.2733
  109TMC2     H 1700   3.638   4.296  17.708  0.3172 -0.2398  1.1219
  109TMC2    H1 1701   3.932   4.232   0.248  0.0956 -2.9146 -2.2316
  109TMC2    H2 1702   3.928   4.592   0.052  2.0955 -0.5579  1.6670
  109TMC2    C7 1703   4.036   4.471   0.244 -0.5681  0.6242  0.5892
  109TMC2    C8 1704   3.701   4.545  17.674  0.2162  0.3275 -0.2189
  109TMC2    O1 1705   4.047   4.593   0.240 -0.3730  0.3908  0.9033
  109TMC2    O2 1706   3.684   4.659  17.715  0.7142  1.0172  0.0541
  109TMC2    O5 1707   3.628   4.480  17.577  0.2001  0.2737  0.4521
  109TMC2    H5 1708   3.640   4.388  17.544  0.6750 -0.1579  1.8147
  110MPD2     C 1709   3.499   3.832   0.486  0.5382 -0.4631 -0.5329
  110MPD2    C1 1710   3.607   3.889   0.547 -0.3617 -0.3716  0.1802
  110MPD2    C2 1711   3.693   3.966   0.465  0.5875 -0.2936  0.1901
  110MPD2    C3 1712   3.658   3.994   0.334 -0.4376 -0.2035  0.3508
  110MPD2    C4 1713   3.565   3.916   0.267 -0.3698  0.2611  0.2108
  110MPD2    C5 1714   3.483   3.841   0.351 -0.0864  0.4271 -0.3629
  110MPD2     H 1715   3.774   4.024   0.507  0.4363  0.9512 -1.2696
  110MPD2    H1 1716   3.556   3.915   0.159 -2.2391  0.1740  0.3618
  110MPD2    H2 1717   3.423   3.776   0.539  0.8686  0.9044  1.3972
  110MPD2    H3 1718   3.403   3.787   0.302  1.6314 -0.8735 -1.7157
  110MPD2     N 1719   3.731   4.091   0.265 -0.2592 -0.4900  0.4134
  110MPD2    H5 1720   3.809   4.136   0.311  0.1843  0.3484 -1.1618
  110MPD2    N1 1721   3.618   3.874   0.689  0.8581  0.7332 -0.3164
  110MPD2    H7 1722   3.545   3.817   0.730  2.6926 -0.3537  1.4626
  111TMC2    C1 1723   3.938   4.366  11.961  0.7384  0.1731 -0.0465
  111TMC2    C2 1724   3.829   4.409  12.030  0.3561 -0.1627 -1.2877
  111TMC2    C3 1725   3.850   4.470  12.152 -0.2174 -0.6393 -0.4396
  111TMC2    C4 1726   4.065   4.376  12.013  0.0398  0.3180 -0.5827
  111TMC2    C5 1727   4.084   4.439  12.136  0.3436 -0.0176  0.2976
  111TMC2    C6 1728   3.975   4.482  12.210 -0.3113  0.3120 -0.0286
  111TMC2     C 1729   3.922   4.311  11.824  1.3121  0.4282  1.0046
  111TMC2     O 1730   4.008   4.348  11.744  0.3767  0.1630  0.5327
  111TMC2     H 1731   3.727   4.402  11.995  0.1625  1.2257 -1.0183
  111TMC2    H1 1732   4.143   4.322  11.961 -0.5602 -0.9931 -0.1158
  111TMC2    H2 1733   3.982   4.543  12.300 -0.0190 -1.1687  0.9536
  111TMC2    C7 1734   4.212   4.430  12.203  0.0476 -0.1880  0.6053
  111TMC2    C8 1735   3.741   4.487  12.237 -0.2112 -0.4468  0.2969
  111TMC2    O1 1736   4.208   4.453  12.323  0.0338 -0.3188  0.2234
  111TMC2    O2 1737   3.640   4.551  12.202 -0.0497  0.0480  0.1202
  111TMC2    O5 1738   3.739   4.376  12.319  0.0081 -1.0706  0.3517
  111TMC2    H5 1739   3.820   4.321  12.328 -0.5857 -1.5695  2.5559
  112MPD2     C 1740   3.585   4.249  11.428  0.2211  0.2286 -0.4222
  112MPD2    C1 1741   3.702   4.321  11.436  0.0321  0.1130  0.0309
  112MPD2    C2 1742   3.782   4.310  11.553  0.6134 -0.0914  0.6000
  112MPD2    C3 1743   3.737   4.253  11.668 -0.0791  0.1336 -0.5637
  112MPD2    C4 1744   3.614   4.193  11.661 -0.4361  0.0878  0.0273
  112MPD2    C5 1745   3.543   4.185  11.540  0.4990 -0.1512 -0.5931
  112MPD2     H 1746   3.873   4.369  11.548 -0.3731  1.3160 -0.7813
  112MPD2    H1 1747   3.570   4.156  11.752 -0.1998 -2.4511 -0.8805
  112MPD2    H2 1748   3.543   4.230  11.330  0.6536  2.0839 -0.9668
  112MPD2    H3 1749   3.448   4.135  11.527  0.1947  0.1397  0.5213
  112MPD2     N 1750   3.800   4.254  11.794 -0.1687 -0.1387 -0.0616
  112MPD2    H5 1751   3.744   4.213  11.868 -0.9015 -0.1665 -0.6377
  112MPD2    N1 1752   3.758   4.387  11.324  0.2491 -0.1147 -0.9540
  112MPD2    H7 1753   3.847   4.433  11.338  1.0586 -1.2130 -2.4775
  113TMC2    C1 1754   2.287   2.171   0.760 -0.3769  0.3640  0.3315
  113TMC2    C2 1755   2.243   2.291   0.719  0.2958  1.0289 -0.0927
  113TMC2    C3 1756   2.176   2.305   0.601  0.0062 -0.4196  0.0733
  113TMC2    C4 1757   2.269   2.059   0.676 -0.4873  0.4202 -0.7668
  113TMC2    C5 1758   2.189   2.069   0.565 -0.6639 -0.9525 -0.1582
  113TMC2    C6 1759   2.144   2.194   0.522 -0.4244  0.0055  0.3635
  113TMC2     C 1760   2.389   2.170   0.863 -0.4941  0.1486 -0.3604
  113TMC2     O 1761   2.382   2.257   0.951 -0.1016 -0.3700 -0.9668
  113TMC2     H 1762   2.272   2.377   0.779 -1.5844  1.3369  0.3910
  113TMC2    H1 1763   2.283   1.960   0.719  1.7696 -0.2329 -2.9917
  113TMC2    H2 1764   2.087   2.199   0.429 -0.7707  0.7532  0.6174
  113TMC2    C7 1765   2.141   1.955   0.482  0.0602 -0.1420 -0.1129
  113TMC2    C8 1766   2.110   2.428   0.569  0.1233 -0.5212 -0.9254
  113TMC2    O1 1767   2.086   1.989   0.382 -0.0541 -0.0167  0.2787
  113TMC2    O2 1768   1.998   2.422   0.524  0.8210 -0.3815  0.3649
  113TMC2    O5 1769   2.213   2.496   0.512 -0.0656  0.3921  0.0547
  113TMC2    H5 1770   2.295   2.447   0.533  1.5359  3.2928  0.4670
  114MPD2     C 1771   2.868   2.090   1.015 -0.8425  0.2817  0.1051
  114MPD2    C1 1772   2.774   2.185   1.052  0.7275  0.8154  0.3092
  114MPD2    C2 1773   2.644   2.170   1.010  0.2484  1.5228 -0.2276
  114MPD2    C3 1774   2.613   2.081   0.904  0.0119  0.1854 -0.3146
  114MPD2    C4 1775   2.714   2.007   0.850  0.6621 -0.4734 -0.2360
  114MPD2    C5 1776   2.835   2.006   0.912 -0.1563  0.1432  0.1378
  114MPD2     H 1777   2.577   2.250   1.040 -0.8687 -0.3509  2.3160
  114MPD2    H1 1778   2.702   1.945   0.762 -0.6749 -0.4645 -0.0528
  114MPD2    H2 1779   2.973   2.099   1.041 -0.6251 -0.5599 -0.4714
  114MPD2    H3 1780   2.892   1.930   0.860 -1.5852 -1.3553  0.7476
  114MPD2     N 1781   2.487   2.077   0.834  0.2992 -0.8722  0.3210
  114MPD2    H5 1782   2.481   2.031   0.744  0.7026  0.5149 -0.4217
  114MPD2    N1 1783   2.800   2.294   1.137 -0.2401 -0.3592  0.1887
  114MPD2    H7 1784   2.721   2.351   1.168 -1.2126 -1.0895 -0.9472
  115TMC2    C1 1785   2.982   0.420   0.261 -0.1337  0.8546  0.6721
  115TMC2    C2 1786   3.080   0.477   0.342 -0.1735  0.4992  0.1515
  115TMC2    C3 1787   3.074   0.614   0.337  0.5493 -0.3589  0.5397
  115TMC2    C4 1788   2.888   0.496   0.195 -0.1211  0.2875  0.2313
  115TMC2    C5 1789   2.890   0.626   0.197 -0.0958 -0.0372  0.8212
  115TMC2    C6 1790   2.981   0.692   0.267 -0.1733  0.7630  0.5991
  115TMC2     C 1791   2.983   0.280   0.212  0.0520 -0.7038  1.1252
  115TMC2     O 1792   2.896   0.233   0.139 -0.3746  0.0541  0.2828
  115TMC2     H 1793   3.161   0.424   0.390  1.1653  2.7375  0.3742
  115TMC2    H1 1794   2.818   0.445   0.130  1.3392 -1.3631 -0.0514
  115TMC2    H2 1795   2.975   0.800   0.279  1.5875  0.8682  0.5003
  115TMC2    C7 1796   2.790   0.700   0.122  0.0099  1.0965  0.3071
  115TMC2    C8 1797   3.165   0.696   0.415 -0.0324 -0.1470  0.0634
  115TMC2    O1 1798   2.671   0.687   0.141  0.4130  0.5533 -0.5596
  115TMC2    O2 1799   3.201   0.813   0.393 -0.9080  0.4068 -0.1683
  115TMC2    O5 1800   3.191   0.629   0.533 -0.5241  0.2133  0.4581
  115TMC2    H5 1801   3.160   0.537   0.549 -2.9796  0.6982 -1.6576
  116MPD2     C 1802   3.143   4.547   0.285  0.0325 -0.2084  0.7028
  116MPD2    C1 1803   3.075   4.599   0.180 -0.3562 -0.1402 -0.0139
  116MPD2    C2 1804   3.046   4.735   0.179 -0.3149 -0.2840  0.5171
  116MPD2    C3 1805   3.108   0.074   0.275  0.7274  0.3852  0.3274
  116MPD2    C4 1806   3.191   0.018   0.367  0.0560  0.0105  0.1999
  116MPD2    C5 1807   3.202   4.624   0.376  0.0920 -0.4310 -0.4665
  116MPD2     H 1808   2.981   0.030   0.100 -1.5653 -0.8426  1.2778
  116MPD2    H1 1809   3.240   0.079   0.441 -0.3676  1.8917 -1.0738
  116MPD2    H2 1810   3.157   4.439   0.284  0.9381 -0.0799  0.1382
  116MPD2    H3 1811   3.260   4.577   0.454 -0.4294  1.5173  1.0823
  116MPD2     N 1812   3.078   0.212   0.285 -0.1505  0.1044  0.2132
  116MPD2    H5 1813   3.133   0.270   0.348  0.7204  1.2811 -1.6467
  116MPD2    N1 1814   3.030   4.502   0.086 -0.1186 -0.4228  0.2812
  116MPD2    H7 1815   3.060   4.406   0.102  0.6783 -0.7934 -3.3408
  117TMC2    C1 1816   1.317   1.843  14.097  0.2645  0.4474  0.3438
  117TMC2    C2 1817   1.414   1.742  14.103 -0.4179 -0.1650  0.0725
  117TMC2    C3 1818   1.538   1.775  14.141 -0.1624 -0.4144 -0.2805
  117TMC2    C4 1819   1.345   1.974  14.117 -0.1438 -0.1931 -0.3105
  117TMC2    C5 1820   1.471   2.006  14.154  0.1012  1.1107  0.0857
  117TMC2    C6 1821   1.572   1.906  14.163  0.1210  0.8650  0.0281
  117TMC2     C 1822   1.184   1.798  14.099  0.2904 -0.3386 -0.6847
  117TMC2     O 1823   1.173   1.676  14.099 -0.3996  0.1391  0.0902
  117TMC2     H 1824   1.397   1.635  14.097 -0.0939 -0.1359 -1.2135
  117TMC2    H1 1825   1.264   2.047  14.123 -0.8569 -1.1120  1.2264
  117TMC2    H2 1826   1.669   1.927  14.207 -0.1153  1.3883  0.3062
  117TMC2    C7 1827   1.499   2.132  14.210 -0.1666 -0.1691 -0.1815
  117TMC2    C8 1828   1.642   1.681  14.149  0.5129  0.5542 -0.3709
  117TMC2    O1 1829   1.600   2.155  14.274 -0.0457 -0.3112 -0.3210
  117TMC2    O2 1830   1.625   1.576  14.092  0.0348 -0.1484  0.5942
  117TMC2    O5 1831   1.700   1.694  14.272  0.3355 -0.1847 -0.0691
  117TMC2    H5 1832   1.661   1.767  14.325  0.3429  0.1915 -0.5814
  118MPD2     C 1833   1.279   2.408  14.305  0.1914 -0.1668 -0.3059
  118MPD2    C1 1834   1.397   2.352  14.269  0.4040 -0.2386 -0.0637
  118MPD2    C2 1835   1.515   2.424  14.287 -0.3491  0.6440  0.2155
  118MPD2    C3 1836   1.518   2.551  14.332  0.2954  0.1047  0.5099
  118MPD2    C4 1837   1.400   2.599  14.374 -0.1936 -0.4419 -0.7217
  118MPD2    C5 1838   1.280   2.540  14.350  0.0367 -0.2228 -0.6251
  118MPD2     H 1839   1.600   2.384  14.233  0.6597  0.8906  1.6160
  118MPD2    H1 1840   1.406   2.700  14.411  1.5044 -1.1159  0.8390
  118MPD2    H2 1841   1.181   2.365  14.288 -0.5479  1.6138 -0.5936
  118MPD2    H3 1842   1.182   2.578  14.376 -0.2547 -0.7946 -0.8731
  118MPD2     N 1843   1.628   2.635  14.331  0.2388 -0.1262 -0.3024
  118MPD2    H5 1844   1.625   2.723  14.383 -0.1331 -0.5179  0.3392
  118MPD2    N1 1845   1.394   2.222  14.214 -0.6096 -0.5804  0.3935
  118MPD2    H7 1846   1.308   2.192  14.169 -1.2718  1.3971  0.3587
  119TMC2    C1 1847   4.121   2.247  13.085 -0.5615 -0.1445  0.3500
  119TMC2    C2 1848   4.122   2.145  13.171 -0.2161 -0.3786 -0.3857
  119TMC2    C3 1849   4.008   2.113  13.239  0.2180  0.0715 -0.8889
  119TMC2    C4 1850   4.010   2.325  13.058  0.3006  0.0156  0.4592
  119TMC2    C5 1851   3.898   2.294  13.134  0.1739 -0.3751  0.5377
  119TMC2    C6 1852   3.897   2.189  13.219 -0.4513  0.3240 -0.1219
  119TMC2     C 1853   4.232   2.324  13.109 -0.2684 -0.2534 -0.1793
  119TMC2     O 1854   4.210   2.444  13.117 -0.2958 -0.4019  0.0436
  119TMC2     H 1855   4.209   2.079  13.177  0.5353  0.8464  2.0215
  119TMC2    H1 1856   4.018   2.419  13.004  0.7299  0.7633  1.8361
  119TMC2    H2 1857   3.806   2.162  13.272  1.3557 -1.0326  2.2542
  119TMC2    C7 1858   3.826   2.415  13.177 -0.0745  0.0930 -0.0716
  119TMC2    C8 1859   3.997   1.980  13.279  0.2939 -0.6652 -0.3843
  119TMC2    O1 1860   3.843   2.517  13.117 -0.0558  0.2269 -0.0965
  119TMC2    O2 1861   4.030   1.890  13.202  0.2821 -0.8213 -0.2934
  119TMC2    O5 1862   3.886   1.975  13.354 -0.1850 -0.0193 -0.0124
  119TMC2    H5 1863   3.889   2.043  13.425 -4.0109 -1.3930  1.4838
  120MPD2     C 1864   4.680   2.354  13.340  0.6994 -0.2550 -0.2647
  120MPD2    C1 1865   4.569   2.436  13.336 -0.3217  0.3575  0.5156
  120MPD2    C2 1866   4.454   2.395  13.280 -0.5016  0.7018 -0.3415
  120MPD2    C3 1867   4.457   2.286  13.195 -0.5024  0.1428 -0.7329
  120MPD2    C4 1868   4.581   2.225  13.174  0.3341 -0.2047  0.3661
  120MPD2    C5 1869   4.689   2.253  13.247  0.0355  0.2593 -0.6715
  120MPD2     H 1870   4.369   2.461  13.289 -2.0180 -1.1084 -1.5570
  120MPD2    H1 1871   4.593   2.147  13.101  0.0502 -0.1752  0.2885
  120MPD2    H2 1872   0.020   2.374  13.409 -0.3407 -0.2150  0.9361
  120MPD2    H3 1873   0.040   2.196  13.240  0.3794  0.8797 -1.1673
  120MPD2     N 1874   4.347   2.250  13.116  0.4079  0.2197 -0.0225
  120MPD2    H5 1875   4.351   2.154  13.084 -1.4444  0.2918 -0.5034
  120MPD2    N1 1876   4.584   2.560  13.407  0.2783  0.4537  0.1707
  120MPD2    H7 1877   4.663   2.562  13.471  1.2891 -0.2030 -1.0532
  121TMC2    C1 1878   1.257   4.277  13.918 -0.2789  0.0763  0.3460
  121TMC2    C2 1879   1.315   4.203  13.829 -0.0969  0.5597  0.1804
  121TMC2    C3 1880   1.252   4.083  13.806  0.5285 -0.1839 -0.9181
  121TMC2    C4 1881   1.142   4.242  13.986  0.8757  0.8828  0.0180
  121TMC2    C5 1882   1.098   4.110  13.966  1.2175  0.0902 -0.1899
  121TMC2    C6 1883   1.140   4.037  13.863 -0.9314  0.1720  0.1932
  121TMC2     C 1884   1.337   4.391  13.975  0.7348  0.2118 -0.5861
  121TMC2     O 1885   1.300   4.427  14.084 -0.5519 -0.2845  0.1209
  121TMC2     H 1886   1.413   4.224  13.786 -0.7385  0.8070 -1.1612
  121TMC2    H1 1887   1.089   4.310  14.052  1.4067  0.5765  0.7570
  121TMC2    H2 1888   1.095   3.943  13.835  1.0544 -0.2025 -1.7391
  121TMC2    C7 1889   1.016   4.060  14.072  0.3966  0.1138 -0.1460
  121TMC2    C8 1890   1.344   3.978  13.753 -0.1262 -0.7298 -0.2018
  121TMC2    O1 1891   1.068   4.032  14.177 -0.5503  0.1933 -0.3133
  121TMC2    O2 1892   1.466   3.992  13.769  0.0123 -0.2581  0.2244
  121TMC2    O5 1893   1.286   3.924  13.640 -0.1476 -0.9481  0.4962
  121TMC2    H5 1894   1.189   3.923  13.653  0.1796  0.2257  3.1970
  122MPD2     C 1895   1.459   4.653  14.029 -0.1267  0.6508  0.2501
  122MPD2    C1 1896   1.476   4.583  13.908  0.2506  0.1169  0.5949
  122MPD2    C2 1897   1.532   4.652  13.807  0.6437  0.1235  0.4343
  122MPD2    C3 1898   1.590   0.039  13.818 -0.0535  0.2462 -0.8428
  122MPD2    C4 1899   1.564   0.107  13.940  0.1415  0.6292  0.2772
  122MPD2    C5 1900   1.507   0.042  14.048  0.3332 -0.2795 -0.2223
  122MPD2     H 1901   1.538   4.595  13.715 -0.1215 -0.4860  0.7625
  122MPD2    H1 1902   1.606   0.202  13.968 -0.9813  1.6091 -1.3445
  122MPD2    H2 1903   1.420   4.601  14.115 -1.8846 -0.7715 -1.4029
  122MPD2    H3 1904   1.509   0.087  14.146  2.8313  1.8082 -1.2458
  122MPD2     N 1905   1.648   0.116  13.712  1.2983 -0.3147  0.0639
  122MPD2    H5 1906   1.675   0.213  13.726 -0.1022 -0.2093  2.0614
  122MPD2    N1 1907   1.426   4.456  13.886 -0.5921  0.7607 -0.3598
  122MPD2    H7 1908   1.444   4.411  13.796  2.2580  2.1008 -0.4679
  123TMC2    C1 1909   0.236   4.147  11.014 -0.1494 -0.1206 -0.4107
  123TMC2    C2 1910   0.287   4.188  10.896 -0.0473 -0.2895 -0.3181
  123TMC2    C3 1911   0.414   4.144  10.860  0.6361  0.0469 -0.5737
  123TMC2    C4 1912   0.306   4.063  11.097  0.4559 -0.2613 -0.6500
  123TMC2    C5 1913   0.419   4.002  11.054 -0.2784 -0.2164 -0.3457
  123TMC2    C6 1914   0.483   4.055  10.941 -0.0185  0.7702  1.1552
  123TMC2     C 1915   0.096   4.130  11.020  0.6974  0.2804  0.5102
  123TMC2     O 1916   0.020   4.225  11.011  0.2440  0.1807 -0.0102
  123TMC2     H 1917   0.216   4.242  10.835 -1.3161 -1.1258  0.4227
  123TMC2    H1 1918   0.268   4.028  11.192 -1.7850  0.6627 -1.1990
  123TMC2    H2 1919   0.584   4.026  10.914 -1.0600 -0.1633 -1.7126
  123TMC2    C7 1920   0.414   3.857  11.059  0.7358 -0.2329 -0.2039
  123TMC2    C8 1921   0.462   4.144  10.726 -0.5254 -0.0959  0.7008
  123TMC2    O1 1922   0.301   3.813  11.083 -0.6422 -0.1928 -0.3938
  123TMC2    O2 1923   0.512   4.046  10.677 -0.5106  0.0061  0.1093
  123TMC2    O5 1924   0.370   4.211  10.651 -0.3595 -0.2115  0.2536
  123TMC2    H5 1925   0.335   4.290  10.698 -2.0109 -0.4191 -0.6477
  124MPD2     C 1926   4.484   3.772  10.931  0.5908 -0.0962 -0.0604
  124MPD2    C1 1927   4.602   3.708  10.948 -0.1163  0.1377  0.9426
  124MPD2    C2 1928   4.703   3.787  10.995  0.2623  0.7783 -0.5406
  124MPD2    C3 1929   4.691   3.922  11.011 -1.0188 -0.4063  0.2733
  124MPD2    C4 1930   4.569   3.989  10.996 -0.3742 -0.1304 -0.0885
  124MPD2    C5 1931   4.462   3.906  10.964  0.0783  1.1117 -0.3771
  124MPD2     H 1932   0.056   3.742  11.027 -1.4326  0.1110  3.5655
  124MPD2    H1 1933   4.569   4.096  11.011 -0.5416 -0.1133 -0.2173
  124MPD2    H2 1934   4.390   3.733  10.893  1.3241 -1.6961 -0.2283
  124MPD2    H3 1935   4.370   3.958  10.938  0.4288 -0.2968 -4.4011
  124MPD2     N 1936   0.070   3.996  11.026 -0.0792 -0.2390 -0.0946
  124MPD2    H5 1937   0.153   3.938  11.031  0.3490  0.3693 -0.1096
  124MPD2    N1 1938   4.624   3.575  10.905 -0.5463 -0.1112 -0.5350
  124MPD2    H7 1939   4.549   3.532  10.852 -0.7465  0.1839 -0.4894
  125TMC2    C1 1940   0.436   4.315   9.274  0.5435 -0.4238 -0.3614
  125TMC2    C2 1941   0.426   4.355   9.146  0.4637 -0.2569 -0.1837
  125TMC2    C3 1942   0.522   4.314   9.050  0.0885  0.1754 -0.6295
  125TMC2    C4 1943   0.546   4.240   9.310  0.8637  0.5532 -0.0826
  125TMC2    C5 1944   0.646   4.211   9.218 -0.4892  0.3044 -0.1542
  125TMC2    C6 1945   0.630   4.243   9.084 -0.3813  0.2214  0.0973
  125TMC2     C 1946   0.340   4.368   9.369 -0.2611 -0.2675 -0.5960
  125TMC2     O 1947   0.274   4.456   9.319 -0.1772 -0.1170  0.6487
  125TMC2     H 1948   0.344   4.417   9.113  1.3177  0.4891 -0.9068
  125TMC2    H1 1949   0.560   4.217   9.415  0.0330  1.9231  0.3324
  125TMC2    H2 1950   0.682   4.189   9.005 -0.4808 -0.1433  0.2798
  125TMC2    C7 1951   0.768   4.148   9.263 -0.8648  0.3262  0.6664
  125TMC2    C8 1952   0.519   4.354   8.909 -0.0741  0.0130 -0.5405
  125TMC2    O1 1953   0.774   4.122   9.380  0.5091 -0.2585 -0.0057
  125TMC2    O2 1954   0.629   4.370   8.856 -0.0793  0.1105 -0.4930
  125TMC2    O5 1955   0.402   4.411   8.887 -0.7613  0.9505 -0.1577
  125TMC2    H5 1956   0.325   4.363   8.924 -1.0114  0.9261 -0.7029
  126MPD1     C 1957   0.095   4.385   9.814  0.4505  0.2672 -0.6685
  126MPD1    C1 1958   0.171   4.269   9.810 -0.1382 -0.2961  0.3309
  126MPD1    C2 1959   0.248   4.247   9.700 -0.1538  0.5083  0.3545
  126MPD1    C3 1960   0.258   4.338   9.596 -0.5024 -0.1153 -0.0872
  126MPD1    C4 1961   0.190   4.458   9.607 -0.5086  0.0422 -0.1174
  126MPD1    C5 1962   0.111   4.476   9.721  0.6470 -0.0585  0.3054
  126MPD1     H 1963   0.291   4.149   9.686  1.0677  0.6705  2.9282
  126MPD1    H1 1964   0.203   4.538   9.536  1.4577  0.9274  1.2467
  126MPD1    H2 1965   0.032   4.424   9.894  0.1328 -2.5391  0.4422
  126MPD1    H3 1966   0.046   4.562   9.729  0.2752 -0.6025  3.1607
  126MPD1     N 1967   0.337   4.304   9.487  0.4230 -0.2287 -0.0590
  126MPD1    H5 1968   0.385   4.215   9.500  1.3273  0.0177 -1.7199
  126MPD1    N1 1969   0.143   4.171   9.909  0.0331 -0.3228  0.4468
  126MPD1    H6 1970   0.223   4.111   9.927 -0.0470  0.1039  2.2185
  126MPD1    H7 1971   0.132   4.219   9.998  0.2119  2.9748 -1.2852
  127TMC2    C1 1972   1.450   4.045  10.227  0.3090 -0.2327 -0.0701
  127TMC2    C2 1973   1.503   4.142  10.308  0.7797  0.0574 -0.1492
  127TMC2    C3 1974   1.416   4.210  10.395 -0.1665 -0.2360 -0.7254
  127TMC2    C4 1975   1.317   4.002  10.246  0.5808  0.1241 -0.7756
  127TMC2    C5 1976   1.242   4.070  10.339  0.3546 -0.3399  0.1030
  127TMC2    C6 1977   1.287   4.173  10.417  0.3163  0.2405  0.2646
  127TMC2     C 1978   1.517   4.011  10.098  0.1654 -0.2607  0.1106
  127TMC2     O 1979   1.638   4.031  10.090  0.0772 -0.4108 -0.1010
  127TMC2     H 1980   1.601   4.184  10.291  1.5028 -2.9846 -3.4025
  127TMC2    H1 1981   1.275   3.924  10.184 -0.5696  0.9588 -1.0498
  127TMC2    H2 1982   1.221   4.211  10.494  0.4738 -1.4268  1.2080
  127TMC2    C7 1983   1.102   4.035  10.352  0.0967  0.2420  0.8900
  127TMC2    C8 1984   1.466   4.339  10.422 -0.3762 -0.4765 -0.2383
  127TMC2    O1 1985   1.031   4.124  10.396 -0.0466  0.5671  0.1192
  127TMC2    O2 1986   1.573   4.380  10.377 -0.0054 -0.2415  0.3747
  127TMC2    O5 1987   1.398   4.379  10.534 -0.1233  0.5902  0.2767
  127TMC2    H5 1988   1.316   4.333  10.563 -0.6634  2.1202  1.1811
  128MPD2     C 1989   1.363   3.889   9.802 -0.2088 -0.0133 -0.2930
  128MPD2    C1 1990   1.471   3.915   9.885  0.6006 -0.1238  0.2300
  128MPD2    C2 1991   1.604   3.887   9.841  0.4038 -0.1704  0.1687
  128MPD2    C3 1992   1.625   3.843   9.715  0.3262 -1.1287 -0.1310
  128MPD2    C4 1993   1.513   3.805   9.638 -0.4200 -0.6400  0.4263
  128MPD2    C5 1994   1.380   3.829   9.684 -0.4239  0.5165  0.2505
  128MPD2     H 1995   1.692   3.904   9.902  2.5395 -0.6707 -2.7850
  128MPD2    H1 1996   1.515   3.758   9.541  1.8140 -2.3568  1.3036
  128MPD2    H2 1997   1.265   3.915   9.840 -0.4012 -3.0991  1.3683
  128MPD2    H3 1998   1.303   3.792   9.617  0.8120 -0.2885 -0.7330
  128MPD2     N 1999   1.760   3.824   9.672 -0.3217 -0.6384 -0.7037
  128MPD2    H5 2000   1.830   3.874   9.726 -1.7138 -1.2672  1.6558
  128MPD2    N1 2001   1.427   3.971  10.007 -0.2767  0.1489  0.0383
  128MPD2    H7 2002   1.329   3.980  10.030 -0.3117 -0.8708  0.2917
  129TMC2    C1 2003   0.746   2.902   1.583  0.3493  0.2515  0.5654
  129TMC2    C2 2004   0.873   2.927   1.616  0.1733  0.7555 -0.1650
  129TMC2    C3 2005   0.965   2.837   1.578 -0.5474  0.4375 -0.1937
  129TMC2    C4 2006   0.704   2.780   1.537 -0.4315  0.7852  0.2925
  129TMC2    C5 2007   0.801   2.691   1.506  0.5545  0.1113  0.0216
  129TMC2    C6 2008   0.933   2.717   1.517  0.5619 -0.1203 -0.2354
  129TMC2     C 2009   0.652   3.001   1.604 -0.1359  0.3638 -0.1251
  129TMC2     O 2010   0.534   2.965   1.622 -0.0815  0.3187  0.5572
  129TMC2     H 2011   0.896   3.012   1.679  0.3909  0.9513 -0.5047
  129TMC2    H1 2012   0.604   2.777   1.497  0.3558 -1.9305 -1.4322
  129TMC2    H2 2013   1.011   2.646   1.493  2.5651  1.8897  0.3212
  129TMC2    C7 2014   0.766   2.564   1.441  0.3169  0.0079  0.0665
  129TMC2    C8 2015   1.091   2.836   1.651 -0.1520  0.0752 -0.2058
  129TMC2    O1 2016   0.856   2.498   1.396  1.1061  0.1208  0.0439
  129TMC2    O2 2017   1.164   2.734   1.655 -0.0933  0.0228  0.7008
  129TMC2    O5 2018   1.130   2.959   1.687 -0.1191 -0.2488  0.8355
  129TMC2    H5 2019   1.058   3.024   1.671  0.5328  0.7763  2.0878
  130MPD2     C 2020   0.476   3.238   1.591 -0.2802  0.6134  0.2240
  130MPD2    C1 2021   0.614   3.247   1.583  0.3204  0.3274  0.1058
  130MPD2    C2 2022   0.678   3.369   1.570  0.5421  0.1478 -0.5580
  130MPD2    C3 2023   0.602   3.486   1.559  0.7348  0.0301  0.3790
  130MPD2    C4 2024   0.464   3.474   1.539  0.2876  0.0094  0.8334
  130MPD2    C5 2025   0.402   3.353   1.564  0.2294  0.1933  0.5320
  130MPD2     H 2026   0.786   3.379   1.570  0.5710 -0.1631 -0.5437
  130MPD2    H1 2027   0.400   3.557   1.510  2.1176  1.0914 -0.0819
  130MPD2    H2 2028   0.426   3.144   1.608 -0.4737  0.2974 -2.0892
  130MPD2    H3 2029   0.295   3.340   1.577  0.6417 -2.1083  1.5768
  130MPD2     N 2030   0.669   3.611   1.569  0.8358 -0.1596  0.6679
  130MPD2    H5 2031   0.764   3.613   1.606  0.9874 -0.9531  0.3217
  130MPD2    N1 2032   0.696   3.130   1.585  0.0099 -0.0815  0.0403
  130MPD2    H7 2033   0.797   3.142   1.587  0.0005 -0.0898  0.5244
  131TMC2    C1 2034   0.915   3.669  10.788 -0.0865  0.3748 -0.4061
  131TMC2    C2 2035   1.038   3.622  10.810 -0.0713  0.6621 -0.2666
  131TMC2    C3 2036   1.137   3.715  10.808 -0.1972 -0.0450 -0.4399
  131TMC2    C4 2037   0.891   3.795  10.761 -0.0015  0.4150 -0.4284
  131TMC2    C5 2038   0.991   3.888  10.758  0.3972  0.7609  0.0673
  131TMC2    C6 2039   1.117   3.848  10.782  0.0379  0.2291 -0.5254
  131TMC2     C 2040   0.793   3.582  10.768 -0.4819 -0.7320  0.3458
  131TMC2     O 2041   0.684   3.636  10.745 -0.0260 -0.2769  0.1066
  131TMC2     H 2042   1.059   3.520  10.841 -1.3038 -0.8024 -4.2566
  131TMC2    H1 2043   0.790   3.831  10.744 -0.8541 -0.5664  2.5657
  131TMC2    H2 2044   1.197   3.919  10.801 -0.1792  0.3296  0.0152
  131TMC2    C7 2045   0.953   4.027  10.771 -0.0956  0.1535  0.2991
  131TMC2    C8 2046   1.272   3.669  10.838 -0.3676  0.1955 -0.1253
  131TMC2    O1 2047   1.006   4.087  10.865 -0.0724  0.6685 -0.3471
  131TMC2    O2 2048   1.371   3.680  10.767 -0.0951 -0.6625  0.2161
  131TMC2    O5 2049   1.271   3.580  10.942  0.6879 -0.2147 -0.0935
  131TMC2    H5 2050   1.192   3.604  10.994 -0.6419  1.7840 -3.0390
  132MPD2     C 2051   0.774   3.225  10.829  0.4641 -0.1249  0.5067
  132MPD2    C1 2052   0.728   3.344  10.791  0.4028  0.9601  0.5360
  132MPD2    C2 2053   0.592   3.357  10.759 -0.5124  0.5332  0.3692
  132MPD2    C3 2054   0.506   3.255  10.771  0.3358  0.4246  0.5237
  132MPD2    C4 2055   0.553   3.130  10.808 -0.2861 -0.1150 -0.1546
  132MPD2    C5 2056   0.686   3.123  10.840 -0.5043  0.6243 -0.4453
  132MPD2     H 2057   0.555   3.457  10.738 -2.0234 -0.3545 -1.1612
  132MPD2    H1 2058   0.493   3.041  10.824 -1.5123  0.6202 -0.6678
  132MPD2    H2 2059   0.879   3.205  10.847  1.2351  0.7927 -3.0996
  132MPD2    H3 2060   0.741   3.035  10.871  1.0888  1.4890 -0.7649
  132MPD2     N 2061   0.372   3.275  10.743 -0.2385  0.1382 -0.2146
  132MPD2    H5 2062   0.339   3.368  10.722  0.8840  0.7771  0.8454
  132MPD2    N1 2063   0.823   3.448  10.792 -0.7826 -0.3911  0.2458
  132MPD2    H7 2064   0.917   3.419  10.818  0.3370  2.2816 -0.8033
  133TMC2    C1 2065   4.116   0.021   8.810 -0.0444 -0.0198 -0.3209
  133TMC2    C2 2066   4.237   4.699   8.811 -0.0674 -0.4947 -0.5654
  133TMC2    C3 2067   4.326   4.716   8.707  0.2232  0.0469 -0.0545
  133TMC2    C4 2068   4.079   0.084   8.693  1.0539  0.3199  0.3429
  133TMC2    C5 2069   4.168   0.103   8.589 -0.3531  0.3823  0.3456
  133TMC2    C6 2070   4.290   0.046   8.596  0.6799  0.0445  0.0060
  133TMC2     C 2071   4.021   4.730   8.914 -0.0459  0.3077  0.7331
  133TMC2     O 2072   4.037   4.631   8.980 -0.3821  0.4505 -0.3441
  133TMC2     H 2073   4.279   4.657   8.901  1.0791 -0.5896 -1.1408
  133TMC2    H1 2074   3.980   0.125   8.680  1.3320  0.5740 -0.9613
  133TMC2    H2 2075   4.364   0.079   8.524  1.2977 -3.7859 -1.1067
  133TMC2    C7 2076   4.149   0.205   8.492  0.1866  0.2008  0.7596
  133TMC2    C8 2077   4.464   0.006   8.740  0.1032  0.1768  0.3458
  133TMC2    O1 2078   4.069   0.289   8.533  0.3368  0.0268 -0.5763
  133TMC2    O2 2079   4.518   0.112   8.747  0.3635  0.2054  0.3107
  133TMC2    O5 2080   4.514   4.624   8.784  0.6530 -0.1120 -0.0439
  133TMC2    H5 2081   4.448   4.554   8.765 -0.1185  0.4135  0.7000
  134MPD2     C 2082   3.777   0.205   9.071 -0.1264  0.1169 -0.0007
  134MPD2    C1 2083   3.840   0.087   9.042  0.3693  0.0005 -0.3875
  134MPD2    C2 2084   3.794   4.712   9.105 -0.5292 -0.3526  0.1229
  134MPD2    C3 2085   3.697   4.710   9.204  0.7705  0.2902  1.0251
  134MPD2    C4 2086   3.643   0.097   9.235 -0.1651  0.3078  0.8821
  134MPD2    C5 2087   3.673   0.206   9.159 -0.0703  0.1055 -0.1887
  134MPD2     H 2088   3.838   4.615   9.085  0.6541  0.0674  0.6942
  134MPD2    H1 2089   3.565   0.119   9.307  1.8161  1.3737  2.7252
  134MPD2    H2 2090   3.805   0.299   9.024  0.6754 -0.6557 -1.0655
  134MPD2    H3 2091   3.614   0.295   9.174 -0.5387 -0.0864 -0.8953
  134MPD2     N 2092   3.655   4.595   9.277  0.1428 -0.5099 -0.3750
  134MPD2    H5 2093   3.578   4.615   9.340 -0.2321  0.8985 -1.2730
  134MPD2    N1 2094   3.948   0.094   8.948 -0.3086 -0.3354 -0.4925
  134MPD2    H7 2095   3.957   0.186   8.907 -3.2250 -1.0181 -2.6928
  135TMC2    C1 2096   1.097   1.377   9.997  0.5313 -0.5017 -0.3129
  135TMC2    C2 2097   1.163   1.386  10.116 -0.4163 -0.0600  0.3759
  135TMC2    C3 2098   1.096   1.343  10.227  0.0783  0.9990 -0.1038
  135TMC2    C4 2099   0.979   1.314   9.989 -0.0262  0.4499 -0.4730
  135TMC2    C5 2100   0.911   1.272  10.098  1.0085  0.6513  0.3277
  135TMC2    C6 2101   0.974   1.291  10.220  0.2567  0.3421 -0.2509
  135TMC2     C 2102   1.165   1.418   9.885 -0.4680 -0.1001  0.2759
  135TMC2     O 2103   1.242   1.511   9.892  0.0453 -0.6741 -0.1703
  135TMC2     H 2104   1.254   1.442  10.134 -0.7999  0.4776  0.6460
  135TMC2    H1 2105   0.922   1.302   9.897  0.3372  0.0813 -0.6490
  135TMC2    H2 2106   0.912   1.282  10.308  2.8504  0.7552  1.6198
  135TMC2    C7 2107   0.772   1.234  10.090  0.9016 -0.1953 -0.0935
  135TMC2    C8 2108   1.146   1.362  10.367  0.4883  0.6295  0.3664
  135TMC2    O1 2109   0.708   1.243   9.984 -0.4999  0.1035 -0.1165
  135TMC2    O2 2110   1.229   1.442  10.409 -0.0461  0.2581  0.3330
  135TMC2    O5 2111   1.124   1.257  10.447 -0.2492 -0.4185 -0.0927
  135TMC2    H5 2112   1.077   1.184  10.400 -0.0481 -0.1162 -0.7624
  136MPD2     C 2113   1.264   1.443   9.596 -0.8113 -0.2078  0.1624
  136MPD2    C1 2114   1.182   1.343   9.648  0.3707 -0.0517 -0.3861
  136MPD2    C2 2115   1.123   1.255   9.555  0.2755 -0.0145  0.1369
  136MPD2    C3 2116   1.155   1.241   9.426  0.7567 -0.4069 -0.2468
  136MPD2    C4 2117   1.250   1.332   9.379 -0.8163  0.1512 -1.0249
  136MPD2    C5 2118   1.299   1.433   9.460  0.3693 -0.6407 -0.1995
  136MPD2     H 2119   1.045   1.186   9.584 -0.3314  0.0485 -1.3365
  136MPD2    H1 2120   1.282   1.321   9.276  2.0799  1.6054 -0.2833
  136MPD2    H2 2121   1.323   1.507   9.661 -0.6590 -0.2061  0.0211
  136MPD2    H3 2122   1.378   1.500   9.430 -0.5350  0.6602  0.3069
  136MPD2     N 2123   1.096   1.146   9.332  0.7124  0.8803  0.3028
  136MPD2    H5 2124   1.130   1.152   9.236  1.7768  0.1764  0.6309
  136MPD2    N1 2125   1.133   1.339   9.781  0.6233  0.0048 -0.8353
  136MPD2    H7 2126   1.063   1.268   9.802 -1.2785  1.6749 -1.5222
  137TMC2    C1 2127   1.165   4.356   9.338 -0.1171 -0.6301  0.2738
  137TMC2    C2 2128   1.221   4.342   9.217 -0.3398  0.3716  0.7556
  137TMC2    C3 2129   1.137   4.376   9.115 -0.1286  0.3474 -0.3472
  137TMC2    C4 2130   1.040   4.398   9.366  0.0066  0.6038  0.2042
  137TMC2    C5 2131   0.964   4.441   9.258  0.2037  0.3955 -0.0240
  137TMC2    C6 2132   1.012   4.425   9.132  0.6268  0.1978 -0.2833
  137TMC2     C 2133   1.244   4.289   9.445  0.0177 -0.1000 -0.4099
  137TMC2     O 2134   1.351   4.238   9.422 -0.2812  0.2199  0.2118
  137TMC2     H 2135   1.306   4.274   9.215 -1.8407 -1.4690 -0.3568
  137TMC2    H1 2136   1.009   4.414   9.469 -0.5210  1.3768 -0.0759
  137TMC2    H2 2137   0.957   4.453   9.043  0.1386  0.7450  0.1831
  137TMC2    C7 2138   0.838   4.508   9.276 -0.4875 -0.5239 -0.5668
  137TMC2    C8 2139   1.181   4.358   8.976 -0.2763 -0.1952  0.3147
  137TMC2    O1 2140   0.796   4.571   9.178 -0.1428 -0.0757  0.1225
  137TMC2    O2 2141   1.097   4.350   8.887 -0.1870  0.7479 -0.6397
  137TMC2    O5 2142   1.315   4.337   8.972  0.6986 -0.0195  0.3656
  137TMC2    H5 2143   1.357   4.359   9.058  1.0812 -0.5843  0.3240
  138MPD2     C 2144   1.399   4.256   9.709 -0.7073 -0.2509 -0.1636
  138MPD2    C1 2145   1.259   4.284   9.690 -0.4018  0.1182 -0.1425
  138MPD2    C2 2146   1.183   4.313   9.803  0.2652  0.5179  0.0734
  138MPD2    C3 2147   1.232   4.346   9.928 -0.4538 -0.2840  0.4127
  138MPD2    C4 2148   1.370   4.310   9.944 -1.1796  0.1085 -0.2998
  138MPD2    C5 2149   1.452   4.273   9.837 -0.9171 -0.7825  0.2741
  138MPD2     H 2150   1.075   4.319   9.799  0.1949 -0.3032  0.7296
  138MPD2    H1 2151   1.420   4.312  10.039 -0.6643  2.4123 -0.6137
  138MPD2    H2 2152   1.468   4.238   9.628  1.3327 -0.5570  1.6417
  138MPD2    H3 2153   1.556   4.253   9.863  0.4551  2.4942 -2.7564
  138MPD2     N 2154   1.152   4.396  10.027  0.0172  0.0065 -0.3053
  138MPD2    H5 2155   1.053   4.391  10.008  0.2523  0.0399 -1.5352
  138MPD2    N1 2156   1.187   4.296   9.572  0.3518  0.1725  0.1204
  138MPD2    H7 2157   1.091   4.324   9.590  0.8941  1.9943  0.1387
  139TMC2    C1 2158   1.518   2.606  13.866 -0.5265 -0.7836  0.2565
  139TMC2    C2 2159   1.648   2.645  13.899  0.2465 -0.2016  0.0845
  139TMC2    C3 2160   1.676   2.782  13.893 -0.0942 -0.5751  0.4237
  139TMC2    C4 2161   1.416   2.698  13.857 -0.4974 -0.4836  1.0174
  139TMC2    C5 2162   1.449   2.826  13.861  0.6401 -0.4918 -0.1373
  139TMC2    C6 2163   1.581   2.870  13.874  0.0533 -0.6356 -0.2171
  139TMC2     C 2164   1.494   2.466  13.894  0.4503 -0.0316 -0.1171
  139TMC2     O 2165   1.575   2.382  13.881  0.0704 -0.5149  0.2240
  139TMC2     H 2166   1.730   2.574  13.897  2.0521  1.9153 -1.6914
  139TMC2    H1 2167   1.314   2.673  13.832 -1.0982  1.9304  1.0426
  139TMC2    H2 2168   1.603   2.976  13.867 -0.0062 -0.5268  1.2841
  139TMC2    C7 2169   1.358   2.924  13.811 -0.2822 -0.3253 -0.0041
  139TMC2    C8 2170   1.800   2.834  13.944  0.3187  0.3575  0.0271
  139TMC2    O1 2171   1.406   3.029  13.775  0.2060 -0.6234  0.2607
  139TMC2    O2 2172   1.804   2.911  14.041  0.3539  0.0083  0.2292
  139TMC2    O5 2173   1.890   2.737  13.912  0.1838 -0.6127  0.2599
  139TMC2    H5 2174   1.874   2.710  13.819  0.3926 -1.7812  0.5684
  140MPD2     C 2175   1.160   2.354  13.852 -0.8299  0.2782 -0.0359
  140MPD2    C1 2176   1.289   2.335  13.875  1.6512 -0.3846 -0.0694
  140MPD2    C2 2177   1.345   2.212  13.849  0.0917 -0.6454  0.1198
  140MPD2    C3 2178   1.275   2.102  13.804 -0.5464  0.5405  0.7875
  140MPD2    C4 2179   1.134   2.117  13.782  0.4094 -0.1658  0.0199
  140MPD2    C5 2180   1.085   2.246  13.815 -0.0150 -0.5128 -0.2779
  140MPD2     H 2181   1.453   2.210  13.856  0.0424 -1.4642  0.6509
  140MPD2    H1 2182   1.064   2.038  13.759  0.9836 -1.0630  1.2953
  140MPD2    H2 2183   1.116   2.451  13.872 -2.0310 -0.5155  1.1884
  140MPD2    H3 2184   0.977   2.255  13.814 -0.1579 -2.1236  0.5847
  140MPD2     N 2185   1.346   1.978  13.781 -0.0648  0.5195 -0.2619
  140MPD2    H5 2186   1.447   1.979  13.778 -0.0455  1.7043  0.5870
  140MPD2    N1 2187   1.357   2.451  13.913 -0.3528 -0.5297  0.3536
  140MPD2    H7 2188   1.306   2.537  13.928 -0.5118 -1.1594  3.3581
  141TMC2    C1 2189   1.737   4.201  14.010  0.4086  0.1615  0.1656
  141TMC2    C2 2190   1.618   4.131  14.037  0.2626 -0.3113  0.1414
  141TMC2    C3 2191   1.540   4.176  14.142 -0.2438  0.0992 -0.2041
  141TMC2    C4 2192   1.772   4.313  14.084  0.2938  0.0742  0.2954
  141TMC2    C5 2193   1.691   4.351  14.193  0.0115  0.2100 -0.7856
  141TMC2    C6 2194   1.575   4.280  14.218  0.2169 -0.8718  0.1720
  141TMC2     C 2195   1.825   4.170  13.895 -0.4266  0.3770 -0.0135
  141TMC2     O 2196   1.936   4.226  13.898 -0.4317 -0.6549 -0.4830
  141TMC2     H 2197   1.609   4.026  14.009  2.2531 -0.3420 -0.4410
  141TMC2    H1 2198   1.854   4.379  14.057  0.7260 -0.5676  0.0556
  141TMC2    H2 2199   1.508   4.317  14.294 -0.3508 -1.4126 -0.0621
  141TMC2    C7 2200   1.712   4.474  14.255 -0.0858 -0.0516  0.7257
  141TMC2    C8 2201   1.436   4.087  14.197  0.1118 -0.3713  0.6325
  141TMC2    O1 2202   1.616   4.520  14.319 -0.1575  0.2326  0.2725
  141TMC2    O2 2203   1.371   4.014  14.125 -0.0271  0.0259  0.4161
  141TMC2    O5 2204   1.458   4.081  14.330 -0.0545  0.3321  0.4032
  141TMC2    H5 2205   1.525   4.143  14.364 -1.9397  2.6939 -0.1544
  142TMC2    C1 2206   0.060   2.973  11.064  0.1989  0.6735  0.2986
  142TMC2    C2 2207   4.705   3.039  11.133 -0.3658 -0.7103  0.2091
  142TMC2    C3 2208   4.734   3.159  11.189 -0.5024  0.5620  0.6064
  142TMC2    C4 2209   0.187   3.032  11.054 -0.2636  0.0943  0.3743
  142TMC2    C5 2210   0.213   3.154  11.113  0.2160 -0.0545  0.0476
  142TMC2    C6 2211   0.110   3.227  11.173 -0.2814  0.2193  0.2381
  142TMC2     C 2212   0.031   2.855  10.986  0.9152 -0.2889 -0.3535
  142TMC2     O 2213   0.097   2.828  10.886  0.0626 -0.3998  0.2152
  142TMC2     H 2214   4.602   3.010  11.113 -0.3996  0.6369 -1.5837
  142TMC2    H1 2215   0.260   2.965  11.011 -2.0106 -0.1962 -2.1348
  142TMC2    H2 2216   0.124   3.324  11.219 -0.1683  1.4146 -2.2918
  142TMC2    C7 2217   0.347   3.203  11.108 -0.3256  0.3885 -0.1996
  142TMC2    C8 2218   4.622   3.234  11.239 -0.1270 -0.0583  0.7566
  142TMC2    O1 2219   0.438   3.117  11.108  0.1389 -0.0637  0.8248
  142TMC2    O2 2220   4.613   3.359  11.226 -0.0220 -0.3207 -0.6439
  142TMC2    O5 2221   4.531   3.144  11.281 -0.6443  0.2149 -0.1324
  142TMC2    H5 2222   4.572   3.056  11.290 -1.8813 -0.2092  1.3450
  143MPD2     C 2223   4.450   2.459  10.906  0.1059 -0.1067 -0.7364
  143MPD2    C1 2224   4.560   2.503  10.834  0.0504 -0.2806 -0.1669
  143MPD2    C2 2225   4.632   2.611  10.870  0.6745  0.5832 -0.3991
  143MPD2    C3 2226   4.599   2.679  10.988  0.1433  0.4109  0.3330
  143MPD2    C4 2227   4.490   2.635  11.068  0.0216 -0.1203  0.5664
  143MPD2    C5 2228   4.424   2.521  11.027  0.5434  0.1087 -0.2832
  143MPD2     H 2229   4.714   2.652  10.813  0.0969  0.9943 -0.9339
  143MPD2    H1 2230   4.471   2.670  11.169 -0.2538 -1.6324  1.0365
  143MPD2    H2 2231   4.390   2.372  10.884 -0.4508  0.0163  0.3208
  143MPD2    H3 2232   4.362   2.479  11.105 -0.3366 -0.1182 -1.1046
  143MPD2     N 2233   4.658   2.797  11.035  0.0386  0.8808 -0.1272
  143MPD2    H5 2234   4.628   2.837  11.123 -0.7770  1.1738 -0.5297
  143MPD2    N1 2235   4.586   2.431  10.718 -0.0622 -0.0149 -0.3397
  143MPD2    H7 2236   4.519   2.358  10.697 -0.1976 -0.3310  1.2230
  144TMC2    C1 2237   2.896   1.084   0.717  0.0171  0.5365  0.2477
  144TMC2    C2 2238   2.915   0.950   0.693 -0.0565 -0.0859 -0.0978
  144TMC2    C3 2239   2.920   0.863   0.799  0.2557  0.3940 -0.6842
  144TMC2    C4 2240   2.891   1.127   0.841  0.0401  0.1934 -0.6623
  144TMC2    C5 2241   2.910   1.048   0.946  0.4066  0.1027  0.5490
  144TMC2    C6 2242   2.927   0.910   0.928  0.0644 -0.7159  0.0954
  144TMC2     C 2243   2.810   1.163   0.624  0.2941 -0.5086 -0.5878
  144TMC2     O 2244   2.803   1.141   0.505 -0.3319  0.1312  0.2869
  144TMC2     H 2245   2.924   0.935   0.586 -1.9731  1.7756 -0.5212
  144TMC2    H1 2246   2.895   1.235   0.849 -1.6166  0.0115  2.6045
  144TMC2    H2 2247   2.937   0.844   1.013 -3.7619 -1.0519  0.2491
  144TMC2    C7 2248   2.983   1.095   1.066 -0.9343  0.4879 -0.1235
  144TMC2    C8 2249   2.912   0.723   0.769 -0.0046 -0.2157  0.0405
  144TMC2    O1 2250   3.082   1.024   1.095 -0.0928 -0.6371 -0.5237
  144TMC2    O2 2251   2.954   0.644   0.851 -0.1591  0.1024 -0.1166
  144TMC2    O5 2252   2.886   0.705   0.637  0.5715  0.0311  0.2112
  144TMC2    H5 2253   2.825   0.774   0.603  1.2549  1.4783  1.9029
  145MPD2     C 2254   2.408   1.467   0.528 -0.3455  0.4535  0.0689
  145MPD2    C1 2255   2.436   1.344   0.472  0.5259  0.6110  0.4553
  145MPD2    C2 2256   2.546   1.271   0.517  0.1459 -0.0114  0.3676
  145MPD2    C3 2257   2.607   1.310   0.636  0.0224  0.1496  0.0661
  145MPD2    C4 2258   2.564   1.425   0.692 -0.3572  0.0706  0.0440
  145MPD2    C5 2259   2.473   1.512   0.633 -0.9584  0.0311  0.5555
  145MPD2     H 2260   2.573   1.176   0.473  0.0500 -0.1343  0.5727
  145MPD2    H1 2261   2.622   1.461   0.776 -0.2722  1.4407 -0.5938
  145MPD2    H2 2262   2.322   1.525   0.495 -2.5245 -2.6506  0.2438
  145MPD2    H3 2263   2.444   1.608   0.674  0.8851 -0.0539  2.0470
  145MPD2     N 2264   2.723   1.248   0.691  0.0636 -0.2151 -0.0425
  145MPD2    H5 2265   2.739   1.267   0.789 -0.9459  1.4492 -0.2023
  145MPD2    N1 2266   2.368   1.285   0.365 -0.2264  0.6781 -0.2667
  145MPD2    H7 2267   2.395   1.189   0.343  0.4968  1.0178 -0.8848
  146TMC2    C1 2268   3.522   0.297  12.757 -1.2250 -0.1662  0.6267
  146TMC2    C2 2269   3.531   0.365  12.635  0.1700 -0.0576  0.5756
  146TMC2    C3 2270   3.500   0.292  12.521 -0.4050  0.1860  0.7575
  146TMC2    C4 2271   3.498   0.161  12.762  0.4952 -0.2320 -0.7422
  146TMC2    C5 2272   3.480   0.099  12.643 -0.1764 -0.0605 -0.0647
  146TMC2    C6 2273   3.478   0.158  12.521 -0.3076 -0.3014  0.1041
  146TMC2     C 2274   3.537   0.367  12.880 -0.2125 -0.5286 -0.3994
  146TMC2     O 2275   3.541   0.483  12.867 -0.3306 -0.1035 -0.8809
  146TMC2     H 2276   3.556   0.470  12.639 -2.0377  0.4753  0.3132
  146TMC2    H1 2277   3.476   0.111  12.855  0.4096  0.3007 -0.4782
  146TMC2    H2 2278   3.461   0.098  12.433  1.9356  0.7710 -1.0431
  146TMC2    C7 2279   3.448   4.697  12.647 -0.5113 -0.3743 -0.3884
  146TMC2    C8 2280   3.503   0.364  12.397  0.3248  1.0033 -0.3355
  146TMC2    O1 2281   3.389   4.644  12.554  0.1814 -0.3581  0.4792
  146TMC2    O2 2282   3.584   0.450  12.362 -0.1662 -0.3572  0.0520
  146TMC2    O5 2283   3.382   0.331  12.331 -0.2320  0.4087  0.0952
  146TMC2    H5 2284   3.318   0.279  12.384  1.0447 -1.0033  0.2533
  147MPD2     C 2285   3.586   4.224  12.801  0.2538 -0.1731  0.3224
  147MPD2    C1 2286   3.676   4.316  12.842 -0.5052 -0.3543 -0.6741
  147MPD2    C2 2287   3.651   4.451  12.830  0.1191  0.0449  0.1735
  147MPD2    C3 2288   3.545   4.496  12.761  0.0102 -0.8168 -0.0254
  147MPD2    C4 2289   3.461   4.403  12.703  0.2395  0.0185 -0.3889
  147MPD2    C5 2290   3.472   4.268  12.732  0.3673 -0.5079 -0.7115
  147MPD2     H 2291   3.710   4.527  12.881  0.9433 -0.0190 -0.6932
  147MPD2    H1 2292   3.371   4.434  12.650  0.2918 -0.3449 -0.6902
  147MPD2    H2 2293   3.596   4.119  12.828 -0.8956 -0.3634  0.0194
  147MPD2    H3 2294   3.391   4.205  12.696 -0.3374  1.7832 -3.1444
  147MPD2     N 2295   3.530   4.635  12.736  0.9838  0.3050  0.0555
  147MPD2    H5 2296   3.601   4.691  12.781 -0.5729  0.3571  2.5114
  147MPD2    N1 2297   3.791   4.270  12.913 -0.1736 -0.4190  0.0309
  147MPD2    H7 2298   3.793   4.168  12.917  0.8676 -0.5725 -3.5149
  148TMC2    C1 2299   0.072   3.947  10.647 -0.6835 -0.5740 -0.0996
  148TMC2    C2 2300   0.193   3.975  10.589 -0.5792 -0.0983  0.0280
  148TMC2    C3 2301   0.237   3.877  10.513 -0.7745 -0.1916  0.3856
  148TMC2    C4 2302   0.016   3.819  10.658 -0.1084 -0.1880 -0.1411
  148TMC2    C5 2303   0.075   3.716  10.581 -0.2020  0.3899 -0.2811
  148TMC2    C6 2304   0.185   3.752  10.507  0.3086  0.1600  0.0608
  148TMC2     C 2305   4.709   4.053  10.637 -0.3529 -0.3108  0.5617
  148TMC2     O 2306   0.003   4.170  10.620  0.0220 -0.0554  0.2821
  148TMC2     H 2307   0.215   4.079  10.566 -0.2706  0.1850  1.6223
  148TMC2    H1 2308   4.667   3.797  10.714 -1.1116 -2.2314 -2.5376
  148TMC2    H2 2309   0.214   3.684  10.428  0.8240  0.6959 -0.2057
  148TMC2    C7 2310   4.739   3.600  10.550  0.6312 -0.1548  0.0823
  148TMC2    C8 2311   0.330   3.904  10.404  0.7362  0.1324 -0.3858
  148TMC2    O1 2312   4.615   3.605  10.584  0.3690  0.2447 -0.3354
  148TMC2    O2 2313   0.348   3.821  10.313 -0.9546 -0.1627  0.1377
  148TMC2    O5 2314   0.392   4.024  10.420 -0.2908 -0.5182  0.1927
  148TMC2    H5 2315   0.387   4.054  10.513  3.8980 -3.5881  1.4424
  149MPD2     C 2316   4.430   4.170  10.637  0.8116 -0.3850  0.3823
  149MPD2    C1 2317   4.463   4.043  10.609 -0.2914 -0.4530  0.2429
  149MPD2    C2 2318   4.360   3.950  10.579 -0.0278  0.5962 -0.5790
  149MPD2    C3 2319   4.224   3.998  10.559  0.4022  0.2630 -0.6073
  149MPD2    C4 2320   4.201   4.130  10.587  0.5167 -0.0329  0.0645
  149MPD2    C5 2321   4.300   4.209  10.630 -0.2186 -0.0663 -0.7365
  149MPD2     H 2322   4.385   3.845  10.577  0.4309  0.7507 -3.3124
  149MPD2    H1 2323   4.100   4.168  10.581  1.3397  1.8160 -1.8497
  149MPD2    H2 2324   4.501   4.237  10.684  2.0248 -1.2179 -0.2569
  149MPD2    H3 2325   4.274   4.313  10.647  1.7681  0.2052  0.5975
  149MPD2     N 2326   4.106   3.921  10.527  0.3347 -0.6368  0.0247
  149MPD2    H5 2327   4.020   3.972  10.510  0.6076 -0.6847 -1.5569
  149MPD2    N1 2328   4.592   3.987  10.616 -0.6592  0.6396  0.4907
  149MPD2    H7 2329   4.606   3.889  10.596 -0.4691  1.1718 -1.9626
  150TMC2    C1 2330   0.903   2.269  12.627 -0.1484  0.2308  0.0003
  150TMC2    C2 2331   0.957   2.249  12.504  0.4213  0.1136 -0.0486
  150TMC2    C3 2332   1.065   2.335  12.467  0.2197 -0.0565 -0.2301
  150TMC2    C4 2333   0.971   2.338  12.725  0.7488 -0.7038 -0.4421
  150TMC2    C5 2334   1.080   2.411  12.689 -0.8625  0.4148 -0.1692
  150TMC2    C6 2335   1.119   2.422  12.559 -0.5005  0.1701  0.3570
  150TMC2     C 2336   0.797   2.186  12.663 -0.3879 -0.4288 -0.1632
  150TMC2     O 2337   0.804   2.069  12.628 -0.4862  0.2392  0.5129
  150TMC2     H 2338   0.895   2.198  12.430  0.7095 -0.6190  0.2135
  150TMC2    H1 2339   0.942   2.354  12.829  0.8962 -1.4958 -0.2798
  150TMC2    H2 2340   1.213   2.467  12.532 -0.5650  0.0103 -0.1396
  150TMC2    C7 2341   1.128   2.497  12.787 -0.0422 -0.1698  0.0499
  150TMC2    C8 2342   1.088   2.381  12.329 -0.3567  0.5131  0.4574
  150TMC2    O1 2343   1.058   2.528  12.879  0.3803 -0.0398  0.2933
  150TMC2    O2 2344   1.109   2.499  12.307 -0.4205  0.3060 -0.5273
  150TMC2    O5 2345   1.084   2.276  12.242 -0.0781 -0.1388 -0.7315
  150TMC2    H5 2346   1.111   2.192  12.285  0.4763  0.5497  0.2648
  151MPD2     C 2347   0.301   2.104  12.757 -0.3191 -0.4461 -0.9326
  151MPD2    C1 2348   0.326   2.237  12.770 -0.2312 -0.4341  0.3560
  151MPD2    C2 2349   0.460   2.279  12.767  0.1332 -0.6666  0.3678
  151MPD2    C3 2350   0.562   2.192  12.742  0.3810  0.0609 -0.0829
  151MPD2    C4 2351   0.535   2.055  12.726 -0.5231 -0.7477 -0.1500
  151MPD2    C5 2352   0.403   2.012  12.730  0.0415 -0.0121  0.5069
  151MPD2     H 2353   0.491   2.382  12.782  0.5082 -0.3933 -2.3616
  151MPD2    H1 2354   0.614   1.983  12.706  1.1402  1.4869 -1.5994
  151MPD2    H2 2355   0.199   2.072  12.777 -0.0791 -0.1594  0.7626
  151MPD2    H3 2356   0.377   1.908  12.720  0.3065  0.0324 -0.6080
  151MPD2     N 2357   0.693   2.243  12.721 -0.1153  0.3062  0.2311
  151MPD2    H5 2358   0.699   2.341  12.749  1.3809 -0.3130  2.0830
  151MPD2    N1 2359   0.219   2.318  12.797  0.4757 -0.5436  0.3496
  151MPD2    H7 2360   0.126   2.288  12.770  1.7217 -3.5078 -0.6738
  152TMC2    C1 2361   1.122   2.387  13.165 -0.4488  0.9637 -0.7061
  152TMC2    C2 2362   1.192   2.301  13.083  0.6229 -0.1544 -0.1216
  152TMC2    C3 2363   1.329   2.309  13.077 -0.3215 -0.3680  0.0265
  152TMC2    C4 2364   1.179   2.473  13.249  0.5989  0.1784  0.3546
  152TMC2    C5 2365   1.313   2.490  13.231 -0.1701  0.3911 -0.6468
  152TMC2    C6 2366   1.394   2.407  13.151  0.2993 -0.1968 -0.3729
  152TMC2     C 2367   0.977   2.387  13.164 -0.2609 -0.2911  0.7465
  152TMC2     O 2368   0.926   2.481  13.220  0.5246  1.0424  0.2451
  152TMC2     H 2369   1.141   2.237  13.012  0.1396  0.1001 -0.0065
  152TMC2    H1 2370   1.117   2.540  13.308 -1.3227  1.1442 -2.7342
  152TMC2    H2 2371   1.500   2.426  13.148  0.4769 -1.1331  0.0259
  152TMC2    C7 2372   1.369   2.591  13.318 -0.2981 -0.1262 -0.1431
  152TMC2    C8 2373   1.395   2.205  13.010 -0.2002 -0.5766 -0.1162
  152TMC2    O1 2374   1.295   2.628  13.409 -0.0827  0.3202  0.4101
  152TMC2    O2 2375   1.334   2.105  12.966  0.1097 -0.1322 -0.0058
  152TMC2    O5 2376   1.522   2.238  13.001 -0.2773 -0.0827 -0.1050
  152TMC2    H5 2377   1.584   2.165  12.980 -0.6528 -1.0393  2.0476
  153MPD2     C 2378   0.738   2.111  13.077 -0.1229  0.1249 -0.4580
  153MPD2    C1 2379   0.778   2.241  13.116  0.3695 -0.0993  0.1524
  153MPD2    C2 2380   0.678   2.340  13.137  0.3511  0.5771 -0.8700
  153MPD2    C3 2381   0.546   2.306  13.146  0.1003 -0.0989  0.9438
  153MPD2    C4 2382   0.509   2.177  13.115 -0.5364  0.0995 -0.7793
  153MPD2    C5 2383   0.601   2.085  13.076  0.5562 -0.1674 -0.0423
  153MPD2     H 2384   0.704   2.443  13.159 -1.3205  0.6060  0.9189
  153MPD2    H1 2385   0.404   2.150  13.106 -0.4492 -1.2045  2.0035
  153MPD2    H2 2386   0.809   2.035  13.044 -1.7652 -1.6531  0.0659
  153MPD2    H3 2387   0.558   1.994  13.036 -1.3593  0.8860 -0.4014
  153MPD2     N 2388   0.461   2.410  13.182 -0.6205 -0.2959  0.0863
  153MPD2    H5 2389   0.500   2.504  13.183  1.6699 -1.2400  0.5521
  153MPD2    N1 2390   0.918   2.270  13.116 -0.0623  0.6268 -0.2884
  153MPD2    H7 2391   0.975   2.190  13.090 -1.4216 -0.9061  1.4028
  154TMC2    C1 2392   2.992   2.473   0.320 -0.2031 -0.0751 -0.2330
  154TMC2    C2 2393   2.997   2.382   0.218  0.2248  0.4074 -0.1015
  154TMC2    C3 2394   3.122   2.359   0.165 -0.2607  0.3279 -0.0805
  154TMC2    C4 2395   3.103   2.522   0.376  0.6579  0.1323  0.5139
  154TMC2    C5 2396   3.228   2.486   0.331 -0.1530  0.1024  0.2830
  154TMC2    C6 2397   3.244   2.405   0.213 -0.2724 -0.2206 -0.1173
  154TMC2     C 2398   2.862   2.534   0.347 -0.0444 -0.2676 -0.1184
  154TMC2     O 2399   2.844   2.583   0.461  0.0483  0.5392 -0.4511
  154TMC2     H 2400   2.905   2.337   0.181  1.6572 -1.2431 -1.6144
  154TMC2    H1 2401   3.091   2.600   0.450  1.7954  0.5625  0.2450
  154TMC2    H2 2402   3.337   2.376   0.165  0.1277 -0.1570  0.6262
  154TMC2    C7 2403   3.336   2.564   0.386  0.2735 -0.8782 -0.4435
  154TMC2    C8 2404   3.124   2.280   0.038 -0.4869  0.7050 -0.2494
  154TMC2    O1 2405   3.312   2.643   0.474  0.4064 -0.2296  0.0585
  154TMC2    O2 2406   3.020   2.253  17.741 -0.1658  0.8692 -0.2117
  154TMC2    O5 2407   3.203   2.180   0.077  0.2954 -0.5439  0.0330
  154TMC2    H5 2408   3.228   2.188   0.171 -0.1729  0.1905  0.0909
  155MPD2     C 2409   2.600   2.537   0.101  0.1015 -0.9223 -0.1089
  155MPD2    C1 2410   2.659   2.575   0.220  0.1248  0.3624 -0.0583
  155MPD2    C2 2411   2.590   2.654   0.309 -0.4137 -0.3379  0.1048
  155MPD2    C3 2412   2.453   2.687   0.282  0.0953  0.5331  0.7422
  155MPD2    C4 2413   2.395   2.640   0.162 -1.1046 -0.6037 -0.0990
  155MPD2    C5 2414   2.470   2.573   0.075  0.0475 -0.4646  0.1667
  155MPD2     H 2415   2.641   2.706   0.390  0.7644 -0.4384 -0.5659
  155MPD2    H1 2416   2.294   2.669   0.134  0.3034  1.5613 -3.0128
  155MPD2    H2 2417   2.649   2.473   0.029 -1.7826 -1.1748 -1.1482
  155MPD2    H3 2418   2.417   2.546  17.746  1.0380  0.8252 -0.7979
  155MPD2     N 2419   2.383   2.760   0.390  0.4883 -0.4030 -0.2880
  155MPD2    H5 2420   2.438   2.795   0.469 -1.5887  0.9737  0.5499
  155MPD2    N1 2421   2.792   2.535   0.236  0.4749  0.3459 -0.8690
  155MPD2    H7 2422   2.838   2.504   0.151  0.7875 -0.7346 -0.3143
  156TMC2    C1 2423   1.127   0.681  10.838 -0.0410  0.8578 -0.3138
  156TMC2    C2 2424   1.049   0.599  10.754  1.1617 -0.0960  0.2618
  156TMC2    C3 2425   0.983   0.663  10.645  0.1913 -0.9542  0.6626
  156TMC2    C4 2426   1.137   0.813  10.807  0.8001  0.1541 -0.0491
  156TMC2    C5 2427   1.073   0.864  10.693 -0.3937  0.1115  0.1936
  156TMC2    C6 2428   0.989   0.794  10.613 -0.2875 -0.1675  0.3020
  156TMC2     C 2429   1.161   0.631  10.968 -0.0999  0.1985 -0.0821
  156TMC2     O 2430   1.202   0.715  11.048 -0.0069 -0.0002 -0.0446
  156TMC2     H 2431   1.038   0.493  10.773 -0.6933 -0.2344 -1.6199
  156TMC2    H1 2432   1.190   0.877  10.878 -0.5638  0.0031  1.1043
  156TMC2    H2 2433   0.944   0.825  10.519 -0.9715  0.0354  0.6975
  156TMC2    C7 2434   1.029   0.996  10.720 -0.3756  0.9721 -0.1701
  156TMC2    C8 2435   0.942   0.568  10.550  0.0065  0.0331 -0.4724
  156TMC2    O1 2436   1.116   1.069  10.764 -0.7615  0.4080 -0.2877
  156TMC2    O2 2437   1.006   0.464  10.541  0.6928 -0.1865  0.0949
  156TMC2    O5 2438   0.822   0.603  10.492 -0.0404  0.1196 -0.5227
  156TMC2    H5 2439   0.787   0.692  10.516 -0.6820  0.0784 -1.3063
  157MPD2     C 2440   1.338   0.316  11.021 -0.4242 -0.6610  0.2001
  157MPD2    C1 2441   1.270   0.427  11.058  1.0192  0.2123 -0.0461
  157MPD2    C2 2442   1.248   0.454  11.191 -0.2978  0.3126  0.3852
  157MPD2    C3 2443   1.315   0.379  11.285  0.2694 -0.1971  0.0376
  157MPD2    C4 2444   1.383   0.265  11.247 -1.1140 -0.4236 -0.3134
  157MPD2    C5 2445   1.402   0.236  11.118  0.4964  0.4183 -0.4560
  157MPD2     H 2446   1.184   0.533  11.228 -1.2654  0.2991 -1.2820
  157MPD2    H1 2447   1.425   0.191  11.315  0.4078  1.8440  1.2092
  157MPD2    H2 2448   1.353   0.287  10.918  1.3637  3.5053 -0.7230
  157MPD2    H3 2449   1.444   0.143  11.081  0.7942  0.0801  0.7490
  157MPD2     N 2450   1.304   0.413  11.427  0.2024  0.1939  0.1683
  157MPD2    H5 2451   1.249   0.497  11.443 -0.7046 -0.5418  0.9115
  157MPD2    N1 2452   1.218   0.508  10.949 -0.3505  0.5980  0.4232
  157MPD2    H7 2453   1.204   0.468  10.857 -1.2816  0.4517  0.6257
  158TMC2    C1 2454   2.240   3.821  13.464 -0.0037 -0.0144 -0.2581
  158TMC2    C2 2455   2.348   3.841  13.386  0.0492 -0.0084  0.7795
  158TMC2    C3 2456   2.335   3.825  13.247 -0.5088 -0.6564 -0.0425
  158TMC2    C4 2457   2.119   3.769  13.410 -0.0667 -0.3630  0.5184
  158TMC2    C5 2458   2.116   3.744  13.270  0.0210  0.1931 -0.6102
  158TMC2    C6 2459   2.223   3.767  13.191  0.1362 -0.1057 -0.7006
  158TMC2     C 2460   2.249   3.837  13.611  0.1981  0.7177  0.6261
  158TMC2     O 2461   2.348   3.896  13.656  0.5966  0.1271 -0.2330
  158TMC2     H 2462   2.442   3.885  13.418  0.2603  0.4080 -0.3861
  158TMC2    H1 2463   2.034   3.763  13.477  0.5887 -2.0660  1.2028
  158TMC2    H2 2464   2.209   3.751  13.085 -2.5809  1.1064 -0.5341
  158TMC2    C7 2465   1.992   3.700  13.203 -1.2952  0.6733 -0.1232
  158TMC2    C8 2466   2.447   3.779  13.171  0.5653  0.2758 -0.2919
  158TMC2    O1 2467   2.000   3.673  13.085 -0.1516 -0.2524 -0.2418
  158TMC2    O2 2468   2.440   3.672  13.113  0.4299  0.4147 -0.3458
  158TMC2    O5 2469   2.549   3.843  13.228 -0.4035  0.6039 -0.0247
  158TMC2    H5 2470   2.531   3.934  13.259 -0.5928  0.7140 -0.4564
  159MPD2     C 2471   2.108   3.797  14.096 -0.3004  0.1623  0.5076
  159MPD2    C1 2472   2.001   3.777  14.014 -0.1465  0.5310 -0.5293
  159MPD2    C2 2473   2.020   3.786  13.875 -0.5916  0.0041 -0.0421
  159MPD2    C3 2474   2.146   3.799  13.824  0.3087 -0.1620 -0.3257
  159MPD2    C4 2475   2.257   3.797  13.911 -0.2396  0.6247 -0.4215
  159MPD2    C5 2476   2.237   3.801  14.048  0.3042  0.3973  0.4156
  159MPD2     H 2477   1.937   3.778  13.806 -0.9023 -0.8957  0.4324
  159MPD2    H1 2478   2.357   3.800  13.869 -0.0909  1.9900  0.0135
  159MPD2    H2 2479   2.091   3.788  14.203  4.7526 -1.6987  1.1547
  159MPD2    H3 2480   2.322   3.815  14.114 -0.0163  2.3617  0.4089
  159MPD2     N 2481   2.148   3.791  13.689 -0.4947 -0.1146  0.8313
  159MPD2    H5 2482   2.066   3.751  13.644  1.0598 -0.4242 -1.7281
  159MPD2    N1 2483   1.873   3.761  14.080  0.0035 -0.1430  0.4567
  159MPD2    H7 2484   1.872   3.747  14.180 -1.9893 -0.7779  0.3570
  160TMC2    C1 2485   1.652   1.632   1.561 -1.0544 -0.1742  0.1600
  160TMC2    C2 2486   1.688   1.540   1.655  0.6966  0.1195  0.3914
  160TMC2    C3 2487   1.749   1.435   1.602  0.4397  0.0962  0.0657
  160TMC2    C4 2488   1.680   1.621   1.421 -0.3403 -0.2714 -0.1396
  160TMC2    C5 2489   1.739   1.505   1.385 -0.1205 -0.8405 -1.8377
  160TMC2    C6 2490   1.787   1.417   1.473  0.9328  0.0469 -0.4667
  160TMC2     C 2491   1.628   1.765   1.614 -1.1539 -0.2644  0.5146
  160TMC2     O 2492   1.664   1.773   1.733  0.7225  0.5110 -0.3355
  160TMC2     H 2493   1.681   1.552   1.763 -3.1036 -0.0329  0.1521
  160TMC2    H1 2494   1.625   1.690   1.357 -1.4117  0.8009  1.9557
  160TMC2    H2 2495   1.834   1.323   1.448  0.4628 -0.4294  0.4454
  160TMC2    C7 2496   1.792   1.501   1.249 -0.3144  0.7904 -0.1608
  160TMC2    C8 2497   1.742   1.324   1.684 -0.3379  0.6273  0.8648
  160TMC2    O1 2498   1.794   1.394   1.189 -0.0416 -0.6215 -0.3012
  160TMC2    O2 2499   1.649   1.295   1.758 -0.0417 -0.3268  0.0293
  160TMC2    O5 2500   1.841   1.236   1.647 -0.1539 -0.4688 -0.1658
  160TMC2    H5 2501   1.920   1.281   1.610  0.3129 -3.0583 -2.3335
  161MPD2     C 2502   1.558   2.055   1.660 -0.0182 -0.2296 -0.7634
  161MPD2    C1 2503   1.508   1.982   1.552 -0.2527 -0.3276  0.5563
  161MPD2    C2 2504   1.430   2.044   1.458  0.4492 -0.6299  0.7140
  161MPD2    C3 2505   1.396   2.177   1.468  0.0158  0.6016  0.2441
  161MPD2    C4 2506   1.453   2.255   1.572 -0.4949  0.8492  0.5274
  161MPD2    C5 2507   1.526   2.186   1.670  0.1255 -0.4640 -0.0166
  161MPD2     H 2508   1.393   1.981   1.378  1.5086  0.6820 -0.8206
  161MPD2    H1 2509   1.446   2.361   1.593  2.0442  0.6503  2.3621
  161MPD2    H2 2510   1.618   2.012   1.739 -2.3942  0.8955  1.6724
  161MPD2    H3 2511   1.584   2.244   1.741  0.7789 -1.0662 -0.0617
  161MPD2     N 2512   1.320   2.244   1.374  0.5497  0.1104  0.0084
  161MPD2    H5 2513   1.303   2.342   1.394  0.0191 -0.1092  0.6355
  161MPD2    N1 2514   1.547   1.847   1.535 -0.2365 -0.1982 -0.0795
  161MPD2    H7 2515   1.516   1.802   1.449  0.7152 -0.9467 -0.0214
  162TMC2    C1 2516   4.118   3.364   1.603 -0.0335 -0.3447 -0.0229
  162TMC2    C2 2517   4.007   3.284   1.619 -0.1084  0.4367 -0.2780
  162TMC2    C3 2518   4.010   3.153   1.667  0.4686 -0.1339  0.1123
  162TMC2    C4 2519   4.241   3.327   1.654  0.5167  0.1935  0.1037
  162TMC2    C5 2520   4.242   3.202   1.702  0.4037  0.4608 -0.3863
  162TMC2    C6 2521   4.135   3.115   1.704  0.3423 -0.2024 -0.1213
  162TMC2     C 2522   4.117   3.445   1.479 -0.3236  1.1200 -0.9984
  162TMC2     O 2523   4.014   3.451   1.413  0.0277  0.3204 -0.4278
  162TMC2     H 2524   3.916   3.328   1.580  0.3382  1.5048 -0.1204
  162TMC2    H1 2525   4.326   3.394   1.646 -0.5525  1.3565 -1.5905
  162TMC2    H2 2526   4.141   3.010   1.728 -1.2058 -0.1793  0.3703
  162TMC2    C7 2527   4.380   3.150   1.728  0.7367  0.4334  0.1105
  162TMC2    C8 2528   3.898   3.066   1.640 -0.2116  0.3765  0.4284
  162TMC2    O1 2529   4.462   3.232   1.765  0.2353 -0.4408 -0.1640
  162TMC2    O2 2530   3.815   3.096   1.557 -0.4877  0.6063  0.1358
  162TMC2    O5 2531   3.876   2.982   1.745 -0.8440 -0.0845 -0.2083
  162TMC2    H5 2532   3.944   3.000   1.814 -2.2916 -0.3507  1.2779
  163MPD2     C 2533   4.379   3.676   1.111  0.3332 -1.0299  0.0430
  163MPD2    C1 2534   4.273   3.590   1.096 -0.0674  0.4463 -1.0435
  163MPD2    C2 2535   4.214   3.550   1.212  0.0974  0.2359  0.6778
  163MPD2    C3 2536   4.268   3.571   1.341  0.1551 -0.5261  0.1458
  163MPD2    C4 2537   4.375   3.653   1.350  0.2757 -0.1006 -0.1296
  163MPD2    C5 2538   4.432   3.708   1.239  0.6257  0.0636  0.2434
  163MPD2     H 2539   4.130   3.482   1.211  0.4302 -0.2128  2.5533
  163MPD2    H1 2540   4.421   3.678   1.445  1.1895 -2.6652  0.0788
  163MPD2    H2 2541   4.424   3.710   1.019 -2.1785  2.2225 -0.0047
  163MPD2    H3 2542   4.524   3.766   1.236  0.6977  0.0513  2.2670
  163MPD2     N 2543   4.220   3.524   1.463 -0.2122 -0.0265  0.3359
  163MPD2    H5 2544   4.270   3.560   1.544 -1.2380 -0.3367  1.1150
  163MPD2    N1 2545   4.235   3.558   0.964 -0.1838 -0.0266 -0.0418
  163MPD2    H7 2546   4.279   3.605   0.886 -0.5206 -3.0723 -2.0899
  164TMC2    C1 2547   4.599   3.608  11.581  0.3634 -0.4520  0.1612
  164TMC2    C2 2548   4.702   3.687  11.546  0.3365  0.4403  1.4158
  164TMC2    C3 2549   4.675   3.804  11.474  0.5990  0.1954  0.2342
  164TMC2    C4 2550   4.470   3.636  11.542 -0.7822  0.2067  0.1606
  164TMC2    C5 2551   4.453   3.755  11.464 -0.3540 -0.0783  0.0249
  164TMC2    C6 2552   4.550   3.839  11.423 -0.1181  0.0034 -0.2335
  164TMC2     C 2553   4.624   3.463  11.616 -0.0381 -0.4849 -0.4909
  164TMC2     O 2554   4.523   3.398  11.640  0.0786  0.2349  0.0777
  164TMC2     H 2555   0.055   3.657  11.591  1.3339  0.4742 -0.6340
  164TMC2    H1 2556   4.405   3.552  11.562  1.1913 -1.7002 -1.3284
  164TMC2    H2 2557   4.528   3.926  11.361 -0.5260  0.6569  0.8205
  164TMC2    C7 2558   4.314   3.809  11.457  0.9133  0.1700 -0.7394
  164TMC2    C8 2559   0.055   3.873  11.420 -0.6449 -0.1530 -0.3023
  164TMC2    O1 2560   4.295   3.906  11.388  0.4106 -0.3913 -0.3091
  164TMC2    O2 2561   0.170   3.843  11.443  0.0208  0.6216 -0.3234
  164TMC2    O5 2562   0.016   3.982  11.369  0.3576 -0.2982  0.0664
  164TMC2    H5 2563   4.661   3.992  11.349  0.1870 -0.9186  0.5895
  165TMC2    C1 2564   1.560   0.060   0.652  0.6253  0.1871  0.5286
  165TMC2    C2 2565   1.637   4.680   0.642 -0.0641 -0.1607 -0.8375
  165TMC2    C3 2566   1.759   4.677   0.567 -0.2388 -0.3337 -0.3912
  165TMC2    C4 2567   1.599   0.170   0.581 -0.7130 -0.1158 -0.0067
  165TMC2    C5 2568   1.722   0.160   0.521 -0.5860  0.0857 -0.4952
  165TMC2    C6 2569   1.802   0.050   0.512 -0.4725 -0.1708 -0.3017
  165TMC2     C 2570   1.517   0.082   0.790 -0.1289 -0.8908  0.1057
  165TMC2     O 2571   1.517   4.722   0.864 -0.0399 -0.1715  0.1306
  165TMC2     H 2572   1.605   4.590   0.692 -0.3739 -0.6839 -1.9894
  165TMC2    H1 2573   1.554   0.268   0.582  0.6381  0.4971  0.7981
  165TMC2    H2 2574   1.903   0.050   0.471 -0.2611  0.6005  0.2128
  165TMC2    C7 2575   1.790   0.296   0.504 -0.0626  0.2513  0.5148
  165TMC2    C8 2576   1.858   4.572   0.607  0.7079  0.1022  0.2441
  165TMC2    O1 2577   1.744   0.380   0.582 -0.5134 -0.2198 -0.1838
  165TMC2    O2 2578   1.873   4.527   0.723 -0.0544 -0.3241  0.5795
  165TMC2    O5 2579   1.935   4.549   0.498  0.6958 -0.5179 -0.6550
  165TMC2    H5 2580   1.904   4.590   0.414  2.3981 -0.0191 -1.0452
  166MPD2     C 2581   1.582   0.391   1.202 -0.7857  0.0973 -0.0555
  166MPD2    C1 2582   1.558   0.259   1.195  0.2699  0.0357  0.3355
  166MPD2    C2 2583   1.524   0.200   1.074  0.1225  0.1291  0.0412
  166MPD2    C3 2584   1.533   0.267   0.958 -0.1823 -0.6632  0.0957
  166MPD2    C4 2585   1.541   0.405   0.962 -0.3565  0.2584  0.3873
  166MPD2    C5 2586   1.563   0.465   1.082 -0.1250  0.1958  0.7408
  166MPD2     H 2587   1.516   0.092   1.071 -0.9669  0.1454  1.9140
  166MPD2    H1 2588   1.532   0.469   0.876  2.3541 -0.2539 -0.2596
  166MPD2    H2 2589   1.617   0.438   1.293 -0.8161  0.9829 -0.4996
  166MPD2    H3 2590   1.571   0.573   1.077 -1.8386  0.2263 -1.0665
  166MPD2     N 2591   1.529   0.214   0.829  0.3118 -0.3254  0.1402
  166MPD2    H5 2592   1.521   0.277   0.749  0.4356  0.9837  1.1531
  166MPD2    N1 2593   1.552   0.182   1.312  0.2698  0.2882 -0.2791
  166MPD2    H7 2594   1.585   0.226   1.397  2.9430  0.3084 -1.3359
  167TMC2    C1 2595   3.580   3.499  13.119  0.5637  0.0556 -0.0430
  167TMC2    C2 2596   3.508   3.509  13.232  0.3472  0.1336 -0.4680
  167TMC2    C3 2597   3.427   3.406  13.266 -0.1858  0.6778  0.2910
  167TMC2    C4 2598   3.584   3.379  13.056  0.0614  0.7177 -0.8250
  167TMC2    C5 2599   3.512   3.270  13.099  0.0608  0.1135  1.2138
  167TMC2    C6 2600   3.429   3.286  13.207 -0.9140 -0.3925 -0.0654
  167TMC2     C 2601   3.677   3.599  13.097  0.0737 -0.1833 -0.6333
  167TMC2     O 2602   3.712   3.682  13.184 -0.0595 -0.1425 -0.0509
  167TMC2     H 2603   3.499   3.605  13.280 -1.5628 -1.0717  1.5644
  167TMC2    H1 2604   3.663   3.362  12.984  0.3312 -1.0271 -0.1429
  167TMC2    H2 2605   3.378   3.200  13.249  1.3866 -1.8634 -0.2754
  167TMC2    C7 2606   3.514   3.141  13.026  0.2690  1.3034 -0.3990
  167TMC2    C8 2607   3.341   3.433  13.377  0.3414 -0.0970  0.2361
  167TMC2    O1 2608   3.445   3.054  13.076 -0.3528 -0.2653 -0.2567
  167TMC2    O2 2609   3.231   3.379  13.398  0.1784  0.5272  0.4400
  167TMC2    O5 2610   3.390   3.529  13.454 -0.0612 -0.4088  0.3301
  167TMC2    H5 2611   3.486   3.544  13.442 -0.1475  0.4922  0.7427
  168MPD2     C 2612   3.945   3.691  13.002 -0.0634 -0.1176 -0.1635
  168MPD2    C1 2613   3.840   3.644  12.924 -0.1502 -0.3103 -0.7908
  168MPD2    C2 2614   3.857   3.626  12.790 -0.4930 -0.2030  0.2332
  168MPD2    C3 2615   3.975   3.662  12.723 -0.0248  0.0345  0.4934
  168MPD2    C4 2616   4.074   3.716  12.805  0.3983 -0.0520  0.4644
  168MPD2    C5 2617   4.063   3.735  12.938 -0.9545 -0.4807  0.4438
  168MPD2     H 2618   3.766   3.595  12.739  0.9020  1.2191 -3.0865
  168MPD2    H1 2619   4.170   3.730  12.757 -1.3424  3.5451 -1.9899
  168MPD2    H2 2620   3.950   3.682  13.110 -0.1853 -3.4480 -0.4146
  168MPD2    H3 2621   4.144   3.775  12.998 -0.9686 -1.3513  1.0396
  168MPD2     N 2622   3.996   3.645  12.581 -0.2957  0.1642  0.3362
  168MPD2    H5 2623   4.071   3.702  12.544 -1.0490  0.2298 -1.0955
  168MPD2    N1 2624   3.725   3.579  12.972 -0.0896  0.0287 -0.2333
  168MPD2    H7 2625   3.673   3.531  12.899  1.2363 -1.6271 -0.0863
  169MPD1     C 2626   0.528   4.159   9.948  0.0413  0.3936 -0.4497
  169MPD1    C1 2627   0.489   4.093  10.062  0.1398  0.8930  0.3933
  169MPD1    C2 2628   0.568   3.983  10.089  0.3319 -0.2036 -0.1283
  169MPD1    C3 2629   0.691   3.969  10.025 -0.0771 -0.5409  0.9815
  169MPD1    C4 2630   0.734   4.050   9.919  0.9016 -0.2929 -0.7350
  169MPD1    C5 2631   0.646   4.140   9.879 -0.1085 -0.5005 -0.7420
  169MPD1     H 2632   0.538   3.920  10.172  2.4313  2.0987  2.4146
  169MPD1    H1 2633   0.832   4.055   9.873  1.1681  0.0419 -0.1366
  169MPD1    H2 2634   0.471   4.237   9.897 -3.0147 -1.3978  0.2741
  169MPD1    H3 2635   0.660   4.206   9.794 -1.7240  1.4420  0.4972
  169MPD1     N 2636   0.775   3.857  10.062  0.1845 -0.4532 -0.4730
  169MPD1    H5 2637   0.731   3.797  10.131  0.3880 -0.2380 -0.1626
  169MPD1    N1 2638   0.359   4.108  10.120  0.6209 -0.1544 -0.2716
  169MPD1    H6 2639   0.343   4.070  10.213  2.8898  0.4051  0.3696
  169MPD1    H7 2640   0.333   4.206  10.126  0.5727 -0.1611 -0.3673
  170MPD1     C 2641   0.327   0.374  13.270 -0.6653 -0.1852  0.4238
  170MPD1    C1 2642   0.424   0.397  13.369  0.1784  0.0038  0.5179
  170MPD1    C2 2643   0.400   0.500  13.452 -0.0903 -0.9273  0.4351
  170MPD1    C3 2644   0.276   0.565  13.452  0.6368 -0.3937  0.2338
  170MPD1    C4 2645   0.174   0.519  13.365 -0.8491 -0.7110 -0.0747
  170MPD1    C5 2646   0.200   0.422  13.271  0.0341  0.3153  0.0654
  170MPD1     H 2647   0.474   0.523  13.528  0.6131 -2.1845  0.1365
  170MPD1    H1 2648   0.074   0.562  13.363  0.2582  1.9230  0.0631
  170MPD1    H2 2649   0.342   0.303  13.189 -0.5833 -1.7348  1.7993
  170MPD1    H3 2650   0.123   0.393  13.201  0.7842 -0.2719 -0.5305
  170MPD1     N 2651   0.269   0.677  13.539 -0.1550 -0.1987  0.7585
  170MPD1    H5 2652   0.358   0.704  13.579  0.0019 -0.1300  0.3649
  170MPD1    N1 2653   0.544   0.330  13.357  0.0432  1.2071 -0.7982
  170MPD1    H6 2654   0.520   0.244  13.308  1.3131  1.7865 -2.4265
  170MPD1    H7 2655   0.575   0.310  13.451  2.1158 -2.1248 -2.1928
  171MPD1     C 2656   3.247   1.978  16.002 -1.2278 -0.0951 -0.7061
  171MPD1    C1 2657   3.323   1.926  15.905 -0.0713  0.1508  0.2772
  171MPD1    C2 2658   3.381   1.806  15.930  0.5535  0.1518 -0.4833
  171MPD1    C3 2659   3.357   1.734  16.044 -0.6947 -0.1691 -0.1993
  171MPD1    C4 2660   3.268   1.787  16.138  0.4199  0.0406 -0.0312
  171MPD1    C5 2661   3.220   1.914  16.119 -0.2849  0.5105  0.0479
  171MPD1     H 2662   3.449   1.768  15.855  0.4426  1.4409 -1.2513
  171MPD1    H1 2663   3.243   1.733  16.229  1.0457 -0.6557 -0.2679
  171MPD1    H2 2664   3.209   2.080  16.008 -1.1732 -0.1821  1.1752
  171MPD1    H3 2665   3.156   1.961  16.193  1.1022  0.9241  0.9974
  171MPD1     N 2666   3.425   1.613  16.074 -0.1806  0.6363  0.7690
  171MPD1    H5 2667   3.406   1.565  16.162  0.6610 -3.6459 -1.3652
  171MPD1    N1 2668   3.350   2.002  15.793 -0.6071  0.1437  0.0256
  171MPD1    H6 2669   3.369   2.099  15.819  1.3651 -0.2342 -0.0019
  171MPD1    H7 2670   3.430   1.962  15.744 -1.6176 -0.5082 -1.0894
  172MPD1     C 2671   3.177   1.509   0.987  0.0617 -0.0492 -0.0914
  172MPD1    C1 2672   3.080   1.605   1.005 -0.2103 -0.0055  0.0560
  172MPD1    C2 2673   2.999   1.627   0.896  0.3430 -0.2520  0.2226
  172MPD1    C3 2674   3.008   1.549   0.776  0.2999 -0.6681  0.0280
  172MPD1    C4 2675   3.103   1.450   0.770  0.0916 -0.2161 -0.1635
  172MPD1    C5 2676   3.184   1.427   0.881 -0.0620  0.2003 -0.7885
  172MPD1     H 2677   2.934   1.712   0.912  0.8063  0.4414 -1.6868
  172MPD1    H1 2678   3.113   1.389   0.682  1.7899 -1.3994  0.8543
  172MPD1    H2 2679   3.249   1.495   1.067 -1.2016 -1.7606  0.7314
  172MPD1    H3 2680   3.277   1.374   0.864 -0.7431 -1.6629  1.3305
  172MPD1     N 2681   2.945   1.585   0.654  0.7413 -0.1877  0.5079
  172MPD1    H5 2682   2.975   1.544   0.566  0.8327 -1.0082  0.9207
  172MPD1    N1 2683   3.093   1.704   1.104  0.3810 -0.2082  0.3877
  172MPD1    H6 2684   3.131   1.657   1.185  0.8598 -0.9074 -0.2436
  172MPD1    H7 2685   2.997   1.729   1.131  0.3896 -2.9896  2.9273
  173MPD1     C 2686   4.481   1.798  13.739 -0.6878 -0.1456  0.4692
  173MPD1    C1 2687   4.351   1.772  13.756  0.1310  1.0899  0.4760
  173MPD1    C2 2688   4.318   1.674  13.851 -0.1038  0.0896  0.0075
  173MPD1    C3 2689   4.417   1.600  13.922 -0.0968  0.1032  0.2896
  173MPD1    C4 2690   4.554   1.630  13.900 -0.5879  0.5741  0.4316
  173MPD1    C5 2691   4.582   1.728  13.803  0.0632  1.1376 -0.1560
  173MPD1     H 2692   4.214   1.651  13.872 -0.0965 -1.1350 -1.2954
  173MPD1    H1 2693   4.640   1.579  13.943  0.4659  1.6858 -0.3511
  173MPD1    H2 2694   4.506   1.883  13.677  1.6178 -1.7832 -0.8323
  173MPD1    H3 2695   4.688   1.744  13.790  0.3517  0.2938  1.1740
  173MPD1     N 2696   4.380   1.504  14.014 -0.1962  0.7945 -0.2748
  173MPD1    H5 2697   4.281   1.482  14.022 -0.0804  0.7616  1.0460
  173MPD1    N1 2698   4.250   1.845  13.693 -0.1006 -0.2289 -0.0888
  173MPD1    H6 2699   4.154   1.813  13.703 -0.9017  2.8149  2.0814
  173MPD1    H7 2700   4.273   1.889  13.604 -0.3528 -1.9675 -1.0106
  174MPD1     C 2701   0.073   0.765  14.570 -0.1895  0.1708 -0.0909
  174MPD1    C1 2702   4.698   0.795  14.630 -0.3918 -0.2945  0.3733
  174MPD1    C2 2703   4.614   0.880  14.559  0.0749 -0.5159  0.5613
  174MPD1    C3 2704   4.644   0.937  14.432 -0.4727 -0.4003  0.0383
  174MPD1    C4 2705   0.033   0.917  14.380  0.1617  0.5337 -0.4758
  174MPD1    C5 2706   0.114   0.838  14.456 -0.1751  0.1020 -1.2518
  174MPD1     H 2707   4.519   0.911  14.603  0.4998  0.1830  0.9777
  174MPD1    H1 2708   0.075   0.958  14.289 -0.2102 -0.4623 -1.0924
  174MPD1    H2 2709   0.148   0.707  14.622  0.5623  1.0892 -0.1258
  174MPD1    H3 2710   0.219   0.831  14.432 -0.7089  1.6069 -4.1080
  174MPD1     N 2711   4.557   1.020  14.360  0.2104 -0.4395  0.5389
  174MPD1    H5 2712   4.598   1.055  14.274  0.6255  0.1847  0.9912
  174MPD1    N1 2713   4.648   0.716  14.733  0.1684 -0.3066 -0.0790
  174MPD1    H6 2714   4.606   0.781  14.799 -0.9242  2.4403 -3.5352
  174MPD1    H7 2715   4.726   0.673  14.783  1.8984  1.2045 -1.4918
  175MPD1     C 2716   2.493   2.363  14.954  0.1105  0.0602  0.2872
  175MPD1    C1 2717   2.402   2.288  15.032 -0.3778  0.3640  0.1273
  175MPD1    C2 2718   2.425   2.276  15.165 -0.1567  0.1803 -0.1558
  175MPD1    C3 2719   2.537   2.328  15.223  0.2916  0.5096 -0.3125
  175MPD1    C4 2720   2.635   2.382  15.145 -0.1549  0.8863  0.3515
  175MPD1    C5 2721   2.609   2.414  15.018 -0.8754  0.6719 -0.7035
  175MPD1     H 2722   2.343   2.238  15.225  0.5163 -0.7691  0.1704
  175MPD1    H1 2723   2.726   2.416  15.193  0.8487 -1.9968  0.4829
  175MPD1    H2 2724   2.477   2.380  14.848  0.7225 -1.1884 -0.0047
  175MPD1    H3 2725   2.682   2.473  14.964 -1.5705 -0.1563 -2.5395
  175MPD1     N 2726   2.551   2.337  15.362  0.3576 -0.1260 -0.1339
  175MPD1    H5 2727   2.639   2.373  15.398 -0.2643  1.9408 -0.6708
  175MPD1    N1 2728   2.286   2.240  14.976  0.0880 -0.0814 -0.8676
  175MPD1    H6 2729   2.278   2.211  14.879 -2.4173  1.3132 -1.0686
  175MPD1    H7 2730   2.243   2.168  15.033 -0.2733  0.1129 -0.8932
  176MPD1     C 2731   4.015   3.539  17.517  0.5759  0.2203 -0.7428
  176MPD1    C1 2732   4.004   3.552  17.381 -0.2530  0.6325 -0.5831
  176MPD1    C2 2733   3.982   3.681  17.339 -0.9733 -0.0354  0.1532
  176MPD1    C3 2734   3.990   3.792  17.421 -0.6978  0.0401 -0.8973
  176MPD1    C4 2735   3.998   3.774  17.558  0.0195 -0.3476  0.6697
  176MPD1    C5 2736   4.004   3.645  17.601  0.4619  0.5520 -0.0083
  176MPD1     H 2737   3.959   3.714  17.238  2.2874 -4.1930 -1.9486
  176MPD1    H1 2738   4.016   3.857  17.625 -0.7660  1.2591 -1.0991
  176MPD1    H2 2739   4.027   3.442  17.564 -1.0118 -0.1687 -1.1130
  176MPD1    H3 2740   4.024   3.628  17.706 -2.2644  1.7909  0.7061
  176MPD1     N 2741   3.970   3.918  17.352 -0.0595 -0.1311 -0.6605
  176MPD1    H5 2742   3.953   3.916  17.252 -0.6015  1.8326 -0.6037
  176MPD1    N1 2743   3.987   3.443  17.293 -0.2015  0.1446  0.0631
  176MPD1    H6 2744   4.035   3.362  17.332  0.6507  0.3553 -0.5562
  176MPD1    H7 2745   4.021   3.456  17.198 -0.2644  0.8848  0.1479
  177MPD1     C 2746   2.501   3.969  10.111  0.0316  0.0292  0.0315
  177MPD1    C1 2747   2.361   3.971  10.130  0.3035  1.0292  0.2382
  177MPD1    C2 2748   2.280   3.926  10.024  0.3715 -1.1311 -0.0028
  177MPD1    C3 2749   2.328   3.874   9.908 -0.7178 -0.6178  0.9699
  177MPD1    C4 2750   2.467   3.861   9.903 -0.9414  0.6587 -0.1710
  177MPD1    C5 2751   2.551   3.907  10.004 -0.0896 -0.6281 -0.7438
  177MPD1     H 2752   2.172   3.928  10.030  0.3330 -4.3275  0.1411
  177MPD1    H1 2753   2.515   3.826   9.812 -0.5409 -1.1217  0.7195
  177MPD1    H2 2754   2.573   4.022  10.173  0.1002 -1.3171  1.0899
  177MPD1    H3 2755   2.655   3.910   9.972  0.3336  0.8165  0.7814
  177MPD1     N 2756   2.236   3.849   9.807  0.4165  0.5094  0.3107
  177MPD1    H5 2757   2.139   3.856   9.834  0.1092  0.4578 -0.7634
  177MPD1    N1 2758   2.308   4.026  10.251  0.1250 -0.6368 -0.0601
  177MPD1    H6 2759   2.290   4.126  10.258  2.1116 -0.2261 -0.7432
  177MPD1    H7 2760   2.211   3.997  10.244  0.0436 -0.0441 -1.4918
  178MPD1     C 2761   4.375   0.153   0.408  0.8345  0.6424  0.3991
  178MPD1    C1 2762   4.287   0.125   0.310  0.3605 -0.2378  0.0580
  178MPD1    C2 2763   4.333   0.091   0.185  0.4355 -0.6862  0.4154
  178MPD1    C3 2764   4.468   0.102   0.159 -1.1178 -0.3014  0.2569
  178MPD1    C4 2765   4.553   0.133   0.260  0.0118 -0.3796  0.1022
  178MPD1    C5 2766   4.507   0.169   0.382  0.2213 -0.1291 -0.3529
  178MPD1     H 2767   4.266   0.071   0.102  0.2517  0.0052  0.3979
  178MPD1    H1 2768   4.661   0.133   0.245  0.1405 -0.6498  1.0324
  178MPD1    H2 2769   4.342   0.181   0.507  1.4085 -0.9241  1.0376
  178MPD1    H3 2770   4.573   0.196   0.463  0.4456 -1.8575  0.0448
  178MPD1     N 2771   4.532   0.060   0.038 -0.2521  0.3728  0.0808
  178MPD1    H5 2772   4.633   0.055   0.035 -0.2779 -1.6580  1.7482
  178MPD1    N1 2773   4.147   0.122   0.341 -0.3348 -0.2333  0.4638
  178MPD1    H6 2774   4.093   0.047   0.298 -1.0190 -0.3285  1.4841
  178MPD1    H7 2775   4.139   0.115   0.442  0.2688 -2.8275  0.3247
  179MPD1     C 2776   0.245   2.193  15.482 -0.9531  0.4525  0.1905
  179MPD1    C1 2777   0.268   2.129  15.603 -0.2030 -0.9116  0.3450
  179MPD1    C2 2778   0.226   2.190  15.717  0.0211 -0.3701 -0.0969
  179MPD1    C3 2779   0.187   2.323  15.713  0.9678 -0.1034 -1.0117
  179MPD1    C4 2780   0.172   2.395  15.599  0.3677  0.3596  0.3571
  179MPD1    C5 2781   0.198   2.325  15.481  0.4597  0.1821 -0.3974
  179MPD1     H 2782   0.230   2.129  15.806  0.5744  1.3577  1.0789
  179MPD1    H1 2783   0.131   2.495  15.600 -2.4346 -0.7923  1.4909
  179MPD1    H2 2784   0.272   2.156  15.384  1.8262  2.2236  0.3141
  179MPD1    H3 2785   0.176   2.371  15.386 -0.7845  1.9129  0.7295
  179MPD1     N 2786   0.128   2.388  15.827  0.1219  0.0814 -0.0397
  179MPD1    H5 2787   0.067   2.468  15.811 -1.1026 -0.1768  3.2664
  179MPD1    N1 2788   0.322   1.998  15.603  0.6963 -0.2493 -0.7344
  179MPD1    H6 2789   0.346   1.967  15.697  0.2459 -0.3287 -0.6447
  179MPD1    H7 2790   0.406   1.998  15.546  1.0989  1.2566 -0.1328
  180MPD1     C 2791   4.583   0.078  15.278 -0.8211  0.4742 -0.1775
  180MPD1    C1 2792   4.639   0.041  15.154  0.0838 -0.5573 -0.1150
  180MPD1    C2 2793   4.551   0.004  15.050 -0.6067  0.4225 -0.2886
  180MPD1    C3 2794   4.414   0.017  15.065  0.5426  0.2580 -0.4376
  180MPD1    C4 2795   4.365   0.076  15.185 -0.2321 -0.0020 -0.2185
  180MPD1    C5 2796   4.450   0.105  15.290 -0.3456 -0.0023 -0.5181
  180MPD1     H 2797   4.576   4.702  14.954  1.0552  0.4686  0.1339
  180MPD1    H1 2798   4.261   0.092  15.209 -0.6789 -0.6018 -1.7176
  180MPD1    H2 2799   4.649   0.085  15.364 -0.8351 -1.2393 -0.0218
  180MPD1    H3 2800   4.399   0.133  15.381 -1.5039 -2.3103 -0.4544
  180MPD1     N 2801   4.326   4.715  14.960 -0.4151  0.4427 -0.4194
  180MPD1    H5 2802   4.363   4.676  14.873  1.1730 -0.0322  0.4617
  180MPD1    N1 2803   0.035   0.009  15.146 -0.1707  0.1721  0.0072
  180MPD1    H6 2804   0.062   0.036  15.051  0.9185  1.3872  0.6723
  180MPD1    H7 2805   0.091   0.074  15.201 -0.5713 -0.2902  0.9613
  181MPD1     C 2806   0.654   1.427  10.381  0.1059 -0.1755  0.3081
  181MPD1    C1 2807   0.667   1.496  10.265  0.3256 -0.7702 -0.8211
  181MPD1    C2 2808   0.776   1.576  10.247 -0.1798 -0.6099  0.5453
  181MPD1    C3 2809   0.855   1.607  10.361  0.3126 -0.4720  0.4213
  181MPD1    C4 2810   0.813   1.564  10.485 -0.2109  0.5263  0.1002
  181MPD1    C5 2811   0.722   1.463  10.493  0.3321  0.2841  0.2183
  181MPD1     H 2812   0.801   1.621  10.152 -0.2497  1.0854  1.3393
  181MPD1    H1 2813   0.868   1.589  10.576 -0.5255 -0.6246  0.6043
  181MPD1    H2 2814   0.570   1.359  10.396  0.0497 -0.1294  0.2060
  181MPD1    H3 2815   0.701   1.418  10.589  0.5120  0.8360  0.5194
  181MPD1     N 2816   0.970   1.695  10.353 -0.5469 -0.0472  0.0759
  181MPD1    H5 2817   1.015   1.715  10.442  1.3116 -0.1679 -0.8358
  181MPD1    N1 2818   0.581   1.473  10.156 -0.0688 -0.4066  0.0416
  181MPD1    H6 2819   0.558   1.560  10.108  1.0914  0.4116  0.9817
  181MPD1    H7 2820   0.492   1.434  10.187 -0.1565 -0.3531 -0.1452
  182MPD1     C 2821   2.557   0.363   0.002 -0.3295 -0.0871  0.1290
  182MPD1    C1 2822   2.505   0.246   0.054  0.7903  0.3028 -1.2336
  182MPD1    C2 2823   2.370   0.218   0.031 -0.5837  0.2986 -0.8492
  182MPD1    C3 2824   2.284   0.314  17.737  0.5881 -0.5997  0.0471
  182MPD1    C4 2825   2.339   0.428  17.688  0.1522 -0.0306 -0.5270
  182MPD1    C5 2826   2.471   0.453  17.700 -0.2572 -0.1376  0.1564
  182MPD1     H 2827   2.337   0.122   0.071 -0.6980  0.7709  0.1668
  182MPD1    H1 2828   2.276   0.488  17.624  2.9940  2.6250 -0.8526
  182MPD1    H2 2829   2.662   0.387   0.012  0.2964 -3.8093  2.8427
  182MPD1    H3 2830   2.506   0.546  17.658 -0.2823  1.1981  3.1085
  182MPD1     N 2831   2.142   0.312  17.728  0.3514 -0.5540  0.1352
  182MPD1    H5 2832   2.097   0.389  17.680 -0.2244 -0.6067  0.5982
  182MPD1    N1 2833   2.601   0.141   0.088 -0.2623  0.0708 -0.3246
  182MPD1    H6 2834   2.562   0.067   0.145  1.1919  0.9821  1.8323
  182MPD1    H7 2835   2.688   0.172   0.130  0.0895 -2.2641  0.6165
  183MPD1     C 2836   3.919   1.496  10.047  0.2892 -0.1865  0.3805
  183MPD1    C1 2837   3.886   1.628  10.019 -0.4291 -0.1880  0.0457
  183MPD1    C2 2838   3.752   1.659   9.997  0.2530  0.4010  0.0493
  183MPD1    C3 2839   3.656   1.567  10.028 -0.2548 -0.3872  0.6105
  183MPD1    C4 2840   3.686   1.447  10.082 -0.2393 -0.2210  0.1676
  183MPD1    C5 2841   3.819   1.410  10.084  0.3360 -1.5142 -0.2942
  183MPD1     H 2842   3.730   1.755   9.951  0.2315 -0.9835 -2.8275
  183MPD1    H1 2843   3.618   1.367  10.111  0.3039 -0.8758 -0.3581
  183MPD1    H2 2844   4.016   1.447  10.052  0.0491 -0.6423  0.5800
  183MPD1    H3 2845   3.837   1.306  10.109  0.1224 -1.3809  0.4278
  183MPD1     N 2846   3.521   1.607  10.013  0.2809  0.0005 -0.0100
  183MPD1    H5 2847   3.505   1.697   9.971  1.2409  0.7692  1.2590
  183MPD1    N1 2848   3.978   1.728   9.977  0.6372 -0.4452 -0.3998
  183MPD1    H6 2849   3.948   1.821  10.005 -0.0414 -0.1640 -2.0716
  183MPD1    H7 2850   4.069   1.705  10.016 -0.2650 -0.9778  1.3781
  184MPD1     C 2851   1.179   0.115  10.441  0.9987 -0.1342 -0.0642
  184MPD1    C1 2852   1.135   0.180  10.324 -0.1095 -0.7121 -0.6419
  184MPD1    C2 2853   1.189   0.128  10.208 -0.2516  0.5441  0.3777
  184MPD1    C3 2854   1.294   0.042  10.207  0.0204 -0.1102  0.2003
  184MPD1    C4 2855   1.341   4.724  10.321 -0.8053 -0.5315  0.6586
  184MPD1    C5 2856   1.275   0.019  10.440 -0.5819  0.8581  0.9709
  184MPD1     H 2857   1.150   0.171  10.116 -3.0514  0.3391  1.4838
  184MPD1    H1 2858   1.414   4.643  10.314  0.0305  0.5114 -2.6244
  184MPD1    H2 2859   1.133   0.134  10.537  2.9621 -0.6102  0.9651
  184MPD1    H3 2860   1.298   4.712  10.534  0.8603  0.3434  0.3703
  184MPD1     N 2861   1.344   4.736  10.080 -0.0666  0.6570  0.4670
  184MPD1    H5 2862   1.422   4.672  10.094  0.1456  0.3435 -2.1685
  184MPD1    N1 2863   1.015   0.254  10.323 -0.2752 -0.5127 -0.1988
  184MPD1    H6 2864   0.989   0.301  10.410  1.4480  0.6773 -0.3405
  184MPD1    H7 2865   1.000   0.316  10.245 -0.2365 -1.1365 -0.7046
  185MPD1     C 2866   0.975   0.180   9.234  0.3819  0.1656 -0.2703
  185MPD1    C1 2867   1.107   0.162   9.225 -0.1199 -0.2711  0.5984
  185MPD1    C2 2868   1.175   0.086   9.315 -0.4887  0.2772 -0.8869
  185MPD1    C3 2869   1.101   0.021   9.422 -0.3597 -0.0449 -0.9949
  185MPD1    C4 2870   0.967   0.048   9.435 -0.3841 -0.2414  0.1885
  185MPD1    C5 2871   0.903   0.130   9.345 -0.1067  0.2829 -0.2278
  185MPD1     H 2872   1.283   0.088   9.311 -0.4942  2.6463 -0.1092
  185MPD1    H1 2873   0.897   0.021   9.514 -1.7346  4.4105  0.5891
  185MPD1    H2 2874   0.932   0.254   9.167 -0.2327  1.2824  1.3718
  185MPD1    H3 2875   0.804   0.161   9.374 -0.7503 -0.9864 -1.0612
  185MPD1     N 2876   1.168   4.676   9.515  0.4698  0.4306  0.2904
  185MPD1    H5 2877   1.119   4.660   9.602  0.3192 -0.2906  0.0696
  185MPD1    N1 2878   1.180   0.230   9.125  0.0579  0.1799  0.0314
  185MPD1    H6 2879   1.126   0.266   9.047  2.4038 -0.6968 -1.9902
  185MPD1    H7 2880   1.265   0.183   9.095 -0.3291 -0.6901  0.2992
  186MPD1     C 2881   4.651   2.890  15.767  0.4980 -0.2041  0.1103
  186MPD1    C1 2882   4.712   2.802  15.859 -0.5287 -0.1004  0.6386
  186MPD1    C2 2883   4.698   2.829  15.992 -0.8993 -0.2319  0.4983
  186MPD1    C3 2884   4.642   2.950  16.038 -0.0429  0.4306 -0.8525
  186MPD1    C4 2885   4.595   3.037  15.943 -0.0995 -0.2732 -0.0159
  186MPD1    C5 2886   4.606   3.010  15.812  0.1617  0.1303 -0.8933
  186MPD1     H 2887   4.725   2.750  16.060  2.0376 -0.1926 -0.6225
  186MPD1    H1 2888   4.563   3.137  15.973 -1.5090 -0.2225 -1.6652
  186MPD1    H2 2889   4.646   2.871  15.660 -1.1604 -1.0277  0.3254
  186MPD1    H3 2890   4.564   3.088  15.750 -0.1687  0.4730 -0.2390
  186MPD1     N 2891   4.634   2.986  16.171  0.4095  0.0505  0.7312
  186MPD1    H5 2892   4.604   3.082  16.189  0.5947  0.0145  1.2286
  186MPD1    N1 2893   0.028   2.682  15.819 -0.4032  0.3693 -0.0768
  186MPD1    H6 2894   0.102   2.653  15.882 -0.2317  0.4783 -0.2272
  186MPD1    H7 2895   0.062   2.680  15.723  0.5467 -0.1574  0.2717
  187MPD1     C 2896   3.685   0.034   0.756  0.6563 -0.0173 -0.4573
  187MPD1    C1 2897   3.627   4.710   0.652  0.2643  0.2242 -0.4296
  187MPD1    C2 2898   3.623   0.034   0.533  0.7790  0.4464  0.4684
  187MPD1    C3 2899   3.706   0.139   0.510  0.2611  0.3411 -0.5763
  187MPD1    C4 2900   3.766   0.200   0.617  0.6869 -0.1982  0.0508
  187MPD1    C5 2901   3.753   0.153   0.738 -0.3271 -0.7313  0.2259
  187MPD1     H 2902   3.565   4.728   0.454 -1.4111  1.8755  1.1955
  187MPD1    H1 2903   3.824   0.291   0.609 -1.7471  1.1396 -1.9904
  187MPD1    H2 2904   3.678   4.734   0.856 -0.2318 -1.7942 -1.2599
  187MPD1    H3 2905   3.797   0.212   0.818  0.1593 -1.6629  0.6424
  187MPD1     N 2906   3.742   0.191   0.381 -0.3874 -0.1483  0.1624
  187MPD1    H5 2907   3.805   0.271   0.381  0.2628 -0.6531 -0.9903
  187MPD1    N1 2908   3.552   4.596   0.682 -0.2044 -0.2606 -0.4333
  187MPD1    H6 2909   3.557   4.532   0.603  0.9857 -0.6145 -0.0672
  187MPD1    H7 2910   3.582   4.549   0.768 -0.5731  0.4109  0.0610
  188MPD1     C 2911   3.962   1.038  10.335 -0.0266 -0.4888  0.2249
  188MPD1    C1 2912   3.997   0.963  10.438  0.0131  0.0574  0.2001
  188MPD1    C2 2913   3.997   0.826  10.429  0.2489 -0.2512 -0.5401
  188MPD1    C3 2914   3.958   0.771  10.312 -0.4679 -0.4434 -0.5259
  188MPD1    C4 2915   3.926   0.853  10.201 -0.1095 -0.0182  0.1393
  188MPD1    C5 2916   3.920   0.989  10.214 -0.0948  0.0183 -0.9457
  188MPD1     H 2917   4.030   0.759  10.508  0.1581 -0.7888 -0.9523
  188MPD1    H1 2918   3.880   0.798  10.120  1.5716  1.3100 -1.7189
  188MPD1    H2 2919   3.974   1.145  10.349 -3.0758 -0.1794  0.6527
  188MPD1    H3 2920   3.875   1.044  10.132 -1.5740  0.6834  0.3077
  188MPD1     N 2921   3.957   0.629  10.282  0.0585  0.0926 -0.2902
  188MPD1    H5 2922   3.896   0.598  10.207  0.1194  2.3054 -1.2369
  188MPD1    N1 2923   4.023   1.027  10.562  0.0718 -0.7544  0.3194
  188MPD1    H6 2924   4.054   0.969  10.640 -0.6485 -0.5322  0.7668
  188MPD1    H7 2925   4.062   1.121  10.564 -2.2805  0.2680 -1.4133
  189MPD1     C 2926   1.292   1.238   0.713 -0.2788  0.1439 -0.2894
  189MPD1    C1 2927   1.182   1.165   0.671  0.6797  0.3839 -0.0273
  189MPD1    C2 2928   1.067   1.248   0.645  0.4293 -0.3182  0.4921
  189MPD1    C3 2929   1.062   1.380   0.681 -0.3247 -0.1273 -0.6538
  189MPD1    C4 2930   1.162   1.439   0.755 -0.3668  0.0485 -0.4690
  189MPD1    C5 2931   1.278   1.370   0.768  0.1539 -0.2846 -0.4630
  189MPD1     H 2932   0.979   1.202   0.602  0.6538  0.1333 -0.4428
  189MPD1    H1 2933   1.160   1.536   0.804 -0.0641 -0.6226  0.8620
  189MPD1    H2 2934   1.391   1.194   0.714 -0.2157  0.2902  0.5147
  189MPD1    H3 2935   1.368   1.420   0.802 -1.1651  1.3516  0.6009
  189MPD1     N 2936   0.941   1.450   0.651 -0.0352 -0.1349  0.0596
  189MPD1    H5 2937   0.870   1.393   0.607 -0.3172 -0.5126  1.0014
  189MPD1    N1 2938   1.204   1.042   0.609  0.4583  0.0660 -0.3678
  189MPD1    H6 2939   1.294   1.007   0.641  0.6685  1.9371  1.1204
  189MPD1    H7 2940   1.130   0.977   0.635 -0.3959  0.6209 -1.4155
  190MPD1     C 2941   3.807   4.513  15.965 -0.2202  0.3825  0.4029
  190MPD1    C1 2942   3.825   4.479  16.101 -0.4948  0.5543 -0.3724
  190MPD1    C2 2943   3.944   4.428  16.141  0.1530  0.5361 -0.6318
  190MPD1    C3 2944   4.040   4.397  16.047 -0.0869  0.0946  0.1627
  190MPD1    C4 2945   4.009   4.423  15.916 -0.3611 -0.6234 -0.7367
  190MPD1    C5 2946   3.897   4.480  15.872 -0.1747 -0.0658 -0.0557
  190MPD1     H 2947   3.958   4.410  16.247 -2.8445 -0.8275 -0.4830
  190MPD1    H1 2948   4.088   4.418  15.842  0.9267 -0.7429  0.6358
  190MPD1    H2 2949   3.710   4.553  15.938 -0.1839  0.5864  0.5678
  190MPD1    H3 2950   3.876   4.505  15.769 -1.5069  0.5205  0.3557
  190MPD1     N 2951   4.164   4.341  16.089 -0.1470 -0.1694 -0.5173
  190MPD1    H5 2952   4.182   4.325  16.188  1.2443  1.1164 -0.5693
  190MPD1    N1 2953   3.741   4.541  16.191  0.1174  0.3802 -0.6365
  190MPD1    H6 2954   3.744   4.492  16.281  0.1959 -0.9007 -1.3273
  190MPD1    H7 2955   3.647   4.539  16.152 -1.1844 -0.7219  2.5002
  191MPD1     C 2956   3.401   1.378  13.309 -0.0726  0.1674 -0.0190
  191MPD1    C1 2957   3.528   1.351  13.281 -0.4075 -0.3235  0.4186
  191MPD1    C2 2958   3.590   1.396  13.168  0.0606 -0.5985  0.5207
  191MPD1    C3 2959   3.520   1.500  13.101 -0.3244 -0.4122 -0.0772
  191MPD1    C4 2960   3.392   1.537  13.132 -0.5259 -0.5234  0.4113
  191MPD1    C5 2961   3.331   1.465  13.233 -0.1150 -0.3198 -0.5135
  191MPD1     H 2962   3.688   1.363  13.136 -0.7590 -1.4383 -1.0995
  191MPD1    H1 2963   3.344   1.611  13.069 -1.3764  0.3456  2.0769
  191MPD1    H2 2964   3.348   1.340  13.396 -1.3129  3.5225  0.7029
  191MPD1    H3 2965   3.226   1.487  13.248  0.0052 -0.7933  1.0159
  191MPD1     N 2966   3.602   1.562  13.000 -0.0372  0.0849  0.2301
  191MPD1    H5 2967   3.696   1.524  12.992 -0.2256 -0.5131  0.9529
  191MPD1    N1 2968   3.592   1.263  13.367  0.4731  0.7406  0.2346
  191MPD1    H6 2969   3.693   1.271  13.354  0.5341 -1.0568 -0.4974
  191MPD1    H7 2970   3.575   1.282  13.466  1.1806 -2.8283  1.0748
  192MPD1     C 2971   3.297   2.314  12.394 -0.1287  0.5933 -0.6058
  192MPD1    C1 2972   3.380   2.222  12.330 -0.3277  0.0948 -0.2497
  192MPD1    C2 2973   3.475   2.141  12.395  0.2416  0.4246 -0.2075
  192MPD1    C3 2974   3.469   2.145  12.534 -0.2511  0.7942  0.4238
  192MPD1    C4 2975   3.374   2.217  12.596 -0.1666 -0.3781 -0.5812
  192MPD1    C5 2976   3.299   2.307  12.528 -0.2547 -0.7198  0.3700
  192MPD1     H 2977   3.538   2.074  12.339  0.0099 -0.1242  0.1896
  192MPD1    H1 2978   3.369   2.222  12.705  0.5255 -0.3738 -0.5539
  192MPD1    H2 2979   3.229   2.373  12.334 -0.7891  0.3934 -0.0627
  192MPD1    H3 2980   3.241   2.374  12.590 -0.0362  0.3145 -0.5304
  192MPD1     N 2981   3.548   2.057  12.617 -0.0511 -0.5145  0.3941
  192MPD1    H5 2982   3.532   2.064  12.717 -1.4738  2.2045 -0.0241
  192MPD1    N1 2983   3.386   2.236  12.193 -0.0772  0.4039  0.2558
  192MPD1    H6 2984   3.410   2.150  12.145 -1.2959  0.5806 -0.6871
  192MPD1    H7 2985   3.291   2.259  12.162 -0.2772 -0.5699  0.1499
  193MPD1     C 2986   3.397   1.106  16.718 -0.4509  0.0100 -0.1356
  193MPD1    C1 2987   3.354   1.169  16.834  0.1157 -0.3376  0.3295
  193MPD1    C2 2988   3.440   1.266  16.891  0.1706  0.0751 -0.3869
  193MPD1    C3 2989   3.563   1.299  16.837 -0.6133  0.9324  0.1658
  193MPD1    C4 2990   3.604   1.235  16.723 -0.0432 -0.3139 -0.0102
  193MPD1    C5 2991   3.517   1.149  16.657  0.8576 -1.0378  0.2224
  193MPD1     H 2992   3.403   1.316  16.980  1.4308  1.5557 -0.7068
  193MPD1    H1 2993   3.690   1.278  16.673 -1.2451 -0.3734 -2.1249
  193MPD1    H2 2994   3.341   1.022  16.678  0.4197 -0.7680  0.2861
  193MPD1    H3 2995   3.550   1.097  16.568  0.2217 -3.2627  1.3114
  193MPD1     N 2996   3.645   1.396  16.895 -0.2397  0.0692  0.2783
  193MPD1    H5 2997   3.734   1.408  16.848 -0.6053  3.0617  0.3928
  193MPD1    N1 2998   3.249   1.115  16.910 -0.1039  0.1903  1.0833
  193MPD1    H6 2999   3.184   1.067  16.847  1.9494 -0.0869 -0.8180
  193MPD1    H7 3000   3.193   1.179  16.966 -1.6277 -1.0171  0.9541
  194MPD1     C 3001   1.002   4.040  16.801 -0.7504  0.7821 -0.0343
  194MPD1    C1 3002   1.086   4.039  16.908  0.6923 -0.2791 -0.3527
  194MPD1    C2 3003   1.165   3.929  16.946  0.3268 -0.2532 -0.6627
  194MPD1    C3 3004   1.162   3.805  16.875  0.1248  0.0534 -0.2240
  194MPD1    C4 3005   1.067   3.801  16.776  0.0004 -0.0294  0.0847
  194MPD1    C5 3006   0.991   3.912  16.743  0.7847 -0.2182  0.6696
  194MPD1     H 3007   1.227   3.928  17.035 -1.1682 -0.0253  0.3775
  194MPD1    H1 3008   1.051   3.706  16.726  0.7143 -0.7947  1.3248
  194MPD1    H2 3009   0.933   4.120  16.776  0.9433  2.2215 -0.0903
  194MPD1    H3 3010   0.910   3.903  16.671  0.0986  0.9238  1.2857
  194MPD1     N 3011   1.243   3.688  16.900 -0.7656 -0.4652  0.2868
  194MPD1    H5 3012   1.208   3.608  16.848 -0.4505  0.9541 -2.1043
  194MPD1    N1 3013   1.080   4.148  16.996  0.6995 -0.0694  0.4831
  194MPD1    H6 3014   1.172   4.184  17.022  0.2811  1.1996  0.1956
  194MPD1    H7 3015   1.039   4.230  16.952  0.2720 -0.2104  0.6174
  195MPD1     C 3016   3.434   0.620   0.243 -0.2322 -0.0908  0.0263
  195MPD1    C1 3017   3.414   0.608   0.109 -0.2078 -0.2518 -0.0711
  195MPD1    C2 3018   3.378   0.485   0.056  0.2063 -0.1134 -0.3467
  195MPD1    C3 3019   3.381   0.370   0.136  0.9087 -0.1092  0.0628
  195MPD1    C4 3020   3.418   0.376   0.266 -0.5863 -1.1136 -0.3138
  195MPD1    C5 3021   3.441   0.503   0.319  0.0047  0.4949  0.4889
  195MPD1     H 3022   3.351   0.471  17.713  0.6095  0.8272 -0.5778
  195MPD1    H1 3023   3.432   0.286   0.324  0.6876 -0.5409  0.2606
  195MPD1    H2 3024   3.460   0.713   0.293  0.1210  0.4184 -1.1137
  195MPD1    H3 3025   3.480   0.508   0.420 -2.5404 -0.5834  1.5107
  195MPD1     N 3026   3.353   0.242   0.093 -0.4448  0.1079  0.8261
  195MPD1    H5 3027   3.368   0.170   0.163 -1.8119  0.9018  1.9444
  195MPD1    N1 3028   3.419   0.720   0.026 -0.3725  0.6878 -0.1477
  195MPD1    H6 3029   3.464   0.702  17.697 -0.1779 -1.5310  0.4107
  195MPD1    H7 3030   3.478   0.793   0.066  0.6423 -0.3084  0.1776
  196MPD1     C 3031   3.066   3.998   0.017 -0.5686  0.5260  0.3584
  196MPD1    C1 3032   3.160   4.052   0.105 -0.3984  0.5112  0.5830
  196MPD1    C2 3033   3.117   4.141   0.202 -0.1357 -0.3320  0.1882
  196MPD1    C3 3034   2.980   4.168   0.213  0.2997  0.9427 -0.1411
  196MPD1    C4 3035   2.892   4.107   0.132  0.2294  0.3682  0.8729
  196MPD1    C5 3036   2.933   4.023   0.039 -0.8047 -0.2962  0.0546
  196MPD1     H 3037   3.185   4.183   0.275  0.1737  0.3772 -0.5027
  196MPD1    H1 3038   2.788   4.120   0.158  0.2149 -1.4517  1.7454
  196MPD1    H2 3039   3.077   3.941  17.687  1.4695 -1.2804  1.7394
  196MPD1    H3 3040   2.869   3.977  17.726  1.2341 -3.3919  0.2443
  196MPD1     N 3041   2.924   4.253   0.312  0.5276  0.2539  0.3901
  196MPD1    H5 3042   2.827   4.280   0.302  0.5498 -0.0570 -0.6090
  196MPD1    N1 3043   3.286   3.997   0.127 -0.5104  0.6187  0.5287
  196MPD1    H6 3044   3.331   3.968   0.040 -2.0642  1.2242 -0.4866
  196MPD1    H7 3045   3.356   4.059   0.165  1.4166 -1.5029  0.4188
  197MPD1     C 3046   2.265   1.696  17.385  0.8745 -0.2992 -0.3312
  197MPD1    C1 3047   2.319   1.790  17.468  0.2189 -0.5152 -0.3861
  197MPD1    C2 3048   2.369   1.905  17.421 -0.5425  0.3314 -0.3265
  197MPD1    C3 3049   2.386   1.921  17.288  0.3119 -0.6506  0.0613
  197MPD1    C4 3050   2.331   1.824  17.200 -0.0427 -0.8361  0.0679
  197MPD1    C5 3051   2.268   1.716  17.250 -0.1484  0.0925  0.2970
  197MPD1     H 3052   2.408   1.974  17.495 -1.3398  0.9322 -0.4682
  197MPD1    H1 3053   2.344   1.834  17.093 -2.0418 -0.5704 -0.1533
  197MPD1    H2 3054   2.215   1.609  17.426 -1.5710  1.3283  0.1562
  197MPD1    H3 3055   2.210   1.651  17.185 -0.1893 -0.4782  0.9081
  197MPD1     N 3056   2.464   2.022  17.230 -0.6462  0.0248 -0.4214
  197MPD1    H5 3057   2.509   2.011  17.140 -1.0627 -1.0692 -0.4959
  197MPD1    N1 3058   2.297   1.773  17.606 -0.2793 -0.0605  0.1523
  197MPD1    H6 3059   2.358   1.827  17.668 -2.5989  0.7440  1.7246
  197MPD1    H7 3060   2.295   1.676  17.636 -0.8046 -0.8629 -2.4507
  198MPD1     C 3061   4.065   0.706  15.224  0.3359  0.0186  0.1257
  198MPD1    C1 3062   3.971   0.650  15.295 -0.2719  0.0137  0.0005
  198MPD1    C2 3063   3.993   0.630  15.431  0.0693  0.7754  0.1882
  198MPD1    C3 3064   4.111   0.664  15.490  0.0588 -0.5921  0.4059
  198MPD1    C4 3065   4.212   0.703  15.406 -0.0629  0.4977 -0.0760
  198MPD1    C5 3066   4.191   0.725  15.277  0.6894 -0.7657  0.2836
  198MPD1     H 3067   3.913   0.596  15.495 -0.0030  1.0887  0.2641
  198MPD1    H1 3068   4.314   0.730  15.429 -0.0152 -0.6107  0.9709
  198MPD1    H2 3069   4.046   0.730  15.120 -2.6214  2.2686  1.2020
  198MPD1    H3 3070   4.269   0.773  15.219  0.1616  1.5209  1.4471
  198MPD1     N 3071   4.123   0.638  15.628  0.1058  0.2014 -0.1340
  198MPD1    H5 3072   4.045   0.595  15.675  0.7376  0.9294  1.5702
  198MPD1    N1 3073   3.845   0.627  15.233  0.4634 -0.1420  0.2820
  198MPD1    H6 3074   3.787   0.557  15.279 -0.4592 -0.0879 -0.8188
  198MPD1    H7 3075   3.857   0.606  15.134 -1.3971 -1.9925  0.4427
  199MPD1     C 3076   1.935   2.798  10.685  0.4177 -0.0479  0.0659
  199MPD1    C1 3077   1.915   2.666  10.649 -0.0160 -0.1411 -0.0587
  199MPD1    C2 3078   1.815   2.636  10.556  0.1750  0.1973  0.4352
  199MPD1    C3 3079   1.736   2.738  10.507 -0.0527  0.2474 -0.5589
  199MPD1    C4 3080   1.760   2.873  10.546 -0.0625  0.0488  0.1717
  199MPD1    C5 3081   1.863   2.904  10.636 -0.0817  0.0713 -0.4182
  199MPD1     H 3082   1.802   2.536  10.518  0.2764  0.6436 -0.8040
  199MPD1    H1 3083   1.694   2.953  10.516 -0.7390 -0.6267 -0.1256
  199MPD1    H2 3084   2.018   2.819  10.751 -0.3725 -0.1635  1.1082
  199MPD1    H3 3085   1.888   3.003  10.672 -0.9043  0.1525 -0.0576
  199MPD1     N 3086   1.614   2.726  10.434  0.3835  0.7597  0.5855
  199MPD1    H5 3087   1.575   2.815  10.405  0.8346  1.4880  2.2477
  199MPD1    N1 3088   2.007   2.566  10.684  0.0300 -0.3298  1.3149
  199MPD1    H6 3089   2.073   2.590  10.758  1.0538  1.2822 -0.1311
  199MPD1    H7 3090   1.974   2.470  10.686 -0.5600 -0.1849 -1.4352
  200MPD1     C 3091   0.189   1.805  15.215  0.5615 -0.1573 -0.1287
  200MPD1    C1 3092   0.207   1.767  15.089 -0.1608 -0.4183 -0.7878
  200MPD1    C2 3093   0.324   1.785  15.026  0.1113  0.5833  0.1173
  200MPD1    C3 3094   0.433   1.837  15.091  0.1122 -0.3582 -0.4794
  200MPD1    C4 3095   0.417   1.869  15.229  0.7117 -0.2313 -0.3382
  200MPD1    C5 3096   0.295   1.856  15.289 -0.4140 -0.4892 -0.5690
  200MPD1     H 3097   0.336   1.758  14.922 -1.6830  0.6857 -0.1137
  200MPD1    H1 3098   0.493   1.907  15.296 -1.1582 -0.5328  1.9479
  200MPD1    H2 3099   0.095   1.790  15.267 -0.6395 -0.3519 -2.3776
  200MPD1    H3 3100   0.285   1.870  15.396 -0.3319 -0.1907 -0.6019
  200MPD1     N 3101   0.560   1.847  15.022  0.8201 -0.1774  0.2304
  200MPD1    H5 3102   0.574   1.817  14.926 -2.5207  2.3279 -1.0516
  200MPD1    N1 3103   0.097   1.724  15.019  0.6037 -0.2526  0.0741
  200MPD1    H6 3104   0.129   1.662  14.944  2.6134 -1.4541  1.9269
  200MPD1    H7 3105   0.029   1.673  15.076 -0.2707  3.4643  2.3770
  201MPD1     C 3106   2.968   1.506  13.460 -0.1337 -0.0735 -0.2830
  201MPD1    C1 3107   2.903   1.437  13.362 -0.0685  0.8076 -0.2242
  201MPD1    C2 3108   2.949   1.313  13.327  0.0007 -0.1815  0.5811
  201MPD1    C3 3109   3.059   1.260  13.385 -0.5425 -0.1084 -0.6516
  201MPD1    C4 3110   3.121   1.325  13.491 -0.4822 -0.3138  0.7376
  201MPD1    C5 3111   3.072   1.449  13.525 -0.2856 -0.3788  0.6271
  201MPD1     H 3112   2.891   1.262  13.251  1.5177 -0.4755 -0.3670
  201MPD1    H1 3113   3.205   1.286  13.547  2.7331  2.1677 -2.3076
  201MPD1    H2 3114   2.940   1.608  13.484  2.4464  0.8566 -1.2442
  201MPD1    H3 3115   3.118   1.503  13.607  0.2441  2.2325 -1.3882
  201MPD1     N 3116   3.114   1.138  13.344  0.6911  0.0827  0.1789
  201MPD1    H5 3117   3.070   1.099  13.261 -2.0123  0.5911  1.3688
  201MPD1    N1 3118   2.804   1.506  13.289 -0.2700  0.1983  0.0873
  201MPD1    H6 3119   2.747   1.435  13.245 -0.0747 -0.0340  0.2098
  201MPD1    H7 3120   2.749   1.575  13.340 -0.0137 -1.3521  2.4654
  202MPD1     C 3121   2.106   0.391  10.057 -0.4205  0.2580 -0.3953
  202MPD1    C1 3122   2.095   0.403  10.198 -0.3919 -0.2782  0.2118
  202MPD1    C2 3123   2.202   0.464  10.263 -0.3770  0.3278 -0.1150
  202MPD1    C3 3124   2.326   0.473  10.195 -0.1029 -0.0257 -0.1802
  202MPD1    C4 3125   2.334   0.426  10.071 -0.7564  0.3233  0.5178
  202MPD1    C5 3126   2.227   0.394   9.998 -0.0216 -0.3381  0.3841
  202MPD1     H 3127   2.185   0.482  10.369 -2.5095 -1.2682 -0.1943
  202MPD1    H1 3128   2.432   0.425  10.024 -2.2019  2.2882 -2.5154
  202MPD1    H2 3129   2.019   0.381   9.993  1.2036  0.1673 -2.5598
  202MPD1    H3 3130   2.226   0.374   9.891  1.5299 -1.2499  0.5471
  202MPD1     N 3131   2.445   0.515  10.252  0.0335 -0.1511  0.3943
  202MPD1    H5 3132   2.514   0.525  10.177  1.3182  2.4323  1.9108
  202MPD1    N1 3133   1.961   0.428  10.234  1.2853 -0.3994 -0.6869
  202MPD1    H6 3134   1.959   0.414  10.334 -0.9737 -3.1645 -1.1236
  202MPD1    H7 3135   1.894   0.363  10.193  1.1641 -0.2924 -0.6583
  203MPD1     C 3136   1.292   1.669  12.908  0.1496  0.7214  0.0228
  203MPD1    C1 3137   1.235   1.543  12.933  0.4944 -0.1400  0.7605
  203MPD1    C2 3138   1.303   1.431  12.876 -0.2329  0.2630  0.1002
  203MPD1    C3 3139   1.425   1.455  12.814 -0.1483  0.7437 -0.2279
  203MPD1    C4 3140   1.483   1.577  12.801  0.0295 -0.2900 -0.1839
  203MPD1    C5 3141   1.413   1.687  12.847 -0.0857  0.0178 -0.3748
  203MPD1     H 3142   1.253   1.335  12.872 -0.1269  0.1898  0.5389
  203MPD1    H1 3143   1.577   1.602  12.752 -0.1698  2.7712  1.0315
  203MPD1    H2 3144   1.244   1.759  12.945  0.8632  1.4611 -0.8458
  203MPD1    H3 3145   1.450   1.789  12.843  3.0109 -1.1551 -2.0370
  203MPD1     N 3146   1.493   1.342  12.758  0.1602 -0.1118  0.4338
  203MPD1    H5 3147   1.460   1.250  12.783  0.6180 -0.6305 -0.8798
  203MPD1    N1 3148   1.102   1.530  12.978  0.2189  0.0358 -0.8778
  203MPD1    H6 3149   1.098   1.450  13.042 -1.2208 -1.4630 -2.8432
  203MPD1    H7 3150   1.073   1.601  13.045 -1.6321 -0.4495 -1.1493
  204MPD1     C 3151   1.071   2.603   0.014  0.6947  0.6917  0.6194
  204MPD1    C1 3152   1.172   2.604  17.684 -0.1286  0.1805  0.4355
  204MPD1    C2 3153   1.216   2.489  17.626 -0.3699 -0.3923  0.1064
  204MPD1    C3 3154   1.181   2.367  17.689  0.2774 -0.1606  0.1660
  204MPD1    C4 3155   1.092   2.363   0.031 -0.4544 -0.7214  0.4487
  204MPD1    C5 3156   1.034   2.481   0.074  0.2021 -0.6074 -0.1615
  204MPD1     H 3157   1.293   2.482  17.550  1.0355 -0.1955  1.5096
  204MPD1    H1 3158   1.066   2.278   0.092  1.8187  1.0174  3.8973
  204MPD1    H2 3159   1.014   2.691   0.042 -0.9839 -0.7656  1.7798
  204MPD1    H3 3160   0.975   2.475   0.164  1.1432  0.0761  0.4968
  204MPD1     N 3161   1.228   2.250  17.630  0.1430 -0.2875 -0.3683
  204MPD1    H5 3162   1.270   2.261  17.538 -0.3341  3.9311 -0.0832
  204MPD1    N1 3163   1.206   2.729  17.620  0.5299 -0.4892  0.0554
  204MPD1    H6 3164   1.301   2.727  17.584 -0.0389  3.5452 -1.7411
  204MPD1    H7 3165   1.198   2.814  17.676 -0.7577 -0.8100  0.3463
  205MPD1     C 3166   0.851   0.807  16.980  0.3719 -0.0940  0.3381
  205MPD1    C1 3167   0.851   0.697  17.068 -0.2395  0.7804  0.2288
  205MPD1    C2 3168   0.912   0.710  17.189 -0.3490 -0.5317  0.3957
  205MPD1    C3 3169   0.966   0.824  17.239 -0.1658  0.5930  0.3091
  205MPD1    C4 3170   0.960   0.939  17.156  0.0841  0.4739 -0.2146
  205MPD1    C5 3171   0.910   0.925  17.029 -0.0898 -0.6153 -0.2386
  205MPD1     H 3172   0.927   0.621  17.250 -1.3570 -1.3890 -0.6134
  205MPD1    H1 3173   1.009   1.029  17.190  2.1837 -0.6772 -0.1901
  205MPD1    H2 3174   0.805   0.810  16.882  0.5639 -0.2114  0.2450
  205MPD1    H3 3175   0.911   1.014  16.966 -1.4010 -0.6059 -0.2372
  205MPD1     N 3176   1.030   0.829  17.369  0.4799 -0.4016  0.3586
  205MPD1    H5 3177   1.067   0.922  17.384 -1.9022  0.4146  1.1010
  205MPD1    N1 3178   0.812   0.572  17.019  0.4503  0.2961 -0.3320
  205MPD1    H6 3179   0.790   0.508  17.095 -0.5702  0.5704 -0.3918
  205MPD1    H7 3180   0.727   0.597  16.969  0.8527  2.4320  0.0505
  206MPD1     C 3181   1.963   3.300  16.950 -0.4236 -0.2294 -0.0495
  206MPD1    C1 3182   1.943   3.422  16.998  0.3919  0.0716  0.3922
  206MPD1    C2 3183   1.876   3.513  16.911 -0.2504  0.0247 -0.0921
  206MPD1    C3 3184   1.809   3.458  16.799  0.4479 -0.3660 -0.0371
  206MPD1    C4 3185   1.820   3.324  16.762  0.4343  0.3864  0.2752
  206MPD1    C5 3186   1.900   3.246  16.839 -0.8728 -0.1060  0.9414
  206MPD1     H 3187   1.870   3.616  16.943 -0.3172 -0.4224  1.3309
  206MPD1    H1 3188   1.762   3.278  16.683 -0.4799 -0.9697  1.7486
  206MPD1    H2 3189   2.024   3.228  17.004 -1.2431 -0.1728  0.9538
  206MPD1    H3 3190   1.908   3.138  16.835  0.7153 -0.0820  3.1622
  206MPD1     N 3191   1.712   3.533  16.726 -0.6070  0.0256  0.6156
  206MPD1    H5 3192   1.673   3.495  16.641 -0.1112  1.5200 -0.2770
  206MPD1    N1 3193   2.008   3.455  17.117  0.1676 -0.2284  0.0766
  206MPD1    H6 3194   2.036   3.373  17.172 -0.7411 -2.2670 -2.5385
  206MPD1    H7 3195   1.941   3.503  17.176  0.5100 -0.4578  0.6645
  207MPD1     C 3196   0.286   2.593   9.844 -0.4048  0.3151  0.1883
  207MPD1    C1 3197   0.169   2.530   9.809 -0.7560  0.1828  0.5323
  207MPD1    C2 3198   0.092   2.483   9.914  0.3361  0.5593  0.3055
  207MPD1    C3 3199   0.139   2.481  10.046  0.2463 -0.8740 -0.2467
  207MPD1    C4 3200   0.252   2.549  10.077 -0.6507  0.1455 -0.4443
  207MPD1    C5 3201   0.323   2.596   9.976  1.1995 -0.0559 -0.1651
  207MPD1     H 3202   0.005   2.425   9.885  1.2141  0.2488 -1.6636
  207MPD1    H1 3203   0.291   2.550  10.178 -0.1819  0.6541 -0.6324
  207MPD1    H2 3204   0.346   2.640   9.768 -2.0579  3.0474  0.5933
  207MPD1    H3 3205   0.413   2.653   9.997  2.0763 -0.1173 -3.7705
  207MPD1     N 3206   0.065   2.430  10.154  0.1883  0.4500  0.8062
  207MPD1    H5 3207   0.105   2.455  10.244  0.2531  0.3382  0.8096
  207MPD1    N1 3208   0.118   2.554   9.685 -0.1211 -0.0539 -0.2588
  207MPD1    H6 3209   0.201   2.572   9.630 -1.3251 -1.6391 -2.5939
  207MPD1    H7 3210   0.061   2.476   9.654  1.0856 -0.0350 -2.4693
  208MPD1     C 3211   0.636   3.809   0.103  0.1595  0.8540 -0.6514
  208MPD1    C1 3212   0.705   3.868  17.760 -0.2603  0.0424  0.4869
  208MPD1    C2 3213   0.763   3.991   0.021 -0.2173 -0.1399  0.5991
  208MPD1    C3 3214   0.748   4.065   0.138  0.2220  0.0135  0.6188
  208MPD1    C4 3215   0.665   4.007   0.235  0.6816 -0.6544 -0.6150
  208MPD1    C5 3216   0.617   3.879   0.214  0.3431  0.6271  0.1609
  208MPD1     H 3217   0.837   4.021  17.708  1.1618 -2.8736  0.8834
  208MPD1    H1 3218   0.657   4.056   0.331  1.9325 -1.6869  0.0175
  208MPD1    H2 3219   0.578   3.718   0.088 -0.5825  1.0279  1.1331
  208MPD1    H3 3220   0.560   3.837   0.296 -0.6161 -0.6412 -1.1809
  208MPD1     N 3221   0.802   4.192   0.150 -0.0593  0.4493  0.4188
  208MPD1    H5 3222   0.855   4.220   0.068  1.7629  0.1062  1.4742
  208MPD1    N1 3223   0.700   3.796  17.642  0.1906  0.7984 -0.3291
  208MPD1    H6 3224   0.765   3.829  17.571  1.6369  1.3878  1.2920
  208MPD1    H7 3225   0.694   3.695  17.651  1.7062  0.8390  1.0543
  209MPD1     C 3226   4.612   0.969  10.140  0.4885 -0.5612 -0.4393
  209MPD1    C1 3227   4.622   1.108  10.139 -0.1429  0.2377  0.5816
  209MPD1    C2 3228   4.550   1.177  10.236  0.1858  0.1195 -0.0184
  209MPD1    C3 3229   4.476   1.114  10.335 -0.8482  0.3389 -1.0045
  209MPD1    C4 3230   4.470   0.975  10.327  0.4659 -0.5271 -0.0040
  209MPD1    C5 3231   4.536   0.906  10.226 -0.2856 -0.7978 -1.0440
  209MPD1     H 3232   4.554   1.285  10.247  0.4730  0.0189  0.8641
  209MPD1    H1 3233   4.418   0.922  10.406 -0.2902  0.5308  0.1945
  209MPD1    H2 3234   4.663   0.915  10.061  0.2588 -1.1464 -0.1868
  209MPD1    H3 3235   4.539   0.798  10.236 -0.9389 -0.5588  1.6353
  209MPD1     N 3236   4.409   1.189  10.444  0.1266  0.3582 -0.0958
  209MPD1    H5 3237   4.416   1.291  10.441  1.4076  0.2798  0.0667
  209MPD1    N1 3238   4.692   1.169  10.034  0.0585 -0.9219 -0.4288
  209MPD1    H6 3239   0.001   1.097   9.982  0.6648 -1.7020  1.2584
  209MPD1    H7 3240   0.010   1.242  10.073 -0.3135 -0.5265 -0.6107
  210MPD1     C 3241   4.285   1.373  11.495  0.1643 -0.0889 -0.0695
  210MPD1    C1 3242   4.230   1.271  11.425  0.3765  0.8997 -0.1620
  210MPD1    C2 3243   4.231   1.276  11.291  0.8091 -0.0889  0.1869
  210MPD1    C3 3244   4.294   1.384  11.224  0.0718 -0.2553  0.5685
  210MPD1    C4 3245   4.330   1.492  11.298 -0.2431  0.1638  0.1775
  210MPD1    C5 3246   4.344   1.479  11.430  0.0758 -0.2821  0.0317
  210MPD1     H 3247   4.192   1.189  11.239  1.0415 -0.0864  0.0062
  210MPD1    H1 3248   4.367   1.582  11.251 -0.4452 -0.8063 -1.8393
  210MPD1    H2 3249   4.280   1.377  11.603  0.0066 -0.7516 -0.0505
  210MPD1    H3 3250   4.394   1.550  11.495 -0.3994  0.3761 -0.3172
  210MPD1     N 3251   4.304   1.383  11.083  0.1220 -0.2171 -0.3057
  210MPD1    H5 3252   4.337   1.468  11.038 -1.5055  0.1349 -0.8465
  210MPD1    N1 3253   4.159   1.169  11.492  0.1299  0.3741  0.5524
  210MPD1    H6 3254   4.144   1.089  11.431  0.7907 -1.7689  3.1974
  210MPD1    H7 3255   4.211   1.140  11.575  0.9741  1.8576  0.5327
  211MPD1     C 3256   1.832   1.206  15.983 -0.2062  0.4604  0.8970
  211MPD1    C1 3257   1.861   1.202  16.116 -0.8021 -0.0957  0.5532
  211MPD1    C2 3258   1.773   1.131  16.189  0.4846  1.1732 -0.2359
  211MPD1    C3 3259   1.677   1.050  16.134 -0.0440  0.0198 -0.0664
  211MPD1    C4 3260   1.656   1.046  16.001 -0.9789 -0.5490  0.2258
  211MPD1    C5 3261   1.737   1.124  15.929 -0.0118  0.0217 -0.9647
  211MPD1     H 3262   1.780   1.133  16.297 -0.9441 -0.6372 -0.0985
  211MPD1    H1 3263   1.587   0.987  15.941  0.5924 -1.3234 -0.8126
  211MPD1    H2 3264   1.894   1.269  15.920 -1.7883  0.2025 -0.9065
  211MPD1    H3 3265   1.719   1.128  15.822 -0.3811  0.2109 -0.8956
  211MPD1     N 3266   1.612   0.960  16.220  0.2392  1.0277 -1.0157
  211MPD1    H5 3267   1.632   0.975  16.318  0.7453  0.3297 -1.0143
  211MPD1    N1 3268   1.926   1.312  16.174  0.3668  0.3835 -0.7111
  211MPD1    H6 3269   2.009   1.331  16.118  1.3970  0.3951  0.8269
  211MPD1    H7 3270   1.952   1.271  16.263 -1.8470  0.8679  0.1407
  212MPD1     C 3271   0.848   3.854  16.395  0.2764 -0.5239  0.2634
  212MPD1    C1 3272   0.744   3.923  16.463 -0.3652 -0.1158 -0.9965
  212MPD1    C2 3273   0.659   3.856  16.556  0.3121 -0.0188 -0.4968
  212MPD1    C3 3274   0.689   3.734  16.601 -0.2360 -0.1961  0.9015
  212MPD1    C4 3275   0.792   3.669  16.530 -0.3208  0.1636  0.3630
  212MPD1    C5 3276   0.861   3.722  16.421 -0.4642 -0.0980 -0.7193
  212MPD1     H 3277   0.570   3.911  16.586  0.8042 -0.4541  1.7478
  212MPD1    H1 3278   0.805   3.565  16.558 -0.4823 -0.1730 -0.8363
  212MPD1    H2 3279   0.896   3.904  16.312  1.6502 -3.6288 -0.8132
  212MPD1    H3 3280   0.941   3.666  16.375  0.0699  1.1065 -1.2477
  212MPD1     N 3281   0.630   3.668  16.709 -0.0386  0.1110 -0.2804
  212MPD1    H5 3282   0.661   3.573  16.726 -1.6491 -0.7430 -2.1059
  212MPD1    N1 3283   0.710   4.051  16.421 -0.0494  0.3665  0.1400
  212MPD1    H6 3284   0.788   4.109  16.392 -1.6020  2.0619 -0.6148
  212MPD1    H7 3285   0.664   4.101  16.497  1.4690 -1.1787  2.0954
  213MPD1     C 3286   3.668   4.726  15.655  0.5274  0.0814 -0.0078
  213MPD1    C1 3287   3.742   0.059  15.569 -0.4893  0.1389 -0.1342
  213MPD1    C2 3288   3.676   0.090  15.454 -1.2518 -0.3192  0.1006
  213MPD1    C3 3289   3.555   0.029  15.418  0.4792 -0.3868 -0.1134
  213MPD1    C4 3290   3.519   4.661  15.490  0.2533  0.7186 -0.2726
  213MPD1    C5 3291   3.571   4.638  15.611 -1.0310  0.4210 -0.1229
  213MPD1     H 3292   3.701   0.179  15.398 -1.3913  0.0512  0.6305
  213MPD1    H1 3293   3.431   4.604  15.461 -0.5372  1.1010  1.3872
  213MPD1    H2 3294   3.698   4.704  15.757  0.7696 -0.6755 -0.2405
  213MPD1    H3 3295   3.516   4.575  15.680  2.3846 -2.4492 -0.0056
  213MPD1     N 3296   3.477   0.090  15.317  0.0578 -0.2695 -0.1721
  213MPD1    H5 3297   3.498   0.184  15.282 -1.4067  0.4105  0.8042
  213MPD1    N1 3298   3.836   0.149  15.614  0.1633  0.0024  0.0056
  213MPD1    H6 3299   3.894   0.185  15.539  0.7597  0.7110  0.8013
  213MPD1    H7 3300   3.899   0.122  15.688 -0.0073 -0.4270 -0.0079
  214MPD1     C 3301   2.494   0.244  14.900 -0.6535 -0.0218  0.1139
  214MPD1    C1 3302   2.547   0.122  14.906  0.7491  0.1164  0.1093
  214MPD1    C2 3303   2.684   0.110  14.933  0.4376  0.3649 -0.6619
  214MPD1    C3 3304   2.769   0.213  14.926  0.5582 -0.3273 -0.3418
  214MPD1    C4 3305   2.716   0.340  14.899  1.1353  0.1443  0.1263
  214MPD1    C5 3306   2.578   0.355  14.895 -0.5160 -0.1913  0.0264
  214MPD1     H 3307   2.727   0.011  14.938 -1.7728 -0.6745 -2.4409
  214MPD1    H1 3308   2.784   0.423  14.882  0.7258  0.1891 -1.3162
  214MPD1    H2 3309   2.388   0.266  14.901 -0.7865 -0.7040  1.2905
  214MPD1    H3 3310   2.534   0.454  14.883  0.3054  0.1440 -0.2601
  214MPD1     N 3311   2.905   0.205  14.954  0.1541 -0.0267 -0.1404
  214MPD1    H5 3312   2.959   0.290  14.941  0.5086  0.2059  2.9459
  214MPD1    N1 3313   2.458   0.012  14.934  0.1481  0.1074 -0.0334
  214MPD1    H6 3314   2.363   0.029  14.901  0.7161  3.4706  0.0542
  214MPD1    H7 3315   2.494   4.662  14.906  0.5135 -0.0559  0.9641
  215MPD1     C 3316   3.803   1.131  10.843  0.6699  0.1207 -0.2387
  215MPD1    C1 3317   3.836   1.101  10.972  0.5821 -0.2560  0.2534
  215MPD1    C2 3318   3.881   1.200  11.057  0.5000  0.6958  0.0697
  215MPD1    C3 3319   3.897   1.332  11.016 -0.1561 -0.1655 -0.5430
  215MPD1    C4 3320   3.859   1.364  10.886  0.4381 -0.4807 -0.9134
  215MPD1    C5 3321   3.809   1.260  10.810  0.0372  0.1883 -0.6981
  215MPD1     H 3322   3.901   1.170  11.159 -0.8691 -0.3429  0.0241
  215MPD1    H1 3323   3.872   1.464  10.846  1.9881 -0.1438  0.4161
  215MPD1    H2 3324   3.783   1.057  10.766  0.1105  0.0363 -0.0070
  215MPD1    H3 3325   3.789   1.287  10.707  0.5620  0.2101 -0.7940
  215MPD1     N 3326   3.953   1.426  11.105  0.5178 -0.6860  0.0680
  215MPD1    H5 3327   3.964   1.392  11.200 -0.8263 -1.4833 -0.0620
  215MPD1    N1 3328   3.849   0.961  11.004 -0.4594  0.4718 -0.1055
  215MPD1    H6 3329   3.771   0.911  10.961  0.6287 -1.0074 -0.3638
  215MPD1    H7 3330   3.843   0.949  11.105 -0.8977  0.1384 -0.1709
  216MPD1     C 3331   0.710   3.863  17.103  0.2106  0.0159 -0.6254
  216MPD1    C1 3332   0.652   3.831  17.225  0.1500 -0.1145  0.1599
  216MPD1    C2 3333   0.653   3.696  17.261  0.2653  0.1090  0.1472
  216MPD1    C3 3334   0.716   3.601  17.191  0.5663 -0.3026 -0.3320
  216MPD1    C4 3335   0.762   3.633  17.057  0.9381 -0.6346  0.8382
  216MPD1    C5 3336   0.760   3.767  17.021 -0.9093 -0.1924  0.4332
  216MPD1     H 3337   0.618   3.674  17.362 -2.2824  2.3321 -0.2441
  216MPD1    H1 3338   0.813   3.562  16.993  3.1139 -0.3055  2.2007
  216MPD1    H2 3339   0.717   3.967  17.073 -1.0843 -0.1313 -1.4253
  216MPD1    H3 3340   0.786   3.805  16.923 -0.0015  0.8209  1.0552
  216MPD1     N 3341   0.715   3.472  17.248 -0.5440 -0.5315  0.7416
  216MPD1    H5 3342   0.681   3.472  17.344 -0.8993 -0.4696  0.6178
  216MPD1    N1 3343   0.613   3.936  17.316 -0.3520 -0.5503 -0.2906
  216MPD1    H6 3344   0.586   4.020  17.265 -2.2500 -1.1268 -0.2629
  216MPD1    H7 3345   0.540   3.918  17.385  0.5388 -0.8724  0.5720
  217MPD1     C 3346   0.489   0.236   9.052 -0.0514  0.2323  0.7722
  217MPD1    C1 3347   0.497   0.299   9.173 -0.5891  0.6564  0.2042
  217MPD1    C2 3348   0.590   0.399   9.190 -0.7855  0.8535  0.2705
  217MPD1    C3 3349   0.692   0.426   9.102 -0.5359 -0.3811 -0.1215
  217MPD1    C4 3350   0.691   0.340   8.991 -0.6994  0.4280  0.1578
  217MPD1    C5 3351   0.582   0.260   8.962  0.1068 -0.3240 -0.3505
  217MPD1     H 3352   0.596   0.460   9.280  1.6338  1.4459 -0.3090
  217MPD1    H1 3353   0.768   0.361   8.917  0.4048 -0.1231  1.1540
  217MPD1    H2 3354   0.404   0.173   9.026 -1.6922  3.3551 -1.4282
  217MPD1    H3 3355   0.583   0.212   8.865  0.1500  0.5075 -0.7615
  217MPD1     N 3356   0.793   0.532   9.114 -0.1373 -0.3309 -0.4958
  217MPD1    H5 3357   0.859   0.537   9.037  1.8838 -1.9575  1.1052
  217MPD1    N1 3358   0.378   0.299   9.252 -0.4800  0.1800 -0.5308
  217MPD1    H6 3359   0.402   0.323   9.348 -0.4525 -0.7857 -0.2952
  217MPD1    H7 3360   0.322   0.215   9.253 -0.2317  0.0254  0.8738
  218MPD1     C 3361   2.687   1.132  12.939 -0.0567 -0.0348 -0.7194
  218MPD1    C1 3362   2.719   1.256  12.899 -0.4924  0.2744 -0.7423
  218MPD1    C2 3363   2.851   1.291  12.919 -0.4274 -0.0271 -0.7477
  218MPD1    C3 3364   2.945   1.208  12.965 -0.2693  0.5460  0.0683
  218MPD1    C4 3365   2.903   1.080  13.010  0.2948  0.4594 -0.8470
  218MPD1    C5 3366   2.774   1.051  12.987 -0.3902  0.8021 -0.4449
  218MPD1     H 3367   2.897   1.385  12.889  2.2947 -1.2034 -0.2513
  218MPD1    H1 3368   2.968   0.999  13.043  0.5836  1.2063  0.4571
  218MPD1    H2 3369   2.589   1.092  12.916  0.7685 -2.9233  0.8179
  218MPD1    H3 3370   2.746   0.954  13.025  1.2444  1.1601  1.6657
  218MPD1     N 3371   3.085   1.244  12.960  0.1472 -0.5573  0.2603
  218MPD1    H5 3372   3.110   1.334  12.921 -0.0138 -1.3892 -1.7237
  218MPD1    N1 3373   2.631   1.352  12.853  0.2182 -0.1130 -0.5580
  218MPD1    H6 3374   2.547   1.319  12.804 -0.8932  1.0607  0.5625
  218MPD1    H7 3375   2.669   1.442  12.826  0.5825 -0.7303 -2.1171
  219MPD1     C 3376   3.432   1.749  12.399  0.3043  0.5192 -0.1636
  219MPD1    C1 3377   3.531   1.658  12.400  0.1760 -0.9904 -0.2017
  219MPD1    C2 3378   3.527   1.563  12.500  0.4170  0.0792 -0.3124
  219MPD1    C3 3379   3.430   1.560  12.595  0.7818  0.7656 -0.1826
  219MPD1    C4 3380   3.335   1.669  12.605 -1.1022  0.0911  0.0475
  219MPD1    C5 3381   3.335   1.757  12.498 -0.2732  0.6061 -0.1062
  219MPD1     H 3382   3.605   1.489  12.486 -0.6681 -1.5883  2.3705
  219MPD1    H1 3383   3.265   1.676  12.687 -1.1775  1.1368 -0.1069
  219MPD1    H2 3384   3.417   1.828  12.327  0.0536  0.5559 -0.0723
  219MPD1    H3 3385   3.270   1.844  12.490  0.0031  0.5860 -2.3912
  219MPD1     N 3386   3.442   1.470  12.701 -0.5509 -0.1737  0.1325
  219MPD1    H5 3387   3.366   1.459  12.768  1.3238 -0.9023  2.1537
  219MPD1    N1 3388   3.618   1.642  12.290  0.3846 -0.2583  0.0137
  219MPD1    H6 3389   3.626   1.723  12.229 -0.1485  0.9702  1.5650
  219MPD1    H7 3390   3.706   1.595  12.310  0.3651 -0.5766 -0.6483
  220MPD1     C 3391   3.542   2.727   9.836 -1.0419 -0.7722 -0.0554
  220MPD1    C1 3392   3.492   2.602   9.849 -0.2515  0.0900 -0.0641
  220MPD1    C2 3393   3.524   2.522   9.960 -0.0142 -0.4599 -0.1886
  220MPD1    C3 3394   3.622   2.569  10.047  0.5954  1.3313  0.5972
  220MPD1    C4 3395   3.677   2.695  10.024 -0.1162 -0.6423  0.5126
  220MPD1    C5 3396   3.636   2.768   9.918 -0.1613 -0.1517 -0.2399
  220MPD1     H 3397   3.475   2.426   9.975 -1.1122  0.0258 -0.6405
  220MPD1    H1 3398   3.747   2.741  10.093 -0.4933  0.1651  0.3569
  220MPD1    H2 3399   3.495   2.799   9.770  0.6838  0.6490  0.2732
  220MPD1    H3 3400   3.679   2.868   9.912 -0.8691  0.1681  0.0111
  220MPD1     N 3401   3.662   2.482  10.149 -0.4949 -0.1622  0.2378
  220MPD1    H5 3402   3.608   2.396  10.154 -1.8057  0.4902 -2.7562
  220MPD1    N1 3403   3.389   2.545   9.765 -0.0614  0.1817  0.5621
  220MPD1    H6 3404   3.383   2.445   9.784  0.1605  0.5115  2.3945
  220MPD1    H7 3405   3.411   2.559   9.667 -2.6582  1.4970  0.1985
  221MPD1     C 3406   1.269   0.549  17.242  0.0904 -0.0600 -0.1304
  221MPD1    C1 3407   1.394   0.588  17.207  0.7154  0.0988 -0.0439
  221MPD1    C2 3408   1.453   0.551  17.086 -0.5190  0.0518 -0.3542
  221MPD1    C3 3409   1.382   0.471  16.991  0.5080  0.1734 -0.2043
  221MPD1    C4 3410   1.255   0.431  17.025 -0.7234  0.1513  0.3834
  221MPD1    C5 3411   1.199   0.480  17.145 -0.1995 -0.6691 -0.1879
  221MPD1     H 3412   1.556   0.582  17.068 -0.1604 -0.1793  1.2773
  221MPD1    H1 3413   1.191   0.372  16.961 -1.2453 -0.0204  1.0532
  221MPD1    H2 3414   1.221   0.565  17.338 -0.6639  2.1637 -0.8750
  221MPD1    H3 3415   1.098   0.452  17.172 -1.5155  2.7047 -1.5677
  221MPD1     N 3416   1.429   0.445  16.859  0.0913 -0.4677  0.4407
  221MPD1    H5 3417   1.363   0.409  16.792  1.8668  2.5758 -2.9498
  221MPD1    N1 3418   1.476   0.647  17.311  0.1004 -0.1024 -0.0332
  221MPD1    H6 3419   1.564   0.681  17.274  0.3371 -0.3733  0.2859
  221MPD1    H7 3420   1.442   0.733  17.353  0.6337 -0.8410  1.8674
  222MPD1     C 3421   1.106   3.480  17.246 -0.5211  1.1032 -0.0990
  222MPD1    C1 3422   1.083   3.607  17.284  0.3772 -0.0984  0.6878
  222MPD1    C2 3423   1.059   3.637  17.414  0.3112 -0.3861  0.1796
  222MPD1    C3 3424   1.036   3.538  17.511  0.3859  0.0527 -0.3225
  222MPD1    C4 3425   1.060   3.407  17.472 -1.0071 -0.1622 -0.0434
  222MPD1    C5 3426   1.093   3.377  17.334 -0.1067  0.0990  0.2269
  222MPD1     H 3427   1.054   3.739  17.449 -0.5734  0.1055 -1.3915
  222MPD1    H1 3428   1.055   3.321  17.538  0.5934 -1.9716 -2.3102
  222MPD1    H2 3429   1.130   3.461  17.142 -1.8152  0.3825 -0.2552
  222MPD1    H3 3430   1.096   3.273  17.306  1.4634  0.3538 -0.5327
  222MPD1     N 3431   1.010   3.564  17.652  0.1344  0.2116  0.5694
  222MPD1    H5 3432   1.015   3.490  17.722  1.2063 -0.7636 -0.5511
  222MPD1    N1 3433   1.117   3.712  17.189  0.4324  0.5458 -0.6859
  222MPD1    H6 3434   1.080   3.803  17.216 -0.3075 -1.0010  3.4557
  222MPD1    H7 3435   1.120   3.697  17.088 -1.1050 -0.2470 -0.6093
  223MPD1     C 3436   0.300   3.286   0.321  0.8892  0.2323  0.3178
  223MPD1    C1 3437   0.311   3.373   0.214  0.6880 -0.1632  0.5177
  223MPD1    C2 3438   0.434   3.429   0.186  0.3417 -0.0638 -0.1204
  223MPD1    C3 3439   0.545   3.409   0.262  0.1528  0.4980  0.1007
  223MPD1    C4 3440   0.530   3.322   0.370  0.8860 -0.0020  0.3301
  223MPD1    C5 3441   0.408   3.273   0.408  0.5144 -0.1165  0.3541
  223MPD1     H 3442   0.445   3.487   0.096 -1.2450 -1.8544 -1.4605
  223MPD1    H1 3443   0.608   3.290   0.438  1.8891  0.3233 -0.6717
  223MPD1    H2 3444   0.206   3.237   0.347  1.0637 -0.6844 -0.7685
  223MPD1    H3 3445   0.392   3.215   0.498 -1.1597  0.4234  0.4078
  223MPD1     N 3446   0.666   3.475   0.228  0.2242 -0.2222  0.2915
  223MPD1    H5 3447   0.671   3.539   0.150  1.7633  0.5035  0.9817
  223MPD1    N1 3448   0.220   3.365   0.106  0.1028 -0.6822  0.0058
  223MPD1    H6 3449   0.124   3.347   0.136  0.4231 -0.0312  1.4030
  223MPD1    H7 3450   0.225   3.457   0.065 -0.6529 -0.2296  0.9210
  224MPD1     C 3451   2.235   2.013   9.073  0.4635 -0.3278 -0.5596
  224MPD1    C1 3452   2.151   2.075   9.162  0.3969  0.3962 -0.4877
  224MPD1    C2 3453   2.099   1.995   9.261 -0.4699 -0.2356 -0.5731
  224MPD1    C3 3454   2.127   1.862   9.272  0.2335 -0.2669 -0.1436
  224MPD1    C4 3455   2.211   1.803   9.180  0.2817  0.6896 -0.5696
  224MPD1    C5 3456   2.255   1.879   9.080 -0.2102  0.1796  0.2033
  224MPD1     H 3457   2.035   2.040   9.336  0.3303 -0.8143  0.4483
  224MPD1    H1 3458   2.239   1.698   9.182  1.0991  0.9393  0.7009
  224MPD1    H2 3459   2.278   2.072   8.993  3.2979 -1.6462  0.0042
  224MPD1    H3 3460   2.320   1.842   9.002  1.2254  0.8108  1.1027
  224MPD1     N 3461   2.070   1.791   9.372  0.3836  0.2779  0.3167
  224MPD1    H5 3462   1.999   1.843   9.423 -0.4432 -0.3999 -0.1651
  224MPD1    N1 3463   2.104   2.208   9.146  0.5529  0.1983  0.1081
  224MPD1    H6 3464   2.166   2.253   9.080 -0.0343 -1.0720 -1.3127
  224MPD1    H7 3465   2.106   2.269   9.227 -1.1685 -1.0425  1.0917
  225MPD1     C 3466   3.167   2.845  12.765 -0.9411 -0.1368  0.6419
  225MPD1    C1 3467   3.119   2.726  12.815  0.1200 -0.0934  0.3367
  225MPD1    C2 3468   3.058   2.647  12.721 -0.6745 -0.1464  0.8034
  225MPD1    C3 3469   3.057   2.671  12.584 -0.0620  0.5252 -0.1713
  225MPD1    C4 3470   3.099   2.794  12.538 -0.4765 -0.3761  0.0994
  225MPD1    C5 3471   3.152   2.874  12.632  0.1463 -0.0934  0.0530
  225MPD1     H 3472   3.011   2.554  12.751  1.7707 -1.8389 -0.6089
  225MPD1    H1 3473   3.090   2.823  12.434  0.1558  4.0888  1.2836
  225MPD1    H2 3474   3.201   2.919  12.837 -0.5756  0.3393 -0.0182
  225MPD1    H3 3475   3.177   2.974  12.600 -1.2510 -0.4035 -2.0281
  225MPD1     N 3476   2.990   2.590  12.490 -0.7727 -0.4936 -0.2534
  225MPD1    H5 3477   2.998   2.614  12.391 -2.5871  2.9288  0.4392
  225MPD1    N1 3478   3.113   2.715  12.954 -0.3227  0.2098 -0.3223
  225MPD1    H6 3479   3.197   2.762  12.988 -0.3848 -1.1185  1.6860
  225MPD1    H7 3480   3.114   2.621  12.993 -0.0551  0.0654 -0.6788
  226MPD1     C 3481   2.862   3.548  10.237  0.9287 -0.4521 -0.1063
  226MPD1    C1 3482   2.761   3.479  10.164 -0.1566  0.4126  0.3653
  226MPD1    C2 3483   2.774   3.350  10.134  0.5897 -0.2419 -0.2083
  226MPD1    C3 3484   2.882   3.268  10.187 -0.2567  0.8815  0.2043
  226MPD1    C4 3485   2.978   3.336  10.263  0.5097 -0.1516 -0.1099
  226MPD1    C5 3486   2.970   3.473  10.280  0.5773 -0.4250 -0.1383
  226MPD1     H 3487   2.693   3.303  10.079 -2.2678  2.6599  1.4874
  226MPD1    H1 3488   3.062   3.288  10.311  1.4090  0.5356 -1.0046
  226MPD1    H2 3489   2.851   3.653  10.261  0.3787 -0.3890 -0.6385
  226MPD1    H3 3490   3.041   3.525  10.343 -0.3019 -1.0785  1.3898
  226MPD1     N 3491   2.881   3.129  10.162  0.6694 -0.8354 -0.0811
  226MPD1    H5 3492   2.800   3.087  10.117 -0.5820  0.2921  1.1161
  226MPD1    N1 3493   2.656   3.552  10.112 -0.4081 -0.1909 -0.2603
  226MPD1    H6 3494   2.636   3.638  10.164  1.6274  0.2381 -0.1770
  226MPD1    H7 3495   2.575   3.492  10.098 -0.5854 -0.0755  0.2373
  227MPD1     C 3496   2.482   2.328   9.712 -0.3223  0.2911 -0.2468
  227MPD1    C1 3497   2.610   2.283   9.727  0.1479 -0.0622 -0.6438
  227MPD1    C2 3498   2.704   2.376   9.779 -0.7481 -0.6393 -0.4191
  227MPD1    C3 3499   2.666   2.495   9.830  0.2038 -0.8415 -0.6621
  227MPD1    C4 3500   2.531   2.536   9.822 -0.0624  0.4366 -0.1309
  227MPD1    C5 3501   2.437   2.444   9.774  0.5326  0.2325 -0.2068
  227MPD1     H 3502   2.805   2.344   9.801 -0.6388 -0.2332 -0.3400
  227MPD1    H1 3503   2.484   2.628   9.855 -0.6931  0.5039 -1.2089
  227MPD1    H2 3504   2.406   2.262   9.673  0.0656  0.0052 -0.5115
  227MPD1    H3 3505   2.330   2.459   9.771  0.5388  0.3205  0.0250
  227MPD1     N 3506   2.762   2.574   9.901  0.3950 -0.2643 -0.0481
  227MPD1    H5 3507   2.859   2.543   9.909 -0.4017 -2.5540  0.8587
  227MPD1    N1 3508   2.641   2.164   9.658  0.1334  0.5167  0.2898
  227MPD1    H6 3509   2.729   2.128   9.696 -0.7508 -1.8041  0.1354
  227MPD1    H7 3510   2.568   2.097   9.680  1.3478 -0.3888  1.5506
  228MPD1     C 3511   4.625   4.548  13.585 -0.3053  0.5566 -0.4877
  228MPD1    C1 3512   4.639   4.413  13.561 -0.3761 -0.2041  0.3790
  228MPD1    C2 3513   4.546   4.343  13.479 -0.5713 -0.2652 -0.5334
  228MPD1    C3 3514   4.436   4.414  13.436  0.2657 -0.0662  0.5913
  228MPD1    C4 3515   4.422   4.550  13.471  0.3651 -0.3397  0.4057
  228MPD1    C5 3516   4.514   4.620  13.549  0.2437  0.2663  0.3579
  228MPD1     H 3517   4.567   4.243  13.444 -0.1828 -0.4047  0.0951
  228MPD1    H1 3518   4.330   4.605  13.456  0.6439  0.0740  0.2135
  228MPD1    H2 3519   4.699   4.605  13.640 -0.0565  0.3989 -0.6552
  228MPD1    H3 3520   4.498   4.721  13.584 -0.3317  1.2236 -2.6296
  228MPD1     N 3521   4.330   4.342  13.371 -0.0571 -0.8637 -0.2445
  228MPD1    H5 3522   4.336   4.241  13.362 -1.8174 -0.7971 -2.3759
  228MPD1    N1 3523   0.029   4.363  13.580  0.2704  0.1934  0.4982
  228MPD1    H6 3524   0.083   4.419  13.646  0.4897 -1.7770  1.9899
  228MPD1    H7 3525   0.025   4.265  13.604  5.0237  0.1584  0.9688
  229MPD1     C 3526   3.835   3.099  15.176  0.0046 -0.5156 -0.0887
  229MPD1    C1 3527   3.864   2.980  15.242  0.3737  0.3171 -0.3439
  229MPD1    C2 3528   3.996   2.931  15.207 -0.2511  0.2009 -0.3526
  229MPD1    C3 3529   4.086   3.005  15.130 -0.1091  0.7864  0.0896
  229MPD1    C4 3530   4.061   3.134  15.070 -0.0758  0.5442 -0.4503
  229MPD1    C5 3531   3.929   3.170  15.096  0.2721 -0.3328 -0.0669
  229MPD1     H 3532   4.030   2.848  15.268 -2.1581 -0.8287 -0.6799
  229MPD1    H1 3533   4.118   3.193  14.999 -0.7783  3.4680  1.3963
  229MPD1    H2 3534   3.733   3.134  15.187  0.0759 -0.5434  0.6845
  229MPD1    H3 3535   3.885   3.257  15.049  0.1650  0.3042  1.2231
  229MPD1     N 3536   4.219   2.965  15.125  0.3891 -0.8391  0.1467
  229MPD1    H5 3537   4.286   3.029  15.083  0.4920 -1.6257 -0.8871
  229MPD1    N1 3538   3.773   2.897  15.299 -0.0249  0.1154 -0.2755
  229MPD1    H6 3539   3.822   2.832  15.360 -1.0776  0.2753  0.7461
  229MPD1    H7 3540   3.705   2.954  15.350  1.9256  1.1114  1.2025
  230MPD1     C 3541   0.343   2.871  15.656 -0.5242  0.4727  0.5640
  230MPD1    C1 3542   0.330   2.755  15.579  0.0914  0.3062 -0.2075
  230MPD1    C2 3543   0.237   2.764  15.475  0.6667 -0.0070  0.2017
  230MPD1    C3 3544   0.141   2.871  15.480  0.2329 -0.3378 -0.0273
  230MPD1    C4 3545   0.147   2.969  15.574  0.3421  0.2817 -0.1958
  230MPD1    C5 3546   0.251   2.971  15.658 -0.2630  0.0835 -0.4849
  230MPD1     H 3547   0.236   2.677  15.411 -1.4010  1.0182 -1.1955
  230MPD1    H1 3548   0.078   3.053  15.575 -1.6383 -1.3185 -1.4941
  230MPD1    H2 3549   0.421   2.874  15.731  0.0564  3.3147 -0.1453
  230MPD1    H3 3550   0.275   3.056  15.721 -0.5929 -1.3605  1.5918
  230MPD1     N 3551   0.053   2.868  15.376 -0.6327  0.0394  0.3479
  230MPD1    H5 3552   0.065   2.790  15.313  0.1399 -0.1165  0.6905
  230MPD1    N1 3553   0.430   2.654  15.581 -0.5532  0.1068  0.4492
  230MPD1    H6 3554   0.391   2.562  15.561  1.4985 -0.4869 -0.8514
  230MPD1    H7 3555   0.487   2.649  15.664 -0.0687 -1.9883  0.0069
  231MPD1     C 3556   3.294   1.012  15.526 -0.5609 -0.3530  0.9380
  231MPD1    C1 3557   3.286   1.126  15.440 -0.1036  0.9224  0.3429
  231MPD1    C2 3558   3.257   1.108  15.307 -0.7412 -0.2412  0.3694
  231MPD1    C3 3559   3.258   0.980  15.257  0.0520 -0.0553 -0.2779
  231MPD1    C4 3560   3.267   0.866  15.341  0.8106  0.8822  0.1981
  231MPD1    C5 3561   3.283   0.886  15.477 -0.1860  0.0741 -0.1311
  231MPD1     H 3562   3.242   1.194  15.244 -0.4995  0.4475  1.2511
  231MPD1    H1 3563   3.261   0.763  15.307 -0.4999  0.4980  1.5841
  231MPD1    H2 3564   3.304   1.022  15.633 -0.3268 -1.3955  1.0044
  231MPD1    H3 3565   3.277   0.801  15.543  2.0250 -1.8561 -2.3962
  231MPD1     N 3566   3.245   0.974  15.112 -0.3955  0.3530  0.0071
  231MPD1    H5 3567   3.235   1.062  15.063  0.3853  0.9321  0.8793
  231MPD1    N1 3568   3.271   1.253  15.496  0.3280  0.2495 -0.4074
  231MPD1    H6 3569   3.331   1.253  15.578  1.8131 -1.0590 -1.4858
  231MPD1    H7 3570   3.315   1.318  15.432  1.6938 -0.5516 -0.2892
  232MPD1     C 3571   0.376   2.592   0.608 -0.0110 -0.2475 -0.0744
  232MPD1    C1 3572   0.354   2.479   0.535  1.0760  0.0452  0.5380
  232MPD1    C2 3573   0.240   2.469   0.459 -0.1294  0.4106 -0.7651
  232MPD1    C3 3574   0.141   2.559   0.481  0.1738  0.7365 -0.5452
  232MPD1    C4 3575   0.150   2.648   0.585  0.0501 -1.0228 -0.1987
  232MPD1    C5 3576   0.273   2.677   0.637 -0.1892 -0.5160 -0.4279
  232MPD1     H 3577   0.225   2.388   0.390 -1.3548  1.7513 -2.0640
  232MPD1    H1 3578   0.064   2.708   0.616  1.2296  1.2788 -1.3927
  232MPD1    H2 3579   0.471   2.611   0.656  0.1323 -1.0376 -0.0483
  232MPD1    H3 3580   0.289   2.758   0.707 -3.2447 -2.8288  2.9618
  232MPD1     N 3581   0.015   2.546   0.411 -0.5277 -0.2418 -0.1395
  232MPD1    H5 3582   0.010   2.478   0.335 -0.4655  0.6512 -0.9458
  232MPD1    N1 3583   0.454   2.390   0.509  0.0230 -0.2994  0.2231
  232MPD1    H6 3584   0.405   2.302   0.495  0.6594 -0.5020 -0.7243
  232MPD1    H7 3585   0.501   2.379   0.598  1.2308 -1.3444 -0.5493
  233MPD1     C 3586   0.550   1.090   0.807 -0.3129 -0.2171  0.0417
  233MPD1    C1 3587   0.677   1.137   0.803  0.1046  0.7263 -0.0246
  233MPD1    C2 3588   0.777   1.051   0.830 -1.0116  0.0651  0.2615
  233MPD1    C3 3589   0.747   0.918   0.860 -0.1064 -0.0988 -0.6120
  233MPD1    C4 3590   0.620   0.873   0.868 -0.0135  0.3154 -0.4290
  233MPD1    C5 3591   0.517   0.959   0.845  0.2433  0.0493  0.1764
  233MPD1     H 3592   0.882   1.076   0.821 -0.6590 -2.0358 -1.4433
  233MPD1    H1 3593   0.598   0.771   0.897 -0.2206  0.1236 -1.2595
  233MPD1    H2 3594   0.466   1.151   0.773 -0.2389  1.0206  2.1242
  233MPD1    H3 3595   0.411   0.937   0.854 -0.1649  0.2904 -3.9089
  233MPD1     N 3596   0.848   0.818   0.879 -0.1875  0.0479  0.2524
  233MPD1    H5 3597   0.811   0.724   0.884 -2.8042  0.9579 -1.3364
  233MPD1    N1 3598   0.708   1.264   0.745 -0.1316 -0.2792 -0.4811
  233MPD1    H6 3599   0.794   1.295   0.790 -1.1665  1.0348  0.6106
  233MPD1    H7 3600   0.635   1.329   0.774  2.0531  2.3017 -0.7773
  234MPD1     C 3601   2.437   0.078   9.430  0.5571 -0.6405  0.4583
  234MPD1    C1 3602   2.356   0.108   9.326 -0.3743  0.7929  0.0609
  234MPD1    C2 3603   2.230   0.166   9.347 -0.2502 -0.1254  0.3182
  234MPD1    C3 3604   2.190   0.197   9.478  0.4251 -0.4114 -0.6491
  234MPD1    C4 3605   2.276   0.166   9.588 -0.3868 -0.2385 -0.1526
  234MPD1    C5 3606   2.395   0.091   9.561 -0.4210  0.4046  0.8836
  234MPD1     H 3607   2.151   0.172   9.273  1.1907  0.9329 -1.1319
  234MPD1    H1 3608   2.258   0.191   9.692  2.0178  0.0480  0.1904
  234MPD1    H2 3609   2.537   0.038   9.425  1.2328  0.9780  0.8572
  234MPD1    H3 3610   2.465   0.057   9.636  2.2818  0.4639 -1.6470
  234MPD1     N 3611   2.068   0.273   9.498  0.3742 -0.5459  0.4276
  234MPD1    H5 3612   2.009   0.285   9.416  0.6664 -0.3814  0.2399
  234MPD1    N1 3613   2.399   0.090   9.197  0.3253 -0.8978  0.2621
  234MPD1    H6 3614   2.322   0.099   9.131  0.0996 -0.9960  0.5142
  234MPD1    H7 3615   2.443   4.739   9.185 -1.5341 -1.7938  0.2907
  235MPD1     C 3616   4.289   2.648  10.655  0.0473  0.2614 -0.5066
  235MPD1    C1 3617   4.386   2.672  10.558 -0.8146  0.1911 -0.1780
  235MPD1    C2 3618   4.479   2.772  10.590 -0.2594  0.5811  0.0359
  235MPD1    C3 3619   4.465   2.866  10.688  0.2238 -0.0820 -0.6814
  235MPD1    C4 3620   4.346   2.860  10.759 -0.7737 -0.1823 -0.7173
  235MPD1    C5 3621   4.262   2.748  10.747 -0.6075  0.3332  0.2566
  235MPD1     H 3622   4.566   2.782  10.525  1.9396 -0.9370  2.7205
  235MPD1    H1 3623   4.332   2.923  10.846 -0.0137  0.7937 -1.3089
  235MPD1    H2 3624   4.237   2.554  10.646  1.2457 -0.5485  1.0389
  235MPD1    H3 3625   4.168   2.745  10.801 -1.2839  1.3618 -0.8735
  235MPD1     N 3626   4.565   2.973  10.699  0.3422  0.6387  0.0687
  235MPD1    H5 3627   4.641   2.974  10.632  0.7208  0.5917  0.5010
  235MPD1    N1 3628   4.419   2.577  10.458  0.3530 -0.3936  0.4966
  235MPD1    H6 3629   4.477   2.620  10.385  0.8444  0.6595  1.5103
  235MPD1    H7 3630   4.342   2.527  10.415 -0.5055  2.7576 -1.6689
  236MPD1     C 3631   3.228   3.881  10.039  0.0740  0.4246 -0.1782
  236MPD1    C1 3632   3.350   3.945  10.028 -0.1749  0.0700  0.2990
  236MPD1    C2 3633   3.453   3.908  10.113  0.2616  0.2183 -0.8528
  236MPD1    C3 3634   3.428   3.824  10.220  0.4084 -0.3144  0.1737
  236MPD1    C4 3635   3.300   3.767  10.231 -0.1628 -0.7888 -0.4830
  236MPD1    C5 3636   3.203   3.789  10.139  0.2706 -0.8185  0.1635
  236MPD1     H 3637   3.547   3.963  10.105 -0.7431  1.9674 -0.6748
  236MPD1    H1 3638   3.263   3.706  10.313 -2.9255 -0.3731 -1.3909
  236MPD1    H2 3639   3.140   3.899   9.978  0.2250 -0.4823 -0.6613
  236MPD1    H3 3640   3.105   3.742  10.142 -0.6117  1.0990  1.2306
  236MPD1     N 3641   3.531   3.783  10.308 -0.5692  0.2024  0.2243
  236MPD1    H5 3642   3.512   3.708  10.374 -3.0255  1.6789  1.1983
  236MPD1    N1 3643   3.371   4.040   9.929 -0.4756 -0.1976 -0.4874
  236MPD1    H6 3644   3.443   4.110   9.940 -3.3470  2.4357  1.7509
  236MPD1    H7 3645   3.289   4.077   9.880 -2.0658 -1.2165  1.3883
  237MPD1     C 3646   3.688   1.344  15.267 -0.2629 -0.1576 -0.3855
  237MPD1    C1 3647   3.646   1.444  15.350 -0.1558  0.3838  0.1939
  237MPD1    C2 3648   3.510   1.477  15.348  0.1787  0.4877 -0.8966
  237MPD1    C3 3649   3.425   1.424  15.246 -1.0166 -0.5974  0.6479
  237MPD1    C4 3650   3.474   1.329  15.162  0.5716 -0.3972  0.7626
  237MPD1    C5 3651   3.603   1.287  15.170  0.8904  0.3127  0.4990
  237MPD1     H 3652   3.472   1.554  15.414  0.0726 -2.0776  2.0842
  237MPD1    H1 3653   3.410   1.275  15.093  2.0710 -0.4687 -0.5732
  237MPD1    H2 3654   3.786   1.298  15.272  0.7408  2.3494  2.5851
  237MPD1    H3 3655   3.641   1.200  15.117  2.0045  0.9984  0.1683
  237MPD1     N 3656   3.287   1.457  15.240 -0.5164 -0.3872 -0.1960
  237MPD1    H5 3657   3.235   1.426  15.159  0.8949  1.1049 -1.6701
  237MPD1    N1 3658   3.722   1.485  15.457  0.0061  0.5169  0.3593
  237MPD1    H6 3659   3.722   1.586  15.469 -0.4620  0.5705 -0.1405
  237MPD1    H7 3660   3.821   1.460  15.453 -0.3958 -1.2095  1.3169
  238MPD1     C 3661   4.584   0.399  15.902  1.0981  0.5420 -0.2665
  238MPD1    C1 3662   4.608   0.492  15.807 -0.2334 -0.3381  0.1825
  238MPD1    C2 3663   4.537   0.500  15.690  0.2424  0.1560 -0.4672
  238MPD1    C3 3664   4.433   0.408  15.671 -0.0217 -0.4713  0.2837
  238MPD1    C4 3665   4.406   0.312  15.769 -0.4139 -0.5217  0.7092
  238MPD1    C5 3666   4.478   0.308  15.889  0.4515 -0.4225  0.1668
  238MPD1     H 3667   4.554   0.582  15.622  2.1680  0.5456  0.5040
  238MPD1    H1 3668   4.330   0.236  15.754  0.0471 -0.6593 -0.8807
  238MPD1    H2 3669   4.645   0.392  15.992  1.6155  0.6703 -0.6091
  238MPD1    H3 3670   4.449   0.231  15.959  2.3027 -0.7761  0.5178
  238MPD1     N 3671   4.360   0.395  15.547  0.8827  0.5837  0.1230
  238MPD1    H5 3672   4.283   0.328  15.543  1.0018  0.4711 -0.3356
  238MPD1    N1 3673   4.716   0.582  15.812 -0.5643  0.3470  0.2366
  238MPD1    H6 3674   4.714   0.666  15.755 -3.6993 -0.6197 -1.0709
  238MPD1    H7 3675   4.728   0.614  15.907  1.6232  0.7798 -0.1703
  239MPD1     C 3676   0.200   0.462  15.068  0.2995 -0.3100 -0.1614
  239MPD1    C1 3677   0.106   0.555  15.094 -0.2696 -0.1731  0.7057
  239MPD1    C2 3678   0.111   0.673  15.028  0.3365 -0.0792 -0.0892
  239MPD1    C3 3679   0.194   0.692  14.928  0.1196 -1.0016  0.8036
  239MPD1    C4 3680   0.290   0.596  14.898 -1.0044  0.0100  0.3234
  239MPD1    C5 3681   0.298   0.479  14.974 -0.3118  0.6624 -0.0872
  239MPD1     H 3682   0.026   0.738  15.046  0.3696  0.1317 -0.7031
  239MPD1    H1 3683   0.367   0.605  14.822 -2.2398  2.7999 -0.6204
  239MPD1    H2 3684   0.194   0.370  15.124  1.5686  1.3447  2.6859
  239MPD1    H3 3685   0.385   0.417  14.962  1.3370  2.7314  1.1605
  239MPD1     N 3686   0.202   0.815  14.859  0.5714 -0.6356  0.2958
  239MPD1    H5 3687   0.277   0.819  14.791 -0.0737 -1.6146 -0.4652
  239MPD1    N1 3688   4.728   0.529  15.166  0.2466  0.2436  0.0753
  239MPD1    H6 3689   4.697   0.607  15.223 -0.0189 -1.2228  1.9516
  239MPD1    H7 3690   4.727   0.443  15.221 -0.5273  1.2786  1.6454
  240MPD1     C 3691   4.431   1.047  13.471 -0.0092  0.3756  0.3807
  240MPD1    C1 3692   4.516   0.945  13.484 -0.7996  0.3521 -0.0735
  240MPD1    C2 3693   4.510   0.878  13.609  0.5345 -0.1565 -0.9082
  240MPD1    C3 3694   4.449   0.935  13.715  0.3333  0.0999 -0.5040
  240MPD1    C4 3695   4.380   1.059  13.697 -0.1946 -0.1648 -0.4973
  240MPD1    C5 3696   4.363   1.107  13.569 -0.0858 -0.2710 -0.0575
  240MPD1     H 3697   4.553   0.779  13.619  0.9495 -0.0158 -1.3109
  240MPD1    H1 3698   4.324   1.110  13.775  1.1381  0.9493 -0.2582
  240MPD1    H2 3699   4.425   1.100  13.377 -0.6012 -0.1653  0.1151
  240MPD1    H3 3700   4.306   1.198  13.564 -1.4554 -1.0752  0.7925
  240MPD1     N 3701   4.451   0.858  13.837 -0.2779 -0.2439  0.0335
  240MPD1    H5 3702   4.513   0.779  13.850 -0.4479 -0.2116  1.0417
  240MPD1    N1 3703   4.579   0.883  13.375  0.8937  0.3314  0.1542
  240MPD1    H6 3704   4.656   0.825  13.409 -1.3990 -3.6448 -1.4038
  240MPD1    H7 3705   4.611   0.951  13.307  3.4183 -0.6908  0.3153
  241MPD1     C 3706   0.308   0.385  13.917  0.6425 -0.1053 -0.7514
  241MPD1    C1 3707   0.264   0.338  14.034  0.5781 -0.6435  0.3034
  241MPD1    C2 3708   0.145   0.393  14.082 -0.1374 -0.0545 -0.1222
  241MPD1    C3 3709   0.070   0.474  13.996  0.6829  0.0982  0.0213
  241MPD1    C4 3710   0.115   0.499  13.864  0.3922  0.5609 -0.8220
  241MPD1    C5 3711   0.239   0.461  13.831 -0.5982 -0.0972 -0.0435
  241MPD1     H 3712   0.121   0.377  14.187  1.3747  0.9709  0.3811
  241MPD1    H1 3713   0.064   0.570  13.800  0.0299  1.3779  0.3689
  241MPD1    H2 3714   0.413   0.372  13.896  0.9175 -0.0414  0.5533
  241MPD1    H3 3715   0.273   0.477  13.729  2.2899 -0.6769  0.8418
  241MPD1     N 3716   4.694   0.539  14.036 -0.2702 -0.0661 -0.0195
  241MPD1    H5 3717   4.639   0.582  13.963  0.0948  1.9857  0.9260
  241MPD1    N1 3718   0.345   0.257  14.123 -0.2491  0.5955 -0.3142
  241MPD1    H6 3719   0.298   0.215  14.202  1.3605 -0.8932 -0.1376
  241MPD1    H7 3720   0.406   0.194  14.070  1.5835  0.6971  1.6825
  242MPD1     C 3721   3.616   2.968  15.894 -0.1984  0.3636 -0.7904
  242MPD1    C1 3722   3.551   3.072  15.846  0.1889 -0.7872 -0.1113
  242MPD1    C2 3723   3.612   3.150  15.741 -0.0891 -0.5758  0.5498
  242MPD1    C3 3724   3.738   3.113  15.698 -1.0657 -0.2803  0.1086
  242MPD1    C4 3725   3.808   3.024  15.768 -1.0162 -0.0120 -0.0169
  242MPD1    C5 3726   3.747   2.941  15.855 -0.0570 -0.3899 -0.5414
  242MPD1     H 3727   3.551   3.231  15.703  0.8884  0.2326  0.6784
  242MPD1    H1 3728   3.910   3.003  15.737 -1.9048 -4.4568  0.0198
  242MPD1    H2 3729   3.565   2.899  15.960 -0.0736  3.2211  2.2730
  242MPD1    H3 3730   3.800   2.857  15.898 -0.0492  0.5541  1.2797
  242MPD1     N 3731   3.809   3.182  15.589 -0.0630  0.2701 -0.0626
  242MPD1    H5 3732   3.895   3.134  15.564 -0.0473  0.0210  0.4718
  242MPD1    N1 3733   3.418   3.094  15.884  0.2475  0.4582  0.0193
  242MPD1    H6 3734   3.378   3.184  15.856  1.2790  0.9910  0.2253
  242MPD1    H7 3735   3.408   3.106  15.985  1.5773  1.1587  0.0709
  243MPD1     C 3736   0.491   2.679   0.008 -0.1511 -0.0187  0.1356
  243MPD1    C1 3737   0.514   2.573   0.091  0.3829  0.0578  0.4640
  243MPD1    C2 3738   0.622   2.486   0.056 -0.0967 -0.3856  0.0011
  243MPD1    C3 3739   0.695   2.509  17.699 -0.4813 -0.7979  0.5319
  243MPD1    C4 3740   0.665   2.622  17.632  0.6456  0.2557 -0.0635
  243MPD1    C5 3741   0.566   2.709  17.661 -0.0600  0.1161  0.4917
  243MPD1     H 3742   0.634   2.393   0.111  0.5863 -0.6573 -0.6076
  243MPD1    H1 3743   0.712   2.640  17.535 -0.8760 -0.3551 -0.9089
  243MPD1    H2 3744   0.410   2.747   0.032  0.5378  0.6899  0.4381
  243MPD1    H3 3745   0.537   2.799  17.608 -0.2955 -0.5695 -0.5372
  243MPD1     N 3746   0.779   2.410  17.649 -0.3961  0.3933  0.5765
  243MPD1    H5 3747   0.783   2.326  17.707  0.6377  0.0368 -0.0048
  243MPD1    N1 3748   0.424   2.534   0.188  0.1211 -0.0922 -0.5342
  243MPD1    H6 3749   0.353   2.606   0.202  0.0281 -0.4911  1.1362
  243MPD1    H7 3750   0.474   2.491   0.265 -0.0360 -0.2170 -0.5004
  244MPD1     C 3751   0.948   1.668   0.225 -0.3128 -0.0997  0.0656
  244MPD1    C1 3752   0.982   1.803   0.247  0.3270  0.5866 -0.3162
  244MPD1    C2 3753   0.949   1.891   0.146  0.4032 -0.1181  0.8658
  244MPD1    C3 3754   0.912   1.849   0.019  0.2348 -0.2687 -0.5521
  244MPD1    C4 3755   0.890   1.713  17.756  0.3243 -0.1058 -0.5902
  244MPD1    C5 3756   0.894   1.635   0.107  0.5771 -0.1230 -0.6557
  244MPD1     H 3757   0.963   1.997   0.160 -0.3999  0.1435 -0.2725
  244MPD1    H1 3758   0.846   1.671  17.666  0.0832  1.1561 -1.0552
  244MPD1    H2 3759   0.964   1.598   0.306 -2.5648 -0.3468  0.2865
  244MPD1    H3 3760   0.868   1.531   0.090  2.9842 -0.2859 -3.4232
  244MPD1     N 3761   0.915   1.945  17.683  0.0680 -0.5138 -0.6345
  244MPD1    H5 3762   0.944   2.037  17.716  0.7149 -1.3861  1.2335
  244MPD1    N1 3763   1.019   1.851   0.371  0.8086  0.2585  0.0475
  244MPD1    H6 3764   1.076   1.787   0.427  2.3623  0.9896 -0.6795
  244MPD1    H7 3765   1.074   1.937   0.367 -1.7616  1.8900  0.2662
  245MPD1     C 3766   2.446   2.796  12.832 -0.2805  0.0762  0.1036
  245MPD1    C1 3767   2.474   2.793  12.969  0.3838  0.1235  0.1375
  245MPD1    C2 3768   2.516   2.911  13.022  0.1593 -0.6524  0.3329
  245MPD1    C3 3769   2.543   3.026  12.947  0.3879 -0.6031  0.4048
  245MPD1    C4 3770   2.524   3.016  12.815 -0.6999  0.0873 -0.6097
  245MPD1    C5 3771   2.477   2.904  12.758 -0.0425  0.1919  0.0490
  245MPD1     H 3772   2.531   2.916  13.129 -0.0818  0.4566  0.3150
  245MPD1    H1 3773   2.537   3.104  12.754  1.8944  0.3409  0.2915
  245MPD1    H2 3774   2.386   2.715  12.790  0.8019 -0.1276 -1.0538
  245MPD1    H3 3775   2.467   2.893  12.651  1.0740 -1.3479  0.1018
  245MPD1     N 3776   2.583   3.144  13.012  0.7040  0.1282  0.0123
  245MPD1    H5 3777   2.561   3.143  13.111 -1.6473  0.5178 -0.5091
  245MPD1    N1 3778   2.424   2.682  13.041 -0.1616 -0.1783 -0.7476
  245MPD1    H6 3779   2.441   2.592  12.996 -0.9488 -0.3060 -0.7835
  245MPD1    H7 3780   2.485   2.687  13.123  0.5281  2.7432 -1.4439
  246MPD1     C 3781   4.070   0.373   8.016 -0.2971 -0.1014 -0.2530
  246MPD1    C1 3782   4.145   0.260   8.010  0.0032 -0.6617  0.4496
  246MPD1    C2 3783   4.194   0.202   8.124 -0.6633  0.4484 -0.3326
  246MPD1    C3 3784   4.158   0.252   8.252 -0.3036  0.3954  0.1109
  246MPD1    C4 3785   4.095   0.375   8.257  0.2659  0.4508  0.2554
  246MPD1    C5 3786   4.061   0.436   8.138 -0.6553 -0.1577 -0.5675
  246MPD1     H 3787   4.251   0.110   8.115 -1.1841  0.4079 -3.0136
  246MPD1    H1 3788   4.102   0.427   8.352 -0.7295 -2.4155  1.8835
  246MPD1    H2 3789   4.022   0.427   7.935  1.0496 -1.3269 -1.8779
  246MPD1    H3 3790   4.009   0.531   8.140 -0.7538 -0.2223 -0.0246
  246MPD1     N 3791   4.184   0.178   8.364 -0.9289  0.1667  0.4098
  246MPD1    H5 3792   4.225   0.087   8.346  0.0338  0.2835  2.0102
  246MPD1    N1 3793   4.164   0.196   7.889  0.1354  0.4394  0.3057
  246MPD1    H6 3794   4.177   0.260   7.810 -0.0208  2.5710  1.9993
  246MPD1    H7 3795   4.248   0.139   7.894 -0.1753 -0.1011 -0.6448
  247MPD1     C 3796   2.398   3.692  16.714  0.2457 -0.1327  0.4303
  247MPD1    C1 3797   2.327   3.596  16.781  0.5607 -0.0786 -0.4724
  247MPD1    C2 3798   2.354   3.459  16.747  0.6340  0.0078  0.3469
  247MPD1    C3 3799   2.438   3.430  16.645  0.4349 -0.9761  0.2430
  247MPD1    C4 3800   2.494   3.534  16.571 -0.7458 -0.0729 -0.7921
  247MPD1    C5 3801   2.477   3.664  16.608  0.3060 -0.7974 -1.1440
  247MPD1     H 3802   2.290   3.385  16.794  0.1694 -1.5519 -2.7993
  247MPD1    H1 3803   2.544   3.511  16.478  2.3178 -0.2310  0.8846
  247MPD1    H2 3804   2.382   3.798  16.733 -0.7082  0.0297 -1.3211
  247MPD1    H3 3805   2.520   3.745  16.549 -0.2534  0.3107 -0.0379
  247MPD1     N 3806   2.447   3.301  16.584  0.0448  0.1000  0.0879
  247MPD1    H5 3807   2.502   3.291  16.498 -2.9560 -0.7385 -1.7362
  247MPD1    N1 3808   2.210   3.635  16.861 -0.7568 -0.3636 -0.9698
  247MPD1    H6 3809   2.229   3.710  16.927  0.1342  0.6804 -2.4269
  247MPD1    H7 3810   2.187   3.564  16.931  3.3147 -0.6993 -0.0048
  248MPD1     C 3811   3.817   2.744   0.325  0.1496 -0.3129 -0.0628
  248MPD1    C1 3812   3.819   2.621   0.267  0.3629  0.4613  0.3463
  248MPD1    C2 3813   3.699   2.548   0.270 -0.6771 -0.6957 -0.2798
  248MPD1    C3 3814   3.588   2.592   0.339 -0.1676  0.1879  0.4001
  248MPD1    C4 3815   3.597   2.716   0.395 -0.2620 -0.2195 -0.7650
  248MPD1    C5 3816   3.710   2.789   0.401 -0.4419  0.2418 -0.2252
  248MPD1     H 3817   3.697   2.448   0.230  0.0020 -0.1402 -1.6772
  248MPD1    H1 3818   3.517   2.771   0.442 -0.1509  2.0337 -3.1854
  248MPD1    H2 3819   3.908   2.802   0.339  0.2985 -0.3527 -0.8550
  248MPD1    H3 3820   3.707   2.887   0.447  2.8958  1.2438 -2.1407
  248MPD1     N 3821   3.458   2.524   0.326  0.5834  0.1361 -0.0691
  248MPD1    H5 3822   3.452   2.443   0.265  1.1657 -0.2625  0.4104
  248MPD1    N1 3823   3.936   2.555   0.218  0.3318  0.2301  0.0859
  248MPD1    H6 3824   3.999   2.629   0.186  0.3305 -0.1654 -0.8349
  248MPD1    H7 3825   3.915   2.497   0.137  0.4914  0.8533 -0.4082
  249MPD1     C 3826   4.682   1.383  10.936 -0.3229  0.2981 -0.2919
  249MPD1    C1 3827   0.026   1.489  10.913 -0.6177 -0.2926  0.6977
  249MPD1    C2 3828   0.026   1.540  10.783  0.1336 -0.3403  0.9137
  249MPD1    C3 3829   4.671   1.506  10.689 -0.0367 -0.0028 -0.3922
  249MPD1    C4 3830   4.589   1.398  10.721  0.2586  0.3969  0.5047
  249MPD1    C5 3831   4.599   1.333  10.840  0.3369  0.4078  0.0927
  249MPD1     H 3832   0.099   1.611  10.745 -0.3131  0.5318  1.6631
  249MPD1    H1 3833   4.511   1.367  10.652  1.4367  2.3940 -1.6976
  249MPD1    H2 3834   4.680   1.326  11.028 -1.7336  0.0775 -0.4533
  249MPD1    H3 3835   4.521   1.261  10.861  1.0707 -0.5044 -0.2983
  249MPD1     N 3836   4.659   1.580  10.570 -0.8160 -0.0263 -0.1885
  249MPD1    H5 3837   4.725   1.657  10.558  1.6026 -2.0475  0.1847
  249MPD1    N1 3838   0.128   1.523  10.997  0.7012 -0.4771 -0.0998
  249MPD1    H6 3839   0.160   1.615  10.969 -1.6108 -0.3744 -2.4330
  249MPD1    H7 3840   0.110   1.499  11.094 -1.9521  0.4601 -0.3462
  250MPD2     C 3841   1.199   1.262  13.314  0.3624 -0.4100 -0.6705
  250MPD2    C1 3842   1.296   1.269  13.219 -0.3678 -0.6535  1.1083
  250MPD2    C2 3843   1.287   1.198  13.105 -0.4094 -0.5514  0.6985
  250MPD2    C3 3844   1.177   1.116  13.084 -0.4730  0.2310  0.1870
  250MPD2    C4 3845   1.077   1.107  13.179  0.4226 -0.0110  0.2590
  250MPD2    C5 3846   1.092   1.178  13.289  0.0602  0.1798  0.3505
  250MPD2     H 3847   1.368   1.203  13.032  0.6473 -1.3512  1.8178
  250MPD2    H1 3848   0.991   1.040  13.177  0.8220 -0.4865 -1.0946
  250MPD2    H2 3849   1.211   1.315  13.408  0.3569  3.2129 -2.7039
  250MPD2    H3 3850   1.019   1.166  13.368 -1.7701 -0.3825 -1.4055
  250MPD2     N 3851   1.160   1.043  12.961 -0.2159  0.6914  0.2186
  250MPD2    H5 3852   1.068   1.000  12.954 -0.8571  1.9913  0.5360
  250MPD2    N1 3853   1.396   1.365  13.236  0.2999 -0.2865  0.4706
  250MPD2    H7 3854   1.359   1.438  13.295  0.6123  0.4109 -0.2039
  251TMC3    C1 3855   1.544   1.528  13.149  0.3706 -0.0085  0.3627
  251TMC3    C2 3856   1.456   1.626  13.186 -0.1055  0.4141 -0.7761
  251TMC3    C3 3857   1.497   1.752  13.176 -0.1902 -0.6255  0.0644
  251TMC3    C4 3858   1.674   1.556  13.102 -0.1540  0.5129 -0.4011
  251TMC3    C5 3859   1.705   1.691  13.095  0.7765  0.4305  0.5037
  251TMC3    C6 3860   1.625   1.791  13.137 -0.6154  0.7923  0.2083
  251TMC3     C 3861   1.499   1.392  13.145 -0.2359  0.0119  0.4234
  251TMC3     O 3862   1.552   1.299  13.081 -0.3021  0.4103  0.1401
  251TMC3     H 3863   1.349   1.612  13.195  0.2784 -1.2284  1.1153
  251TMC3    H1 3864   1.735   1.472  13.068 -1.6228 -0.2494 -1.1499
  251TMC3    H2 3865   1.659   1.894  13.129 -0.6243  0.8084  0.3660
  251TMC3    C7 3866   1.845   1.716  13.054  0.6055 -0.2340 -0.3835
  251TMC3    C8 3867   1.394   1.850  13.209 -0.5586  0.2013  0.5589
  251TMC3    O1 3868   1.873   1.646  12.957 -0.6489  0.6594  0.0923
  251TMC3    O2 3869   1.280   1.826  13.179  0.1680 -0.4041 -0.6640
  252TMC3    C1 3870   0.954   3.695  10.049  0.4137  0.7492  0.5764
  252TMC3    C2 3871   1.087   3.681  10.020 -0.0108  0.5373 -0.6504
  252TMC3    C3 3872   1.133   3.561   9.999  0.5226 -0.2410  0.0188
  252TMC3    C4 3873   0.868   3.590  10.069  0.3806  0.5157 -0.3702
  252TMC3    C5 3874   0.930   3.468  10.047  0.0247  0.3256  0.3208
  252TMC3    C6 3875   1.057   3.452  10.005 -0.2341  0.1337  0.2488
  252TMC3     C 3876   0.894   3.821  10.002  0.3616 -0.4176 -0.1401
  252TMC3     O 3877   0.963   3.875   9.919  0.4177 -0.4761  0.8106
  252TMC3     H 3878   1.147   3.769  10.004  0.6297 -0.0329 -1.3971
  252TMC3    H1 3879   0.761   3.603  10.061  0.2626 -1.6502 -2.1711
  252TMC3    H2 3880   1.098   3.361   9.963 -0.5893  0.0323  0.1251
  252TMC3    C7 3881   0.855   3.358  10.092 -0.5749  0.1635  0.7325
  252TMC3    C8 3882   1.261   3.541   9.940  0.4756 -0.5029 -0.1822
  252TMC3    O1 3883   0.735   3.375  10.103  0.3323 -0.1969  0.2543
  252TMC3    O2 3884   1.266   3.457   9.850 -0.8427  0.4691  0.3313
  253MPD2     C 3885   2.537   1.683  15.085  0.0645 -0.0619  0.1874
  253MPD2    C1 3886   2.433   1.634  15.166 -0.3425 -0.4259 -0.4866
  253MPD2    C2 3887   2.412   1.700  15.287 -0.3092  0.2375  0.2775
  253MPD2    C3 3888   2.486   1.810  15.319 -0.4557 -0.2078  0.2771
  253MPD2    C4 3889   2.591   1.853  15.237 -0.0095  0.9894  0.5938
  253MPD2    C5 3890   2.611   1.787  15.121  0.4876  0.4427 -0.1467
  253MPD2     H 3891   2.332   1.673  15.354 -1.6255 -0.4763 -1.5853
  253MPD2    H1 3892   2.653   1.941  15.250 -0.6219  1.2682  1.6399
  253MPD2    H2 3893   2.560   1.648  14.985 -2.1732  0.7605 -0.6154
  253MPD2    H3 3894   2.687   1.826  15.055 -0.7452  1.8511 -0.7532
  253MPD2     N 3895   2.461   1.874  15.443  0.2584  0.3997 -0.4102
  253MPD2    H5 3896   2.532   1.943  15.466  0.0220  0.5519 -0.1427
  253MPD2    N1 3897   2.349   1.536  15.110  0.4277 -0.2636  0.3404
  253MPD2    H7 3898   2.386   1.487  15.029 -0.1937 -0.0465 -0.0699
  254TMC3    C1 3899   2.376   1.926  15.658 -0.3904 -0.8596  0.0353
  254TMC3    C2 3900   2.271   1.980  15.722 -0.9195  0.5689 -0.3284
  254TMC3    C3 3901   2.305   2.049  15.839 -0.2218  0.5727  0.1465
  254TMC3    C4 3902   2.503   1.918  15.712 -0.1768 -0.2834  0.5489
  254TMC3    C5 3903   2.518   1.969  15.839  0.1553 -0.3146  0.6758
  254TMC3    C6 3904   2.427   2.044  15.901 -0.2872 -0.1778  0.3944
  254TMC3     C 3905   2.352   1.858  15.533  0.6962 -0.0125 -0.1252
  254TMC3     O 3906   2.242   1.811  15.523  0.3904  0.1281  0.7734
  254TMC3     H 3907   2.175   1.990  15.672 -1.4900  4.7032  1.5747
  254TMC3    H1 3908   2.573   1.847  15.670  1.2840  1.4353  0.0635
  254TMC3    H2 3909   2.442   2.098  15.993 -0.6707  0.9632 -0.2147
  254TMC3    C7 3910   2.601   1.894  15.937  0.4503 -0.8920  0.9556
  254TMC3    C8 3911   2.192   2.084  15.923 -0.1957  0.2131  0.7018
  254TMC3    O1 3912   2.550   1.875  16.046  0.2029 -0.4060 -0.0827
  254TMC3    O2 3913   2.216   2.107  16.041  0.1055  0.0767 -0.2027
  255MPD2     C 3914   0.918   0.254  10.848  0.7534 -0.0611  0.0917
  255MPD2    C1 3915   0.804   0.248  10.776  0.2408  0.3674 -0.3980
  255MPD2    C2 3916   0.788   0.140  10.694 -0.2138 -0.4279 -0.6611
  255MPD2    C3 3917   0.879   0.035  10.686 -1.1771  1.2583 -0.3715
  255MPD2    C4 3918   0.997   0.043  10.759  0.4790 -1.2021  0.0267
  255MPD2    C5 3919   1.013   0.152  10.836  0.5962  0.1684  0.1955
  255MPD2     H 3920   0.697   0.139  10.635  0.2084  1.3658 -1.3145
  255MPD2    H1 3921   1.081   4.716  10.755  1.3910 -0.0108 -0.9930
  255MPD2    H2 3922   0.938   0.334  10.918 -0.5320 -0.0038  0.3771
  255MPD2    H3 3923   1.105   0.160  10.892 -0.2290  0.2523  1.5459
  255MPD2     N 3924   0.859   4.685  10.583  0.2929 -0.2576 -0.1200
  255MPD2    H5 3925   0.778   4.699  10.523 -0.3930  1.8949  1.3109
  255MPD2    N1 3926   0.705   0.345  10.778  0.2816 -0.4505 -0.2391
  255MPD2    H7 3927   0.628   0.327  10.715  1.9167  0.6548 -2.5185
  256TMC3    C1 3928   0.573   0.535  10.810 -0.0856 -0.4563 -0.1184
  256TMC3    C2 3929   0.600   0.653  10.749  0.2641  0.2550 -0.0961
  256TMC3    C3 3930   0.528   0.690  10.640 -0.3399 -0.0320  0.1822
  256TMC3    C4 3931   0.470   0.457  10.763  0.7836 -1.0060 -0.2756
  256TMC3    C5 3932   0.390   0.503  10.661 -0.6118 -0.5050 -0.1167
  256TMC3    C6 3933   0.421   0.620  10.590  0.3172 -0.7195  0.3512
  256TMC3     C 3934   0.695   0.459  10.849 -1.0140 -0.3549  0.3703
  256TMC3     O 3935   0.775   0.519  10.918  0.5353  0.1509  0.2467
  256TMC3     H 3936   0.688   0.709  10.777 -0.3195  0.8944  0.4659
  256TMC3    H1 3937   0.447   0.365  10.814 -0.5106 -1.1118 -1.0413
  256TMC3    H2 3938   0.380   0.655  10.495  1.2747  0.3304  0.3285
  256TMC3    C7 3939   0.323   0.396  10.578  0.3410  0.5609  0.7939
  256TMC3    C8 3940   0.569   0.805  10.556  0.2122  0.3695  0.0386
  256TMC3    O1 3941   0.347   0.284  10.614 -0.4423 -0.2910  0.4275
  256TMC3    O2 3942   0.688   0.829  10.573  0.2790  0.1048  0.0941
  257MPD2     C 3943   4.456   1.509  13.481  0.2979 -0.2285  0.5968
  257MPD2    C1 3944   4.569   1.486  13.407 -0.2418 -0.6270  0.5311
  257MPD2    C2 3945   4.652   1.381  13.453  0.3290  0.2561  0.8403
  257MPD2    C3 3946   4.636   1.326  13.575  0.4573  0.7557  0.0950
  257MPD2    C4 3947   4.528   1.359  13.647  0.1174  0.3844 -0.0080
  257MPD2    C5 3948   4.437   1.441  13.599  0.1422  0.1474  0.6849
  257MPD2     H 3949   4.721   1.339  13.380 -1.9135  2.4804 -2.5813
  257MPD2    H1 3950   4.507   1.311  13.743  1.0246 -0.6405 -0.3188
  257MPD2    H2 3951   4.394   1.595  13.455  0.6604 -0.6187 -1.5966
  257MPD2    H3 3952   4.356   1.472  13.664  1.7267 -0.0407  2.7577
  257MPD2     N 3953   4.725   1.223  13.617 -0.2458 -1.1312 -0.0634
  257MPD2    H5 3954   0.037   1.184  13.540 -0.5718  0.1392 -0.9352
  257MPD2    N1 3955   4.601   1.553  13.284 -0.0830 -0.1713 -0.1088
  257MPD2    H7 3956   4.542   1.632  13.260 -0.1007 -0.9903 -2.7138
  258TMC3    C1 3957   0.085   1.049  13.743 -0.3023 -0.0237  0.6204
  258TMC3    C2 3958   0.092   0.963  13.636  0.5913 -0.3222  0.2832
  258TMC3    C3 3959   0.182   0.862  13.644 -0.4302 -0.5247  0.6800
  258TMC3    C4 3960   0.163   1.027  13.855  0.6304  0.1764  0.1385
  258TMC3    C5 3961   0.253   0.929  13.852 -0.5976  0.3576 -0.1576
  258TMC3    C6 3962   0.277   0.849  13.742 -0.6722  0.2524  0.4521
  258TMC3     C 3963   4.740   1.175  13.737  0.0515  0.3305  0.0644
  258TMC3     O 3964   4.701   1.216  13.848 -0.0829  0.0692  0.4606
  258TMC3     H 3965   0.011   0.971  13.563  0.0391  1.5365  1.1048
  258TMC3    H1 3966   0.150   1.084  13.947  0.6776  0.2614  0.0924
  258TMC3    H2 3967   0.345   0.768  13.768  0.1889  1.2576  1.3234
  258TMC3    C7 3968   0.249   0.857  13.975  0.1327  0.0821 -0.1363
  258TMC3    C8 3969   0.162   0.758  13.544  0.2101 -0.5105 -0.0262
  258TMC3    O1 3970   0.143   0.874  14.034 -0.5433 -0.0952  0.6052
  258TMC3    O2 3971   0.051   0.754  13.503 -0.5331 -0.1905  0.4441
  259MPD2     C 3972   3.363   3.181   0.782  0.1397  0.3429  0.0588
  259MPD2    C1 3973   3.496   3.168   0.759  0.3224 -0.2083 -0.2385
  259MPD2    C2 3974   3.536   3.135   0.632 -0.3425  0.0329 -0.3105
  259MPD2    C3 3975   3.440   3.101   0.533  0.2044  0.4256 -0.3109
  259MPD2    C4 3976   3.308   3.116   0.559 -0.3249 -0.1773 -0.0875
  259MPD2    C5 3977   3.271   3.164   0.686  0.4868  0.0542 -0.0698
  259MPD2     H 3978   3.640   3.110   0.617  0.3598  2.0252  1.1686
  259MPD2    H1 3979   3.226   3.089   0.493  1.7016 -0.6012 -2.4322
  259MPD2    H2 3980   3.325   3.214   0.878  0.2875 -0.5667  0.4263
  259MPD2    H3 3981   3.167   3.178   0.716  0.3242 -0.1862 -0.5279
  259MPD2     N 3982   3.486   3.070   0.404 -0.4347 -0.2819  0.0616
  259MPD2    H5 3983   3.584   3.083   0.379 -0.0712  1.8864  2.6564
  259MPD2    N1 3984   3.583   3.195   0.866  0.0101  0.0574  0.0361
  259MPD2    H7 3985   3.545   3.240   0.949  0.5814 -0.7193  0.7230
  260TMC3    C1 3986   3.475   2.998   0.178  0.8604 -0.2393 -0.1496
  260TMC3    C2 3987   3.554   3.101   0.142  0.5767 -0.3943  0.0222
  260TMC3    C3 3988   3.642   3.093   0.041  0.1712 -0.3448  0.1276
  260TMC3    C4 3989   3.479   2.876   0.120 -0.6160  0.2058  0.3516
  260TMC3    C5 3990   3.581   2.866   0.031 -0.3276  0.1638  0.4379
  260TMC3    C6 3991   3.656   2.969  17.742 -0.2512 -0.0450  0.4247
  260TMC3     C 3992   3.412   3.009   0.306  0.2342  1.1445  0.2512
  260TMC3     O 3993   3.302   2.955   0.319 -0.7647 -0.2674 -0.6369
  260TMC3     H 3994   3.558   3.191   0.203 -2.5253 -0.8502  0.8901
  260TMC3    H1 3995   3.433   2.797   0.178 -0.6910 -0.3186 -0.4172
  260TMC3    H2 3996   3.725   2.969  17.658 -2.0139  0.2167 -1.0272
  260TMC3    C7 3997   3.645   2.740  17.756 -0.0270  0.5959 -0.1511
  260TMC3    C8 3998   3.768   3.164   0.071  0.2162 -0.3757 -0.0085
  260TMC3    O1 3999   3.759   2.752  17.713  0.0380 -0.2454 -0.0896
  260TMC3    O2 4000   3.765   3.278   0.114  0.0234 -0.4210 -0.0946
  261MPD2     C 4001   0.626   1.129  12.423  0.6273  0.0223  0.0211
  261MPD2    C1 4002   0.696   1.210  12.507  0.6596  0.2787  0.3404
  261MPD2    C2 4003   0.650   1.343  12.516 -1.0974 -0.1283 -0.2790
  261MPD2    C3 4004   0.534   1.385  12.462 -0.7119 -0.7345  0.1916
  261MPD2    C4 4005   0.455   1.297  12.388 -0.1879 -0.4675  0.1039
  261MPD2    C5 4006   0.503   1.170  12.375  0.0916 -0.0503  0.0846
  261MPD2     H 4007   0.707   1.404  12.586  2.7493  0.4619 -3.8841
  261MPD2    H1 4008   0.360   1.323  12.342  0.0784 -0.5375 -0.4899
  261MPD2    H2 4009   0.657   1.029  12.397  1.7521 -0.3237  2.7019
  261MPD2    H3 4010   0.453   1.085  12.329  0.5789 -0.9708  1.2349
  261MPD2     N 4011   0.501   1.522  12.484  0.3931  0.6563  0.2133
  261MPD2    H5 4012   0.570   1.579  12.531  0.1523  1.8375 -0.8681
  261MPD2    N1 4013   0.817   1.164  12.574 -0.3524 -1.7835 -0.1263
  261MPD2    H7 4014   0.878   1.233  12.616 -2.0707 -0.0431 -0.4679
  262TMC3    C1 4015   0.372   1.722  12.460 -0.6601  0.1660  0.2448
  262TMC3    C2 4016   0.242   1.763  12.475  0.2462 -0.9534 -0.5498
  262TMC3    C3 4017   0.219   1.889  12.428 -0.0996 -0.4274  0.8798
  262TMC3    C4 4018   0.473   1.798  12.418 -0.2775  0.1821 -0.2988
  262TMC3    C5 4019   0.441   1.920  12.373 -0.1941  0.6882  0.0658
  262TMC3    C6 4020   0.318   1.969  12.379  0.1932 -0.2947  0.2541
  262TMC3     C 4021   0.380   1.575  12.440 -0.6108 -0.3312  0.5136
  262TMC3     O 4022   0.275   1.524  12.395 -0.0283  0.3080 -0.1707
  262TMC3     H 4023   0.168   1.708  12.531 -1.2554  2.7462  1.1128
  262TMC3    H1 4024   0.571   1.757  12.396 -0.5949 -0.2447 -0.9172
  262TMC3    H2 4025   0.302   2.072  12.348  0.2085 -0.2174  0.5033
  262TMC3    C7 4026   0.544   2.002  12.322 -0.2917  0.6048 -0.1505
  262TMC3    C8 4027   0.091   1.947  12.458  0.0299 -0.0915 -0.9688
  262TMC3    O1 4028   0.625   1.951  12.244 -0.2042 -0.7032  0.3498
  262TMC3    O2 4029   0.040   1.918  12.566 -0.2693 -0.1112  0.3219
  263MPD2     C 4030   1.815   0.997  11.152  0.7791  0.6263  0.6316
  263MPD2    C1 4031   1.810   1.114  11.228  0.5545  0.0534 -0.1540
  263MPD2    C2 4032   1.837   1.233  11.167  0.0246 -0.1274 -0.2314
  263MPD2    C3 4033   1.880   1.244  11.033  0.3872 -0.3481  0.1701
  263MPD2    C4 4034   1.870   1.125  10.955 -0.3560  0.3849 -0.0168
  263MPD2    C5 4035   1.839   1.008  11.015 -0.2256  0.2602 -0.5089
  263MPD2     H 4036   1.853   1.325  11.221 -1.1564 -1.6182  2.6509
  263MPD2    H1 4037   1.891   1.124  10.849 -0.6807 -2.6584 -0.0625
  263MPD2    H2 4038   1.798   0.896  11.189  0.6278 -1.1884 -4.3523
  263MPD2    H3 4039   1.844   0.919  10.953 -0.8674 -0.8973  1.0845
  263MPD2     N 4040   1.923   1.365  10.989 -0.4806 -0.2734  0.6922
  263MPD2    H5 4041   1.916   1.441  11.055 -0.6067 -2.0541  2.7077
  263MPD2    N1 4042   1.808   1.103  11.368  0.0247  0.1705 -0.6371
  263MPD2    H7 4043   1.803   1.008  11.404  0.7714 -0.2691 -1.6870
  264TMC3    C1 4044   2.032   1.529  10.863  0.0275 -0.0032 -0.1468
  264TMC3    C2 4045   1.989   1.632  10.948  0.3171 -0.1300 -0.0701
  264TMC3    C3 4046   2.042   1.760  10.932 -0.2961  0.7415  0.0664
  264TMC3    C4 4047   2.132   1.555  10.770  0.6511 -0.1655  0.3554
  264TMC3    C5 4048   2.166   1.686  10.751 -0.6513  0.2612 -0.9720
  264TMC3    C6 4049   2.128   1.789  10.830  0.5508  0.2993 -0.5894
  264TMC3     C 4050   1.987   1.390  10.871  0.1439  0.3908  0.1152
  264TMC3     O 4051   2.017   1.311  10.781 -0.1596 -0.2035  0.5808
  264TMC3     H 4052   1.913   1.618  11.025 -0.0712  0.0757 -0.4145
  264TMC3    H1 4053   2.164   1.473  10.706 -0.0993 -0.3588  0.2233
  264TMC3    H2 4054   2.184   1.881  10.825  0.4517  0.4812  1.4535
  264TMC3    C7 4055   2.263   1.710  10.650 -0.0518  0.5129 -0.0770
  264TMC3    C8 4056   2.009   1.864  11.032 -0.0622 -0.7756  0.2266
  264TMC3    O1 4057   2.305   1.611  10.588  0.5941 -0.4593 -0.0147
  264TMC3    O2 4058   2.052   1.977  11.008  0.0839  0.4185  0.0638
  265MPD2     C 4059   3.562   0.904  15.735  0.5639  0.8248  0.2105
  265MPD2    C1 4060   3.658   1.005  15.728 -0.9042 -0.0008  0.2782
  265MPD2    C2 4061   3.736   1.010  15.608 -0.0117  0.7212  0.8230
  265MPD2    C3 4062   3.733   0.912  15.510 -0.4480  0.1322 -0.4145
  265MPD2    C4 4063   3.640   0.815  15.525  0.5020 -0.0053  0.3061
  265MPD2    C5 4064   3.549   0.813  15.632 -0.4122 -0.1170 -0.2219
  265MPD2     H 4065   3.807   1.090  15.589  1.1251 -0.2500  0.9580
  265MPD2    H1 4066   3.632   0.747  15.441  3.7855 -0.1799  0.1680
  265MPD2    H2 4067   3.498   0.900  15.822  1.3604  3.5567  0.9119
  265MPD2    H3 4068   3.470   0.740  15.626 -0.3861  0.1057 -3.1535
  265MPD2     N 4069   3.789   0.929  15.382 -0.5158 -0.7064 -0.3360
  265MPD2    H5 4070   3.783   0.846  15.324 -1.6928  0.7162 -2.2132
  265MPD2    N1 4071   3.677   1.103  15.831 -0.8042  0.1601  0.4630
  265MPD2    H7 4072   3.744   1.179  15.821 -1.1821  0.3532 -0.5366
  266TMC3    C1 4073   3.638   1.211  16.037 -0.0098  0.2274  0.2828
  266TMC3    C2 4074   3.643   1.205  16.177 -0.0089  0.3652  0.4771
  266TMC3    C3 4075   3.619   1.319  16.253  1.1861 -0.4785  0.0750
  266TMC3    C4 4076   3.595   1.320  15.978 -0.0832  0.0673  0.2235
  266TMC3    C5 4077   3.575   1.433  16.052 -0.6336  0.0445  0.1065
  266TMC3    C6 4078   3.591   1.438  16.190 -0.5475  0.1662  0.4480
  266TMC3     C 4079   3.645   1.085  15.961  0.0981 -0.4141 -0.3575
  266TMC3     O 4080   3.619   0.979  16.020  0.5181  0.8432 -0.3607
  266TMC3     H 4081   3.672   1.108  16.216  0.0932  0.1516 -0.1242
  266TMC3    H1 4082   3.580   1.334  15.871  0.4994 -2.0788 -0.1297
  266TMC3    H2 4083   3.575   1.526  16.251 -0.5492  0.7721 -0.4268
  266TMC3    C7 4084   3.513   1.546  15.989 -0.2769 -0.4900  0.3716
  266TMC3    C8 4085   3.676   1.313  16.382  0.1850  0.4482  0.1890
  266TMC3    O1 4086   3.553   1.575  15.875  0.0724 -0.1646 -0.3627
  266TMC3    O2 4087   3.734   1.209  16.405 -0.2352 -0.4256  0.1998
  267MPD2     C 4088   0.888   2.919   0.279  0.0311  0.4381  0.5382
  267MPD2    C1 4089   0.960   2.950   0.166  0.4362  0.3145 -0.2368
  267MPD2    C2 4090   0.897   2.990   0.047 -0.0620 -0.4935  0.4961
  267MPD2    C3 4091   0.755   3.007   0.051 -0.2211  0.6237  0.7997
  267MPD2    C4 4092   0.681   2.966   0.158 -0.5828  0.1331  0.0163
  267MPD2    C5 4093   0.749   2.927   0.279  0.1231 -0.4978  0.5079
  267MPD2     H 4094   0.957   3.014  17.720 -0.6976  0.1266  0.2362
  267MPD2    H1 4095   0.573   2.962   0.153 -0.6644 -0.6425  2.2327
  267MPD2    H2 4096   0.928   2.889   0.375  0.7191 -2.6463 -0.7152
  267MPD2    H3 4097   0.702   2.888   0.368  0.3264 -1.4945  0.1795
  267MPD2     N 4098   0.692   3.050  17.694  0.0919 -0.1112  0.0232
  267MPD2    H5 4099   0.596   3.019  17.686  0.4142 -1.4250  1.2501
  267MPD2    N1 4100   1.105   2.935   0.179  0.0591  0.5415  0.1638
  267MPD2    H7 4101   1.141   2.899   0.266 -2.1948 -0.5630  0.6483
  268TMC3    C1 4102   1.329   2.930   0.136  0.7124 -0.5754  0.2623
  268TMC3    C2 4103   1.433   2.985   0.063 -0.2486 -1.0984 -0.3552
  268TMC3    C3 4104   1.559   2.926   0.079  0.2196  0.0038 -0.1944
  268TMC3    C4 4105   1.347   2.827   0.222  0.1837  0.9850  0.1283
  268TMC3    C5 4106   1.477   2.766   0.229 -0.3741  0.2608 -0.1632
  268TMC3    C6 4107   1.582   2.820   0.161  0.3695 -0.0375 -0.6560
  268TMC3     C 4108   1.199   2.985   0.093 -0.3196 -0.2778 -0.0793
  268TMC3     O 4109   1.190   3.020  17.734  0.4282 -0.3596 -0.1580
  268TMC3     H 4110   1.420   3.083   0.019  1.0495 -0.4991  0.5919
  268TMC3    H1 4111   1.263   2.778   0.270  0.3276 -0.3068 -0.9085
  268TMC3    H2 4112   1.678   2.772   0.175  0.6250  0.1104 -1.9271
  268TMC3    C7 4113   1.523   2.698   0.353 -0.1849  0.0636 -0.5830
  268TMC3    C8 4114   1.668   3.004   0.040 -0.0739 -0.8987 -0.0451
  268TMC3    O1 4115   1.634   2.640   0.356 -0.5599  0.0629  0.0645
  268TMC3    O2 4116   1.742   3.052   0.123  0.6358  0.3903 -0.0786
  269MPD2     C 4117   1.536   1.673  15.898 -0.1674  0.2062 -0.2252
  269MPD2    C1 4118   1.405   1.692  15.931 -0.3844  0.2019 -0.3967
  269MPD2    C2 4119   1.357   1.823  15.934 -0.2355 -0.5541  0.8257
  269MPD2    C3 4120   1.429   1.921  15.867 -0.3794 -0.1439 -0.2981
  269MPD2    C4 4121   1.551   1.896  15.818  0.1381  0.1057  0.6982
  269MPD2    C5 4122   1.604   1.773  15.843 -0.1121  0.9047  0.2799
  269MPD2     H 4123   1.262   1.843  15.982 -1.0975  0.4114 -1.3183
  269MPD2    H1 4124   1.610   1.969  15.763  0.5220 -2.4593 -2.3470
  269MPD2    H2 4125   1.595   1.582  15.901  1.2872  1.2118  1.4568
  269MPD2    H3 4126   1.707   1.752  15.817 -0.1032  1.2341  0.0469
  269MPD2     N 4127   1.375   2.055  15.862  0.2352 -0.7950 -0.1351
  269MPD2    H5 4128   1.300   2.071  15.928  2.1559  0.1672  1.8297
  269MPD2    N1 4129   1.344   1.568  15.970  0.4230 -0.5439  0.1527
  269MPD2    H7 4130   1.392   1.480  15.957  2.0023  0.2283  0.7710
  270TMC3    C1 4131   1.145   1.432  15.976  0.1572  0.2376  0.0748
  270TMC3    C2 4132   1.010   1.434  15.948  0.4348  0.7324 -0.0566
  270TMC3    C3 4133   0.964   1.318  15.891 -0.4957  0.1966  0.3473
  270TMC3    C4 4134   1.223   1.323  15.966  0.3903 -0.4072  0.2047
  270TMC3    C5 4135   1.168   1.210  15.902  0.5287  0.0147  0.0079
  270TMC3    C6 4136   1.046   1.214  15.860  0.5960 -0.2739 -0.1217
  270TMC3     C 4137   1.211   1.562  16.000  0.4350 -0.2907 -0.5040
  270TMC3     O 4138   1.140   1.660  16.025  0.4270 -0.0775 -0.3335
  270TMC3     H 4139   0.951   1.518  15.981  1.1824  1.3065 -0.1672
  270TMC3    H1 4140   1.331   1.323  15.975  0.4902 -0.3050 -0.9548
  270TMC3    H2 4141   1.021   1.128  15.799  0.1846 -0.2914  0.0673
  270TMC3    C7 4142   1.271   1.149  15.819  0.1741  0.5568 -0.4698
  270TMC3    C8 4143   0.849   1.329  15.805 -0.2214 -0.3974 -0.4128
  270TMC3    O1 4144   1.377   1.130  15.875  0.2958 -0.3518  0.7822
  270TMC3    O2 4145   0.738   1.345  15.858  0.3034  0.7468  0.0734
  271MPD2     C 4146   0.210   1.707  14.137 -0.2030 -0.1466 -0.2053
  271MPD2    C1 4147   0.188   1.676  14.273  0.2334  0.3351  0.1425
  271MPD2    C2 4148   0.063   1.715  14.326  0.5529  0.3956  0.6758
  271MPD2    C3 4149   4.704   1.766  14.247  0.3584  0.6829  0.0956
  271MPD2    C4 4150   4.736   1.805  14.118  0.7532  0.4806 -0.0511
  271MPD2    C5 4151   0.116   1.767  14.063 -0.6750 -0.3850  0.1899
  271MPD2     H 4152   0.036   1.680  14.425 -0.8672 -0.2234  0.0724
  271MPD2    H1 4153   4.666   1.844  14.046  1.1402  0.8539 -0.2278
  271MPD2    H2 4154   0.295   1.662  14.087 -0.1896  1.5783 -1.7519
  271MPD2    H3 4155   0.134   1.775  13.956 -0.6434 -0.0220  0.2243
  271MPD2     N 4156   4.574   1.794  14.295  0.4184 -0.4508  0.9016
  271MPD2    H5 4157   4.516   1.851  14.234  2.8465  0.4603 -0.5537
  271MPD2    N1 4158   0.275   1.601  14.360 -0.2022  0.7431 -0.1685
  271MPD2    H7 4159   0.244   1.569  14.451 -1.5194 -0.9267 -1.1945
  272TMC3    C1 4160   0.460   1.479  14.419 -0.1934 -0.0289  0.1998
  272TMC3    C2 4161   0.567   1.390  14.386  0.0261 -0.3125 -0.0870
  272TMC3    C3 4162   0.647   1.341  14.482 -0.3952 -0.7650 -0.5856
  272TMC3    C4 4163   0.437   1.518  14.549  0.8600  0.7721  0.2728
  272TMC3    C5 4164   0.506   1.451  14.646  0.2609  0.0962  0.3671
  272TMC3    C6 4165   0.599   1.351  14.610 -0.0525  0.4693 -0.4136
  272TMC3     C 4166   0.391   1.544  14.313 -0.6014 -0.4288  0.5204
  272TMC3     O 4167   0.441   1.528  14.199  0.2405 -0.2957 -0.1743
  272TMC3     H 4168   0.597   1.364  14.285  2.7274  1.2152  0.3102
  272TMC3    H1 4169   0.373   1.600  14.579  0.0573  0.2799 -0.1197
  272TMC3    H2 4170   0.644   1.293  14.691  1.0613  1.0369 -0.6323
  272TMC3    C7 4171   0.464   1.465  14.785  0.0584  0.0101  0.9215
  272TMC3    C8 4172   0.768   1.260  14.455  0.5848 -0.2062  0.6589
  272TMC3    O1 4173   0.344   1.480  14.801  0.5048  0.1458 -0.1093
  272TMC3    O2 4174   0.813   1.262  14.342  0.5517 -0.5728 -0.2353
  273MPD2     C 4175   2.096   4.708  11.875  0.4965  0.1835 -0.1531
  273MPD2    C1 4176   2.228   0.007  11.868  0.5691  0.1166 -0.3576
  273MPD2    C2 4177   2.286   0.044  11.747  0.4059 -0.1174  0.2612
  273MPD2    C3 4178   2.214   0.035  11.631 -0.3409 -0.4626  0.3244
  273MPD2    C4 4179   2.085   4.732  11.639 -0.3251 -0.3358 -0.4473
  273MPD2    C5 4180   2.016   4.704  11.758 -0.8497 -0.3153 -0.1536
  273MPD2     H 4181   2.388   0.081  11.737  0.6999 -0.5832  1.6318
  273MPD2    H1 4182   2.027   0.010  11.549  1.1741 -1.9589 -1.7415
  273MPD2    H2 4183   2.051   4.681  11.970  0.0775  1.3535 -0.0257
  273MPD2    H3 4184   1.912   4.679  11.773 -0.9291  1.1346  1.7343
  273MPD2     N 4185   2.259   0.080  11.508 -0.2292  0.3392  0.3437
  273MPD2    H5 4186   2.190   0.082  11.433 -0.6561 -1.2557  0.6952
  273MPD2    N1 4187   2.288   0.027  11.992 -0.1968 -0.4031 -0.1296
  273MPD2    H7 4188   2.236   4.736  12.073  1.1652 -2.4683 -0.0696
  274TMC3    C1 4189   2.384   0.198  11.360 -0.6681 -0.7685 -0.5593
  274TMC3    C2 4190   2.329   0.141  11.252  0.2375 -1.0143 -0.0454
  274TMC3    C3 4191   2.366   0.201  11.131  0.2314 -0.0341  0.1101
  274TMC3    C4 4192   2.469   0.313  11.356  0.1706 -0.4631  0.5126
  274TMC3    C5 4193   2.506   0.358  11.240 -0.5236  0.8817  0.2682
  274TMC3    C6 4194   2.450   0.306  11.119  0.3415  0.0807  0.1869
  274TMC3     C 4195   2.387   0.135  11.483 -0.2589  0.6268 -0.5215
  274TMC3     O 4196   2.487   0.148  11.555  0.3684  0.1146  0.3850
  274TMC3     H 4197   2.276   0.046  11.250 -1.4826 -0.1448  3.4644
  274TMC3    H1 4198   2.523   0.339  11.447  0.3270 -1.9766  0.8446
  274TMC3    H2 4199   2.462   0.362  11.028 -0.9798  1.1881  0.6969
  274TMC3    C7 4200   2.547   0.498  11.235  0.0353 -0.1790  0.2348
  274TMC3    C8 4201   2.284   0.156  11.022 -0.4052 -0.7138 -0.3100
  274TMC3    O1 4202   2.595   0.538  11.128 -0.1469 -0.5919  0.6216
  274TMC3    O2 4203   2.173   0.110  11.049  0.1445  0.1124 -0.7400
  275MPD2     C 4204   2.086   2.370  14.430  0.5316  0.4833  0.8087
  275MPD2    C1 4205   2.028   2.401  14.552 -0.3321 -0.0306  0.4647
  275MPD2    C2 4206   1.898   2.361  14.584 -0.2705 -0.1387  0.1100
  275MPD2    C3 4207   1.821   2.293  14.491 -0.5270  1.1189 -0.2674
  275MPD2    C4 4208   1.880   2.267  14.364 -0.4352  0.7474 -0.2447
  275MPD2    C5 4209   2.009   2.308  14.334  0.1244 -0.3192 -0.1894
  275MPD2     H 4210   1.852   2.395  14.676  1.1378  1.3273  0.2635
  275MPD2    H1 4211   1.831   2.225  14.277  1.1846 -0.3707 -0.6219
  275MPD2    H2 4212   2.186   2.401  14.400  0.4451  0.2245  0.2643
  275MPD2    H3 4213   2.053   2.288  14.237  0.3256 -2.0415  0.2565
  275MPD2     N 4214   1.685   2.260  14.512 -0.0867  0.7771  0.5306
  275MPD2    H5 4215   1.641   2.226  14.428 -0.8337 -0.0588  1.2556
  275MPD2    N1 4216   2.087   2.481  14.651 -0.1856  0.0228 -0.3880
  275MPD2    H7 4217   2.026   2.496  14.731  1.3607 -1.0766  1.0078
  276TMC3    C1 4218   2.237   2.582  14.799  0.2886  0.1366  0.6389
  276TMC3    C2 4219   2.158   2.543  14.905 -0.3230  0.0343 -0.2435
  276TMC3    C3 4220   2.194   2.585  15.027 -0.1982  0.3158 -0.0178
  276TMC3    C4 4221   2.345   2.670  14.820  0.0484  0.3816  0.0006
  276TMC3    C5 4222   2.359   2.725  14.945  0.2125  0.2719 -0.3998
  276TMC3    C6 4223   2.290   2.679  15.054 -0.3047  0.3874  0.5520
  276TMC3     C 4224   2.211   2.519  14.665 -0.3483  0.4580 -0.0036
  276TMC3     O 4225   2.310   2.512  14.591 -0.5012 -0.8655  0.1570
  276TMC3     H 4226   2.066   2.486  14.898 -0.9346  0.9675  0.2315
  276TMC3    H1 4227   2.405   2.699  14.734  0.2003 -2.6907 -0.9100
  276TMC3    H2 4228   2.315   2.701  15.157  1.7237  2.3661 -0.3719
  276TMC3    C7 4229   2.470   2.807  14.984 -0.6944 -0.0747 -0.1350
  276TMC3    C8 4230   2.110   2.553  15.141 -0.6104 -0.3115  0.2576
  276TMC3    O1 4231   2.528   2.765  15.084 -0.5281  0.5115  0.6408
  276TMC3    O2 4232   2.081   2.641  15.217  0.2535  0.1411 -0.1932
  277MPD2     C 4233   3.973   1.633  13.471  1.1349  0.2715 -0.2520
  277MPD2    C1 4234   3.842   1.613  13.518  0.1501  0.2609  0.3048
  277MPD2    C2 4235   3.824   1.539  13.634 -0.1759 -0.0155  0.3924
  277MPD2    C3 4236   3.935   1.485  13.698 -0.4950 -0.9400  0.2791
  277MPD2    C4 4237   4.062   1.507  13.655  0.5963 -0.5969  0.4447
  277MPD2    C5 4238   4.079   1.576  13.535 -1.2124  0.3561 -0.0904
  277MPD2     H 4239   3.725   1.508  13.666 -0.7135 -0.4244 -1.6561
  277MPD2    H1 4240   4.152   1.471  13.705  1.2431 -0.7794 -0.8654
  277MPD2    H2 4241   3.988   1.696  13.384 -0.3285  0.6181 -0.2602
  277MPD2    H3 4242   4.175   1.594  13.489 -1.3432  1.9277  0.2860
  277MPD2     N 4243   3.896   1.420  13.814  0.3288 -0.2992 -0.2674
  277MPD2    H5 4244   3.800   1.394  13.831  0.1742  0.6837  0.3931
  277MPD2    N1 4245   3.734   1.680  13.450 -0.5403 -0.2265  0.8744
  277MPD2    H7 4246   3.756   1.721  13.359  0.9358 -0.7920  0.9700
  278TMC3    C1 4247   3.915   1.321  14.024 -0.0266 -0.2983  0.2172
  278TMC3    C2 4248   3.917   1.179  14.019 -0.4627  0.4275 -0.1222
  278TMC3    C3 4249   3.793   1.116  14.043  0.0239 -0.1245  0.6059
  278TMC3    C4 4250   3.800   1.389  14.058 -0.3005 -0.3417 -0.1706
  278TMC3    C5 4251   3.680   1.320  14.055  0.3130  0.5168  0.2698
  278TMC3    C6 4252   3.671   1.182  14.052  0.1345 -0.1124  0.0361
  278TMC3     C 4253   3.990   1.376  13.911 -0.2255  0.0500 -0.0596
  278TMC3     O 4254   4.109   1.396  13.927 -0.1291 -0.2080  0.0390
  278TMC3     H 4255   4.004   1.128  13.979  2.7810  3.7088  2.8485
  278TMC3    H1 4256   3.790   1.494  14.033  2.8542  0.4732  2.0577
  278TMC3    H2 4257   3.581   1.126  14.073  0.5102 -0.6034  0.3499
  278TMC3    C7 4258   3.560   1.401  14.085  0.3379 -0.8070  0.4401
  278TMC3    C8 4259   3.793   0.971  14.011 -0.2454  0.5143 -0.4602
  278TMC3    O1 4260   3.578   1.514  14.137 -0.2430 -0.5398  0.4244
  278TMC3    O2 4261   3.892   0.908  14.046 -0.0144 -0.3606  0.5190
  279MPD2     C 4262   2.894   1.188   0.193 -0.4686  0.3342  0.3058
  279MPD2    C1 4263   2.845   1.310   0.165 -0.1473 -0.3199  0.5210
  279MPD2    C2 4264   2.907   1.371   0.054 -0.3318 -0.1157  0.5824
  279MPD2    C3 4265   3.000   1.306  17.736  0.2351 -0.6767 -0.4297
  279MPD2    C4 4266   3.038   1.175   0.009 -0.1271 -0.3792  0.2220
  279MPD2    C5 4267   2.985   1.121   0.119  0.8181  0.4587  0.0269
  279MPD2     H 4268   2.870   1.469   0.026  2.2837  0.5593 -0.5203
  279MPD2    H1 4269   3.111   1.119  17.712 -0.6972 -0.1335 -0.7373
  279MPD2    H2 4270   2.851   1.124   0.270  2.7761  0.0035  1.8481
  279MPD2    H3 4271   3.017   1.022   0.148 -1.2226 -0.2373 -0.1011
  279MPD2     N 4272   3.056   1.377  17.634 -0.4139  0.4112 -0.3693
  279MPD2    H5 4273   3.147   1.337  17.612  0.1310 -0.4081  3.3076
  279MPD2    N1 4274   2.753   1.368   0.255  0.0571  0.4999 -0.2440
  279MPD2    H7 4275   2.734   1.313   0.339 -2.3627  0.0424 -1.0874
  280TMC3    C1 4276   2.667   1.557   0.361  0.4818  0.0011 -0.2830
  280TMC3    C2 4277   2.764   1.564   0.454 -0.4591 -0.2384 -0.6123
  280TMC3    C3 4278   2.767   1.673   0.531  0.6822  0.1010 -0.3091
  280TMC3    C4 4279   2.580   1.658   0.333 -0.0734  0.3317  0.2504
  280TMC3    C5 4280   2.596   1.772   0.406 -0.7580  0.1723  0.1850
  280TMC3    C6 4281   2.675   1.778   0.515 -0.7024  0.4012  0.2899
  280TMC3     C 4282   2.703   1.492   0.245  0.2892  0.9964 -0.0061
  280TMC3     O 4283   2.717   1.568   0.149  0.4716  0.0990  0.0227
  280TMC3     H 4284   2.841   1.488   0.462  0.0339  0.2846 -0.4590
  280TMC3    H1 4285   2.531   1.657   0.237  0.5778 -1.9997 -0.0748
  280TMC3    H2 4286   2.682   1.872   0.568  0.1102 -0.1620  1.1683
  280TMC3    C7 4287   2.533   1.905   0.370  0.8929  0.0331  0.2513
  280TMC3    C8 4288   2.827   1.657   0.657 -0.4059  0.2532 -0.1900
  280TMC3    O1 4289   2.588   2.006   0.415  0.4379  0.1254  0.3060
  280TMC3    O2 4290   2.772   1.709   0.752  0.7898 -0.1947 -0.0758
  281TMC3    C1 4291   1.366   1.748  13.709  0.0939  0.0209  0.2766
  281TMC3    C2 4292   1.504   1.762  13.690  0.1151 -0.0820  0.1425
  281TMC3    C3 4293   1.580   1.652  13.670  0.0343  0.2516  0.2332
  281TMC3    C4 4294   1.321   1.626  13.739  0.7676 -0.0259  0.9334
  281TMC3    C5 4295   1.406   1.512  13.730  0.1114  0.4646 -0.2469
  281TMC3    C6 4296   1.534   1.520  13.695  0.1713  0.5533  0.2035
  281TMC3     C 4297   1.284   1.866  13.750 -0.9447  0.7398  0.3284
  281TMC3     O 4298   1.167   1.829  13.758  0.1528 -0.3644 -0.3402
  281TMC3     H 4299   1.535   1.859  13.654  2.3848 -0.1949  1.8411
  281TMC3    H1 4300   1.219   1.613  13.774 -0.2091  2.0944 -1.1568
  281TMC3    H2 4301   1.609   1.442  13.688 -1.2957 -0.4540 -3.7861
  281TMC3    C7 4302   1.343   1.385  13.736 -0.7170 -0.6266 -0.1205
  281TMC3    C8 4303   1.687   1.674  13.567 -0.3729 -0.3031 -0.2166
  281TMC3    O1 4304   1.225   1.390  13.771  0.2662 -0.0270  0.0519
  281TMC3    O2 4305   1.707   1.576  13.505  0.7811  0.1930  0.0216
  282MPD2     C 4306   3.608   3.142  14.899 -0.3916 -0.5309 -0.6647
  282MPD2    C1 4307   3.511   3.242  14.892  0.1814  0.1593  0.0808
  282MPD2    C2 4308   3.479   3.299  14.766  0.2427 -0.3810  0.8593
  282MPD2    C3 4309   3.522   3.239  14.646 -0.7920  0.3545 -0.3159
  282MPD2    C4 4310   3.612   3.137  14.660 -0.1063 -0.1882 -0.6510
  282MPD2    C5 4311   3.652   3.093  14.783  0.0222 -0.6383 -0.6558
  282MPD2     H 4312   3.416   3.388  14.762  2.5480  1.2895  1.3774
  282MPD2    H1 4313   3.651   3.090  14.570  1.0759 -0.0681 -0.1960
  282MPD2    H2 4314   3.652   3.098  14.988 -1.1723  1.4077  0.6884
  282MPD2    H3 4315   3.714   3.005  14.787  1.4568  0.3677 -0.9230
  282MPD2     N 4316   3.445   3.270  14.527 -0.1110  0.1531 -0.1321
  282MPD2    H5 4317   3.377   3.346  14.535  0.9890  1.1538 -0.3320
  282MPD2    N1 4318   3.451   3.298  15.004  0.9296 -0.7130 -0.0374
  282MPD2    H7 4319   3.380   3.371  14.997  0.5101 -1.1099  0.1247
  283TMC3    C1 4320   3.371   3.300  15.228  0.0912 -0.7417  0.5056
  283TMC3    C2 4321   3.389   3.438  15.238 -0.7122 -0.4057  0.4001
  283TMC3    C3 4322   3.344   3.499  15.357 -0.2590  0.4729 -0.4749
  283TMC3    C4 4323   3.341   3.221  15.338 -0.1144  0.2283  0.2558
  283TMC3    C5 4324   3.305   3.290  15.449  0.2199 -0.5263 -0.2532
  283TMC3    C6 4325   3.302   3.431  15.464 -0.2283  0.4617  0.3527
  283TMC3     C 4326   3.454   3.240  15.131 -0.2796  0.2261  0.1884
  283TMC3     O 4327   3.516   3.145  15.170  1.1576  0.2557  0.4672
  283TMC3     H 4328   3.412   3.508  15.158  0.1103  0.2945  1.2507
  283TMC3    H1 4329   3.346   3.113  15.330 -0.4768  0.2103  0.2477
  283TMC3    H2 4330   3.262   3.476  15.554 -0.4880 -1.0816  0.9896
  283TMC3    C7 4331   3.213   3.217  15.534 -0.2290 -0.3412 -0.3270
  283TMC3    C8 4332   3.329   3.638  15.359 -0.1434 -0.8222 -1.3207
  283TMC3    O1 4333   3.209   3.255  15.653  0.1018 -1.1058  0.0822
  283TMC3    O2 4334   3.288   3.681  15.256 -0.0303 -0.1835  0.0743
  284MPD2     C 4335   1.505   2.807  12.336  0.5148 -0.0424  0.1351
  284MPD2    C1 4336   1.529   2.792  12.197  0.0964 -0.1932 -0.0745
  284MPD2    C2 4337   1.551   2.670  12.147  0.0576  0.2328  0.6118
  284MPD2    C3 4338   1.555   2.551  12.217 -0.4275 -0.2267  0.4902
  284MPD2    C4 4339   1.527   2.564  12.355  0.0149  0.4612 -0.5832
  284MPD2    C5 4340   1.507   2.694  12.409 -0.0387 -0.3702 -0.6459
  284MPD2     H 4341   1.571   2.664  12.040 -1.3201 -1.4168  0.4423
  284MPD2    H1 4342   1.529   2.477  12.420  0.7235  0.3443 -0.7573
  284MPD2    H2 4343   1.482   2.902  12.381 -0.5551 -0.7372  1.0606
  284MPD2    H3 4344   1.492   2.704  12.516 -2.7331  0.6523 -1.1221
  284MPD2     N 4345   1.592   2.422  12.158  0.7630 -0.1710 -1.0220
  284MPD2    H5 4346   1.591   2.339  12.216  0.3343  1.9526  1.9775
  284MPD2    N1 4347   1.534   2.906  12.107 -0.2195  0.0374  0.5262
  284MPD2    H7 4348   1.544   2.880  12.009 -2.0326 -2.0904  0.9252
  285TMC3    C1 4349   1.535   3.109  11.999  0.5106  0.5238  0.5338
  285TMC3    C2 4350   1.554   3.027  11.883 -0.0092  0.0405 -0.0263
  285TMC3    C3 4351   1.655   3.062  11.798 -0.3771  0.7465  0.0772
  285TMC3    C4 4352   1.614   3.223  12.020 -0.0886  0.2039  0.0250
  285TMC3    C5 4353   1.708   3.251  11.927 -0.2416  0.3944  0.2229
  285TMC3    C6 4354   1.738   3.168  11.823 -0.1918  0.0994  0.3181
  285TMC3     C 4355   1.517   3.040  12.126 -0.6284  0.3576 -0.4836
  285TMC3     O 4356   1.522   3.098  12.234  0.1952 -0.5624 -0.3201
  285TMC3     H 4357   1.495   2.939  11.862 -0.0255 -0.1198  0.7032
  285TMC3    H1 4358   1.584   3.284  12.105 -0.5144  0.8766 -0.6051
  285TMC3    H2 4359   1.813   3.192  11.749 -1.2522 -2.3140 -1.5235
  285TMC3    C7 4360   1.783   3.364  11.948  0.1475 -0.5485 -0.6538
  285TMC3    C8 4361   1.687   2.989  11.680 -0.6471 -0.0158 -0.7534
  285TMC3    O1 4362   1.739   3.468  11.998  0.0219 -0.4115  0.1396
  285TMC3    O2 4363   1.664   2.871  11.681  0.3865 -0.0353 -0.1778
  286MPD2     C 4364   2.200   0.832   1.235 -0.9629  0.7806  0.0457
  286MPD2    C1 4365   2.181   0.771   1.116 -0.2530  0.4791  0.3254
  286MPD2    C2 4366   2.209   0.636   1.102  0.0026  0.0040 -0.5464
  286MPD2    C3 4367   2.257   0.562   1.211  0.1634  0.8163 -0.9032
  286MPD2    C4 4368   2.263   0.627   1.337 -0.1205 -0.5375  0.2323
  286MPD2    C5 4369   2.229   0.759   1.345  0.0689  0.4796  0.2697
  286MPD2     H 4370   2.195   0.597   1.002 -3.9302  0.6806 -0.2613
  286MPD2    H1 4371   2.311   0.585   1.425  1.6921 -0.4118 -0.6925
  286MPD2    H2 4372   2.181   0.938   1.238 -0.9924  0.7520  1.2289
  286MPD2    H3 4373   2.237   0.817   1.436  0.6959 -1.2030  1.3039
  286MPD2     N 4374   2.302   0.431   1.213  0.0677 -0.1996  0.0171
  286MPD2    H5 4375   2.329   0.382   1.297  2.7701 -1.7428 -1.7447
  286MPD2    N1 4376   2.136   0.839   0.994 -0.2919 -0.2396  0.3097
  286MPD2    H7 4377   2.167   0.797   0.907 -0.6820  2.6659 -1.2375
  287TMC3    C1 4378   2.376   0.236   1.129  0.4549 -0.0308 -0.0804
  287TMC3    C2 4379   2.389   0.172   1.013  0.2125 -0.0151 -0.2294
  287TMC3    C3 4380   2.510   0.123   0.977 -0.0832  0.1820 -0.1416
  287TMC3    C4 4381   2.488   0.244   1.216  0.2987  0.1080  0.1895
  287TMC3    C5 4382   2.602   0.181   1.180  0.9017 -0.1784  0.2216
  287TMC3    C6 4383   2.617   0.113   1.058 -0.5427  0.2972 -0.0958
  287TMC3     C 4384   2.312   0.363   1.098  0.6429 -0.3686 -0.4201
  287TMC3     O 4385   2.291   0.384   0.979 -0.0878 -0.2522 -0.4666
  287TMC3     H 4386   2.303   0.154   0.949  0.6683  0.9499 -1.1225
  287TMC3    H1 4387   2.485   0.289   1.314  0.1728 -0.2958  0.3663
  287TMC3    H2 4388   2.713   0.079   1.022 -1.9723 -3.2162 -0.5813
  287TMC3    C7 4389   2.715   0.221   1.259 -0.1702 -0.2499 -0.0409
  287TMC3    C8 4390   2.498   0.039   0.852  0.0262  0.2461 -0.1428
  287TMC3    O1 4391   2.704   0.314   1.338 -0.3128 -0.4230 -0.3385
  287TMC3    O2 4392   2.387   4.735   0.827  0.5361  0.0148  0.4459
  288TMC3    C1 4393   4.365   1.152  14.320  0.2913 -0.1181  0.2717
  288TMC3    C2 4394   4.237   1.182  14.341  0.0587  0.5417 -0.3179
  288TMC3    C3 4395   4.182   1.289  14.275  0.2577  0.1976 -0.7591
  288TMC3    C4 4396   4.442   1.224  14.227 -0.1709 -0.6252  0.6336
  288TMC3    C5 4397   4.383   1.334  14.173 -0.4543 -0.0681  0.6014
  288TMC3    C6 4398   4.256   1.373  14.200 -0.4029  0.0682 -0.6004
  288TMC3     C 4399   4.420   1.034  14.384  0.0567 -0.2329 -0.0640
  288TMC3     O 4400   4.353   0.986  14.476 -0.0155  0.2647  0.2474
  288TMC3     H 4401   4.185   1.125  14.417  0.9648  0.3642  0.1699
  288TMC3    H1 4402   4.542   1.200  14.195 -0.3092  0.9213 -0.9784
  288TMC3    H2 4403   4.204   1.459  14.157 -2.0494 -0.5679  0.1573
  288TMC3    C7 4404   4.462   1.429  14.096  0.1475 -0.1527 -0.4740
  288TMC3    C8 4405   4.056   1.346  14.327 -0.2081 -0.0410  0.5718
  288TMC3    O1 4406   4.576   1.441  14.131  0.2148 -0.1883  0.2951
  288TMC3    O2 4407   4.051   1.468  14.322  0.0810 -0.7928  0.1686
  289MPD2     C 4408   4.142   0.405  14.546 -0.6944 -0.0385 -0.1488
  289MPD2    C1 4409   4.101   0.493  14.447 -0.1057  0.0306 -0.5018
  289MPD2    C2 4410   3.980   0.475  14.393 -0.0212 -0.2413 -0.4354
  289MPD2    C3 4411   3.894   0.377  14.433  0.3478  0.6325 -0.0520
  289MPD2    C4 4412   3.929   0.289  14.532  0.6311  0.3437  0.9913
  289MPD2    C5 4413   4.054   0.307  14.585 -0.0361 -0.3648  0.1716
  289MPD2     H 4414   3.934   0.537  14.317  1.9145 -1.5508 -2.6921
  289MPD2    H1 4415   3.862   0.214  14.573  0.1638 -0.1541 -0.6908
  289MPD2    H2 4416   4.238   0.421  14.594 -1.2380  0.7754  0.6661
  289MPD2    H3 4417   4.094   0.240  14.661  0.7994  0.4369  0.4321
  289MPD2     N 4418   3.767   0.377  14.372 -0.1345  0.1276  0.2496
  289MPD2    H5 4419   3.753   0.453  14.306  4.1430  2.6162  2.2011
  289MPD2    N1 4420   4.194   0.589  14.392  0.4336  0.3215  0.4038
  289MPD2    H7 4421   4.288   0.586  14.432  0.2023 -0.1713  0.9096
  290TMC3    C1 4422   3.557   0.313  14.292 -0.0738 -0.1328  0.1031
  290TMC3    C2 4423   3.519   0.441  14.274 -0.4459 -0.2343  0.8470
  290TMC3    C3 4424   3.409   0.467  14.204  0.1243  1.4700 -0.1402
  290TMC3    C4 4425   3.480   0.209  14.244  0.0603 -0.3575 -0.3034
  290TMC3    C5 4426   3.370   0.242  14.166 -0.2429 -0.3195 -0.9128
  290TMC3    C6 4427   3.333   0.372  14.143  0.0288  0.0637  0.1603
  290TMC3     C 4428   3.665   0.283  14.380  0.6776 -0.1949 -0.2235
  290TMC3     O 4429   3.662   0.176  14.443  0.3087  0.7344  0.2792
  290TMC3     H 4430   3.569   0.524  14.323  1.2767 -0.5462 -0.3949
  290TMC3    H1 4431   3.519   0.110  14.266 -0.4335 -0.8293 -1.5641
  290TMC3    H2 4432   3.243   0.387  14.084  0.5621 -0.6231 -0.8343
  290TMC3    C7 4433   3.297   0.148  14.087  0.1558 -0.4043 -0.1283
  290TMC3    C8 4434   3.405   0.599  14.143 -0.6437  0.2332  0.0690
  290TMC3    O1 4435   3.241   0.198  13.987  0.2281  0.1948  0.0124
  290TMC3    O2 4436   3.403   0.597  14.021 -0.2777 -0.4481 -0.2913
  291MPD2     C 4437   3.586   4.339   0.499  0.4092  0.5639 -0.4331
  291MPD2    C1 4438   3.462   4.301   0.447  0.2466 -0.5274  0.4276
  291MPD2    C2 4439   3.422   4.360   0.326 -0.2119 -0.3248 -0.3951
  291MPD2    C3 4440   3.507   4.442   0.261 -0.3055  0.4846  0.3944
  291MPD2    C4 4441   3.637   4.473   0.308  0.0029 -0.4249 -0.0121
  291MPD2    C5 4442   3.669   4.419   0.433  0.3863 -0.1267 -0.3225
  291MPD2     H 4443   3.324   4.328   0.292 -0.3902  1.1962 -1.2666
  291MPD2    H1 4444   3.701   4.549   0.266  0.7477 -0.9674  0.1557
  291MPD2    H2 4445   3.626   4.317   0.597 -0.5588  1.3224  0.1352
  291MPD2    H3 4446   3.761   4.463   0.470 -2.1583  4.0642  1.0246
  291MPD2     N 4447   3.471   4.499   0.137  0.1459  0.1039 -0.0903
  291MPD2    H5 4448   3.521   4.583   0.110 -0.9129  1.2164  1.4097
  291MPD2    N1 4449   3.363   4.230   0.521 -0.3810 -0.2444 -0.4286
  291MPD2    H7 4450   3.267   4.234   0.489  0.2340 -2.5297 -2.6043
  292TMC3    C1 4451   3.279   4.112   0.708 -0.3334 -0.4740 -0.7842
  292TMC3    C2 4452   3.229   4.143   0.832  0.5634  0.3338 -0.4614
  292TMC3    C3 4453   3.109   4.089   0.863  0.0917 -0.5006 -0.3056
  292TMC3    C4 4454   3.229   4.015   0.621 -0.3275 -0.0048 -0.7816
  292TMC3    C5 4455   3.107   3.963   0.665  0.6781  0.2378  0.3685
  292TMC3    C6 4456   3.046   4.002   0.777  0.2589  0.6846 -0.3651
  292TMC3     C 4457   3.389   4.187   0.654  0.2987  0.0825 -0.4814
  292TMC3     O 4458   3.465   4.229   0.739 -0.3322 -0.3144 -0.0091
  292TMC3     H 4459   3.275   4.229   0.881  0.6581 -0.5203  0.9327
  292TMC3    H1 4460   3.277   3.985   0.529  0.3911 -0.7220 -0.1828
  292TMC3    H2 4461   2.958   3.955   0.818  0.9335  0.1698  0.5006
  292TMC3    C7 4462   3.038   3.901   0.557 -0.5813  0.1274 -0.7733
  292TMC3    C8 4463   3.052   4.134   0.987  0.1115 -0.0617 -0.6191
  292TMC3    O1 4464   3.118   3.849   0.477  0.2856  0.7315 -0.2522
  292TMC3    O2 4465   3.105   4.228   1.049 -0.1455 -0.6256 -0.3016
  293MPD2     C 4466   0.284   1.286  12.833  0.1662 -1.0322 -0.1434
  293MPD2    C1 4467   0.168   1.300  12.907  0.2921 -0.0860 -0.2142
  293MPD2    C2 4468   0.185   1.313  13.044  0.8042  0.0536  0.5938
  293MPD2    C3 4469   0.313   1.322  13.103 -0.4377 -0.3242  0.6232
  293MPD2    C4 4470   0.420   1.315  13.021  0.6001  0.3397  0.4235
  293MPD2    C5 4471   0.407   1.281  12.889 -0.4103  0.9401  0.2885
  293MPD2     H 4472   0.092   1.305  13.099 -0.3458 -0.1831 -1.3895
  293MPD2    H1 4473   0.520   1.331  13.062  1.2591 -2.6788  0.0177
  293MPD2    H2 4474   0.274   1.276  12.725  0.9104 -1.0588 -0.2138
  293MPD2    H3 4475   0.496   1.273  12.828 -1.8673 -1.1548 -1.6013
  293MPD2     N 4476   0.329   1.341  13.248  0.5107 -0.4987 -0.2078
  293MPD2    H5 4477   0.240   1.355  13.295  0.0267  0.5020 -1.4377
  293MPD2    N1 4478   0.042   1.306  12.843  0.2073  0.4762 -0.7529
  293MPD2    H7 4479   0.034   1.310  12.742  0.9571 -0.9141 -0.8673
  294TMC3    C1 4480   4.548   1.268  12.807  0.4430  0.1146  0.2242
  294TMC3    C2 4481   4.440   1.185  12.837 -0.4846  0.2237  0.0693
  294TMC3    C3 4482   4.322   1.209  12.777  1.1625 -0.1449  0.3289
  294TMC3    C4 4483   4.548   1.360  12.704 -0.6546  0.5027 -0.3686
  294TMC3    C5 4484   4.430   1.379  12.645  0.1259 -0.4825  1.0318
  294TMC3    C6 4485   4.319   1.297  12.668 -0.6122 -0.6374  0.5445
  294TMC3     C 4486   4.659   1.281  12.906 -0.2923  0.7577 -0.4760
  294TMC3     O 4487   4.621   1.264  13.022  0.5289  0.2068  0.1184
  294TMC3     H 4488   4.436   1.128  12.929  0.5464  1.4062  0.8373
  294TMC3    H1 4489   4.632   1.429  12.695  0.9681 -1.2600  1.3475
  294TMC3    H2 4490   4.218   1.315  12.633  0.1423  0.5969 -0.9927
  294TMC3    C7 4491   4.419   1.460  12.530 -0.3851 -0.0229 -0.0759
  294TMC3    C8 4492   4.210   1.118  12.790  0.2027  0.5966  0.6044
  294TMC3    O1 4493   4.308   1.483  12.479  0.2031  0.0649  0.1271
  294TMC3    O2 4494   4.195   1.059  12.896  0.8073 -0.4919 -0.2907
  295MPD2     C 4495   0.426   4.454   1.158 -0.2775  0.6252 -0.2030
  295MPD2    C1 4496   0.557   4.429   1.124 -0.0080 -0.0769  0.0028
  295MPD2    C2 4497   0.628   4.350   1.209 -0.6353 -0.3530  0.5439
  295MPD2    C3 4498   0.567   4.300   1.325 -0.6360  0.7221  0.0386
  295MPD2    C4 4499   0.441   4.334   1.358  1.1132 -0.0443 -0.1506
  295MPD2    C5 4500   0.369   4.415   1.277 -0.1663 -0.6870 -0.4178
  295MPD2     H 4501   0.732   4.328   1.189 -0.3276  0.4579  1.2764
  295MPD2    H1 4502   0.403   4.308   1.456  1.1904  1.3431  0.2379
  295MPD2    H2 4503   0.366   4.518   1.093 -1.0586 -0.4887 -0.5753
  295MPD2    H3 4504   0.265   4.430   1.302 -0.1275 -0.1692 -0.5778
  295MPD2     N 4505   0.632   4.217   1.408 -0.4442 -0.2615  0.6046
  295MPD2    H5 4506   0.577   4.170   1.479  0.7471 -0.9882  1.0427
  295MPD2    N1 4507   0.609   4.473   0.995 -0.0917  0.7727 -0.3695
  295MPD2    H7 4508   0.701   4.443   0.964  0.7594  2.0556  0.9106
  296TMC3    C1 4509   0.780   4.050   1.474 -0.5881  0.9887 -0.4173
  296TMC3    C2 4510   0.905   4.017   1.520 -0.2552  0.9508 -0.0482
  296TMC3    C3 4511   0.929   3.905   1.591 -0.0883  1.0173  0.0593
  296TMC3    C4 4512   0.674   3.973   1.514  0.7220  0.5456 -0.3141
  296TMC3    C5 4513   0.704   3.845   1.577 -0.0115 -0.4626 -0.1555
  296TMC3    C6 4514   0.832   3.815   1.618 -0.3811 -0.4231 -0.1877
  296TMC3     C 4515   0.761   4.176   1.402  0.5044  0.3801 -0.8665
  296TMC3     O 4516   0.863   4.224   1.353  0.2397  0.3495 -0.1978
  296TMC3     H 4517   0.982   4.086   1.490 -0.3346  0.8061 -0.6052
  296TMC3    H1 4518   0.575   3.981   1.471  0.2842 -2.7491  0.1237
  296TMC3    H2 4519   0.841   3.746   1.700  1.6524 -0.2205 -0.2262
  296TMC3    C7 4520   0.611   3.734   1.552  0.2823 -0.2069 -0.3116
  296TMC3    C8 4521   1.050   3.899   1.675 -0.6464  0.2341 -0.5359
  296TMC3    O1 4522   0.495   3.776   1.531 -1.0769  0.0562 -0.2800
  296TMC3    O2 4523   1.081   3.796   1.727 -0.1295  0.1537 -0.0380
  297MPD2     C 4524   2.826   2.149  16.031  0.4465  0.6902 -0.0958
  297MPD2    C1 4525   2.814   2.283  16.060 -0.2649  0.7560  0.7621
  297MPD2    C2 4526   2.872   2.335  16.169 -0.6989  0.4433  0.0302
  297MPD2    C3 4527   2.929   2.258  16.271 -0.0649 -0.0941  1.2868
  297MPD2    C4 4528   2.943   2.120  16.249 -0.9749 -0.5977 -0.3682
  297MPD2    C5 4529   2.889   2.075  16.123  0.3347 -0.4209  0.3804
  297MPD2     H 4530   2.875   2.443  16.180  0.4469  0.4146  0.0309
  297MPD2    H1 4531   2.980   2.044  16.317  0.4427  0.6410  0.2423
  297MPD2    H2 4532   2.781   2.100  15.946  0.9483 -1.9113  1.1118
  297MPD2    H3 4533   2.890   1.967  16.113  1.3834 -0.2096 -1.8036
  297MPD2     N 4534   3.001   2.324  16.371  0.3155 -0.2600  0.1186
  297MPD2    H5 4535   3.013   2.424  16.357 -2.2737  0.1052  0.4226
  297MPD2    N1 4536   2.748   2.367  15.973 -0.2348 -0.0169  0.1889
  297MPD2    H7 4537   2.694   2.443  16.014 -3.6745 -1.3296 -1.9781
  298TMC3    C1 4538   2.617   2.384  15.775  0.3027  0.0984 -0.4910
  298TMC3    C2 4539   2.602   2.326  15.651 -0.6615  0.2902 -0.7671
  298TMC3    C3 4540   2.485   2.346  15.589  0.2334  0.6532 -0.1265
  298TMC3    C4 4541   2.513   2.438  15.842 -0.3296 -0.1531 -0.0023
  298TMC3    C5 4542   2.394   2.452  15.772  1.1427 -1.1300 -0.5321
  298TMC3    C6 4543   2.384   2.416  15.641 -0.1543 -0.2404 -0.0865
  298TMC3     C 4544   2.743   2.347  15.835  0.0590  0.6251  0.2665
  298TMC3     O 4545   2.807   2.269  15.764 -0.3718 -0.2428  0.4920
  298TMC3     H 4546   2.690   2.287  15.601 -0.3554  0.7625 -0.5995
  298TMC3    H1 4547   2.516   2.458  15.948 -0.9393 -0.6206  0.1002
  298TMC3    H2 4548   2.296   2.432  15.579 -0.1215 -2.1786 -0.6457
  298TMC3    C7 4549   2.277   2.468  15.853 -0.4981  0.0878 -0.0932
  298TMC3    C8 4550   2.457   2.298  15.454  0.5053  0.3473 -0.9603
  298TMC3    O1 4551   2.279   2.442  15.974 -1.1144 -0.5818 -0.1719
  298TMC3    O2 4552   2.347   2.246  15.447  0.1662  0.2558 -0.5746
  299MPD2     C 4553   3.520   1.868  10.799  0.2441  0.7158  0.0255
  299MPD2    C1 4554   3.518   2.005  10.791 -0.0330 -0.1439 -0.8221
  299MPD2    C2 4555   3.408   2.077  10.733  0.0800  0.0301 -0.5354
  299MPD2    C3 4556   3.307   2.003  10.673  0.6182 -0.4299  0.0120
  299MPD2    C4 4557   3.312   1.863  10.676 -0.6456  0.0855  0.0193
  299MPD2    C5 4558   3.412   1.803  10.751  0.6656  0.0903 -0.1093
  299MPD2     H 4559   3.407   2.185  10.734  0.7248  0.0049  3.5699
  299MPD2    H1 4560   3.235   1.794  10.641  0.8655 -1.3111 -0.5629
  299MPD2    H2 4561   3.601   1.805  10.833  1.5892  1.9113 -0.9722
  299MPD2    H3 4562   3.418   1.694  10.755  1.1231  0.0804 -0.9791
  299MPD2     N 4563   3.191   2.058  10.620 -0.0768 -0.2979  0.3505
  299MPD2    H5 4564   3.124   1.997  10.574 -1.9105  1.8549  0.1465
  299MPD2    N1 4565   3.630   2.072  10.839 -0.3562 -0.3853  0.2341
  299MPD2    H7 4566   3.683   2.015  10.905  1.4710 -0.8169 -1.6317
  300TMC3    C1 4567   3.024   2.220  10.550 -0.1007  0.4769 -0.1107
  300TMC3    C2 4568   2.999   2.347  10.516 -0.1971  0.3626 -0.3787
  300TMC3    C3 4569   2.873   2.402  10.508  0.4329 -0.7153  0.8416
  300TMC3    C4 4570   2.920   2.153  10.596 -0.2529  0.9444  0.4589
  300TMC3    C5 4571   2.794   2.217  10.605 -0.3332  0.6956  0.1336
  300TMC3    C6 4572   2.763   2.340  10.553  0.4749  0.0089  0.1287
  300TMC3     C 4573   3.157   2.195  10.619  0.2107 -0.4535 -0.1442
  300TMC3     O 4574   3.223   2.285  10.659  0.0569 -0.0248  0.3278
  300TMC3     H 4575   3.090   2.404  10.499 -1.4511  2.3075 -0.5399
  300TMC3    H1 4576   2.932   2.058  10.646  1.3761  0.6819 -0.4431
  300TMC3    H2 4577   2.658   2.368  10.549  0.8451  0.9954 -2.9101
  300TMC3    C7 4578   2.702   2.158  10.695  0.4167 -0.0524 -0.3955
  300TMC3    C8 4579   2.862   2.539  10.469 -0.0402 -0.2863  0.1020
  300TMC3    O1 4580   2.731   2.046  10.729  0.4649 -0.1315  0.7686
  300TMC3    O2 4581   2.953   2.606  10.501  0.3963  0.1173 -0.5918
  301MPD2     C 4582   1.176   3.084   1.361 -0.2182 -0.1839  0.1492
  301MPD2    C1 4583   1.069   3.031   1.289  0.5328 -0.6234  0.0018
  301MPD2    C2 4584   1.070   2.898   1.246  0.4243 -0.2841  0.2829
  301MPD2    C3 4585   1.185   2.820   1.280 -0.0759 -0.5629  0.1074
  301MPD2    C4 4586   1.280   2.870   1.365 -0.1192  0.8488 -0.2911
  301MPD2    C5 4587   1.280   3.000   1.394  0.6516  0.0014 -0.5606
  301MPD2     H 4588   0.984   2.859   1.192  0.2568  0.7206 -0.1826
  301MPD2    H1 4589   1.356   2.811   1.415 -1.4482 -0.9510 -0.3689
  301MPD2    H2 4590   1.181   3.186   1.395 -0.4318 -0.0552 -0.2071
  301MPD2    H3 4591   1.368   3.036   1.447 -0.3008  2.0304 -0.3695
  301MPD2     N 4592   1.191   2.687   1.236  0.1250 -0.2615  0.2597
  301MPD2    H5 4593   1.241   2.617   1.291 -2.1157 -2.0376  0.0479
  301MPD2    N1 4594   0.955   3.112   1.261  0.1611 -0.5863  0.0826
  301MPD2    H7 4595   0.882   3.066   1.206  0.7691 -0.4202 -0.8560
  302TMC3    C1 4596   1.122   2.498   1.108  0.6109  0.3800  0.1155
  302TMC3    C2 4597   1.187   2.422   1.200 -0.1451 -0.2429 -1.2061
  302TMC3    C3 4598   1.168   2.281   1.193  0.4815  0.6007 -0.7982
  302TMC3    C4 4599   1.034   2.449   1.011  0.3339 -0.5094  0.1509
  302TMC3    C5 4600   1.016   2.311   1.014 -0.7803  0.4281  0.5682
  302TMC3    C6 4601   1.079   2.227   1.103 -0.3206  0.0875 -0.2315
  302TMC3     C 4602   1.118   2.646   1.127 -0.5526  0.7121 -0.3374
  302TMC3     O 4603   1.075   2.708   1.034  0.1275 -0.0728 -0.3838
  302TMC3     H 4604   1.264   2.454   1.270  0.5079  1.9013 -2.9246
  302TMC3    H1 4605   0.966   2.509   0.951  0.0809 -0.0776  0.8699
  302TMC3    H2 4606   1.043   2.125   1.107  0.7985 -0.2438  1.6255
  302TMC3    C7 4607   0.908   2.247   0.940  0.0781 -0.4105  0.0230
  302TMC3    C8 4608   1.250   2.185   1.267 -0.0797  0.3618  0.0430
  302TMC3    O1 4609   0.927   2.130   0.911  0.1624 -0.1073  0.5862
  302TMC3    O2 4610   1.248   2.072   1.223  0.4096 -0.3408 -0.1228
  303MPD2     C 4611   0.907   2.017  11.035  0.1296  0.1811 -0.0904
  303MPD2    C1 4612   0.783   1.958  11.043  0.0380 -0.9685 -1.2420
  303MPD2    C2 4613   0.712   1.962  10.928  0.2970  0.0850  0.2647
  303MPD2    C3 4614   0.762   2.013  10.807 -0.0597  0.1043  0.0572
  303MPD2    C4 4615   0.889   2.067  10.805 -0.6724  0.7952  0.6847
  303MPD2    C5 4616   0.961   2.070  10.921  0.2057 -0.2078  0.6888
  303MPD2     H 4617   0.612   1.919  10.926  1.4959 -2.7511  2.7904
  303MPD2    H1 4618   0.932   2.108  10.714  0.0693 -0.0245  0.6636
  303MPD2    H2 4619   0.960   2.024  11.129 -0.4946  0.4420  0.2453
  303MPD2    H3 4620   1.066   2.098  10.917 -0.4503  2.0533 -0.7744
  303MPD2     N 4621   0.690   2.010  10.683  0.4565  0.1641  0.0162
  303MPD2    H5 4622   0.727   2.053  10.598 -3.3662  0.9775 -1.2458
  303MPD2    N1 4623   0.741   1.896  11.164 -0.1221  0.0084 -0.3956
  303MPD2    H7 4624   0.817   1.888  11.231 -0.9428 -1.2589  0.3917
  304TMC3    C1 4625   0.603   1.802  11.329  0.2614 -0.1907 -0.3843
  304TMC3    C2 4626   0.488   1.824  11.403 -0.0159  0.0053 -0.2622
  304TMC3    C3 4627   0.457   1.729  11.496 -0.5825  0.1622  0.0255
  304TMC3    C4 4628   0.688   1.699  11.348 -0.0575 -0.7284 -0.0206
  304TMC3    C5 4629   0.651   1.601  11.433  0.7642  0.0464 -0.1081
  304TMC3    C6 4630   0.542   1.622  11.516  0.3199  0.2898 -0.4098
  304TMC3     C 4631   0.613   1.859  11.199  0.0594 -0.6704 -0.3090
  304TMC3     O 4632   0.511   1.851  11.128 -0.6771  0.3849  0.3364
  304TMC3     H 4633   0.423   1.911  11.399 -0.1283 -0.0612  0.1048
  304TMC3    H1 4634   0.747   1.678  11.260  0.3212 -1.9999  0.5377
  304TMC3    H2 4635   0.520   1.540  11.584 -1.7028  0.1530 -1.2484
  304TMC3    C7 4636   0.649   1.466  11.370 -0.2327 -0.1244  0.1986
  304TMC3    C8 4637   0.318   1.691  11.497  0.2793  0.9567  0.0538
  304TMC3    O1 4638   0.542   1.413  11.391 -0.3585 -0.1364 -1.0015
  304TMC3    O2 4639   0.241   1.784  11.519 -0.5075 -0.3698 -0.2009
  305MPD2     C 4640   3.298   3.684  13.933 -1.0058  0.1072  0.2954
  305MPD2    C1 4641   3.361   3.571  13.972  0.5764  0.0969 -0.1248
  305MPD2    C2 4642   3.329   3.451  13.910  0.4008  0.2822  0.7559
  305MPD2    C3 4643   3.254   3.451  13.790 -0.1544  0.6036  0.0585
  305MPD2    C4 4644   3.215   3.571  13.735 -0.2123  0.4598 -0.5706
  305MPD2    C5 4645   3.236   3.686  13.805  0.2664 -0.5627 -0.3624
  305MPD2     H 4646   3.362   3.365  13.967  1.9977  1.1079  1.0562
  305MPD2    H1 4647   3.172   3.575  13.636  0.4372  2.7757 -0.7532
  305MPD2    H2 4648   3.306   3.773  13.993  2.3634  1.8329 -2.7169
  305MPD2    H3 4649   3.177   3.765  13.761  0.6559 -0.6030 -0.9522
  305MPD2     N 4650   3.223   3.346  13.715 -0.1671 -0.0973 -0.2137
  305MPD2    H5 4651   3.178   3.353  13.624  1.0226 -0.1580 -0.7966
  305MPD2    N1 4652   3.450   3.581  14.081  0.4676  0.2765  0.0031
  305MPD2    H7 4653   3.459   3.669  14.130  2.6349 -0.4516  0.9162
  306TMC3    C1 4654   3.632   3.515  14.220  0.0389  0.2718 -0.1107
  306TMC3    C2 4655   3.736   3.432  14.219 -0.2738  0.5668 -0.1076
  306TMC3    C3 4656   3.788   3.409  14.341  0.0455 -0.2190  0.5951
  306TMC3    C4 4657   3.578   3.575  14.333 -0.5868  0.1893  0.4346
  306TMC3    C5 4658   3.641   3.556  14.453 -0.0421 -0.2202 -0.4539
  306TMC3    C6 4659   3.750   3.475  14.453 -0.0784 -0.0912 -0.4638
  306TMC3     C 4660   3.542   3.485  14.113 -0.5482 -0.7954 -0.5797
  306TMC3     O 4661   3.565   3.377  14.062 -0.9081  0.3798 -0.2203
  306TMC3     H 4662   3.771   3.388  14.126  2.0225  0.9765  0.5636
  306TMC3    H1 4663   3.487   3.634  14.323 -1.4161 -1.3553 -1.1028
  306TMC3    H2 4664   3.773   3.438  14.552 -2.0208 -1.4353 -0.5329
  306TMC3    C7 4665   3.587   3.626  14.567  0.3654 -0.0366  0.6886
  306TMC3    C8 4666   3.862   3.289  14.349  0.4610  0.1770 -0.2617
  306TMC3    O1 4667   3.486   3.696  14.549  0.6252 -0.2873  1.1004
  306TMC3    O2 4668   3.852   3.207  14.257 -0.0575  0.6760 -0.0505
  307MPD2     C 4669   1.661   1.146   0.392 -0.1390 -0.1354  0.3327
  307MPD2    C1 4670   1.612   1.276   0.391  0.6504 -0.2336 -0.2647
  307MPD2    C2 4671   1.602   1.346   0.515 -0.1791 -0.2788  0.4459
  307MPD2    C3 4672   1.643   1.292   0.637  0.1917  0.2899 -0.1046
  307MPD2    C4 4673   1.708   1.168   0.627 -0.4871 -0.6441  0.2826
  307MPD2    C5 4674   1.718   1.098   0.508  0.3584 -0.0593  0.3105
  307MPD2     H 4675   1.566   1.448   0.513  1.8997  0.4299  0.1123
  307MPD2    H1 4676   1.756   1.117   0.710  1.2002  0.0002 -0.2907
  307MPD2    H2 4677   1.666   1.081   0.306 -1.5151  0.2357 -0.0348
  307MPD2    H3 4678   1.771   1.004   0.500 -0.4718 -0.6559  1.8604
  307MPD2     N 4679   1.628   1.364   0.765  0.4083  0.3231  0.3260
  307MPD2    H5 4680   1.577   1.450   0.751  1.5030  1.0655  0.9367
  307MPD2    N1 4681   1.570   1.335   0.275 -0.6173 -0.3945  0.0461
  307MPD2    H7 4682   1.567   1.436   0.273  0.9370 -0.2814  3.1128
  308TMC3    C1 4683   1.392   1.404   1.142  0.6508 -0.3975 -0.1081
  308TMC3    C2 4684   1.396   1.539   1.143  0.1518  0.1245 -0.0660
  308TMC3    C3 4685   1.488   1.601   1.062  0.3536 -0.1725  0.2062
  308TMC3    C4 4686   1.476   1.326   1.063  0.2799 -0.0744  0.3139
  308TMC3    C5 4687   1.566   1.393   0.985 -0.0147 -0.5403  0.0391
  308TMC3    C6 4688   1.565   1.532   0.978 -0.0156 -0.4910 -0.5024
  308TMC3     C 4689   1.263   1.344   1.163 -0.6107 -0.1127 -1.2472
  308TMC3     O 4690   1.254   1.222   1.161 -0.5018 -0.1258 -0.0579
  308TMC3     H 4691   1.333   1.595   1.212  0.5253  2.2480 -1.4510
  308TMC3    H1 4692   1.471   1.218   1.061  0.6021 -0.0606 -0.8718
  308TMC3    H2 4693   1.630   1.593   0.917 -1.2907 -0.0646 -1.4425
  308TMC3    C7 4694   1.640   1.312   0.892 -0.4186 -0.4176  0.1238
  308TMC3    C8 4695   1.502   1.743   1.090  0.0964  0.5796  0.1190
  308TMC3    O1 4696   1.672   1.198   0.930  0.1276  0.0572 -0.5518
  308TMC3    O2 4697   1.471   1.777   1.202 -0.2103  0.2707  0.1593
  309MPD2     C 4698   0.410   1.257  17.305 -0.6464 -1.4167  0.1928
  309MPD2    C1 4699   0.456   1.388  17.330  0.0581 -0.0204  0.2425
  309MPD2    C2 4700   0.367   1.481  17.390 -0.3135 -0.2963 -0.2823
  309MPD2    C3 4701   0.246   1.433  17.440  0.0509 -0.0846  0.5609
  309MPD2    C4 4702   0.206   1.306  17.407 -0.0673  0.6954 -0.7134
  309MPD2    C5 4703   0.288   1.224  17.340  0.1728  0.1692 -0.1641
  309MPD2     H 4704   0.392   1.587  17.387  1.3722 -0.7065 -0.8264
  309MPD2    H1 4705   0.110   1.263  17.433 -0.2621 -0.0309 -2.5813
  309MPD2    H2 4706   0.462   1.182  17.246  1.2546 -0.0659  0.1726
  309MPD2    H3 4707   0.261   1.126  17.303 -2.5369  0.5889  0.6715
  309MPD2     N 4708   0.159   1.522  17.503  0.6185 -0.1703 -0.0310
  309MPD2    H5 4709   0.070   1.482  17.533  0.1818 -0.4603 -1.6784
  309MPD2    N1 4710   0.579   1.439  17.283  0.5966  0.1582  0.1916
  309MPD2    H7 4711   0.590   1.540  17.282 -0.3980  0.2829  1.2148
  310TMC3    C1 4712   0.776   1.432  17.151  0.2329  0.2372 -1.2128
  310TMC3    C2 4713   0.729   1.536  17.075  0.2538 -0.3222  0.1340
  310TMC3    C3 4714   0.805   1.579  16.969  0.2820  0.5589  0.2298
  310TMC3    C4 4715   0.892   1.366  17.124 -0.2472  0.3563 -0.3504
  310TMC3    C5 4716   0.962   1.401  17.011 -0.7604 -0.9019  0.1524
  310TMC3    C6 4717   0.912   1.506  16.932  0.6282 -0.1420 -0.2310
  310TMC3     C 4718   0.682   1.357  17.236 -0.0954  0.2158  0.3419
  310TMC3     O 4719   0.708   1.240  17.252 -0.0036  0.0350 -0.1087
  310TMC3     H 4720   0.630   1.577  17.090  1.9083  2.1844  4.0727
  310TMC3    H1 4721   0.918   1.272  17.172 -0.8169 -0.2649 -1.2449
  310TMC3    H2 4722   0.959   1.528  16.837 -0.3114  1.2672 -0.3739
  310TMC3    C7 4723   1.051   1.302  16.948 -0.0247 -0.0222  0.2043
  310TMC3    C8 4724   0.730   1.654  16.872 -0.6175  0.1461 -0.6915
  310TMC3    O1 4725   1.072   1.310  16.829 -0.4677  0.1510  0.5931
  310TMC3    O2 4726   0.608   1.641  16.867 -0.2207 -0.0277  0.2731
  311MPD2     C 4727   2.504   3.163  12.351 -0.2442 -0.2509  0.1981
  311MPD2    C1 4728   2.503   3.275  12.438 -0.7344  0.2713  0.4004
  311MPD2    C2 4729   2.417   3.271  12.540  0.0137 -0.3521 -0.3944
  311MPD2    C3 4730   2.328   3.161  12.561  0.7225 -0.4222 -0.3033
  311MPD2    C4 4731   2.330   3.055  12.479 -0.3229  0.2757 -0.3134
  311MPD2    C5 4732   2.411   3.059  12.364  0.5712 -0.4476 -0.4743
  311MPD2     H 4733   2.417   3.357  12.606  2.5270  0.9280 -2.0939
  311MPD2    H1 4734   2.272   2.964  12.489 -1.9897  1.3685 -0.0571
  311MPD2    H2 4735   2.555   3.168  12.255  0.2541  2.1484  0.6028
  311MPD2    H3 4736   2.421   2.977  12.295  2.4578  0.1720 -0.9581
  311MPD2     N 4737   2.243   3.168  12.674  0.2385 -0.4061  0.0575
  311MPD2    H5 4738   2.245   3.254  12.727 -0.9274 -1.2867  1.5428
  311MPD2    N1 4739   2.597   3.378  12.435  0.1481 -0.0465  0.6440
  311MPD2    H7 4740   2.597   3.446  12.510 -2.7512  0.3743  0.2706
  312TMC3    C1 4741   2.156   3.073  12.875 -0.4866  0.8840 -0.2049
  312TMC3    C2 4742   2.040   3.013  12.920  0.0799  0.3467 -0.4539
  312TMC3    C3 4743   1.994   3.041  13.047 -0.3650 -0.2983  0.5301
  312TMC3    C4 4744   2.222   3.167  12.943  0.0597 -0.3073  0.4848
  312TMC3    C5 4745   2.180   3.184  13.075  0.8802  0.4805 -0.4112
  312TMC3    C6 4746   2.069   3.126  13.124 -0.0537  0.0274 -0.6820
  312TMC3     C 4747   2.183   3.055  12.731  0.3265 -0.2911 -0.6584
  312TMC3     O 4748   2.132   2.964  12.671 -0.5674  0.1105  0.1982
  312TMC3     H 4749   1.980   2.954  12.852 -0.9243  1.3135 -0.4007
  312TMC3    H1 4750   2.317   3.206  12.909 -0.1897 -0.1589 -0.0432
  312TMC3    H2 4751   2.026   3.145  13.222  0.2467  1.6295 -0.8553
  312TMC3    C7 4752   2.253   3.285  13.156  0.1287 -0.0218  0.0302
  312TMC3    C8 4753   1.883   2.963  13.105 -0.7135  0.3359  0.0163
  312TMC3    O1 4754   2.326   3.355  13.085 -0.2699  0.1256 -0.3262
  312TMC3    O2 4755   1.829   2.890  13.026  0.1506  0.1510 -0.1256
  313MPD2     C 4756   1.296   3.193  11.386  0.5007 -0.6867 -0.6772
  313MPD2    C1 4757   1.387   3.248  11.305  0.1248  0.5335  0.0478
  313MPD2    C2 4758   1.471   3.166  11.237  0.4129 -0.3736 -0.2867
  313MPD2    C3 4759   1.458   3.025  11.241  0.0736  0.4400 -0.0166
  313MPD2    C4 4760   1.355   2.966  11.313 -0.0836 -0.0626 -0.3555
  313MPD2    C5 4761   1.283   3.060  11.382 -0.0742  0.6147 -0.1343
  313MPD2     H 4762   1.540   3.208  11.164 -2.2499  1.2127 -1.8568
  313MPD2    H1 4763   1.330   2.861  11.308  0.5887 -0.1344 -2.3399
  313MPD2    H2 4764   1.241   3.250  11.459  2.0064  2.1338 -1.7159
  313MPD2    H3 4765   1.204   3.029  11.449  0.5100  1.7727  1.1116
  313MPD2     N 4766   1.551   2.958  11.166  0.0231 -0.6628  0.9373
  313MPD2    H5 4767   1.611   3.017  11.109 -0.5558  0.7287  1.7726
  313MPD2    N1 4768   1.410   3.382  11.301 -0.0354 -0.3206 -0.6208
  313MPD2    H7 4769   1.499   3.403  11.258 -0.1230  0.5986 -0.3683
  314TMC3    C1 4770   1.395   3.605  11.358 -0.9342  0.4322  0.0615
  314TMC3    C2 4771   1.528   3.606  11.399 -0.2686 -0.2305  0.1470
  314TMC3    C3 4772   1.601   3.722  11.382 -0.0168  0.6542 -0.3002
  314TMC3    C4 4773   1.335   3.725  11.312 -0.5444  0.1313  0.1344
  314TMC3    C5 4774   1.416   3.829  11.287  0.9942  0.3694  0.0688
  314TMC3    C6 4775   1.547   3.837  11.329 -0.3275 -0.1733  0.7489
  314TMC3     C 4776   1.332   3.479  11.356  0.1537  0.2783  0.3144
  314TMC3     O 4777   1.216   3.470  11.387  0.3547 -0.2507  0.1348
  314TMC3     H 4778   1.583   3.518  11.431 -1.5198  0.0963  3.2224
  314TMC3    H1 4779   1.235   3.730  11.271 -0.0388 -0.1836 -1.1548
  314TMC3    H2 4780   1.611   3.922  11.309 -1.8858  0.9805  0.6804
  314TMC3    C7 4781   1.393   3.883  11.158 -0.4782  0.2308 -0.3129
  314TMC3    C8 4782   1.746   3.724  11.412 -0.0632 -0.2612 -0.2684
  314TMC3    O1 4783   1.280   3.915  11.129 -0.4242 -0.2061  0.3096
  314TMC3    O2 4784   1.810   3.820  11.361 -0.3266  0.3213 -0.4705
  315MPD2     C 4785   1.839   1.346  17.490  0.4157  0.2197  0.3748
  315MPD2    C1 4786   1.915   1.415  17.589 -0.0175 -0.0323  0.2504
  315MPD2    C2 4787   1.948   1.550  17.563  0.1861 -0.2114  0.3211
  315MPD2    C3 4788   1.913   1.615  17.449  0.1880 -0.4403 -0.5026
  315MPD2    C4 4789   1.838   1.545  17.355  0.1763  0.1134 -0.1394
  315MPD2    C5 4790   1.809   1.413  17.377 -0.2856 -0.2137  0.8272
  315MPD2     H 4791   2.015   1.597  17.634  2.2447 -2.2723 -0.2637
  315MPD2    H1 4792   1.818   1.583  17.256 -1.4005 -0.0553  0.1152
  315MPD2    H2 4793   1.824   1.239  17.499  4.0180 -0.2584  0.7188
  315MPD2    H3 4794   1.767   1.362  17.291  1.3036  2.8829 -1.8029
  315MPD2     N 4795   1.958   1.751  17.433 -0.4716  0.6689 -0.8393
  315MPD2    H5 4796   2.000   1.801  17.510 -1.0679 -0.1979  0.0478
  315MPD2    N1 4797   1.945   1.357  17.709 -0.5170 -0.1384  0.3273
  315MPD2    H7 4798   2.021   1.397   0.002 -1.2137  0.0871  1.1382
  316TMC3    C1 4799   1.975   1.963  17.333 -0.2283 -0.0839  0.3065
  316TMC3    C2 4800   2.024   2.014  17.460 -0.1306  0.3027  0.7962
  316TMC3    C3 4801   2.099   2.125  17.454  0.6967 -0.5372 -0.6476
  316TMC3    C4 4802   2.006   2.028  17.214  0.2255 -0.1088 -0.4567
  316TMC3    C5 4803   2.100   2.131  17.220  0.0849 -0.3367  0.4012
  316TMC3    C6 4804   2.146   2.181  17.341  0.6864 -0.0932  0.2723
  316TMC3     C 4805   1.941   1.820  17.315  0.3966 -0.4684  0.1849
  316TMC3     O 4806   1.927   1.780  17.202  0.3472  0.7811 -0.0491
  316TMC3     H 4807   1.988   1.985  17.558  1.5420  0.1489  1.3617
  316TMC3    H1 4808   1.996   1.975  17.120 -2.0874 -2.2884  1.0105
  316TMC3    H2 4809   2.224   2.256  17.349 -0.1006  0.7061  0.4456
  316TMC3    C7 4810   2.166   2.191  17.109  0.2059  0.1261  0.8352
  316TMC3    C8 4811   2.152   2.178  17.581 -0.3388  0.3358 -0.6395
  316TMC3    O1 4812   2.272   2.250  17.126 -0.4121 -0.2113  0.2617
  316TMC3    O2 4813   2.174   2.299  17.577  0.2234  0.5122 -0.1990
  317MPD2     C 4814   3.564   0.478  13.157  0.5509  0.0494 -0.0805
  317MPD2    C1 4815   3.586   0.343  13.122 -0.1170  0.3431 -0.3022
  317MPD2    C2 4816   3.640   0.254  13.214  0.0366 -0.2462  0.5247
  317MPD2    C3 4817   3.674   0.301  13.335 -0.0982 -0.6426  0.2248
  317MPD2    C4 4818   3.668   0.434  13.364 -0.4279 -0.3945 -0.0648
  317MPD2    C5 4819   3.621   0.517  13.278  0.0101  0.6446  0.5459
  317MPD2     H 4820   3.651   0.149  13.190  1.8512 -0.6276  2.9995
  317MPD2    H1 4821   3.699   0.479  13.458 -0.1491 -0.2543 -0.2223
  317MPD2    H2 4822   3.538   0.557  13.087  0.0412  1.7180  2.0084
  317MPD2    H3 4823   3.628   0.624  13.294 -0.6976  0.7567  0.0600
  317MPD2     N 4824   3.719   0.207  13.427 -0.1898 -0.1141 -0.0744
  317MPD2    H5 4825   3.742   0.114  13.392  0.6795 -1.1057  3.1814
  317MPD2    N1 4826   3.564   0.292  12.993 -0.4747  0.5553 -0.1826
  317MPD2    H7 4827   3.588   0.195  12.977  2.2525  1.2906 -0.4054
  318TMC3    C1 4828   3.786   0.118  13.619 -0.1454 -0.5301  0.1485
  318TMC3    C2 4829   3.699   0.016  13.597 -0.0086 -0.5216 -0.0949
  318TMC3    C3 4830   3.740   4.634  13.638  0.1229  0.0521 -0.8233
  318TMC3    C4 4831   3.900   0.110  13.689  0.0319  0.3874  0.1732
  318TMC3    C5 4832   3.941   4.727  13.726 -0.4744  0.1836  0.2832
  318TMC3    C6 4833   3.856   4.616  13.708 -0.4321  0.6237  0.3162
  318TMC3     C 4834   3.771   0.238  13.551  0.5659  0.4355 -1.0387
  318TMC3     O 4835   3.804   0.343  13.596  0.3084 -0.1267  0.0108
  318TMC3     H 4836   3.617   0.029  13.527  0.2670 -2.3723 -0.7549
  318TMC3    H1 4837   3.951   0.200  13.722 -1.0096  0.3183  1.9941
  318TMC3    H2 4838   3.879   4.514  13.737  0.4987  0.5780 -0.5862
  318TMC3    C7 4839   4.076   4.717  13.780  0.2762 -0.0409 -0.1097
  318TMC3    C8 4840   3.694   4.530  13.550  0.2749 -0.3829  1.0209
  318TMC3    O1 4841   4.122   0.074  13.836 -0.2705  0.0660 -0.7800
  318TMC3    O2 4842   3.756   4.426  13.541 -0.2067  0.0767 -0.0803
  319MPD2     C 4843   0.371   0.960  16.798  0.1498 -0.3881 -0.3743
  319MPD2    C1 4844   0.302   0.874  16.878 -0.4547  0.0848  0.3584
  319MPD2    C2 4845   0.182   0.817  16.829 -0.2427 -0.4777  0.0333
  319MPD2    C3 4846   0.130   0.851  16.712 -0.5347  0.2188  0.1560
  319MPD2    C4 4847   0.197   0.938  16.630 -0.4320  0.1598  0.6956
  319MPD2    C5 4848   0.321   0.986  16.672 -0.5098 -0.2564 -0.0202
  319MPD2     H 4849   0.120   0.754  16.893 -0.3516 -0.3223  0.0798
  319MPD2    H1 4850   0.156   0.968  16.534 -2.9512  1.0882  2.0522
  319MPD2    H2 4851   0.469   0.995  16.829  0.3244 -0.5428 -0.7531
  319MPD2    H3 4852   0.367   1.065  16.615  1.3066 -1.0292  0.3894
  319MPD2     N 4853   4.735   0.819  16.681 -1.0947 -0.2467  0.2526
  319MPD2    H5 4854   4.696   0.853  16.593  2.8760  2.5576 -0.4256
  319MPD2    N1 4855   0.333   0.846  17.012 -0.1162 -0.4336 -0.0354
  319MPD2    H7 4856   0.291   0.767  17.058  1.5250 -1.9093 -1.0713
  320TMC3    C1 4857   4.518   0.743  16.693  0.1726  0.7007 -0.3166
  320TMC3    C2 4858   4.478   0.838  16.599  0.2311  0.0761  0.8108
  320TMC3    C3 4859   4.356   0.834  16.552 -0.6425  0.2850 -0.9104
  320TMC3    C4 4860   4.423   0.655  16.748  0.6654  0.2158  0.1155
  320TMC3    C5 4861   4.295   0.650  16.688 -0.1324  0.3761  0.7200
  320TMC3    C6 4862   4.258   0.743  16.589  0.2136 -0.2251  0.6611
  320TMC3     C 4863   4.649   0.744  16.755  0.3278 -0.2047  0.3907
  320TMC3     O 4864   4.662   0.682  16.859  0.0101 -0.1704 -0.7041
  320TMC3     H 4865   4.543   0.920  16.571  0.9278 -0.3893  1.0473
  320TMC3    H1 4866   4.458   0.594  16.831 -1.2126 -1.4272 -0.3022
  320TMC3    H2 4867   4.157   0.746  16.551  0.6902 -0.1017 -0.5942
  320TMC3    C7 4868   4.208   0.536  16.693 -0.1800 -0.1611  0.8312
  320TMC3    C8 4869   4.318   0.951  16.468  0.0928  0.3279  0.0407
  320TMC3    O1 4870   4.097   0.537  16.643  0.9387  0.1069  0.1567
  320TMC3    O2 4871   4.396   1.044  16.461  0.4745 -0.0890  0.3979
  321TMC3    C1 4872   0.463   0.866  17.214 -0.2775 -0.6099 -0.2459
  321TMC3    C2 4873   0.417   0.740  17.249 -0.0839 -0.2809 -0.6059
  321TMC3    C3 4874   0.484   0.680  17.359 -0.1532  0.4048 -0.6406
  321TMC3    C4 4875   0.575   0.926  17.270  0.3785  0.1041 -0.0299
  321TMC3    C5 4876   0.648   0.852  17.359 -0.5977 -0.5797 -0.3860
  321TMC3    C6 4877   0.608   0.727  17.396  0.3524 -0.0248 -0.6577
  321TMC3     C 4878   0.417   0.924  17.089  0.3481 -0.3741  0.5600
  321TMC3     O 4879   0.457   1.036  17.058 -0.0510  0.9197 -0.1887
  321TMC3     H 4880   0.322   0.705  17.211 -0.4618  0.9305 -0.7797
  321TMC3    H1 4881   0.620   1.016  17.228 -3.4991  1.9126 -0.3709
  321TMC3    H2 4882   0.674   0.666  17.456  0.3979  0.6114 -0.0617
  321TMC3    C7 4883   0.698   0.920  17.473 -0.0221 -0.0182  0.1000
  321TMC3    C8 4884   0.399   0.639  17.471  0.7017  0.5399 -0.1370
  321TMC3    O1 4885   0.700   0.849  17.576 -0.5677  0.1087  0.0661
  321TMC3    O2 4886   0.284   0.606  17.447 -0.1219  0.4760  0.0442
  322MPD2     C 4887   3.234   2.703  13.929 -0.2042 -0.2359  0.1402
  322MPD2    C1 4888   3.314   2.637  14.020  0.1450  0.3435 -0.2124
  322MPD2    C2 4889   3.303   2.500  14.031 -0.6163  0.6347 -1.0927
  322MPD2    C3 4890   3.235   2.420  13.943 -0.7318 -0.1621  0.0211
  322MPD2    C4 4891   3.162   2.487  13.845  0.4302  0.0540 -0.0175
  322MPD2    C5 4892   3.155   2.626  13.847 -0.0390  0.1363 -0.0120
  322MPD2     H 4893   3.362   2.444  14.104 -0.2977  0.2624 -1.6375
  322MPD2    H1 4894   3.106   2.434  13.769  0.0257 -1.3682  1.2732
  322MPD2    H2 4895   3.236   2.811  13.918 -0.6331 -0.2728 -0.3217
  322MPD2    H3 4896   3.095   2.673  13.770 -0.0282  1.9062  1.0590
  322MPD2     N 4897   3.234   2.279  13.960 -0.2508 -0.2941  0.5504
  322MPD2    H5 4898   3.311   2.240  14.013 -0.7873 -2.2396 -0.0896
  322MPD2    N1 4899   3.410   2.713  14.089  0.1773  0.0582 -0.7079
  322MPD2    H7 4900   3.413   2.811  14.063 -1.1551  1.1268  3.1062
  323TMC3    C1 4901   3.560   2.771  14.252 -0.0786  0.0293  0.6744
  323TMC3    C2 4902   3.659   2.819  14.169  0.2512  0.0859 -0.1530
  323TMC3    C3 4903   3.773   2.862  14.232 -0.0127  0.1335 -0.1469
  323TMC3    C4 4904   3.576   2.750  14.390 -0.4034  0.9626 -0.1148
  323TMC3    C5 4905   3.707   2.773  14.442 -0.2947  0.4142  0.7006
  323TMC3    C6 4906   3.801   2.829  14.359 -0.1753 -0.3219  0.3398
  323TMC3     C 4907   3.469   2.675  14.200 -0.6823  0.1038  0.0038
  323TMC3     O 4908   3.445   2.580  14.279  0.1420  0.1736  0.1721
  323TMC3     H 4909   3.639   2.824  14.062  0.2302  0.0202 -0.1523
  323TMC3    H1 4910   3.492   2.711  14.445  0.9823  0.4729  1.6618
  323TMC3    H2 4911   3.899   2.839  14.405 -0.3475  1.1964  0.3607
  323TMC3    C7 4912   3.746   2.701  14.558  0.3348 -0.3590  0.0148
  323TMC3    C8 4913   3.878   2.895  14.137  0.3308  0.0585 -0.1639
  323TMC3    O1 4914   3.682   2.602  14.590  0.3790  0.2318  0.3791
  323TMC3    O2 4915   3.991   2.870  14.169 -0.2131  0.0887 -0.2437
  324MPD2     C 4916   0.381   3.518  14.654 -0.8110 -0.1369  0.1293
  324MPD2    C1 4917   0.399   3.654  14.622  0.5018 -1.1767 -0.7811
  324MPD2    C2 4918   0.319   3.708  14.521 -0.7925 -0.0153 -0.5629
  324MPD2    C3 4919   0.222   3.635  14.451  0.7054 -0.2177 -0.1123
  324MPD2    C4 4920   0.198   3.512  14.493 -0.1878 -0.1322 -0.0378
  324MPD2    C5 4921   0.283   3.451  14.581  0.5073 -0.4353 -0.2416
  324MPD2     H 4922   0.336   3.814  14.504 -2.0865  0.4726  1.2149
  324MPD2    H1 4923   0.126   3.455  14.435  0.5505 -0.8171 -0.2785
  324MPD2    H2 4924   0.444   3.470  14.728  0.6788 -1.0236 -1.7124
  324MPD2    H3 4925   0.273   3.345  14.602 -0.2483 -0.6859 -1.8739
  324MPD2     N 4926   0.132   3.697  14.365 -0.7403 -0.9782 -0.8998
  324MPD2    H5 4927   0.053   3.639  14.341 -2.7659  0.5637  1.9843
  324MPD2    N1 4928   0.495   3.741  14.668 -0.3319  0.0568 -0.0072
  324MPD2    H7 4929   0.484   3.834  14.628  1.4747 -0.8351 -2.5354
  325TMC3    C1 4930   0.019   3.869  14.247 -0.4090 -0.0264 -0.2073
  325TMC3    C2 4931   4.644   3.809  14.265  0.1336 -0.8680  0.2343
  325TMC3    C3 4932   4.531   3.867  14.218  0.2208  0.4507 -0.8732
  325TMC3    C4 4933   0.018   3.999  14.209 -0.2528 -0.4187 -0.4916
  325TMC3    C5 4934   4.643   4.055  14.163  0.1959  0.8812  0.6470
  325TMC3    C6 4935   4.523   3.991  14.169 -0.7128 -0.9118 -0.7638
  325TMC3     C 4936   0.138   3.829  14.320  0.9065 -0.5901 -0.2043
  325TMC3     O 4937   0.225   3.914  14.339 -0.0293 -0.8863  0.0173
  325TMC3     H 4938   4.630   3.710  14.308 -0.8233  0.0440  2.0192
  325TMC3    H1 4939   0.106   4.062  14.204  0.0964 -0.9174 -0.5697
  325TMC3    H2 4940   4.438   4.046  14.130  0.9591  1.4466 -1.1041
  325TMC3    C7 4941   4.642   4.196  14.153  0.1176  0.4541  0.7145
  325TMC3    C8 4942   4.413   3.781  14.210 -0.3214  0.0873 -0.1823
  325TMC3    O1 4943   4.712   4.248  14.070 -0.3286 -0.0132 -0.2002
  325TMC3    O2 4944   4.428   3.660  14.211  0.1920 -0.2521 -0.1233
  326MPD2     C 4945   1.856   0.611  11.221 -0.3252 -0.2238  0.6685
  326MPD2    C1 4946   1.898   0.578  11.094 -0.3940 -0.0610  0.1689
  326MPD2    C2 4947   2.030   0.594  11.058  0.4154 -0.4947 -0.3640
  326MPD2    C3 4948   2.110   0.651  11.150 -0.0627 -0.1162 -0.8241
  326MPD2    C4 4949   2.072   0.681  11.276  0.0325  0.0921 -0.2068
  326MPD2    C5 4950   1.949   0.641  11.319  0.3102 -0.2856 -0.2643
  326MPD2     H 4951   2.063   0.586  10.955  0.8041 -2.0497 -0.1148
  326MPD2    H1 4952   2.134   0.740  11.342 -0.8548  1.2098 -0.3659
  326MPD2    H2 4953   1.755   0.614  11.259 -0.9745  0.5785 -1.1631
  326MPD2    H3 4954   1.910   0.653  11.420  2.6151  1.1096  0.4563
  326MPD2     N 4955   2.240   0.686  11.118  0.8195  0.8674  0.5065
  326MPD2    H5 4956   2.297   0.733  11.187  1.0347 -0.7610  1.4193
  326MPD2    N1 4957   1.807   0.536  10.991 -0.1032 -0.6141  0.7544
  326MPD2    H7 4958   1.839   0.531  10.895  0.4780 -3.1209  1.0644
  327TMC3    C1 4959   1.620   0.491  10.874 -0.1474  0.2185  0.3511
  327TMC3    C2 4960   1.544   0.584  10.804  0.3756 -0.0675  1.1308
  327TMC3    C3 4961   1.557   0.580  10.672  0.7370  0.0661  0.4624
  327TMC3    C4 4962   1.706   0.405  10.808 -0.7024 -0.0827  0.1163
  327TMC3    C5 4963   1.721   0.413  10.668 -0.4023  0.5415 -0.6654
  327TMC3    C6 4964   1.642   0.504  10.600  0.0949  0.5280 -0.7433
  327TMC3     C 4965   1.668   0.528  11.003 -0.9524 -0.4788 -0.2986
  327TMC3     O 4966   1.596   0.574  11.088  0.4908  0.4988 -0.6286
  327TMC3     H 4967   1.476   0.655  10.850 -3.4395 -2.7592 -0.4231
  327TMC3    H1 4968   1.756   0.328  10.865 -0.0752 -1.3002 -2.1017
  327TMC3    H2 4969   1.645   0.507  10.492  1.5016  0.2753 -0.7139
  327TMC3    C7 4970   1.840   0.367  10.602  0.1966 -0.2151  0.0055
  327TMC3    C8 4971   1.479   0.675  10.594 -0.2183  0.2567 -0.0660
  327TMC3    O1 4972   1.886   0.430  10.507  0.0230  0.2407 -0.0462
  327TMC3    O2 4973   1.465   0.784  10.651 -0.0598 -0.2796  0.4596
  328MPD2     C 4974   4.085   4.730  17.553 -0.5639 -0.1037 -0.4858
  328MPD2    C1 4975   4.012   4.685  17.443 -0.2827 -0.1215  0.5160
  328MPD2    C2 4976   3.961   0.039  17.356  0.3765 -0.4393  0.1806
  328MPD2    C3 4977   3.979   0.180  17.379 -0.1350 -0.2073 -0.2221
  328MPD2    C4 4978   4.057   0.226  17.479 -0.4693  0.2800  0.8800
  328MPD2    C5 4979   4.101   0.131  17.572 -0.3479  0.4039  0.5676
  328MPD2     H 4980   3.909   0.008  17.266  1.6067  0.7341 -0.9376
  328MPD2    H1 4981   4.072   0.332  17.493  1.2836  0.3563 -1.5941
  328MPD2    H2 4982   4.133   4.661  17.621  0.1075  0.0889 -0.7636
  328MPD2    H3 4983   4.159   0.167  17.657 -0.4902 -0.3509  0.9882
  328MPD2     N 4984   3.923   0.280  17.295  0.3598  0.3033 -0.0375
  328MPD2    H5 4985   3.932   0.379  17.315  0.0298  0.3479 -0.1035
  328MPD2    N1 4986   3.984   4.545  17.425 -0.0256  0.8299  0.4525
  328MPD2    H7 4987   4.050   4.478  17.463  1.3745  0.5121 -2.5846
  329TMC3    C1 4988   3.943   4.366  17.261 -0.5875  0.7297  0.8800
  329TMC3    C2 4989   3.853   4.333  17.159 -0.1354 -0.2254 -0.0840
  329TMC3    C3 4990   3.788   4.215  17.159  0.1104 -0.3998  0.4079
  329TMC3    C4 4991   3.981   4.263  17.342 -0.5169  0.2529 -0.2884
  329TMC3    C5 4992   3.930   4.139  17.319  0.0695 -0.0183 -0.0201
  329TMC3    C6 4993   3.837   4.111  17.223  0.6581 -0.3052  0.1078
  329TMC3     C 4994   3.904   4.492  17.323  0.1003  0.3367  0.2331
  329TMC3     O 4995   3.808   4.537  17.265 -0.5154  0.4135 -0.2307
  329TMC3     H 4996   3.841   4.399  17.074  1.3190 -0.9269 -0.8265
  329TMC3    H1 4997   4.055   4.279  17.420 -1.5159 -0.6719  0.8444
  329TMC3    H2 4998   3.769   4.027  17.234 -0.1739  0.1560 -1.5484
  329TMC3    C7 4999   3.970   4.039  17.415 -0.6494 -0.6241  0.8273
  329TMC3    C8 5000   3.649   4.228  17.121 -1.1984 -0.4958  0.2902
  329TMC3    O1 5001   4.023   4.067  17.519  0.3479  0.0872 -0.1826
  329TMC3    O2 5002   3.588   4.122  17.108 -0.1661  0.1447  0.1905
  330TMC3    C1 5003   2.089   3.757   9.377 -1.0469 -0.0774  0.2345
  330TMC3    C2 5004   1.962   3.744   9.409 -0.9369  0.1419 -0.5660
  330TMC3    C3 5005   1.936   3.758   9.542 -0.2334  0.0254  0.1994
  330TMC3    C4 5006   2.190   3.762   9.466 -0.2436 -0.1355  0.2975
  330TMC3    C5 5007   2.164   3.767   9.598 -0.4479  0.7826 -0.3747
  330TMC3    C6 5008   2.035   3.757   9.635  0.1617 -0.6851 -0.1111
  330TMC3     C 5009   2.114   3.776   9.239  0.3552 -0.4222 -0.0818
  330TMC3     O 5010   2.233   3.780   9.206 -0.1920 -0.0904 -0.1964
  330TMC3     H 5011   1.875   3.724   9.348 -1.2800 -0.0214 -0.0212
  330TMC3    H1 5012   2.293   3.770   9.433 -0.7646 -1.5383 -1.7221
  330TMC3    H2 5013   2.009   3.744   9.739 -2.6743 -0.4057 -0.7781
  330TMC3    C7 5014   2.270   3.795   9.688 -0.5096 -0.3754  0.1637
  330TMC3    C8 5015   1.793   3.749   9.570 -0.1540 -0.3187 -0.7901
  330TMC3    O1 5016   2.380   3.770   9.645 -0.7887  0.4171 -0.4658
  330TMC3    O2 5017   1.727   3.674   9.496 -0.1896  0.4806  0.1892
  331MPD2     C 5018   0.614   3.227  12.974 -0.5074 -0.1005  0.3782
  331MPD2    C1 5019   0.523   3.276  13.069 -0.4573  0.0880 -0.1604
  331MPD2    C2 5020   0.471   3.195  13.161  0.3719 -0.1036 -0.1287
  331MPD2    C3 5021   0.512   3.058  13.159  0.9838  0.6467  0.5276
  331MPD2    C4 5022   0.616   3.019  13.074 -0.1065  0.1362 -0.1294
  331MPD2    C5 5023   0.662   3.101  12.978  0.0329 -0.2686 -0.0509
  331MPD2     H 5024   0.390   3.220  13.228 -0.9709  1.4712 -2.3201
  331MPD2    H1 5025   0.645   2.914  13.080  0.5335  0.3261  0.1141
  331MPD2    H2 5026   0.649   3.287  12.891 -2.4225  1.3476  0.6225
  331MPD2    H3 5027   0.730   3.070  12.899  1.1237  0.7266  0.4937
  331MPD2     N 5028   0.448   2.966  13.241 -0.6115 -0.7582 -0.1236
  331MPD2    H5 5029   0.378   3.000  13.307 -1.6578  2.0570 -2.6946
  331MPD2    N1 5030   0.480   3.410  13.054 -0.2986  0.0470  0.2961
  331MPD2    H7 5031   0.534   3.460  12.985 -0.4955  0.4001  0.4014
  332TMC3    C1 5032   0.354   2.760  13.302  0.5423  0.2097 -0.2871
  332TMC3    C2 5033   0.228   2.800  13.259  0.4977 -0.2026 -0.7169
  332TMC3    C3 5034   0.144   2.706  13.211  0.2951  0.3789 -0.9330
  332TMC3    C4 5035   0.383   2.625  13.289 -0.3093 -0.0341  0.5085
  332TMC3    C5 5036   0.287   2.534  13.257 -0.0785  0.3491 -0.3242
  332TMC3    C6 5037   0.165   2.576  13.210 -0.2135 -0.2605 -0.3878
  332TMC3     C 5038   0.466   2.826  13.246  0.1679 -0.1484 -0.0679
  332TMC3     O 5039   0.539   2.761  13.175  0.2914  0.2906  0.3319
  332TMC3     H 5040   0.201   2.904  13.271  0.8620 -0.2573  0.5064
  332TMC3    H1 5041   0.482   2.592  13.320 -0.7472 -1.3539  0.4666
  332TMC3    H2 5042   0.096   2.498  13.178 -0.0067 -0.0886 -1.2584
  332TMC3    C7 5043   0.335   2.400  13.220  0.0503  0.0950  0.6268
  332TMC3    C8 5044   0.046   2.760  13.124 -0.6529  0.4804 -0.3216
  332TMC3    O1 5045   0.254   2.311  13.196  0.3025 -0.1272  0.1652
  332TMC3    O2 5046   0.057   2.877  13.099  0.4301  0.0321  0.1497
  333MPD2     C 5047   0.177   3.715  11.833 -0.0171  1.1228  0.6622
  333MPD2    C1 5048   0.294   3.685  11.768 -0.5174 -0.2853 -0.1710
  333MPD2    C2 5049   0.322   3.553  11.744 -0.5523  0.6929  0.0973
  333MPD2    C3 5050   0.252   3.448  11.807  0.4351  0.0953  0.3931
  333MPD2    C4 5051   0.129   3.482  11.866 -0.3479 -0.0945  0.8834
  333MPD2    C5 5052   0.095   3.617  11.882  0.0310 -0.0634  0.9731
  333MPD2     H 5053   0.419   3.538  11.699 -0.1138  3.2934  0.2055
  333MPD2    H1 5054   0.050   3.413  11.893 -0.6417  0.7817  2.3158
  333MPD2    H2 5055   0.158   3.816  11.868 -0.7835  1.2505 -0.1214
  333MPD2    H3 5056   0.010   3.640  11.945  0.3774  0.5308  1.2255
  333MPD2     N 5057   0.299   3.313  11.799 -0.3290 -0.4041  0.8394
  333MPD2    H5 5058   0.387   3.296  11.751 -0.6079 -0.1727  0.2386
  333MPD2    N1 5059   0.372   3.797  11.732 -0.5068  0.3206  0.0827
  333MPD2    H7 5060   0.331   3.890  11.736  0.2962  0.6542  0.6557
  334TMC3    C1 5061   0.557   3.923  11.646 -0.7261 -0.3491  0.3225
  334TMC3    C2 5062   0.695   3.921  11.655 -0.3801  0.2242 -0.2441
  334TMC3    C3 5063   0.762   4.013  11.583  0.2443  0.0413  0.1904
  334TMC3    C4 5064   0.494   4.002  11.557  0.0132 -0.5470 -0.5042
  334TMC3    C5 5065   0.569   4.083  11.475  0.0901  0.1317 -0.0193
  334TMC3    C6 5066   0.700   4.102  11.501 -0.3459 -0.4116  0.7629
  334TMC3     C 5067   0.497   3.788  11.679 -0.3114  0.5502  0.1744
  334TMC3     O 5068   0.579   3.692  11.682  0.0792 -0.4775  0.1153
  334TMC3     H 5069   0.746   3.861  11.730  1.6967  1.5734 -0.5729
  334TMC3    H1 5070   0.389   3.990  11.536  0.3543 -2.3017 -1.2210
  334TMC3    H2 5071   0.759   4.188  11.473 -0.7291 -0.7496 -1.0667
  334TMC3    C7 5072   0.506   4.181  11.395  0.1713  0.3770  0.5261
  334TMC3    C8 5073   0.905   4.009  11.610  0.3599  0.7430  0.0663
  334TMC3    O1 5074   0.385   4.178  11.386 -0.0230  0.6182 -0.5109
  334TMC3    O2 5075   0.938   3.971  11.720 -0.2648 -0.5105  0.7196
  335TMC3    C1 5076   4.566   4.725  17.575 -0.3142  0.0783 -0.0385
  335TMC3    C2 5077   4.526   4.640  17.479  0.1564 -0.2802  0.4557
  335TMC3    C3 5078   4.614   4.617  17.376 -0.5654 -0.1669 -0.6981
  335TMC3    C4 5079   4.687   0.057  17.575 -0.6156 -0.1036 -0.0527
  335TMC3    C5 5080   0.029   0.027  17.462 -0.1059 -0.1734 -0.0125
  335TMC3    C6 5081   4.734   4.678  17.365  0.0048 -0.2356 -0.1251
  335TMC3     C 5082   4.470   0.006  17.688  0.9662  0.2648  0.4611
  335TMC3     O 5083   4.359   4.700  17.682  0.4403 -0.2226 -0.5180
  335TMC3     H 5084   4.443   4.574  17.500 -1.4522  1.0191 -1.7773
  335TMC3    H1 5085   4.698   0.145  17.639  0.9535 -0.1022 -0.3398
  335TMC3    H2 5086   0.066   4.658  17.287 -0.9639 -0.2549 -1.0192
  335TMC3    C7 5087   0.158   0.088  17.454 -0.3657 -0.3644 -0.9164
  335TMC3    C8 5088   4.577   4.516  17.274 -0.4514 -0.2368 -0.8040
  335TMC3    O1 5089   0.235   0.038  17.376  0.5468 -0.4792  0.0866
  335TMC3    O2 5090   4.601   4.535  17.153 -0.4927 -0.1231 -0.3651
  336MPD2     C 5091   4.723   2.264  16.687  0.0999 -0.1270  0.3543
  336MPD2    C1 5092   4.732   2.197  16.565  0.8158 -0.1404 -1.2501
  336MPD2    C2 5093   4.731   2.059  16.560  0.3625 -0.0026  0.3625
  336MPD2    C3 5094   4.713   1.975  16.671  0.4747  0.0883  0.4452
  336MPD2    C4 5095   4.690   2.044  16.788  0.4405  0.1094  0.5671
  336MPD2    C5 5096   4.703   2.180  16.796 -0.3984 -0.0481  0.1969
  336MPD2     H 5097   4.731   2.012  16.462  0.1213 -1.5071  1.0787
  336MPD2    H1 5098   4.676   1.997  16.885  0.8410  1.5810  1.3380
  336MPD2    H2 5099   4.731   2.372  16.694  1.6153 -0.2212  0.0529
  336MPD2    H3 5100   4.685   2.223  16.894 -0.5945 -2.5833  1.2709
  336MPD2     N 5101   4.711   1.837  16.675  0.2220 -0.4671 -0.6043
  336MPD2    H5 5102   4.697   1.796  16.767 -0.5246  0.5779 -0.2472
  336MPD2    N1 5103   4.740   2.257  16.435 -0.3317 -0.7232  0.7502
  336MPD2    H7 5104   0.031   2.200  16.358  1.3055 -0.8516  1.5337
  337TMC3    C1 5105   4.699   2.417  16.263  0.3337 -0.2812  0.1908
  337TMC3    C2 5106   4.590   2.490  16.216  0.3955  0.6547  0.3430
  337TMC3    C3 5107   4.570   2.504  16.077  1.1520  0.4292 -0.1718
  337TMC3    C4 5108   0.047   2.366  16.178 -0.3144 -0.2152  0.3463
  337TMC3    C5 5109   0.035   2.387  16.042 -0.1775  0.0114 -0.4242
  337TMC3    C6 5110   4.668   2.458  15.988  0.4096  0.3018 -0.2705
  337TMC3     C 5111   4.694   2.383  16.407 -0.1477  0.1397  0.1637
  337TMC3     O 5112   4.614   2.433  16.479  0.3676 -0.1933  0.2342
  337TMC3     H 5113   4.519   2.526  16.290  0.3035  2.2166 -0.4885
  337TMC3    H1 5114   0.132   2.314  16.222  1.3636  0.4461 -2.1028
  337TMC3    H2 5115   4.653   2.481  15.883  0.2493 -3.3378 -1.0304
  337TMC3    C7 5116   0.145   2.344  15.959 -0.5403  0.1916 -0.1132
  337TMC3    C8 5117   4.448   2.579  16.038  0.1829  0.4103 -0.6166
  337TMC3    O1 5118   0.216   2.262  16.012  0.3403 -0.2500  0.0160
  337TMC3    O2 5119   4.398   2.648  16.124 -0.0473 -0.0890 -0.2674
  338MPD2     C 5120   0.162   1.991   1.363 -0.3440  0.1294 -0.0456
  338MPD2    C1 5121   0.105   1.936   1.248 -0.0771  0.5769 -0.1620
  338MPD2    C2 5122   4.710   1.959   1.234 -0.1712  0.4863 -0.3539
  338MPD2    C3 5123   4.629   2.010   1.332 -0.0502  0.5872 -0.9970
  338MPD2    C4 5124   4.690   2.053   1.443  0.4407  0.0046 -0.4522
  338MPD2    C5 5125   0.082   2.044   1.467 -0.0309 -0.0456  0.1235
  338MPD2     H 5126   4.674   1.911   1.143 -4.0532 -0.4913  1.6810
  338MPD2    H1 5127   4.648   2.102   1.530  2.1354  1.0513 -0.2246
  338MPD2    H2 5128   0.270   1.987   1.367 -0.4382 -0.2827  2.0798
  338MPD2    H3 5129   0.133   2.079   1.556  0.4785 -2.3797  0.7499
  338MPD2     N 5130   4.490   2.017   1.311  0.0461  0.4348 -0.9649
  338MPD2    H5 5131   4.455   1.977   1.225 -2.8509 -0.7001  0.7169
  338MPD2    N1 5132   0.175   1.865   1.148 -0.0757  0.0384  0.1319
  338MPD2    H7 5133   0.128   1.842   1.061 -1.0791 -4.3092  1.8535
  339TMC3    C1 5134   4.272   2.109   1.345 -0.2209  0.3550  0.1723
  339TMC3    C2 5135   4.167   2.105   1.429 -0.1347 -0.2191  0.1544
  339TMC3    C3 5136   4.035   2.077   1.386 -0.1215 -0.0721 -0.6537
  339TMC3    C4 5137   4.245   2.091   1.207  0.1238  0.0544  0.3691
  339TMC3    C5 5138   4.116   2.080   1.162  0.7179 -0.2025  0.3597
  339TMC3    C6 5139   4.011   2.057   1.249  0.7088  0.6912 -0.6502
  339TMC3     C 5140   4.406   2.087   1.396 -0.1303 -0.1244  0.4329
  339TMC3     O 5141   4.424   2.122   1.514  0.1016 -0.0693 -0.0941
  339TMC3     H 5142   4.192   2.119   1.534  0.0067 -1.5688  0.2917
  339TMC3    H1 5143   4.333   2.081   1.144 -1.3430 -0.9651 -1.5267
  339TMC3    H2 5144   3.907   2.041   1.223  0.2821  2.7478 -0.2538
  339TMC3    C7 5145   4.098   2.071   1.020 -0.6408 -0.7555  0.6044
  339TMC3    C8 5146   3.922   2.093   1.468  0.2453 -0.0084  0.9888
  339TMC3    O1 5147   3.993   2.018   0.983 -0.1269  0.6522  0.4207
  339TMC3    O2 5148   3.816   2.125   1.417  0.3320  0.6794 -0.2985
  340MPD2     C 5149   0.147   0.263  10.122 -0.2814  0.3558 -0.9124
  340MPD2    C1 5150   0.210   0.185  10.215 -1.0186  0.3320 -0.7583
  340MPD2    C2 5151   0.237   0.244  10.340  0.0199  0.1682 -0.2638
  340MPD2    C3 5152   0.201   0.369  10.371 -1.7599  0.9126 -0.4877
  340MPD2    C4 5153   0.145   0.445  10.275 -0.2396 -0.2655 -0.4703
  340MPD2    C5 5154   0.112   0.390  10.156 -0.9024 -0.7858  0.2035
  340MPD2     H 5155   0.288   0.185  10.416  0.4372  1.5645  0.5390
  340MPD2    H1 5156   0.125   0.550  10.296  2.6969  0.4012 -1.0198
  340MPD2    H2 5157   0.121   0.220  10.026  0.0381 -1.0733 -0.3561
  340MPD2    H3 5158   0.056   0.449  10.085  0.7123  0.1458 -0.3136
  340MPD2     N 5159   0.240   0.443  10.485 -0.1463  0.3932  0.6906
  340MPD2    H5 5160   0.217   0.542  10.483 -0.2936  0.3308 -0.6587
  340MPD2    N1 5161   0.248   0.054  10.178 -0.0766  0.3066 -0.0199
  340MPD2    H7 5162   0.244   0.039  10.078  2.0085 -1.5735  0.1613
  341TMC3    C1 5163   0.368   4.589  10.197  0.5622  0.2407 -0.4081
  341TMC3    C2 5164   0.425   4.498  10.283 -0.4548 -0.3360 -0.1029
  341TMC3    C3 5165   0.517   4.418  10.228 -0.3428 -0.1173 -0.1061
  341TMC3    C4 5166   0.399   4.597  10.059 -0.5028 -0.9826 -0.1507
  341TMC3    C5 5167   0.503   4.518  10.014 -0.3477 -0.3295 -1.0524
  341TMC3    C6 5168   0.567   4.438  10.099  0.2371 -0.0190  0.2098
  341TMC3     C 5169   0.304   4.700  10.263 -0.4850  0.1875 -0.0068
  341TMC3     O 5170   0.322   4.702  10.382  0.6501  0.8762 -0.0115
  341TMC3     H 5171   0.384   4.483  10.382 -0.7813 -0.2500 -0.2261
  341TMC3    H1 5172   0.362   4.677   9.996  0.0481  0.7892  1.7723
  341TMC3    H2 5173   0.657   4.387  10.066 -0.8662 -0.9749 -1.3071
  341TMC3    C7 5174   0.562   4.537   9.884 -0.0425 -0.0438 -0.0948
  341TMC3    C8 5175   0.603   4.347  10.320  0.3639  0.0628 -0.3069
  341TMC3    O1 5176   0.665   4.476   9.867  1.0355  0.5201 -0.0086
  341TMC3    O2 5177   0.673   4.260  10.268  0.3251 -0.0107 -0.0617
  342MPD2     C 5178   2.765   2.784  17.663 -0.0480  0.1051 -0.4751
  342MPD2    C1 5179   2.882   2.809  17.591 -0.2356 -0.2118  0.0513
  342MPD2    C2 5180   2.904   2.942  17.559 -0.1448  0.4283 -0.2009
  342MPD2    C3 5181   2.814   3.039  17.605  0.0700 -0.4231 -0.2876
  342MPD2    C4 5182   2.708   3.012  17.680  0.7515 -0.3731  0.7335
  342MPD2    C5 5183   2.678   2.882  17.710 -1.9062  0.4571  0.0460
  342MPD2     H 5184   2.985   2.962  17.491 -0.8397 -2.2987 -1.8328
  342MPD2    H1 5185   2.636   3.083  17.720 -1.0610 -1.0290 -1.3738
  342MPD2    H2 5186   2.734   2.686  17.696 -0.2935  1.4427  3.3016
  342MPD2    H3 5187   2.598   2.861   0.020 -1.1594 -1.8314  0.2064
  342MPD2     N 5188   2.828   3.178  17.585  0.1410 -0.0440 -0.3534
  342MPD2    H5 5189   2.751   3.231  17.626  0.1149  0.3143 -0.8630
  342MPD2    N1 5190   2.966   2.706  17.550  0.2815 -0.3509 -0.5309
  342MPD2    H7 5191   3.046   2.724  17.489  1.4140 -1.0958  0.7327
  343TMC3    C1 5192   3.013   2.483  17.503 -0.5097  0.3667  0.7824
  343TMC3    C2 5193   3.144   2.501  17.454  0.3718  0.0520 -0.2398
  343TMC3    C3 5194   3.181   2.395  17.370 -0.9039 -0.1589  0.0197
  343TMC3    C4 5195   2.935   2.377  17.484 -0.1707 -0.5640 -0.0273
  343TMC3    C5 5196   2.979   2.287  17.392 -0.0231  0.0766 -0.2950
  343TMC3    C6 5197   3.104   2.292  17.335  0.6146 -0.3581  0.0655
  343TMC3     C 5198   2.965   2.582  17.600 -0.4281  0.0742  0.5193
  343TMC3     O 5199   2.903   2.541  17.695 -0.0685 -0.1675  0.5332
  343TMC3     H 5200   3.210   2.582  17.482  0.4652 -0.5997  1.4021
  343TMC3    H1 5201   2.837   2.369  17.530 -0.6766 -1.5185 -1.2711
  343TMC3    H2 5202   3.142   2.213  17.271  0.0414 -2.0052  1.7261
  343TMC3    C7 5203   2.914   2.155  17.388 -0.0920 -0.8763  0.2597
  343TMC3    C8 5204   3.319   2.405  17.313  0.6734 -0.0824  0.3729
  343TMC3    O1 5205   2.931   2.085  17.287 -0.0753 -0.0303 -0.0501
  343TMC3    O2 5206   3.377   2.507  17.349 -0.2816  0.3692 -0.3798
  344MPD2     C 5207   3.916   2.885  10.996 -0.2423 -0.6093 -0.5530
  344MPD2    C1 5208   3.890   2.787  10.901 -0.1110  0.2911 -0.4321
  344MPD2    C2 5209   3.922   2.817  10.768 -0.6907 -0.2566 -0.3114
  344MPD2    C3 5210   3.985   2.937  10.739  0.6199  0.5722 -0.3748
  344MPD2    C4 5211   4.005   3.032  10.836  0.3347  0.2023  0.2159
  344MPD2    C5 5212   3.962   3.009  10.965 -0.4621  0.0260  0.1012
  344MPD2     H 5213   3.911   2.740  10.692 -1.1154 -1.1330  0.6321
  344MPD2    H1 5214   4.034   3.134  10.814  0.2700  0.6245  2.0311
  344MPD2    H2 5215   3.894   2.854  11.098  0.0463  0.4524 -0.1673
  344MPD2    H3 5216   3.992   3.075  11.045 -0.0141 -0.2065  0.1227
  344MPD2     N 5217   4.015   2.971  10.601 -0.0212  0.2933  0.4553
  344MPD2    H5 5218   4.054   3.064  10.589  2.0077 -0.6873 -0.5388
  344MPD2    N1 5219   3.836   2.661  10.937  0.1184 -0.4894  0.0701
  344MPD2    H7 5220   3.840   2.594  10.860 -0.7105  0.1952 -0.5731
  345TMC3    C1 5221   4.055   2.952  10.388 -0.2863 -0.3425 -0.6557
  345TMC3    C2 5222   4.187   2.949  10.373 -0.6947 -1.0428  0.1188
  345TMC3    C3 5223   4.261   3.059  10.334 -0.1524  0.1027 -0.4624
  345TMC3    C4 5224   3.996   3.070  10.367 -0.0171  0.1904 -0.8607
  345TMC3    C5 5225   4.060   3.175  10.314 -0.3478  0.1782 -1.0650
  345TMC3    C6 5226   4.196   3.173  10.300  0.0352 -0.7001 -0.0428
  345TMC3     C 5227   4.012   2.884  10.506  0.6590 -0.2110 -0.1388
  345TMC3     O 5228   4.034   2.764  10.499  0.1699  0.3326 -0.7415
  345TMC3     H 5229   4.243   2.861  10.403  0.4996 -0.6007 -0.8048
  345TMC3    H1 5230   3.887   3.073  10.375  0.0527  1.1390 -0.2763
  345TMC3    H2 5231   4.244   3.255  10.249 -3.6404  1.3109 -0.2971
  345TMC3    C7 5232   3.990   3.298  10.275 -0.4099 -0.0531  0.0159
  345TMC3    C8 5233   4.411   3.052  10.341 -0.1731 -0.5808  0.6259
  345TMC3    O1 5234   4.056   3.401  10.288 -0.3830 -0.3668 -0.4186
  345TMC3    O2 5235   4.468   2.944  10.345 -0.1847 -0.5062  0.3704
  346MPD2     C 5236   3.530   4.144  14.527  0.2914 -0.5767  0.2906
  346MPD2    C1 5237   3.562   4.252  14.437  0.2213  0.0626  0.7871
  346MPD2    C2 5238   3.639   4.358  14.483 -0.0545  0.1412 -0.2061
  346MPD2    C3 5239   3.675   4.361  14.615 -0.1814  0.6052 -0.3522
  346MPD2    C4 5240   3.657   4.251  14.694  0.6044  0.1042  0.1280
  346MPD2    C5 5241   3.590   4.146  14.648  0.4121  0.4765  0.7942
  346MPD2     H 5242   3.672   4.440  14.421  0.0037 -0.6711 -1.2342
  346MPD2    H1 5243   3.682   4.250  14.799  1.4274  1.6901 -0.0395
  346MPD2    H2 5244   3.467   4.057  14.511 -2.0321  1.4638 -1.8223
  346MPD2    H3 5245   3.569   4.064  14.715  0.0947  1.8413  2.3695
  346MPD2     N 5246   3.759   4.472  14.648 -0.7411  0.2116 -0.2942
  346MPD2    H5 5247   3.780   4.538  14.575  2.3724  0.4046  0.7868
  346MPD2    N1 5248   3.516   4.258  14.307  0.1371  0.0197 -0.5524
  346MPD2    H7 5249   3.552   4.328  14.243 -0.8703  0.0671 -1.0657
  347TMC3    C1 5250   3.948   4.580  14.747 -0.3039  0.3445  0.5393
  347TMC3    C2 5251   4.020   4.568  14.633  0.2074  0.3469  0.1339
  347TMC3    C3 5252   4.144   4.615  14.626 -0.6396 -0.1995  0.4083
  347TMC3    C4 5253   4.004   4.622  14.860 -0.4175 -0.4433 -0.0590
  347TMC3    C5 5254   4.131   4.687  14.845 -0.6776  0.1336  1.0819
  347TMC3    C6 5255   4.203   4.684  14.730 -0.1113  0.6573 -0.1825
  347TMC3     C 5256   3.838   4.484  14.761  0.3484 -0.0614  0.8625
  347TMC3     O 5257   3.838   4.423  14.867  0.3430 -0.2030  0.5124
  347TMC3     H 5258   3.970   4.527  14.546 -1.6633  1.3008  0.7581
  347TMC3    H1 5259   3.945   4.634  14.950 -0.5685  0.2553 -0.2498
  347TMC3    H2 5260   4.304   4.723  14.724  0.3256 -0.5029 -0.3780
  347TMC3    C7 5261   4.189   4.728  14.970  0.3093  0.3150 -0.0209
  347TMC3    C8 5262   4.232   4.547  14.531  0.1889 -0.5687  0.6505
  347TMC3    O1 5263   4.114   0.021  15.059  0.1237 -0.0779  0.0651
  347TMC3    O2 5264   4.198   4.435  14.494  0.1675  0.2394 -0.1504
  348MPD2     C 5265   2.852   4.232  12.013  0.4028  1.3471  0.3566
  348MPD2    C1 5266   2.870   4.192  11.881  0.3462  0.7183  0.4231
  348MPD2    C2 5267   2.810   4.257  11.784 -0.1224  0.5200  0.6921
  348MPD2    C3 5268   2.756   4.380  11.807  0.8282  0.1392  0.1538
  348MPD2    C4 5269   2.743   4.425  11.926 -0.0398 -0.2328 -0.1747
  348MPD2    C5 5270   2.797   4.356  12.037 -0.9291  0.4947  0.0642
  348MPD2     H 5271   2.811   4.215  11.684 -0.6372  0.3132  0.7769
  348MPD2    H1 5272   2.695   4.520  11.945 -0.7504 -0.9775  1.7598
  348MPD2    H2 5273   2.893   4.172  12.094 -0.2070  2.5389  1.5542
  348MPD2    H3 5274   2.780   4.394  12.137  1.2034 -0.6374  0.8744
  348MPD2     N 5275   2.714   4.454  11.694 -0.0702 -0.0157 -0.0219
  348MPD2    H5 5276   2.727   4.408  11.605 -0.8458  2.7817 -1.5804
  348MPD2    N1 5277   2.917   4.064  11.846  0.2369 -0.3688  0.3405
  348MPD2    H7 5278   2.938   4.044  11.749  0.0344  0.2457  0.1686
  349TMC3    C1 5279   3.007   3.863  11.846  0.4285 -0.1127  0.3333
  349TMC3    C2 5280   3.011   3.741  11.905 -0.1773 -0.2965 -0.0377
  349TMC3    C3 5281   2.961   3.636  11.836  0.3657  0.7239 -0.6988
  349TMC3    C4 5282   2.983   3.865  11.707  0.1551  0.1005 -0.0669
  349TMC3    C5 5283   2.928   3.758  11.639 -0.1066 -0.6172 -0.4168
  349TMC3    C6 5284   2.912   3.644  11.711 -0.3145  0.6317  0.6437
  349TMC3     C 5285   2.959   3.969  11.927 -0.4383  0.0225  0.5392
  349TMC3     O 5286   2.932   3.947  12.043 -0.1518  0.0736  1.1604
  349TMC3     H 5287   3.032   3.735  12.011 -3.0817  0.3345  0.5758
  349TMC3    H1 5288   3.006   3.953  11.649 -1.8292  0.4230 -0.3853
  349TMC3    H2 5289   2.847   3.564  11.675  2.3563 -1.0846 -0.3052
  349TMC3    C7 5290   2.796   3.789  11.596  0.4613 -0.0535  0.5878
  349TMC3    C8 5291   2.932   3.522  11.918 -0.5616  0.0853 -0.1448
  349TMC3    O1 5292   2.715   3.751  11.678 -0.0206  0.8146  0.4516
  349TMC3    O2 5293   2.930   3.527  12.040 -0.3503 -0.6198  0.7392
  350MPD2     C 5294   1.170   2.410  10.555 -0.0939  0.5564  0.3433
  350MPD2    C1 5295   1.290   2.346  10.542 -0.3248 -0.3781 -0.0219
  350MPD2    C2 5296   1.407   2.403  10.591  0.1952  0.3699 -0.6220
  350MPD2    C3 5297   1.405   2.524  10.661  0.4758 -0.3227  0.9147
  350MPD2    C4 5298   1.283   2.582  10.681 -0.2640 -0.1735 -0.0701
  350MPD2    C5 5299   1.167   2.527  10.625  0.1124  0.4419 -0.4395
  350MPD2     H 5300   1.498   2.346  10.577  1.2142  1.5727  1.1097
  350MPD2    H1 5301   1.267   2.665  10.749  1.5566 -2.2820  2.9400
  350MPD2    H2 5302   1.076   2.375  10.514  0.0634  0.6168 -0.0715
  350MPD2    H3 5303   1.070   2.573  10.635 -0.2936 -0.3449 -0.8121
  350MPD2     N 5304   1.525   2.563  10.734  0.0607  0.3837 -0.0637
  350MPD2    H5 5305   1.608   2.506  10.721 -1.0104 -1.1644 -0.0937
  350MPD2    N1 5306   1.296   2.232  10.464  0.4892  0.6435 -0.1062
  350MPD2    H7 5307   1.377   2.207  10.408  0.2741  2.9822 -1.4355
  351TMC3    C1 5308   1.215   2.033  10.360  0.7421  0.1815  0.6404
  351TMC3    C2 5309   1.310   2.047  10.263  0.0125  0.4871 -0.4224
  351TMC3    C3 5310   1.313   1.949  10.166 -0.1115 -0.0205  0.3849
  351TMC3    C4 5311   1.131   1.929  10.367 -0.0646 -0.5107 -0.4986
  351TMC3    C5 5312   1.144   1.830  10.271 -0.7514  0.4945 -0.0204
  351TMC3    C6 5313   1.240   1.836  10.173  0.0198  0.0473 -0.3581
  351TMC3     C 5314   1.192   2.141  10.458 -0.2158  0.3590 -0.3156
  351TMC3     O 5315   1.093   2.134  10.531 -0.6221  0.0410 -0.5929
  351TMC3     H 5316   1.364   2.138  10.241  2.7934 -0.9198  0.5266
  351TMC3    H1 5317   1.056   1.922  10.445 -0.1519 -0.1508 -0.5534
  351TMC3    H2 5318   1.243   1.757  10.099  0.4433 -0.2880  0.0195
  351TMC3    C7 5319   1.036   1.744  10.240  0.8220 -0.5556 -0.2469
  351TMC3    C8 5320   1.419   1.944  10.068  0.4123  0.4338 -0.1199
  351TMC3    O1 5321   1.013   1.716  10.124  0.1525 -0.2105  0.0996
  351TMC3    O2 5322   1.438   1.838  10.011 -0.3816 -0.2822  0.3670
  352MPD2     C 5323   0.581   4.025   0.982 -0.1208  0.2936 -0.0152
  352MPD2    C1 5324   0.493   3.974   1.067 -0.6137  0.1473  0.7573
  352MPD2    C2 5325   0.527   3.854   1.132  0.1811  0.0773 -0.5158
  352MPD2    C3 5326   0.653   3.798   1.114  0.1182  0.6897 -0.1972
  352MPD2    C4 5327   0.749   3.868   1.040  0.6274 -0.2943  0.4843
  352MPD2    C5 5328   0.705   3.972   0.969 -0.9114 -0.2235  0.4412
  352MPD2     H 5329   0.452   3.802   1.190  0.5247  1.9551  1.5974
  352MPD2    H1 5330   0.854   3.842   1.037  0.3702 -1.2088 -0.6549
  352MPD2    H2 5331   0.549   4.115   0.931  0.3095  0.5344  0.1307
  352MPD2    H3 5332   0.781   4.031   0.919  2.1779 -2.1410  2.8689
  352MPD2     N 5333   0.689   3.670   1.168  0.2193  0.3108  0.7339
  352MPD2    H5 5334   0.784   3.648   1.141 -0.6871 -0.9732 -1.4619
  352MPD2    N1 5335   0.369   4.044   1.084  0.0379  0.1563 -0.3801
  352MPD2    H7 5336   0.365   4.129   1.028  2.8064  1.4382  1.3275
  353TMC3    C1 5337   0.643   3.442   1.224  0.3563  0.4630  0.1409
  353TMC3    C2 5338   0.773   3.409   1.257  0.3007 -0.4531 -0.0438
  353TMC3    C3 5339   0.799   3.277   1.263  0.6391 -0.3324 -0.4747
  353TMC3    C4 5340   0.541   3.352   1.221  0.8965  0.2317  0.5939
  353TMC3    C5 5341   0.570   3.221   1.246  0.1418  0.3600 -0.1678
  353TMC3    C6 5342   0.696   3.177   1.266 -0.5681 -0.2682 -0.4334
  353TMC3     C 5343   0.596   3.577   1.218  0.5091 -0.2984  0.4369
  353TMC3     O 5344   0.476   3.586   1.231 -0.0854 -0.1111 -0.4277
  353TMC3     H 5345   0.850   3.483   1.272 -0.4654  0.2225  0.5490
  353TMC3    H1 5346   0.436   3.378   1.211  1.0701 -0.3384 -2.5609
  353TMC3    H2 5347   0.706   3.070   1.278 -0.0892 -0.0819  0.8284
  353TMC3    C7 5348   0.462   3.119   1.242  0.2963 -0.8889  0.4206
  353TMC3    C8 5349   0.928   3.241   1.301 -1.1091  0.1027 -0.2365
  353TMC3    O1 5350   0.498   3.002   1.221 -0.1287 -0.0050  0.0334
  353TMC3    O2 5351   0.994   3.322   1.364 -0.2235 -0.5036  0.2767
  354TMC3    C1 5352   1.730   0.149  13.489  0.0926  0.4092 -1.1634
  354TMC3    C2 5353   1.720   0.286  13.511  0.8959  0.0489  0.3016
  354TMC3    C3 5354   1.732   0.373  13.404  0.7325 -0.0459 -0.5808
  354TMC3    C4 5355   1.755   0.099  13.363 -0.4074 -1.1061  0.1973
  354TMC3    C5 5356   1.778   0.192  13.266  0.2577 -0.9097 -0.4470
  354TMC3    C6 5357   1.777   0.330  13.283 -0.0406 -0.1863  0.0879
  354TMC3     C 5358   1.691   0.058  13.594  0.0720 -0.1109 -0.2906
  354TMC3     O 5359   1.695   4.678  13.566 -0.5847  0.0996  0.2636
  354TMC3     H 5360   1.676   0.321  13.603 -1.8174 -0.4745 -0.8032
  354TMC3    H1 5361   1.728   4.736  13.350 -2.6976 -0.6820  1.5146
  354TMC3    H2 5362   1.794   0.390  13.194 -1.0987  1.2497  0.8542
  354TMC3    C7 5363   1.755   0.154  13.129 -0.2754  0.3738  0.1658
  354TMC3    C8 5364   1.681   0.514  13.408  0.0085 -0.2639 -0.1906
  354TMC3    O1 5365   1.655   0.091  13.097  0.3287 -0.3555  0.5013
  354TMC3    O2 5366   1.639   0.547  13.516  0.1513  1.4205 -0.0520
  355MPD2     C 5367   1.817   1.346  11.915 -0.2905 -0.7295 -0.2378
  355MPD2    C1 5368   1.927   1.373  11.842 -0.0713  0.7527  0.1274
  355MPD2    C2 5369   2.043   1.312  11.875 -0.5708  0.0507 -0.8350
  355MPD2    C3 5370   2.060   1.248  11.989 -0.3061 -0.1045 -0.7228
  355MPD2    C4 5371   1.948   1.226  12.066  0.6035  0.0773  0.3265
  355MPD2    C5 5372   1.826   1.269  12.023 -0.5105 -0.4782  0.5284
  355MPD2     H 5373   2.132   1.315  11.813  0.1069  1.0029  0.1695
  355MPD2    H1 5374   1.956   1.165  12.155  0.9248  1.6165  1.3526
  355MPD2    H2 5375   1.714   1.363  11.887 -0.5650 -1.3166  0.4180
  355MPD2    H3 5376   1.736   1.253  12.080  0.0219 -2.3991  0.8382
  355MPD2     N 5377   2.191   1.235  12.037 -0.0726  0.4852 -0.0159
  355MPD2    H5 5378   2.264   1.271  11.977  0.2625  0.7148  0.5241
  355MPD2    N1 5379   1.919   1.462  11.733  0.6908 -0.3179  0.0719
  355MPD2    H7 5380   1.826   1.499  11.717 -0.2994 -3.0148 -0.5027
  356TMC3    C1 5381   2.364   1.230  12.196 -0.1042 -0.0695 -0.2639
  356TMC3    C2 5382   2.437   1.267  12.085 -0.2025  0.0734 -1.3739
  356TMC3    C3 5383   2.499   1.390  12.080  0.0612 -0.3641 -0.2234
  356TMC3    C4 5384   2.366   1.320  12.304 -0.1150  1.0181  0.3249
  356TMC3    C5 5385   2.416   1.451  12.287  0.0411 -0.6470 -0.1586
  356TMC3    C6 5386   2.492   1.481  12.181 -0.9972  0.1493  0.0264
  356TMC3     C 5387   2.226   1.191  12.162  0.1307  0.6689  0.0557
  356TMC3     O 5388   2.151   1.165  12.256 -0.5116  0.0174  0.2299
  356TMC3     H 5389   2.444   1.195  12.004 -2.1216 -0.9382 -0.6366
  356TMC3    H1 5390   2.315   1.293  12.396  0.3127 -1.2036 -0.1031
  356TMC3    H2 5391   2.538   1.579  12.169 -0.0354 -0.2681  0.3767
  356TMC3    C7 5392   2.450   1.519  12.407  0.1323 -0.0253  0.4747
  356TMC3    C8 5393   2.499   1.447  11.948 -0.7407 -0.2567 -0.0586
  356TMC3    O1 5394   2.453   1.457  12.513 -0.4476  0.0278 -0.0080
  356TMC3    O2 5395   2.416   1.398  11.877  0.2987  0.3531  0.6572
  357MPD2     C 5396   1.623   0.724   0.291  1.1160  0.5494  0.2278
  357MPD2    C1 5397   1.595   0.599   0.331  0.6198 -0.4442 -0.3417
  357MPD2    C2 5398   1.518   0.573   0.439  0.4973  0.5696  0.5662
  357MPD2    C3 5399   1.463   0.679   0.517  0.3717  0.4791 -0.2287
  357MPD2    C4 5400   1.489   0.804   0.468 -0.1718  0.1763  0.1491
  357MPD2    C5 5401   1.562   0.827   0.354  0.1897 -0.0741  0.3386
  357MPD2     H 5402   1.479   0.474   0.463 -0.8008  0.8611 -0.3887
  357MPD2    H1 5403   1.455   0.893   0.521  1.1080 -0.3233  1.7970
  357MPD2    H2 5404   1.691   0.766   0.217 -1.0238 -0.7653 -2.4864
  357MPD2    H3 5405   1.578   0.927   0.316  0.9135 -0.3146  0.0166
  357MPD2     N 5406   1.380   0.671   0.635 -0.7074 -0.0314 -0.3699
  357MPD2    H5 5407   1.371   0.759   0.684 -0.6994 -0.3793  0.2607
  357MPD2    N1 5408   1.631   0.492   0.252 -0.4898  0.0463  0.3687
  357MPD2    H7 5409   1.582   0.406   0.274 -0.0090 -1.0412 -2.7248
  358TMC3    C1 5410   1.754   0.372   0.090  0.7302 -0.1118  0.1923
  358TMC3    C2 5411   1.667   0.271   0.103  0.3807  0.1471 -0.2038
  358TMC3    C3 5412   1.706   0.147   0.054 -0.6865 -0.3532 -0.5815
  358TMC3    C4 5413   1.876   0.354   0.046 -1.1257  0.2931  0.5039
  358TMC3    C5 5414   1.926   0.235   0.009 -0.0074 -0.1098  0.0201
  358TMC3    C6 5415   1.844   0.122   0.024  0.6356  0.2954 -0.4058
  358TMC3     C 5416   1.730   0.496   0.156  0.0793 -0.2608 -0.4914
  358TMC3     O 5417   1.804   0.590   0.127  0.0556  0.4289  0.1175
  358TMC3     H 5418   1.565   0.298   0.125 -0.3107 -2.7092  0.1129
  358TMC3    H1 5419   1.940   0.441   0.036 -0.8887  0.1728  0.9948
  358TMC3    H2 5420   1.887   0.032  17.741  1.7531  0.7104 -0.1492
  358TMC3    C7 5421   2.072   0.205   0.011 -0.3569  0.1458 -0.0269
  358TMC3    C8 5422   1.611   0.046   0.072  0.9615  0.4584 -0.2303
  358TMC3    O1 5423   2.103   0.091   0.046  0.2656 -0.0545  0.3329
  358TMC3    O2 5424   1.546   0.059   0.173  0.1474 -0.7830 -0.1073
  359MPD2     C 5425   2.192   4.540  12.670 -0.1345 -0.5318 -0.1795
  359MPD2    C1 5426   2.163   4.553  12.536 -0.3326  0.5291 -0.0433
  359MPD2    C2 5427   2.070   4.472  12.482 -0.8750 -1.0155 -0.0200
  359MPD2    C3 5428   1.999   4.381  12.557  0.5268 -0.6229 -1.2478
  359MPD2    C4 5429   2.021   4.372  12.693  0.6748  0.1183 -0.6316
  359MPD2    C5 5430   2.120   4.456  12.743  0.1026 -0.1720  0.3362
  359MPD2     H 5431   2.057   4.475  12.375  2.2693 -0.7517 -0.3810
  359MPD2    H1 5432   1.968   4.313  12.767 -2.9767  2.1976 -1.5743
  359MPD2    H2 5433   2.270   4.602  12.713  0.1559 -1.4207  0.5683
  359MPD2    H3 5434   2.124   4.453  12.852 -0.8335 -0.0077  0.3740
  359MPD2     N 5435   1.901   4.308  12.492  0.3954  0.1526  0.0159
  359MPD2    H5 5436   1.871   4.324  12.396  0.8885 -0.3262 -0.2221
  359MPD2    N1 5437   2.218   4.656  12.456  0.2292  0.1480 -0.5165
  359MPD2    H7 5438   2.197   4.644  12.357  2.7356  0.0182 -1.0130
  360TMC3    C1 5439   2.384   0.078  12.398  0.0750  0.0866 -0.5263
  360TMC3    C2 5440   2.516   0.111  12.420  1.0150  0.6631  0.3536
  360TMC3    C3 5441   2.598   0.139  12.318 -1.0031 -0.0281 -0.5388
  360TMC3    C4 5442   2.337   0.084  12.265  0.1941 -0.9879  0.2635
  360TMC3    C5 5443   2.428   0.115  12.164  0.1862 -0.2452  0.1242
  360TMC3    C6 5444   2.551   0.154  12.186  0.2268 -0.0696 -0.0970
  360TMC3     C 5445   2.302   0.014  12.502 -0.6839  0.6788  0.0473
  360TMC3     O 5446   2.315   0.059  12.612  0.1215  0.1336  1.0357
  360TMC3     H 5447   2.563   0.075  12.511 -0.3737 -0.4076  0.6438
  360TMC3    H1 5448   2.240   0.049  12.232  0.6344 -0.9392 -1.0932
  360TMC3    H2 5449   2.610   0.188  12.101  0.5998  0.1602  0.2574
  360TMC3    C7 5450   2.389   0.115  12.021  0.2392 -0.2681  0.1682
  360TMC3    C8 5451   2.730   0.086  12.333  0.0108 -0.5700 -0.1790
  360TMC3    O1 5452   2.453   0.187  11.947  0.0101  0.4264 -0.0435
  360TMC3    O2 5453   2.774   0.092  12.445  0.2618  0.5115  0.6622
  361MPD2     C 5454   3.822   3.145  16.941  0.1236  0.2473 -0.4168
  361MPD2    C1 5455   3.850   3.213  17.060 -0.0642 -0.1337  0.1815
  361MPD2    C2 5456   3.920   3.146  17.158 -0.8311 -0.1370  0.0678
  361MPD2    C3 5457   3.976   3.018  17.134  0.6761 -0.6607  0.3059
  361MPD2    C4 5458   3.946   2.951  17.019  0.5922 -0.5841  0.9304
  361MPD2    C5 5459   3.866   3.009  16.927  0.0532 -0.6101  0.1173
  361MPD2     H 5460   3.928   3.189  17.256 -2.8050  1.2932 -0.3889
  361MPD2    H1 5461   3.983   2.854  16.988 -0.8789 -2.0545  3.7908
  361MPD2    H2 5462   3.765   3.194  16.864 -1.0557 -0.0706  0.2511
  361MPD2    H3 5463   3.837   2.955  16.837  0.5605 -1.4855  0.4809
  361MPD2     N 5464   4.072   2.955  17.219 -0.0397 -0.1126  0.1288
  361MPD2    H5 5465   4.102   2.866  17.181 -2.7274 -0.3591 -1.3321
  361MPD2    N1 5466   3.799   3.342  17.097  0.3903  0.4281 -0.4829
  361MPD2    H7 5467   3.804   3.374  17.193 -1.5286 -0.1525 -0.2022
  362TMC3    C1 5468   3.681   3.535  17.076  0.8379 -0.0090  0.1023
  362TMC3    C2 5469   3.545   3.537  17.091 -0.1531 -0.6464 -0.5229
  362TMC3    C3 5470   3.485   3.664  17.104  0.0388  0.1483 -0.6693
  362TMC3    C4 5471   3.765   3.647  17.075 -0.3596  0.3694 -0.2388
  362TMC3    C5 5472   3.698   3.770  17.075  0.6306 -0.0401 -0.2193
  362TMC3    C6 5473   3.560   3.783  17.095 -0.0981  0.4322 -0.5914
  362TMC3     C 5474   3.727   3.420  17.011  0.4558  1.1883 -0.0793
  362TMC3     O 5475   3.677   3.388  16.902 -0.0647  0.7045 -0.3272
  362TMC3     H 5476   3.492   3.443  17.086 -2.2345  0.6137 -2.6119
  362TMC3    H1 5477   3.872   3.629  17.068 -0.6755 -2.5717  2.3030
  362TMC3    H2 5478   3.515   3.881  17.109  0.3170  0.4644  0.5024
  362TMC3    C7 5479   3.783   3.868  17.016 -0.0222 -0.1113 -0.2470
  362TMC3    C8 5480   3.349   3.670  17.160  0.2880  0.0646 -0.0511
  362TMC3    O1 5481   3.902   3.865  17.047  0.0440  0.3042 -0.7083
  362TMC3    O2 5482   3.285   3.567  17.142 -0.0534  0.1147  0.3689
  363TMC3    C1 5483   3.289   1.607  10.022 -0.2410  0.6833  0.7163
  363TMC3    C2 5484   3.172   1.534  10.014  0.1365 -0.6657 -0.1346
  363TMC3    C3 5485   3.058   1.611   9.988  0.1144 -0.2869 -0.1016
  363TMC3    C4 5486   3.291   1.740   9.995 -0.6343  0.7664 -0.6225
  363TMC3    C5 5487   3.178   1.814   9.970 -0.0568  0.6349  0.1423
  363TMC3    C6 5488   3.060   1.743   9.965  0.0332 -0.6591 -0.1154
  363TMC3     C 5489   3.411   1.532  10.050  0.4626  0.5413  0.8493
  363TMC3     O 5490   3.399   1.418  10.091  0.2883  0.2633 -0.5076
  363TMC3     H 5491   3.169   1.425  10.010  3.0812 -0.6534 -2.6709
  363TMC3    H1 5492   3.378   1.801  10.016  0.7352 -1.2426 -0.3989
  363TMC3    H2 5493   2.970   1.799   9.940  1.5924  1.3307 -1.3316
  363TMC3    C7 5494   3.172   1.954  10.004 -0.3106 -0.5077 -0.1484
  363TMC3    C8 5495   2.926   1.561  10.034 -0.1188  1.0660  0.1960
  363TMC3    O1 5496   3.117   2.029   9.924 -0.2805 -0.4693 -0.4661
  363TMC3    O2 5497   2.832   1.644  10.028 -0.0151  0.1237 -0.1130
  364MPD2     C 5498   1.203   0.846  10.218  0.5635  0.1395 -0.0933
  364MPD2    C1 5499   1.299   0.916  10.293  0.0520 -0.4071 -0.8485
  364MPD2    C2 5500   1.355   0.850  10.404  0.4793  0.8027 -0.0882
  364MPD2    C3 5501   1.315   0.720  10.430 -0.3721 -0.2668  0.2401
  364MPD2    C4 5502   1.212   0.658  10.357 -0.1645 -0.1893  0.0082
  364MPD2    C5 5503   1.158   0.726  10.255 -0.0493  0.2144  0.0306
  364MPD2     H 5504   1.441   0.897  10.451  1.3221  1.6966 -2.4924
  364MPD2    H1 5505   1.189   0.554  10.373  0.5103 -0.3979 -0.3850
  364MPD2    H2 5506   1.157   0.880  10.126  1.2376 -1.6037 -1.0715
  364MPD2    H3 5507   1.081   0.672  10.200 -0.3420 -0.2163  0.8708
  364MPD2     N 5508   1.402   0.633  10.491  0.2674  0.2001  0.8893
  364MPD2    H5 5509   1.396   0.532  10.479 -0.8506 -0.1690  4.6626
  364MPD2    N1 5510   1.360   1.028  10.228  0.0150 -0.3778 -0.0559
  364MPD2    H7 5511   1.326   1.059  10.138  2.1432  0.6556 -0.4954
  365TMC3    C1 5512   1.467   1.223  10.211  0.2156  0.4248 -0.5210
  365TMC3    C2 5513   1.496   1.201  10.077  1.0677 -0.5515  0.1375
  365TMC3    C3 5514   1.517   1.314  10.001  0.4329 -0.5695 -0.4889
  365TMC3    C4 5515   1.490   1.344  10.271  0.8486  0.1730 -0.1204
  365TMC3    C5 5516   1.538   1.446  10.194 -0.0491 -0.3131 -0.0725
  365TMC3    C6 5517   1.553   1.434  10.059 -0.1606  0.3063  1.2440
  365TMC3     C 5518   1.444   1.111  10.293  0.0098  0.0198  0.7716
  365TMC3     O 5519   1.513   1.097  10.393  0.2714 -0.0234 -0.7413
  365TMC3     H 5520   1.487   1.100  10.037  1.3545 -0.3104 -0.5413
  365TMC3    H1 5521   1.493   1.355  10.379 -0.0153  1.3693 -0.2156
  365TMC3    H2 5522   1.582   1.520   9.999  2.0071 -0.5689  1.0147
  365TMC3    C7 5523   1.563   1.579  10.250  0.4042 -0.3773 -0.0347
  365TMC3    C8 5524   1.521   1.310   9.852 -0.2568  0.1079  0.2504
  365TMC3    O1 5525   1.637   1.655  10.187 -0.3209 -0.2142  0.1681
  365TMC3    O2 5526   1.586   1.398   9.793  0.1465  0.3359 -0.3477
  366MPD2     C 5527   4.108   1.135  15.708  0.0181 -0.0544  0.0672
  366MPD2    C1 5528   4.174   1.244  15.763 -0.3651 -0.1181  0.3379
  366MPD2    C2 5529   4.301   1.273  15.720 -0.0153 -0.6360 -0.3300
  366MPD2    C3 5530   4.372   1.193  15.636 -0.3077 -0.2593  0.1897
  366MPD2    C4 5531   4.308   1.084  15.587 -0.0894 -0.0477  0.0279
  366MPD2    C5 5532   4.171   1.055  15.615 -0.1832 -0.1410 -0.2601
  366MPD2     H 5533   4.347   1.366  15.750 -1.4776  0.0087 -0.1147
  366MPD2    H1 5534   4.362   1.031  15.509 -1.2231 -0.1187 -0.7146
  366MPD2    H2 5535   4.005   1.114  15.733 -0.4999  2.2070 -0.1387
  366MPD2    H3 5536   4.115   0.987  15.554 -0.3264  0.3262 -0.6527
  366MPD2     N 5537   4.510   1.236  15.599 -0.5870 -0.8211  0.4919
  366MPD2    H5 5538   4.541   1.325  15.638 -0.0871  0.4002 -2.6824
  366MPD2    N1 5539   4.124   1.329  15.867 -0.3069 -0.3590 -0.0840
  366MPD2    H7 5540   4.190   1.401  15.897 -0.8048  0.3034 -0.5834
  367TMC3    C1 5541   3.965   1.469  15.956  0.8853  0.0046  0.0785
  367TMC3    C2 5542   4.077   1.512  16.019 -0.1950 -0.1769 -1.0715
  367TMC3    C3 5543   4.108   1.645  16.000  0.3438 -0.0246 -0.3112
  367TMC3    C4 5544   3.880   1.547  15.879  0.5507 -0.4817  0.2932
  367TMC3    C5 5545   3.908   1.680  15.865  0.6197  0.8046  0.0106
  367TMC3    C6 5546   4.021   1.729  15.927 -0.9071  0.0441 -0.0174
  367TMC3     C 5547   3.992   1.348  15.889 -0.0156 -0.1258  0.6343
  367TMC3     O 5548   3.895   1.283  15.855  0.2416 -0.0540  0.2114
  367TMC3     H 5549   4.141   1.454  16.084 -1.9326 -1.8674 -0.8895
  367TMC3    H1 5550   3.799   1.506  15.819  0.1237 -0.3731  0.7927
  367TMC3    H2 5551   4.035   1.836  15.930  0.6614 -0.1921  1.0004
  367TMC3    C7 5552   3.854   1.760  15.762  0.3216  0.4933 -0.0603
  367TMC3    C8 5553   4.239   1.704  16.041 -0.1035 -0.4362 -0.3643
  367TMC3    O1 5554   3.932   1.843  15.713 -0.7178  0.2051  0.0804
  367TMC3    O2 5555   4.327   1.620  16.071  0.4438  0.1278  0.2683
  368MPD2     C 5556   0.614   3.230  13.500 -0.2738 -0.3928 -0.0158
  368MPD2    C1 5557   0.603   3.368  13.484  0.0482 -0.7729 -0.5049
  368MPD2    C2 5558   0.679   3.428  13.394 -0.6273 -0.3443  0.3852
  368MPD2    C3 5559   0.756   3.358  13.304  0.5186 -0.6293  0.0445
  368MPD2    C4 5560   0.769   3.219  13.318  0.4999 -0.4030  0.5223
  368MPD2    C5 5561   0.698   3.159  13.419 -0.3581  0.3843 -0.1433
  368MPD2     H 5562   0.674   3.536  13.388  2.8342 -0.1319  1.3720
  368MPD2    H1 5563   0.841   3.157  13.265  1.4324  0.5821  0.6354
  368MPD2    H2 5564   0.570   3.173  13.580 -0.6753 -0.2546 -0.1400
  368MPD2    H3 5565   0.731   3.058  13.439 -1.4698 -0.1089 -0.8058
  368MPD2     N 5566   0.844   3.429  13.217 -0.1143 -0.4622 -0.3128
  368MPD2    H5 5567   0.904   3.369  13.163 -0.2496  0.5065 -1.5414
  368MPD2    N1 5568   0.513   3.439  13.567 -0.1464  0.7695  0.5331
  368MPD2    H7 5569   0.430   3.394  13.604  0.6952 -0.5370  0.8311
  369TMC3    C1 5570   0.397   3.636  13.631 -0.6619  0.2220  0.0966
  369TMC3    C2 5571   0.406   3.772  13.601  0.4683 -0.5110 -0.7494
  369TMC3    C3 5572   0.318   3.821  13.515  0.1486 -0.0910  0.0509
  369TMC3    C4 5573   0.290   3.562  13.592  0.7687  0.6259  0.2363
  369TMC3    C5 5574   0.193   3.623  13.514 -0.6934 -0.3639 -0.0517
  369TMC3    C6 5575   0.213   3.750  13.471  0.3391  0.2946 -0.3137
  369TMC3     C 5576   0.525   3.567  13.600  0.0916 -0.1489  0.9890
  369TMC3     O 5577   0.621   3.643  13.588 -0.3737 -0.2399 -0.6226
  369TMC3     H 5578   0.497   3.824  13.629 -0.5252  1.0227 -0.3608
  369TMC3    H1 5579   0.271   3.463  13.632  1.4356  1.1876  1.9697
  369TMC3    H2 5580   0.146   3.790  13.395 -0.2352 -0.1167 -0.0183
  369TMC3    C7 5581   0.068   3.552  13.489 -0.6141 -0.1057 -0.8695
  369TMC3    C8 5582   0.372   3.926  13.427 -0.0559 -0.8850 -0.1103
  369TMC3    O1 5583   0.038   3.480  13.582 -0.4179 -0.1857  0.3154
  369TMC3    O2 5584   0.293   3.993  13.361 -0.4930  0.2213  0.3673
  370TMC3    C1 5585   0.012   4.022  16.582  0.7574  0.7457 -0.1316
  370TMC3    C2 5586   4.698   3.931  16.675  0.3970 -0.6252 -0.0705
  370TMC3    C3 5587   4.655   3.811  16.633  0.2163 -0.2259 -0.8283
  370TMC3    C4 5588   0.023   3.982  16.456 -0.0065 -1.0917  0.1000
  370TMC3    C5 5589   4.720   3.865  16.418 -0.2293  0.0891 -0.1828
  370TMC3    C6 5590   4.664   3.772  16.504  0.0937  0.2170  0.3818
  370TMC3     C 5591   0.134   4.081  16.630 -0.2320 -0.1565 -0.0629
  370TMC3     O 5592   0.181   4.050  16.740 -0.4746 -0.8516  0.3707
  370TMC3     H 5593   4.686   3.974  16.773 -1.2325 -0.5425 -0.3120
  370TMC3    H1 5594   0.064   4.047  16.379 -0.8657  1.2946  1.6708
  370TMC3    H2 5595   4.622   3.677  16.472  1.9189 -0.2227 -0.6991
  370TMC3    C7 5596   0.014   3.831  16.283  0.3819 -0.0541 -0.2562
  370TMC3    C8 5597   4.592   3.727  16.729 -0.4521  0.8010 -0.3471
  370TMC3    O1 5598   0.045   3.915  16.200 -0.0236  0.8245  0.4189
  370TMC3    O2 5599   4.569   3.612  16.695 -0.2126 -0.1435  0.4451
  371TMC3    C1 5600   1.337   2.278  15.799 -0.3191 -0.4125 -0.0177
  371TMC3    C2 5601   1.207   2.277  15.845  0.7018  0.4067  0.5108
  371TMC3    C3 5602   1.128   2.390  15.830  0.9052  0.4361  0.1204
  371TMC3    C4 5603   1.397   2.388  15.743 -0.0615  0.5545 -0.0801
  371TMC3    C5 5604   1.321   2.502  15.734 -0.0223 -0.1112 -0.0184
  371TMC3    C6 5605   1.182   2.495  15.764  0.1581  0.5227 -0.0427
  371TMC3     C 5606   1.407   2.153  15.772  0.1133  0.1797  0.1092
  371TMC3     O 5607   1.484   2.152  15.680  0.9058  0.5225 -0.5022
  371TMC3     H 5608   1.167   2.181  15.877  1.1700 -0.1226 -0.4811
  371TMC3    H1 5609   1.503   2.395  15.721 -0.8191  1.0508 -3.6885
  371TMC3    H2 5610   1.122   2.576  15.725  1.3083  1.8259  0.8563
  371TMC3    C7 5611   1.366   2.616  15.669 -0.0447  0.1074  0.6432
  371TMC3    C8 5612   0.987   2.365  15.817 -0.1838  1.1293 -0.1963
  371TMC3    O1 5613   1.290   2.708  15.677 -0.0936  0.0831  0.1283
  371TMC3    O2 5614   0.954   2.248  15.825  0.3020 -0.4691  0.3274
  372MPD2     C 5615   1.735   3.771  13.111  0.0137  0.0222 -0.2739
  372MPD2    C1 5616   1.756   3.715  13.234 -0.0074 -0.4631  0.3107
  372MPD2    C2 5617   1.643   3.686  13.304 -0.3644 -0.2999  0.1260
  372MPD2    C3 5618   1.516   3.715  13.261 -0.0133 -0.8145  0.9924
  372MPD2    C4 5619   1.502   3.776  13.135 -0.2169  0.0063 -0.1977
  372MPD2    C5 5620   1.609   3.794  13.062  0.2560 -0.5448  0.3981
  372MPD2     H 5621   1.664   3.640  13.400 -1.5418 -1.8825 -0.3720
  372MPD2    H1 5622   1.407   3.784  13.084  0.4269 -1.6372 -1.6478
  372MPD2    H2 5623   1.811   3.796  13.039 -0.4312  0.7025 -0.5178
  372MPD2    H3 5624   1.592   3.838  12.964  3.4013 -0.8693 -0.2793
  372MPD2     N 5625   1.401   3.678  13.330  0.4474  0.3020  0.1730
  372MPD2    H5 5626   1.409   3.638  13.424  1.3975  0.8818  0.3471
  372MPD2    N1 5627   1.882   3.694  13.284  0.0497  0.0345 -0.2450
  372MPD2    H7 5628   1.898   3.683  13.384 -2.3553  1.8324  0.3385
  373TMC3    C1 5629   1.174   3.656  13.389 -0.1399  0.3772 -0.3160
  373TMC3    C2 5630   1.072   3.732  13.430 -0.5287 -0.5384 -0.6053
  373TMC3    C3 5631   0.972   3.667  13.510  0.1633  0.2213 -0.0896
  373TMC3    C4 5632   1.191   3.524  13.417  0.3763 -0.2573 -0.3003
  373TMC3    C5 5633   1.086   3.459  13.472 -0.1925 -0.3053  0.1320
  373TMC3    C6 5634   0.978   3.528  13.525  0.5220 -0.0113 -0.0025
  373TMC3     C 5635   1.276   3.722  13.307  0.1456  0.1368 -0.3917
  373TMC3     O 5636   1.245   3.817  13.242 -0.0709  0.4370  0.6407
  373TMC3     H 5637   1.068   3.839  13.413 -1.1722 -0.1845  1.6918
  373TMC3    H1 5638   1.274   3.475  13.368 -0.6345 -2.0699 -0.2255
  373TMC3    H2 5639   0.891   3.487  13.574  1.1295 -0.9674  0.2798
  373TMC3    C7 5640   1.119   3.334  13.539  0.1178 -0.5775  0.1062
  373TMC3    C8 5641   0.948   3.741  13.631  0.8593 -0.3662  0.2448
  373TMC3    O1 5642   1.228   3.289  13.515 -0.3570  0.7703 -0.4167
  373TMC3    O2 5643   1.035   3.826  13.648  0.0649  0.3533  0.4022
  374TMC3    C1 5644   1.362   4.682   9.849  0.4157  0.1729  0.6470
  374TMC3    C2 5645   1.490   4.649   9.868 -0.3010 -0.2566 -0.0517
  374TMC3    C3 5646   1.555   4.594   9.760 -0.4634 -0.4897 -0.1023
  374TMC3    C4 5647   1.286   4.654   9.740 -0.8841  0.0570  0.1936
  374TMC3    C5 5648   1.363   4.612   9.631  0.1938  0.3656  0.1544
  374TMC3    C6 5649   1.492   4.587   9.640 -0.1713 -0.0363  0.1898
  374TMC3     C 5650   1.286   0.007   9.952 -0.2153 -0.4546  0.5423
  374TMC3     O 5651   1.187   0.076   9.926 -0.1096 -0.1032 -0.2712
  374TMC3     H 5652   1.550   4.674   9.955 -0.4976  1.7618 -0.5010
  374TMC3    H1 5653   1.182   4.685   9.739 -0.0277  2.7394 -3.0859
  374TMC3    H2 5654   1.553   4.547   9.559  0.6555  0.8006  0.4084
  374TMC3    C7 5655   1.301   4.639   9.505 -0.4525 -0.2176 -0.0628
  374TMC3    C8 5656   1.696   4.544   9.769 -0.4268 -0.1663 -0.1486
  374TMC3    O1 5657   1.376   4.645   9.406  0.0521 -0.1393 -0.3146
  374TMC3    O2 5658   1.758   4.516   9.671 -0.3228  0.6098 -0.1715
  375MPD2     C 5659   1.551   4.674  17.414 -0.3405  0.1700 -0.0704
  375MPD2    C1 5660   1.457   4.621  17.324  1.1067 -0.6920  0.1811
  375MPD2    C2 5661   1.513   4.553  17.214 -0.4449  0.4162 -0.9490
  375MPD2    C3 5662   1.651   4.550  17.186 -0.0062 -0.1672  0.2535
  375MPD2    C4 5663   1.740   4.605  17.276 -0.3600  0.4547  0.4731
  375MPD2    C5 5664   1.688   4.668  17.387 -0.0911  0.4458  0.3803
  375MPD2     H 5665   1.439   4.504  17.152 -0.3298  0.6608 -1.2813
  375MPD2    H1 5666   1.846   4.605  17.255  0.2064  0.3292  3.4135
  375MPD2    H2 5667   1.513   4.707  17.510  0.7110 -0.1584  0.4589
  375MPD2    H3 5668   1.758   4.699  17.463 -0.6217  2.7628 -0.0779
  375MPD2     N 5669   1.710   4.495  17.072  0.0294 -0.3922  0.1236
  375MPD2    H5 5670   1.811   4.499  17.063 -0.0964  4.7528  0.6784
  375MPD2    N1 5671   1.318   4.618  17.345  0.6508 -0.2999 -0.0301
  375MPD2    H7 5672   1.260   4.572  17.275  0.4690 -0.5603  0.2933
  376TMC3    C1 5673   1.737   4.363  16.884 -0.4776 -0.4009  0.4046
  376TMC3    C2 5674   1.870   4.352  16.917 -0.6979 -0.5550 -0.2669
  376TMC3    C3 5675   1.944   4.273  16.832 -0.7202 -0.6681 -0.4759
  376TMC3    C4 5676   1.676   4.286  16.787  0.5072  0.0453 -0.2916
  376TMC3    C5 5677   1.757   4.206  16.715  0.0144 -0.9547  0.0019
  376TMC3    C6 5678   1.894   4.207  16.730 -0.4271  0.3200  0.1839
  376TMC3     C 5679   1.644   4.424  16.976  0.2652  1.2501 -0.0605
  376TMC3     O 5680   1.523   4.402  16.966 -0.4626  0.0077 -0.0046
  376TMC3     H 5681   1.918   4.398  17.003 -1.1058 -4.2442  1.9425
  376TMC3    H1 5682   1.569   4.297  16.779  0.5320  0.5850  0.0888
  376TMC3    H2 5683   1.957   4.151  16.661 -0.8934 -2.7364  2.2375
  376TMC3    C7 5684   1.694   4.154  16.593 -0.6010  0.7241 -0.1784
  376TMC3    C8 5685   2.081   4.321  16.815 -0.5770 -0.3314 -0.6065
  376TMC3    O1 5686   1.749   4.059  16.540  0.5686  0.1796  0.3857
  376TMC3    O2 5687   2.113   4.423  16.874 -0.3028 -0.0023  0.0044
  377MPD2     C 5688   4.601   4.008  13.343  0.1718 -0.5945  0.1070
  377MPD2    C1 5689   4.499   4.035  13.257 -0.6361 -0.9445 -0.1985
  377MPD2    C2 5690   4.369   3.997  13.287  0.2161  0.4318 -0.1798
  377MPD2    C3 5691   4.343   3.937  13.409  0.0732 -0.3186 -0.2571
  377MPD2    C4 5692   4.440   3.919  13.502  0.0679  0.0399  0.1033
  377MPD2    C5 5693   4.569   3.951  13.460 -0.3888  0.0950  0.5445
  377MPD2     H 5694   4.289   3.996  13.214 -0.8647  3.1060  0.9692
  377MPD2    H1 5695   4.424   3.858  13.589  1.9809  0.2386  0.5856
  377MPD2    H2 5696   4.701   4.037  13.313  1.0813 -2.2886  1.4424
  377MPD2    H3 5697   4.642   3.918  13.533 -1.3677 -2.2458  0.4965
  377MPD2     N 5698   4.222   3.874  13.446 -0.2366  0.6907  0.1298
  377MPD2    H5 5699   4.211   3.832  13.538  1.1629 -1.8762 -0.8786
  377MPD2    N1 5700   4.544   4.097  13.140  0.4834  0.3180  0.3008
  377MPD2    H7 5701   4.646   4.101  13.140  0.4660  1.0135 -2.9477
  378TMC3    C1 5702   4.592   4.186  12.703  0.0849  0.0716 -0.3060
  378TMC3    C2 5703   4.509   4.181  12.810  0.5907  0.9580 -0.2181
  378TMC3    C3 5704   4.566   4.195  12.931 -0.0623 -0.1762 -0.0944
  378TMC3    C4 5705   4.729   4.172  12.713  0.1985  0.3282 -0.3026
  378TMC3    C5 5706   0.042   4.185  12.841  0.9436 -1.0871 -0.5247
  378TMC3    C6 5707   4.701   4.196  12.955 -0.9174 -0.0900  0.0285
  378TMC3     C 5708   4.526   4.199  12.573 -0.3144  0.1316 -0.4012
  378TMC3     O 5709   4.401   4.193  12.573 -0.3509 -0.2246  0.0296
  378TMC3     H 5710   4.401   4.179  12.801  0.6094  0.2661 -0.2884
  378TMC3    H1 5711   0.045   4.137  12.627  1.5841  1.7860  0.0310
  378TMC3    H2 5712   0.000   4.207  13.055 -1.6765  0.3222  0.2851
  378TMC3    C7 5713   0.181   4.157  12.866 -0.6804  0.5403 -0.1983
  378TMC3    C8 5714   4.478   4.143  13.037 -0.4064  0.3614 -0.5404
  378TMC3    O1 5715   0.217   4.145  12.981  0.4492  0.4191 -0.3932
  378TMC3    O2 5716   4.355   4.139  13.020  0.0371  0.2675 -0.3530
  379MPD2     C 5717   0.806   1.799  16.379 -0.0677  0.5571 -0.5030
  379MPD2    C1 5718   0.692   1.754  16.443  0.0764  0.1285  0.3456
  379MPD2    C2 5719   0.689   1.721  16.579 -0.0080  1.0925 -0.2327
  379MPD2    C3 5720   0.804   1.744  16.651 -0.4631  0.6629  0.2507
  379MPD2    C4 5721   0.913   1.793  16.588  0.5427  0.0464 -0.3410
  379MPD2    C5 5722   0.915   1.823  16.456 -0.1832  0.5703 -0.5411
  379MPD2     H 5723   0.594   1.677  16.608  1.4042 -1.3242  0.7247
  379MPD2    H1 5724   1.006   1.809  16.640  1.4104 -0.9881 -1.6000
  379MPD2    H2 5725   0.813   1.818  16.273 -2.6715 -1.7329 -1.0715
  379MPD2    H3 5726   1.004   1.840  16.395 -0.7353  1.6503 -1.0449
  379MPD2     N 5727   0.813   1.718  16.788  0.5529  0.7105 -0.2325
  379MPD2    H5 5728   0.907   1.721  16.827 -0.0585  1.3639  1.1805
  379MPD2    N1 5729   0.581   1.750  16.358  0.5302 -0.5348  1.0544
  379MPD2    H7 5730   0.600   1.768  16.260  2.4866  0.3928  1.6057
  380TMC3    C1 5731   0.362   1.759  16.275  0.2616  0.4191 -0.7205
  380TMC3    C2 5732   0.412   1.714  16.156 -0.0561  0.5313 -0.3647
  380TMC3    C3 5733   0.351   1.757  16.041  0.0874 -0.7998  0.1813
  380TMC3    C4 5734   0.249   1.839  16.284 -0.4360  0.9919  0.3756
  380TMC3    C5 5735   0.188   1.863  16.168 -0.5369  0.2702 -0.1367
  380TMC3    C6 5736   0.233   1.831  16.047 -0.5142 -0.6369 -0.2831
  380TMC3     C 5737   0.447   1.759  16.393  0.1476  0.0286  0.9159
  380TMC3     O 5738   0.392   1.754  16.500 -0.7348  0.5425 -0.2858
  380TMC3     H 5739   0.493   1.642  16.163  0.0734  0.7516  0.5064
  380TMC3    H1 5740   0.205   1.878  16.375 -1.5953  1.6326 -0.4652
  380TMC3    H2 5741   0.186   1.873  15.959 -1.0756  2.9354  1.7372
  380TMC3    C7 5742   0.086   1.958  16.170  0.7062  0.1239  0.2665
  380TMC3    C8 5743   0.430   1.809  15.934 -0.2615 -0.0527  0.4219
  380TMC3    O1 5744   0.103   2.050  16.249 -0.0261  0.1558  0.3718
  380TMC3    O2 5745   0.387   1.903  15.860  0.0489  0.2779  0.1263
  381TMC3    C1 5746   4.651   2.990  16.399  0.2911  0.1674 -0.1474
  381TMC3    C2 5747   4.735   3.099  16.390 -0.2297 -0.5782  0.1452
  381TMC3    C3 5748   0.018   3.167  16.505  0.7898 -0.0447 -0.5687
  381TMC3    C4 5749   4.601   2.944  16.515 -0.6088 -0.6628 -0.0529
  381TMC3    C5 5750   4.618   3.029  16.614  0.3518 -0.2143  0.1843
  381TMC3    C6 5751   4.702   3.138  16.620 -0.0671  0.7735 -0.3514
  381TMC3     C 5752   4.652   2.907  16.279  0.1635  1.1394 -0.8848
  381TMC3     O 5753   4.658   2.788  16.280 -0.2729 -0.0941  0.1621
  381TMC3     H 5754   0.040   3.137  16.299 -0.8052  2.5702  1.1432
  381TMC3    H1 5755   4.552   2.848  16.526 -0.8658 -0.5260 -0.0066
  381TMC3    H2 5756   4.728   3.199  16.705 -0.6415  1.2221 -0.4997
  381TMC3    C7 5757   4.549   2.998  16.735 -0.5368 -0.4044 -0.3777
  381TMC3    C8 5758   0.140   3.246  16.500  0.4784 -0.1969 -0.2305
  381TMC3    O1 5759   4.516   2.881  16.741  0.3053 -0.3747 -0.5880
  381TMC3    O2 5760   0.207   3.229  16.401 -0.5399  0.2756 -0.4862
  382MPD2     C 5761   4.380   0.695   0.428 -0.4296 -0.1363 -0.4282
  382MPD2    C1 5762   4.328   0.736   0.309 -0.8072 -0.7645 -0.4472
  382MPD2    C2 5763   4.245   0.643   0.243  0.3347 -0.3078  0.2355
  382MPD2    C3 5764   4.218   0.517   0.287 -0.3869  0.4001 -1.0183
  382MPD2    C4 5765   4.277   0.471   0.400 -0.2101 -0.5335  0.6640
  382MPD2    C5 5766   4.357   0.563   0.468  0.0449 -0.3007  0.7838
  382MPD2     H 5767   4.203   0.688   0.154 -1.9387 -3.7700 -0.4261
  382MPD2    H1 5768   4.266   0.371   0.440 -0.4857 -1.7471 -2.4296
  382MPD2    H2 5769   4.447   0.758   0.486  0.0557 -1.2220  0.1886
  382MPD2    H3 5770   4.394   0.526   0.564 -1.3588  1.1711  1.8794
  382MPD2     N 5771   4.134   0.424   0.215  0.8788  0.2678  0.4533
  382MPD2    H5 5772   4.117   0.333   0.255 -1.0983 -0.7683 -2.7083
  382MPD2    N1 5773   4.344   0.861   0.253 -0.4901 -0.0247 -0.3113
  382MPD2    H7 5774   4.281   0.888   0.178 -0.2727 -1.0988 -0.8760
  383TMC3    C1 5775   3.946   0.359   0.083  0.5422 -0.1627  0.2208
  383TMC3    C2 5776   3.871   0.384  17.735 -0.0409 -0.7709 -0.1122
  383TMC3    C3 5777   3.751   0.319  17.714  0.8024 -0.4642  1.0576
  383TMC3    C4 5778   3.894   0.279   0.179 -0.0028 -0.0425  0.2591
  383TMC3    C5 5779   3.770   0.211   0.151 -0.2309  0.3156 -0.3008
  383TMC3    C6 5780   3.697   0.227   0.038  0.5072 -0.2701 -0.0742
  383TMC3     C 5781   4.053   0.456   0.109 -0.7572 -0.2093  0.3156
  383TMC3     O 5782   4.060   0.556   0.037  0.0764  0.2757  0.6527
  383TMC3     H 5783   3.907   0.455  17.660 -0.4008 -0.9231 -0.4286
  383TMC3    H1 5784   3.948   0.260   0.271 -2.3444 -1.3781  1.3353
  383TMC3    H2 5785   3.592   0.202   0.028  0.6828 -0.8234 -0.5140
  383TMC3    C7 5786   3.693   0.148   0.260 -0.0003  0.0691 -0.1991
  383TMC3    C8 5787   3.656   0.375  17.613 -0.0793 -0.2786 -0.4837
  383TMC3    O1 5788   3.607   0.065   0.235  0.4096 -0.4534 -0.1053
  383TMC3    O2 5789   3.569   0.299  17.581  0.0053 -0.2551 -0.1247
  384MPD2     C 5790   0.893   1.876  11.993  0.2911 -0.1190 -0.6249
  384MPD2    C1 5791   0.980   1.905  12.099  0.4764 -0.1357  0.3047
  384MPD2    C2 5792   1.105   1.953  12.061  0.4507  0.8516  0.2682
  384MPD2    C3 5793   1.140   1.946  11.921  0.5570  0.2659  0.0874
  384MPD2    C4 5794   1.056   1.905  11.825  0.4109  0.1369  0.3502
  384MPD2    C5 5795   0.927   1.869  11.863  0.2481  0.6535 -0.2757
  384MPD2     H 5796   1.183   1.982  12.130 -0.3292  1.1694  1.0117
  384MPD2    H1 5797   1.090   1.897  11.722 -0.8617 -1.3801  0.0482
  384MPD2    H2 5798   0.791   1.842  12.010 -1.2312  4.6053 -0.3686
  384MPD2    H3 5799   0.865   1.839  11.779  1.4347 -1.3371 -0.4328
  384MPD2     N 5800   1.273   1.953  11.879 -0.1571 -0.6193 -0.2661
  384MPD2    H5 5801   1.297   1.909  11.791  0.7651  0.5625 -0.6015
  384MPD2    N1 5802   0.933   1.896  12.235  0.5504  0.0664  0.5738
  384MPD2    H7 5803   0.853   1.837  12.255  1.6869 -1.4562  0.6191
  385TMC3    C1 5804   1.507   1.947  11.920 -0.5929 -0.2759 -1.1147
  385TMC3    C2 5805   1.536   1.883  11.806 -0.5499  0.4407 -0.0971
  385TMC3    C3 5806   1.583   1.758  11.822 -0.0700 -0.6519 -0.2561
  385TMC3    C4 5807   1.566   1.905  12.039 -0.6486  0.2142 -1.1630
  385TMC3    C5 5808   1.628   1.781  12.049 -0.3218 -0.5119 -0.9282
  385TMC3    C6 5809   1.635   1.707  11.938 -0.0614  0.3112  0.0916
  385TMC3     C 5810   1.379   2.013  11.948 -0.3826  0.8093  0.4058
  385TMC3     O 5811   1.378   2.096  12.043 -0.1873 -0.0704  0.0799
  385TMC3     H 5812   1.499   1.919  11.711  2.3447 -0.4448 -1.5662
  385TMC3    H1 5813   1.547   1.957  12.132 -1.1240  2.0899 -2.2965
  385TMC3    H2 5814   1.683   1.610  11.934  1.1913  0.8822  1.4070
  385TMC3    C7 5815   1.607   1.722  12.183  0.4814 -0.3651 -0.3279
  385TMC3    C8 5816   1.604   1.682  11.700 -0.3068 -0.1860 -0.1345
  385TMC3    O1 5817   1.609   1.793  12.282  0.3052  0.4859 -0.7617
  385TMC3    O2 5818   1.696   1.605  11.689 -0.2067  0.1621 -0.4448
  386TMC3    C1 5819   1.297   4.303  12.041 -0.3637 -0.3691 -0.1251
  386TMC3    C2 5820   1.325   4.389  11.939  0.8829  0.0612  0.6138
  386TMC3    C3 5821   1.253   4.510  11.937  1.2295 -0.2617  0.1419
  386TMC3    C4 5822   1.193   4.327  12.138  0.4809 -0.8782 -0.1012
  386TMC3    C5 5823   1.133   4.445  12.138  0.2008  0.3796  0.7568
  386TMC3    C6 5824   1.160   4.534  12.037  0.1694 -0.5825 -0.6133
  386TMC3     C 5825   1.383   4.182  12.044  0.0174 -0.2365 -0.2233
  386TMC3     O 5826   1.489   4.196  11.990  0.4028 -0.6799 -0.0782
  386TMC3     H 5827   1.405   4.374  11.867  1.0913  1.7901  0.4957
  386TMC3    H1 5828   1.186   4.261  12.223 -3.8080  0.0301  0.2469
  386TMC3    H2 5829   1.105   4.627  12.033 -0.1445 -0.7770 -0.8497
  386TMC3    C7 5830   1.022   4.458  12.231 -0.7012  0.3311 -0.3408
  386TMC3    C8 5831   1.241   4.592  11.817  0.1222 -0.5331 -0.3077
  386TMC3    O1 5832   1.040   4.435  12.350  0.0911  0.0559  0.2171
  386TMC3    O2 5833   1.140   4.658  11.799  0.0048  0.1297 -0.0064
  387MPD2     C 5834   3.571   0.026   9.967 -0.6266 -0.9674 -0.5423
  387MPD2    C1 5835   3.711   0.009   9.978 -0.3765  0.2634  0.2381
  387MPD2    C2 5836   3.768   4.637   9.932 -0.0907 -0.6172  0.3007
  387MPD2    C3 5837   3.688   4.528   9.898 -0.2280  0.1350  0.1984
  387MPD2    C4 5838   3.552   4.548   9.889 -0.4272  0.1114  0.0279
  387MPD2    C5 5839   3.497   4.670   9.915 -0.8237  0.4544 -0.8270
  387MPD2     H 5840   3.875   4.624   9.945 -0.2694  0.6529  3.1900
  387MPD2    H1 5841   3.478   4.470   9.879 -1.9379  1.5906 -0.3493
  387MPD2    H2 5842   3.517   0.109  10.011  2.4099  0.7909 -0.1075
  387MPD2    H3 5843   3.390   4.675   9.900 -0.7945 -0.8982 -1.5042
  387MPD2     N 5844   3.750   4.401   9.905  0.2288 -0.0150  0.1844
  387MPD2    H5 5845   3.848   4.401   9.933  0.5453 -4.8483 -0.9322
  387MPD2    N1 5846   3.798   0.097  10.046  0.2767  0.1827  0.2080
  387MPD2    H7 5847   3.893   0.063  10.036 -0.1174 -1.1297  0.9067
  388TMC3    C1 5848   3.877   0.239  10.224 -0.0884  0.0637  0.1717
  388TMC3    C2 5849   3.893   0.366  10.265  0.1789 -0.5163  0.2250
  388TMC3    C3 5850   4.009   0.397  10.320  0.0728 -1.1580  0.5813
  388TMC3    C4 5851   3.966   0.138  10.249  0.5676  0.3885  0.9606
  388TMC3    C5 5852   4.082   0.177  10.318 -0.3693 -0.4877  1.3485
  388TMC3    C6 5853   4.106   0.308  10.350  0.6147  0.2099 -0.2691
  388TMC3     C 5854   3.764   0.201  10.129 -0.0381  0.2353  0.1645
  388TMC3     O 5855   3.656   0.256  10.134  0.1337  0.2848 -0.3153
  388TMC3     H 5856   3.821   0.441  10.234  1.0689  0.2439 -0.0002
  388TMC3    H1 5857   3.936   0.034  10.250 -0.1427  0.5709 -1.6140
  388TMC3    H2 5858   4.198   0.335  10.401  0.2230  0.4669  0.3024
  388TMC3    C7 5859   4.177   0.074  10.352  0.0810  0.2312  0.1131
  388TMC3    C8 5860   4.028   0.535  10.362 -0.4745  0.6730 -0.2430
  388TMC3    O1 5861   4.244   0.087  10.451  0.0749 -0.1541 -0.5375
  388TMC3    O2 5862   4.104   0.557  10.458 -0.7552  0.0405 -0.0574
  389MPD2     C 5863   2.951   2.615  10.887 -0.0371 -0.8428 -0.6079
  389MPD2    C1 5864   2.886   2.727  10.940 -0.1719  0.4068  0.1374
  389MPD2    C2 5865   2.807   2.725  11.053  0.1197  0.7123  0.2106
  389MPD2    C3 5866   2.802   2.598  11.114  0.1718 -0.1902  0.3294
  389MPD2    C4 5867   2.859   2.489  11.059 -0.2315 -0.1248  0.3039
  389MPD2    C5 5868   2.935   2.493  10.940 -0.0285 -0.3913  0.0532
  389MPD2     H 5869   2.769   2.814  11.101  0.4131  0.1759  1.4473
  389MPD2    H1 5870   2.849   2.391  11.103 -1.4297  0.9550  2.3988
  389MPD2    H2 5871   3.012   2.612  10.797  1.7969 -2.1426  0.6541
  389MPD2    H3 5872   2.956   2.404  10.881  4.3820 -0.0772  1.1858
  389MPD2     N 5873   2.728   2.566  11.236 -0.3627  0.6345 -0.2987
  389MPD2    H5 5874   2.726   2.473  11.275 -0.9902  0.3993 -0.8875
  389MPD2    N1 5875   2.911   2.851  10.867  0.2333 -0.2661  0.3021
  389MPD2    H7 5876   2.972   2.839  10.787  1.0009  0.3755  0.7855
  390TMC3    C1 5877   2.601   2.603  11.429 -0.4621 -0.2700 -0.0994
  390TMC3    C2 5878   2.645   2.493  11.497 -0.1119 -0.2845  0.1259
  390TMC3    C3 5879   2.612   2.490  11.635 -0.1768 -0.4955  0.2517
  390TMC3    C4 5880   2.520   2.700  11.486 -0.3279 -0.2869  0.1820
  390TMC3    C5 5881   2.485   2.683  11.615 -0.1960  0.3272 -0.2600
  390TMC3    C6 5882   2.524   2.576  11.689 -0.3014 -0.1135  0.8109
  390TMC3     C 5883   2.688   2.662  11.323  0.4117 -0.2291 -0.7176
  390TMC3     O 5884   2.700   2.783  11.318 -0.4945 -0.4514 -0.2867
  390TMC3     H 5885   2.729   2.435  11.463 -0.7769 -2.0789  1.5410
  390TMC3    H1 5886   2.490   2.792  11.437 -0.2233 -1.2277 -1.6523
  390TMC3    H2 5887   2.529   2.588  11.796  1.2822  1.1480  0.5969
  390TMC3    C7 5888   2.354   2.725  11.644  0.5689  0.4699  0.2283
  390TMC3    C8 5889   2.587   2.348  11.674  0.3209 -0.3930  0.0537
  390TMC3    O1 5890   2.306   2.818  11.578  0.1961  0.3807 -0.0873
  390TMC3    O2 5891   2.592   2.264  11.588  0.2891 -0.3298  0.2094
  391MPD2     C 5892   2.060   4.467  11.315 -0.5374 -0.0986 -0.0840
  391MPD2    C1 5893   2.175   4.529  11.264 -0.1806 -0.2750 -0.0947
  391MPD2    C2 5894   2.170   4.571  11.130  0.1047 -0.6453  0.1461
  391MPD2    C3 5895   2.066   4.545  11.040  0.1115  0.1644  0.0485
  391MPD2    C4 5896   1.950   4.489  11.099 -0.1665 -0.3315  0.4250
  391MPD2    C5 5897   1.949   4.448  11.233  0.1885 -0.1372 -0.1163
  391MPD2     H 5898   2.255   4.629  11.096 -1.1229  0.4398 -1.0601
  391MPD2    H1 5899   1.867   4.482  11.030 -0.8191 -0.0941  1.1919
  391MPD2    H2 5900   2.057   4.415  11.410  0.5597  1.1517  0.6419
  391MPD2    H3 5901   1.864   4.393  11.271 -0.5984  1.3120  0.2245
  391MPD2     N 5902   2.086   4.580  10.908  0.0606  0.2874 -0.7580
  391MPD2    H5 5903   2.178   4.617  10.885  0.7311 -0.1233  1.2146
  391MPD2    N1 5904   2.299   4.522  11.340 -0.4875  0.1044 -0.1002
  391MPD2    H7 5905   2.305   4.507  11.440  0.6212  0.3952 -0.1241
  392TMC3    C1 5906   2.054   4.597  10.684  0.4837 -0.5506 -0.2291
  392TMC3    C2 5907   1.988   4.547  10.576  0.3042  0.0581  0.7264
  392TMC3    C3 5908   2.051   4.543  10.461 -0.5885  0.6911  0.2045
  392TMC3    C4 5909   2.184   4.645  10.673  0.1424  0.6561 -0.4674
  392TMC3    C5 5910   2.243   4.632  10.546 -0.2078  0.1409  0.2678
  392TMC3    C6 5911   2.181   4.585  10.436  0.2142 -0.2298  0.1402
  392TMC3     C 5912   2.003   4.549  10.809  0.3656  0.9074  0.2602
  392TMC3     O 5913   1.892   4.502  10.812  0.1526  0.1370  0.2309
  392TMC3     H 5914   1.891   4.498  10.583 -0.8207  2.3651  1.4764
  392TMC3    H1 5915   2.241   4.692  10.753  0.7324 -0.9990  0.0928
  392TMC3    H2 5916   2.227   4.572  10.339  0.0057  0.9811 -0.1173
  392TMC3    C7 5917   2.374   4.688  10.529  0.3073  0.4390 -0.0990
  392TMC3    C8 5918   1.972   4.502  10.350  0.5182  0.0762 -0.3602
  392TMC3    O1 5919   2.453   4.685  10.623 -0.2801 -0.2143 -0.1165
  392TMC3    O2 5920   1.856   4.546  10.349  0.1388 -0.3761  0.1454
  393TMC3    C1 5921   0.895   2.449  11.072  0.2570  0.0606 -0.2183
  393TMC3    C2 5922   0.763   2.415  11.090  0.6094 -0.4155 -0.7120
  393TMC3    C3 5923   0.736   2.319  11.191 -0.1669 -0.6915 -0.6111
  393TMC3    C4 5924   0.990   2.399  11.145 -0.0675 -0.0089 -0.7744
  393TMC3    C5 5925   0.957   2.314  11.253  0.3003  0.0135  0.3950
  393TMC3    C6 5926   0.832   2.278  11.282  0.1342  0.0334 -0.8865
  393TMC3     C 5927   0.924   2.551  10.975 -1.2385  0.0899 -0.7455
  393TMC3     O 5928   0.844   2.577  10.887 -0.3012 -0.4715 -0.2826
  393TMC3     H 5929   0.693   2.451  11.015 -0.4074  0.3424  0.6041
  393TMC3    H1 5930   1.092   2.402  11.108  0.5434 -1.4178  0.8178
  393TMC3    H2 5931   0.808   2.211  11.364 -1.1697  2.5782  0.7928
  393TMC3    C7 5932   1.068   2.247  11.321 -0.0328 -0.6075  0.7333
  393TMC3    C8 5933   0.598   2.284  11.193 -0.5011 -0.0150 -0.1845
  393TMC3    O1 5934   1.054   2.129  11.357 -0.2535 -0.5694 -0.4954
  393TMC3    O2 5935   0.532   2.302  11.090  0.0921  0.1452 -0.2326
  394TMC3    C1 5936   2.891   3.075  10.805  1.1378  0.0931 -0.3557
  394TMC3    C2 5937   2.785   3.136  10.750 -0.0063 -0.8453 -0.1381
  394TMC3    C3 5938   2.797   3.215  10.637  0.0081  0.5475 -0.1122
  394TMC3    C4 5939   3.018   3.089  10.753 -0.3362 -0.2044 -0.2883
  394TMC3    C5 5940   3.034   3.174  10.645 -0.7256  0.7796  0.5454
  394TMC3    C6 5941   2.926   3.241  10.592 -0.1610  0.4793 -0.1309
  394TMC3     C 5942   2.861   2.972  10.905 -0.0513  0.8282  0.6191
  394TMC3     O 5943   2.766   2.998  10.977 -0.1477  0.2968 -0.1847
  394TMC3     H 5944   2.688   3.102  10.784 -0.8964  3.2942  1.3844
  394TMC3    H1 5945   3.094   3.026  10.799  1.5855  2.0501 -0.4191
  394TMC3    H2 5946   2.938   3.317  10.516 -0.2132  1.9306  1.2996
  394TMC3    C7 5947   3.167   3.222  10.607 -0.5449 -0.1414 -0.5090
  394TMC3    C8 5948   2.704   3.152  10.542  0.1639 -0.2805  0.3013
  394TMC3    O1 5949   3.168   3.332  10.551  0.0580 -0.3124  0.0569
  394TMC3    O2 5950   2.588   3.175  10.576 -0.4513  0.1833  0.5994
  395TMC3    C1 5951   2.626   4.653  14.593 -1.0671 -0.5864  0.0418
  395TMC3    C2 5952   2.498   4.667  14.542  0.3594 -0.0602  0.0124
  395TMC3    C3 5953   2.455   0.052  14.505 -0.3170 -0.0359  0.1006
  395TMC3    C4 5954   2.712   0.020  14.597 -0.3791 -1.0316  0.6131
  395TMC3    C5 5955   2.665   0.144  14.562 -0.1361  0.1309  0.1607
  395TMC3    C6 5956   2.533   0.163  14.527 -0.5679 -0.3529  0.1405
  395TMC3     C 5957   2.625   4.561  14.700  0.1252  0.7138  1.2178
  395TMC3     O 5958   2.521   4.559  14.768  0.3525 -0.0151  0.1243
  395TMC3     H 5959   2.428   4.586  14.557 -0.3566  0.7700  1.1454
  395TMC3    H1 5960   2.811   0.007  14.640 -0.5021 -1.0609  0.8814
  395TMC3    H2 5961   2.490   0.262  14.512  1.5301  0.7068  1.1494
  395TMC3    C7 5962   2.762   0.249  14.564  0.2883  0.1212  0.1722
  395TMC3    C8 5963   2.315   0.085  14.498 -0.4587 -0.0084 -0.3482
  395TMC3    O1 5964   2.723   0.363  14.545  1.0324  0.3998 -0.2072
  395TMC3    O2 5965   2.282   0.196  14.537 -0.0566 -0.3014  0.0746
  396MPD2     C 5966   2.172   0.877  16.905 -0.0982 -1.0246 -0.6469
  396MPD2    C1 5967   2.280   0.928  16.972  0.3080  0.3748 -0.1150
  396MPD2    C2 5968   2.340   1.045  16.923 -0.9271 -0.3413 -0.5586
  396MPD2    C3 5969   2.294   1.104  16.811 -0.1323  0.4759 -0.3638
  396MPD2    C4 5970   2.178   1.056  16.749 -0.4551 -0.1278 -0.0392
  396MPD2    C5 5971   2.121   0.944  16.799 -0.0616  0.0597 -0.0870
  396MPD2     H 5972   2.423   1.085  16.981 -0.6845 -0.3932 -0.8713
  396MPD2    H1 5973   2.141   1.103  16.659  0.3705  2.5561  1.0127
  396MPD2    H2 5974   2.128   0.785  16.942 -0.6345 -1.2741 -1.9076
  396MPD2    H3 5975   2.032   0.905  16.750  0.7376 -1.7619 -0.0846
  396MPD2     N 5976   2.375   1.203  16.762  0.3124 -0.7525  0.2181
  396MPD2    H5 5977   2.455   1.235  16.817 -0.2632  2.5617 -0.8719
  396MPD2    N1 5978   2.327   0.861  17.082 -0.6609 -0.3624 -0.7595
  396MPD2    H7 5979   2.276   0.774  17.095  0.1685 -0.4883  1.8214
  397TMC3    C1 5980   2.417   0.794  17.279  0.0059 -0.8817  0.6260
  397TMC3    C2 5981   2.549   0.768  17.311 -0.4443  1.2357 -0.9152
  397TMC3    C3 5982   2.596   0.640  17.300 -0.2973  0.4648  0.0961
  397TMC3    C4 5983   2.327   0.684  17.267 -0.0111 -0.1252 -0.1211
  397TMC3    C5 5984   2.379   0.558  17.286 -0.1074 -0.0927 -0.6218
  397TMC3    C6 5985   2.514   0.534  17.301 -0.7807  0.3434 -0.6395
  397TMC3     C 5986   2.410   0.899  17.180 -0.9586  0.2546 -0.7125
  397TMC3     O 5987   2.486   0.995  17.191  0.8881 -0.2088  0.2421
  397TMC3     H 5988   2.620   0.849  17.310  0.6891  0.2418 -0.3547
  397TMC3    H1 5989   2.220   0.699  17.260 -0.1018 -0.1331  1.2054
  397TMC3    H2 5990   2.553   0.433  17.300 -0.2187  0.5480  1.5252
  397TMC3    C7 5991   2.284   0.448  17.275  0.8858  0.1503 -0.0606
  397TMC3    C8 5992   2.741   0.618  17.331 -0.6743  0.4761 -0.1756
  397TMC3    O1 5993   2.184   0.481  17.223  0.3275 -0.3378 -0.5390
  397TMC3    O2 5994   2.758   0.505  17.372 -0.0158 -0.1215  0.7020
  398MPD2     C 5995   0.728   2.235   0.454 -0.3166 -0.4554 -0.3685
  398MPD2    C1 5996   0.828   2.135   0.471 -0.3744 -0.4636  0.0384
  398MPD2    C2 5997   0.958   2.176   0.459  0.4699  0.3486  1.2647
  398MPD2    C3 5998   0.991   2.309   0.422 -0.0074 -0.2128  0.0235
  398MPD2    C4 5999   0.891   2.402   0.414  0.1927  1.0088 -0.1275
  398MPD2    C5 6000   0.761   2.368   0.435  0.4711  0.1072 -0.5673
  398MPD2     H 6001   1.040   2.105   0.466  0.4323  0.2092  0.2407
  398MPD2    H1 6002   0.910   2.508   0.397  1.5792  0.9228  0.8690
  398MPD2    H2 6003   0.627   2.199   0.470 -0.2084 -1.9572 -3.0585
  398MPD2    H3 6004   0.684   2.444   0.432 -1.9040 -2.3095 -0.3916
  398MPD2     N 6005   1.120   2.333   0.386  0.3550  0.0485  0.2334
  398MPD2    H5 6006   1.181   2.253   0.374  0.0809  0.2526 -2.5147
  398MPD2    N1 6007   0.794   2.000   0.484  0.7611 -0.1067  0.0867
  398MPD2    H7 6008   0.881   1.947   0.485  1.0491  0.3152 -1.2506
  399TMC3    C1 6009   0.675   1.791   0.509  0.1712  0.2819  0.2403
  399TMC3    C2 6010   0.766   1.752   0.596  0.7184  0.3719 -0.0325
  399TMC3    C3 6011   0.789   1.618   0.607 -0.2287 -0.2684  0.3082
  399TMC3    C4 6012   0.595   1.707   0.439  0.7691 -0.5838 -0.1497
  399TMC3    C5 6013   0.611   1.572   0.469 -0.5149  0.7315  0.4697
  399TMC3    C6 6014   0.710   1.525   0.544  0.4364  0.0172 -0.1274
  399TMC3     C 6015   0.672   1.937   0.475 -0.0396 -1.0519  0.0222
  399TMC3     O 6016   0.562   1.978   0.431 -0.2048 -0.3810  0.3048
  399TMC3     H 6017   0.824   1.819   0.659  1.8193 -0.1587 -0.4838
  399TMC3    H1 6018   0.523   1.740   0.365  2.0044 -0.0934 -1.1205
  399TMC3    H2 6019   0.726   1.419   0.559  1.7878  0.1472 -0.6892
  399TMC3    C7 6020   0.516   1.480   0.409 -0.4483  0.0068 -0.1354
  399TMC3    C8 6021   0.920   1.581   0.660 -0.5008 -0.3384  0.5085
  399TMC3    O1 6022   0.456   1.409   0.492  0.2289 -0.2142  0.2184
  399TMC3    O2 6023   0.997   1.671   0.692  0.3414  0.4094 -0.1383
  400TMC3    C1 6024   3.756   0.389  17.157 -0.1608 -0.9290  0.5966
  400TMC3    C2 6025   3.659   0.368  17.063 -0.3100 -0.3397 -1.0107
  400TMC3    C3 6026   3.590   0.480  17.026  0.4528 -0.1502  0.4225
  400TMC3    C4 6027   3.782   0.509  17.214 -0.0151 -0.4667 -0.0149
  400TMC3    C5 6028   3.704   0.613  17.178  1.0674 -0.0128 -0.0102
  400TMC3    C6 6029   3.600   0.602  17.090  0.3303 -0.2128  0.1445
  400TMC3     C 6030   3.819   0.261  17.203 -0.2481 -0.0803  0.7012
  400TMC3     O 6031   3.770   0.154  17.169  0.3203 -1.1709 -0.2528
  400TMC3     H 6032   3.646   0.267  17.024 -0.0737 -0.6006 -0.4128
  400TMC3    H1 6033   3.852   0.519  17.296 -2.0125  0.9188  1.5194
  400TMC3    H2 6034   3.548   0.685  17.045  0.5636 -0.1485 -0.0063
  400TMC3    C7 6035   3.765   0.749  17.190 -0.2380  0.0051 -0.1381
  400TMC3    C8 6036   3.479   0.463  16.941 -0.1238  0.2314 -0.4087
  400TMC3    O1 6037   3.876   0.749  17.236 -0.0105 -0.4585  0.0790
  400TMC3    O2 6038   3.431   0.563  16.888 -0.3509  0.0234 -0.1750
  401MPD2     C 6039   1.929   3.619   0.765  0.3806  0.3702 -0.4878
  401MPD2    C1 6040   2.031   3.559   0.848 -0.4019 -0.2680 -0.4230
  401MPD2    C2 6041   2.073   3.430   0.820 -0.1865  0.4204 -0.5862
  401MPD2    C3 6042   2.016   3.364   0.712 -0.3930 -0.1279  0.3555
  401MPD2    C4 6043   1.922   3.422   0.628  0.8575 -0.2486  0.9181
  401MPD2    C5 6044   1.885   3.556   0.655  0.0813 -0.0902  0.5062
  401MPD2     H 6045   2.137   3.383   0.892  0.8695 -0.8706 -2.3764
  401MPD2    H1 6046   1.872   3.365   0.550  1.9300  0.5682 -0.3667
  401MPD2    H2 6047   1.889   3.715   0.797  2.5700  1.6101 -1.3781
  401MPD2    H3 6048   1.816   3.602   0.586  1.4418  0.1030 -0.7218
  401MPD2     N 6049   2.053   3.230   0.695  0.1142  0.5262 -0.2860
  401MPD2    H5 6050   2.118   3.195   0.765 -0.7627 -0.2379  0.1499
  401MPD2    N1 6051   2.083   3.622   0.957  0.2237 -0.2251  0.7193
  401MPD2    H7 6052   2.133   3.560   1.020  3.3665 -0.6975 -2.2175
  402TMC3    C1 6053   2.089   3.013   0.616  0.3503 -0.4307 -0.0180
  402TMC3    C2 6054   2.157   2.991   0.735 -0.2472 -0.1577 -0.2069
  402TMC3    C3 6055   2.238   2.876   0.739 -0.1224 -0.3124  0.1291
  402TMC3    C4 6056   2.105   2.939   0.505 -0.4870  0.7701  0.2289
  402TMC3    C5 6057   2.202   2.840   0.509 -0.5787 -0.5042  0.1611
  402TMC3    C6 6058   2.262   2.806   0.625  0.8559  0.4813  0.0871
  402TMC3     C 6059   2.014   3.140   0.600 -0.5707 -0.0281 -0.3115
  402TMC3     O 6060   1.943   3.150   0.501 -0.1443  0.6806 -0.1263
  402TMC3     H 6061   2.154   3.057   0.821  0.9484 -0.4579  0.0610
  402TMC3    H1 6062   2.051   2.955   0.412 -2.0335  0.4441  1.0771
  402TMC3    H2 6063   2.330   2.722   0.640 -0.8187 -0.7700  0.7089
  402TMC3    C7 6064   2.254   2.796   0.386 -0.6175 -0.6104  1.1987
  402TMC3    C8 6065   2.320   2.841   0.857 -0.2139  0.7031 -0.3729
  402TMC3    O1 6066   2.184   2.781   0.288  0.1921 -0.2982 -0.6016
  402TMC3    O2 6067   2.391   2.742   0.845  0.0558 -0.0068 -0.2239
  403MPD2     C 6068   0.022   1.857  13.495  0.0976  0.1119 -0.4238
  403MPD2    C1 6069   0.128   1.807  13.571 -0.3732 -1.2390  0.2002
  403MPD2    C2 6070   0.202   1.888  13.648 -0.0874 -0.1509  0.1221
  403MPD2    C3 6071   0.164   2.024  13.666 -0.1353 -0.0456  0.1568
  403MPD2    C4 6072   0.050   2.070  13.600  1.1616 -0.1423 -0.0055
  403MPD2    C5 6073   4.727   1.989  13.509  0.2493  0.0865 -0.1319
  403MPD2     H 6074   0.298   1.861  13.691  0.1584  2.6587  1.2883
  403MPD2    H1 6075   0.020   2.173  13.614  3.5806  0.7721 -1.4971
  403MPD2    H2 6076   4.713   1.797  13.420 -2.0320  1.8802 -0.4413
  403MPD2    H3 6077   4.640   2.018  13.451 -1.2856  0.7922  2.5449
  403MPD2     N 6078   0.254   2.103  13.736  0.1921 -0.4518 -0.5760
  403MPD2    H5 6079   0.323   2.047  13.787 -0.9504 -2.4700 -1.2331
  403MPD2    N1 6080   0.160   1.671  13.559  0.1320 -0.0066  1.1689
  403MPD2    H7 6081   0.119   1.613  13.487  1.6942 -0.0443  0.3052
  404TMC3    C1 6082   0.263   1.465  13.611  0.8678  0.4685 -0.0855
  404TMC3    C2 6083   0.302   1.390  13.720 -0.6170 -0.7184 -0.0408
  404TMC3    C3 6084   0.384   1.281  13.687  0.2047  0.4327 -0.1094
  404TMC3    C4 6085   0.305   1.441  13.483 -0.2240  0.8408  0.1324
  404TMC3    C5 6086   0.402   1.346  13.461 -0.5090  0.4634  0.3462
  404TMC3    C6 6087   0.444   1.263  13.560  0.0123 -0.3631  0.1503
  404TMC3     C 6088   0.231   1.602  13.652  0.6090  0.7324 -0.4423
  404TMC3     O 6089   0.272   1.633  13.761  0.3059 -0.4643  0.1717
  404TMC3     H 6090   0.260   1.413  13.817 -0.1920 -2.8539  0.6639
  404TMC3    H1 6091   0.288   1.517  13.407 -1.4237  1.6416  1.1937
  404TMC3    H2 6092   0.503   1.175  13.535 -0.3468 -0.1905 -1.2730
  404TMC3    C7 6093   0.441   1.328  13.328 -0.0142 -0.2103  0.3548
  404TMC3    C8 6094   0.457   1.223  13.799  0.3061 -0.2939 -0.1600
  404TMC3    O1 6095   0.557   1.298  13.297  0.2708 -0.4924  0.0767
  404TMC3    O2 6096   0.533   1.134  13.768  0.5275  0.1071 -0.2858
  405MPD2     C 6097   0.881   2.534  14.993 -0.1869  0.0020  0.0016
  405MPD2    C1 6098   0.807   2.437  14.928  0.0508 -0.2171  0.0153
  405MPD2    C2 6099   0.675   2.468  14.910 -0.0402 -0.2227  0.1508
  405MPD2    C3 6100   0.625   2.592  14.942 -0.5510 -0.1221  0.2306
  405MPD2    C4 6101   0.702   2.684  15.002  0.6111 -0.1483 -0.6869
  405MPD2    C5 6102   0.831   2.649  15.037 -0.1163 -0.0963  0.3859
  405MPD2     H 6103   0.604   2.404  14.861 -0.5245  0.8005 -0.4829
  405MPD2    H1 6104   0.659   2.775  15.043  0.7850 -0.5521  0.3898
  405MPD2    H2 6105   0.981   2.503  15.021 -0.7099 -1.1026  0.6526
  405MPD2    H3 6106   0.893   2.717  15.094  1.0548  0.2454 -1.2657
  405MPD2     N 6107   0.484   2.609  14.914  0.1775  0.7096  0.2742
  405MPD2    H5 6108   0.449   2.527  14.867  0.6819  0.6227  0.0544
  405MPD2    N1 6109   0.858   2.312  14.899 -0.0012 -0.4062  0.5397
  405MPD2    H7 6110   0.948   2.284  14.937  1.1056  1.7891 -0.4937
  406TMC3    C1 6111   0.097   2.755  14.712  0.5243  0.0075 -0.6890
  406TMC3    C2 6112   0.079   2.628  14.671  0.1214 -0.2239  0.3576
  406TMC3    C3 6113   0.157   2.529  14.719  0.3357  0.5949  0.4218
  406TMC3    C4 6114   0.192   2.785  14.810  0.9536 -0.8703 -0.2988
  406TMC3    C5 6115   0.278   2.684  14.843  0.5627  0.0481 -0.7001
  406TMC3    C6 6116   0.256   2.557  14.807 -0.0971 -0.1757  0.6944
  406TMC3     C 6117   0.035   2.866  14.660 -0.2544 -0.0154 -0.0196
  406TMC3     O 6118   0.032   2.969  14.719  0.3434 -0.0009  0.1269
  406TMC3     H 6119   0.015   2.595  14.589 -0.6078 -0.9286  1.2131
  406TMC3    H1 6120   0.210   2.888  14.838  2.3540 -0.8445 -1.2482
  406TMC3    H2 6121   0.305   2.482  14.867 -2.1880 -2.4629 -0.4429
  406TMC3    C7 6122   0.401   2.719  14.915  0.6026  0.0110  0.1286
  406TMC3    C8 6123   0.134   2.402  14.663  0.1194 -0.3449  0.5872
  406TMC3    O1 6124   0.431   2.832  14.951  0.3889  0.6647  0.1637
  406TMC3    O2 6125   0.028   2.375  14.605  0.2521  0.7140 -0.4394
  407MPD2     C 6126   3.090   4.389   9.698 -0.9936  0.4788 -0.3025
  407MPD2    C1 6127   3.221   4.360   9.750 -0.6192  0.6325 -0.1626
  407MPD2    C2 6128   3.231   4.376   9.886  0.0648 -0.0803 -0.2472
  407MPD2    C3 6129   3.135   4.441   9.966  0.0768  0.2823 -0.0603
  407MPD2    C4 6130   3.012   4.467   9.908  0.0506  0.8396  0.1451
  407MPD2    C5 6131   2.986   4.433   9.780  0.1087 -0.4917 -0.1429
  407MPD2     H 6132   3.330   4.352   9.922  0.4347  0.5243 -0.8631
  407MPD2    H1 6133   2.937   4.519   9.966  0.3366  1.5523 -0.1233
  407MPD2    H2 6134   3.063   4.376   9.594  0.2196  0.9798 -0.6782
  407MPD2    H3 6135   2.892   4.454   9.730 -1.0278 -1.6724  1.4882
  407MPD2     N 6136   3.161   4.490  10.099  0.0979 -0.2922  0.0642
  407MPD2    H5 6137   3.094   4.543  10.154 -0.9564 -0.8254 -0.7000
  407MPD2    N1 6138   3.332   4.317   9.677  0.8799 -0.4113  0.2759
  407MPD2    H7 6139   3.420   4.304   9.726  0.7275  2.0708  1.2470
  408TMC3    C1 6140   3.480   4.302   9.494  0.3653 -0.2749  0.6411
  408TMC3    C2 6141   3.548   4.192   9.536  0.9918  0.4814 -0.1896
  408TMC3    C3 6142   3.681   4.191   9.495  0.6295  0.4405  1.0538
  408TMC3    C4 6143   3.533   4.399   9.415  0.3940  0.7842 -0.0521
  408TMC3    C5 6144   3.661   4.389   9.373 -0.2931 -0.2398  0.3359
  408TMC3    C6 6145   3.743   4.284   9.416  0.3176  0.1791 -0.4040
  408TMC3     C 6146   3.338   4.323   9.540 -0.1420 -0.0782 -0.1431
  408TMC3     O 6147   3.271   4.397   9.465  0.1300 -0.6917  0.6482
  408TMC3     H 6148   3.493   4.115   9.589  2.1065  0.2257  0.5745
  408TMC3    H1 6149   3.468   4.482   9.388 -0.5429  1.5324  4.5818
  408TMC3    H2 6150   3.847   4.272   9.387  0.1775  0.3875 -0.9862
  408TMC3    C7 6151   3.716   4.476   9.279  0.1774 -0.1361  0.6131
  408TMC3    C8 6152   3.752   4.077   9.529 -0.4126  0.1893 -0.2472
  408TMC3    O1 6153   3.818   4.442   9.217  0.2307  0.6355 -0.4879
  408TMC3    O2 6154   3.692   3.975   9.550 -0.1626  0.8643  0.5611
  409MPD2     C 6155   2.532   4.653  17.277  0.5231 -0.1379 -0.1109
  409MPD2    C1 6156   2.659   4.652  17.323 -0.4714 -0.1179 -0.3405
  409MPD2    C2 6157   2.745   0.016  17.284  0.3325  0.5690 -0.2680
  409MPD2    C3 6158   2.706   0.131  17.215  0.0219 -0.3418 -0.7861
  409MPD2    C4 6159   2.572   0.125  17.178 -0.2026 -0.4546 -0.4387
  409MPD2    C5 6160   2.489   0.019  17.202  0.5427  0.4585 -0.2791
  409MPD2     H 6161   2.846   0.026  17.323  0.0053 -0.0745  0.7575
  409MPD2    H1 6162   2.527   0.205  17.120 -0.3336 -0.4610 -0.3461
  409MPD2    H2 6163   2.454   4.587  17.313 -1.1165  1.1090 -1.3664
  409MPD2    H3 6164   2.387   0.035  17.172  0.5727  1.3029  0.0657
  409MPD2     N 6165   2.784   0.245  17.182 -0.1996  0.7636 -0.1013
  409MPD2    H5 6166   2.739   0.321  17.132  0.7991  2.4062  1.4635
  409MPD2    N1 6167   2.718   4.546  17.386  0.3221  0.5150  0.3633
  409MPD2    H7 6168   2.814   4.561  17.414  0.7540 -1.9502  0.1705
  410TMC3    C1 6169   2.979   0.377  17.139  0.2015  0.0383 -0.5327
  410TMC3    C2 6170   3.063   0.456  17.203 -0.3955  0.0345 -0.0604
  410TMC3    C3 6171   3.091   0.574  17.141 -0.0065 -0.0805  0.0654
  410TMC3    C4 6172   2.937   0.395  17.011 -0.4949 -0.4398  0.5888
  410TMC3    C5 6173   2.969   0.513  16.961  0.3297  0.0814 -0.8015
  410TMC3    C6 6174   3.048   0.606  17.020  0.7452  0.3541  0.3020
  410TMC3     C 6175   2.917   0.268  17.210  0.2352 -0.1971 -0.0089
  410TMC3     O 6176   2.989   0.197  17.279  0.0090 -0.0021 -0.2050
  410TMC3     H 6177   3.082   0.442  17.309 -0.3847 -1.0521 -0.2040
  410TMC3    H1 6178   2.881   0.313  16.967 -2.7940  2.2521 -1.4511
  410TMC3    H2 6179   3.079   0.704  16.985 -0.8370 -0.3358 -3.0334
  410TMC3    C7 6180   2.907   0.543  16.831  0.3308  0.3946 -0.5800
  410TMC3    C8 6181   3.203   0.644  17.197  1.1697  0.4259  0.1125
  410TMC3    O1 6182   2.796   0.499  16.812  0.3799 -0.7166 -0.1619
  410TMC3    O2 6183   3.236   0.752  17.146  0.1902  0.4074 -0.3322
  411MPD2     C 6184   2.773   1.364  14.355 -0.3257 -0.5756  0.7346
  411MPD2    C1 6185   2.764   1.278  14.464  0.1733  0.1374 -0.5057
  411MPD2    C2 6186   2.785   1.142  14.440 -0.2025  0.2637  0.6728
  411MPD2    C3 6187   2.809   1.101  14.306 -0.2947 -0.3832  0.0113
  411MPD2    C4 6188   2.831   1.191  14.208  0.0500  0.0622  0.1140
  411MPD2    C5 6189   2.805   1.323  14.231  0.6666  0.0656  0.0825
  411MPD2     H 6190   2.769   1.065  14.515  1.2141 -1.4500 -0.7654
  411MPD2    H1 6191   2.840   1.159  14.105  2.7662 -0.0129  0.3686
  411MPD2    H2 6192   2.764   1.470  14.374 -0.4554 -0.3734 -0.4650
  411MPD2    H3 6193   2.803   1.391  14.146  0.7775 -0.3051 -0.2168
  411MPD2     N 6194   2.826   0.963  14.279  0.1310 -0.0583  0.6406
  411MPD2    H5 6195   2.865   0.942  14.188  1.5113  1.9191  0.8036
  411MPD2    N1 6196   2.723   1.332  14.587 -0.7480  0.0396  0.4412
  411MPD2    H7 6197   2.674   1.421  14.587  0.8512  0.9115  2.3537
  412TMC3    C1 6198   2.874   0.729  14.321  0.1146  0.2435  0.9068
  412TMC3    C2 6199   2.805   0.616  14.344 -0.2549  0.9889  0.2946
  412TMC3    C3 6200   2.849   0.504  14.279 -0.1698 -0.0280  0.5714
  412TMC3    C4 6201   2.990   0.738  14.259 -0.2760  0.1471 -0.4060
  412TMC3    C5 6202   3.021   0.625  14.183 -0.2240 -0.1487  0.3301
  412TMC3    C6 6203   2.949   0.509  14.192 -0.0696 -0.7853  0.3975
  412TMC3     C 6204   2.814   0.853  14.361 -0.4798  0.1354  0.3923
  412TMC3     O 6205   2.746   0.845  14.466 -0.4248  0.2469  0.0505
  412TMC3     H 6206   2.722   0.607  14.413 -1.5860  0.9041 -1.3197
  412TMC3    H1 6207   3.042   0.832  14.243 -1.0785  1.2218  3.2453
  412TMC3    H2 6208   2.989   0.422  14.140  1.8714  0.6128 -0.4591
  412TMC3    C7 6209   3.037   0.654  14.046 -0.5484 -0.2691  0.0236
  412TMC3    C8 6210   2.746   0.429  14.210 -0.0868 -0.6864 -0.2997
  412TMC3    O1 6211   3.099   0.759  14.017 -0.6423  0.2516 -0.0017
  412TMC3    O2 6212   2.767   0.405  14.089  0.0319  0.7017  0.6370
  413MPD2     C 6213   4.439   3.388  15.683 -0.2500  0.1123 -0.2006
  413MPD2    C1 6214   4.414   3.353  15.550 -0.2729 -0.1035 -0.2976
  413MPD2    C2 6215   4.519   3.315  15.466  0.1402  0.2713  0.5249
  413MPD2    C3 6216   4.646   3.340  15.515 -0.2686 -0.4863  0.2907
  413MPD2    C4 6217   4.672   3.381  15.649  0.5981  0.0983  0.5135
  413MPD2    C5 6218   4.563   3.400  15.728 -0.4486 -0.2937  0.1520
  413MPD2     H 6219   4.502   3.287  15.363  0.6417 -3.0460  1.3521
  413MPD2    H1 6220   0.032   3.409  15.679 -0.1569  3.1988  0.0565
  413MPD2    H2 6221   4.363   3.408  15.757  0.7925  0.1149  0.8804
  413MPD2    H3 6222   4.585   3.430  15.830  1.4195 -0.4370 -0.2093
  413MPD2     N 6223   0.010   3.299  15.429 -0.7357  0.5057  0.3043
  413MPD2    H5 6224   4.718   3.253  15.345 -2.5662 -1.2306  1.9839
  413MPD2    N1 6225   4.284   3.354  15.502  0.0464 -0.2697 -0.4136
  413MPD2    H7 6226   4.214   3.377  15.572  0.9229  1.0874 -0.0115
  414TMC3    C1 6227   0.223   3.278  15.338  0.0331 -0.5066  0.2704
  414TMC3    C2 6228   0.342   3.209  15.358  0.0424  0.5480  0.8260
  414TMC3    C3 6229   0.376   3.124  15.260 -0.2849 -0.2043  1.1243
  414TMC3    C4 6230   0.161   3.275  15.213  0.4470  0.4220  0.7425
  414TMC3    C5 6231   0.210   3.210  15.109  0.6516  0.6331 -0.4871
  414TMC3    C6 6232   0.311   3.120  15.139 -0.0595  0.0792  0.2970
  414TMC3     C 6233   0.146   3.300  15.459 -0.3355  0.1212 -0.5769
  414TMC3     O 6234   0.203   3.340  15.558  0.0366  0.1115  0.1336
  414TMC3     H 6235   0.384   3.200  15.458  1.9507  1.5704  0.1204
  414TMC3    H1 6236   0.074   3.339  15.205 -1.2970 -1.9124  1.2979
  414TMC3    H2 6237   0.348   3.051  15.064  0.2448  0.9054 -0.3157
  414TMC3    C7 6238   0.116   3.195  14.999  0.0507  0.1136  0.6275
  414TMC3    C8 6239   0.467   3.018  15.293  1.1794 -0.1137  0.0651
  414TMC3    O1 6240   4.739   3.193  15.031 -0.3537  0.2058 -0.0180
  414TMC3    O2 6241   0.447   2.915  15.226  0.4737 -0.5895  0.2372
  415TMC3    C1 6242   0.519   1.930  10.535 -0.7109 -0.4700 -0.1405
  415TMC3    C2 6243   0.583   1.989  10.424  0.8394 -0.3510  0.5401
  415TMC3    C3 6244   0.555   1.928  10.300 -0.5848 -0.4417  0.1442
  415TMC3    C4 6245   0.427   1.828  10.524 -0.3842  0.2309  0.3484
  415TMC3    C5 6246   0.413   1.770  10.402 -0.3704 -0.2772 -0.1678
  415TMC3    C6 6247   0.483   1.812  10.288 -0.2605 -0.1369 -0.3563
  415TMC3     C 6248   0.571   1.940  10.669 -0.0479 -0.9649  0.0527
  415TMC3     O 6249   0.507   1.872  10.750 -0.0655 -0.1780 -0.3166
  415TMC3     H 6250   0.606   2.094  10.434  1.5380 -0.3849 -0.7000
  415TMC3    H1 6251   0.368   1.791  10.606 -0.3220  0.2674  0.4100
  415TMC3    H2 6252   0.482   1.764  10.191  2.0571  0.0068 -0.4592
  415TMC3    C7 6253   0.323   1.655  10.376 -0.4955  0.5454  0.1254
  415TMC3    C8 6254   0.637   1.957  10.187 -0.1073  0.3790  0.5564
  415TMC3    O1 6255   0.275   1.660  10.269 -0.4690  0.0217  0.3924
  415TMC3    O2 6256   0.603   1.910  10.079  0.1091  0.1383 -0.1228
  416MPD2     C 6257   2.453   0.977  11.373 -0.0049  0.1233  0.2122
  416MPD2    C1 6258   2.367   0.899  11.442 -0.1543  0.4355  0.4898
  416MPD2    C2 6259   2.382   0.759  11.435  1.2460 -0.5541 -0.5175
  416MPD2    C3 6260   2.483   0.702  11.355 -0.8004 -0.2214 -0.3650
  416MPD2    C4 6261   2.575   0.789  11.305 -0.0138  0.1352  0.0773
  416MPD2    C5 6262   2.563   0.925  11.307  0.2891  0.8251  0.8578
  416MPD2     H 6263   2.315   0.692  11.488  2.1154 -0.4125  0.7950
  416MPD2    H1 6264   2.649   0.751  11.235  0.5186  0.3442  0.5334
  416MPD2    H2 6265   2.434   1.083  11.385  1.4248  0.3839  0.2247
  416MPD2    H3 6266   2.634   0.992  11.260  0.3195  0.1127 -0.0978
  416MPD2     N 6267   2.495   0.562  11.345 -0.2998 -0.0575 -0.0732
  416MPD2    H5 6268   2.433   0.507  11.403  0.1922  1.4545  1.8594
  416MPD2    N1 6269   2.252   0.959  11.506 -0.0946  0.4330 -0.3195
  416MPD2    H7 6270   2.234   1.059  11.498  1.4777  0.6150 -1.7247
  417TMC3    C1 6271   2.050   0.975  11.630 -0.5180  0.1493  0.0707
  417TMC3    C2 6272   1.973   0.928  11.725  0.1260 -0.4892  0.4280
  417TMC3    C3 6273   1.846   0.979  11.731 -0.0270 -0.4170 -0.0625
  417TMC3    C4 6274   2.017   1.084  11.554 -0.6473  0.2485  0.6172
  417TMC3    C5 6275   1.895   1.134  11.575  0.0074  0.0151  0.8457
  417TMC3    C6 6276   1.808   1.092  11.673 -0.5871 -0.3155  0.6204
  417TMC3     C 6277   2.167   0.892  11.597 -0.2973 -0.4319  0.2001
  417TMC3     O 6278   2.169   0.775  11.636  0.0379 -0.4899 -0.6392
  417TMC3     H 6279   2.007   0.847  11.788  0.8594 -1.2893 -1.0143
  417TMC3    H1 6280   2.077   1.128  11.475 -1.3903  0.0960 -0.0327
  417TMC3    H2 6281   1.709   1.130  11.694  0.3401  1.4299  1.8492
  417TMC3    C7 6282   1.830   1.202  11.466  0.1520 -0.2166  0.5013
  417TMC3    C8 6283   1.783   0.939  11.856  0.1700 -0.8071  0.5043
  417TMC3    O1 6284   1.858   1.320  11.447  0.0032  0.6605  0.2324
  417TMC3    O2 6285   1.698   1.012  11.902  0.0706 -0.1188  0.1182
  418TMC3    C1 6286   1.480   2.318   0.242 -0.0373 -0.4673  0.1017
  418TMC3    C2 6287   1.375   2.403   0.258 -0.4042  0.8422  1.1301
  418TMC3    C3 6288   1.322   2.428   0.381  0.0131 -0.0915 -0.3802
  418TMC3    C4 6289   1.514   2.228   0.341 -0.0686  0.2474  0.6209
  418TMC3    C5 6290   1.447   2.245   0.460  0.5388  0.2979 -0.0271
  418TMC3    C6 6291   1.357   2.342   0.480  0.1588 -0.4027 -0.8674
  418TMC3     C 6292   1.538   2.305   0.109 -0.1246 -0.1893  0.2159
  418TMC3     O 6293   1.534   2.400   0.031 -0.0706  0.4234  0.4442
  418TMC3     H 6294   1.351   2.462   0.171  1.4552 -0.0372  0.0466
  418TMC3    H1 6295   1.602   2.166   0.338 -1.5176 -1.6350 -2.1669
  418TMC3    H2 6296   1.299   2.352   0.571  1.3122 -1.4545 -0.0237
  418TMC3    C7 6297   1.473   2.148   0.563 -0.6612 -0.1061  0.1570
  418TMC3    C8 6298   1.180   2.454   0.388 -0.7389 -0.1430  0.5251
  418TMC3    O1 6299   1.513   2.037   0.527 -0.0090  0.0980  0.3514
  418TMC3    O2 6300   1.137   2.571   0.383  0.0188 -0.1646 -0.3812
  419MPD2     C 6301   3.815   0.110  12.453  0.7615 -0.3598  0.3849
  419MPD2    C1 6302   3.854   0.243  12.473 -0.2525 -0.0297 -0.0325
  419MPD2    C2 6303   3.858   0.291  12.599 -0.7007 -0.5228  0.3138
  419MPD2    C3 6304   3.841   0.205  12.707 -0.7562 -0.1948 -0.3317
  419MPD2    C4 6305   3.819   0.070  12.691 -0.6197 -0.0659  0.7298
  419MPD2    C5 6306   3.798   0.028  12.565 -0.0847 -0.0317  0.1163
  419MPD2     H 6307   3.897   0.392  12.601 -1.7371 -0.0784 -2.3751
  419MPD2    H1 6308   3.813   0.001  12.775  0.8642  0.1356  1.0087
  419MPD2    H2 6309   3.799   0.073  12.352  0.1956  0.4839  0.1630
  419MPD2    H3 6310   3.758   4.669  12.548  2.1818 -1.1341  1.2864
  419MPD2     N 6311   3.865   0.261  12.838 -1.0754  0.2588 -0.1567
  419MPD2    H5 6312   3.868   0.362  12.842  1.9819  0.0600  2.3905
  419MPD2    N1 6313   3.875   0.335  12.369 -0.2041 -0.3498  0.0981
  419MPD2    H7 6314   3.920   0.420  12.400 -1.0533  0.3099 -0.4871
  420TMC3    C1 6315   3.951   0.281  13.057  0.5183  0.2646 -0.2783
  420TMC3    C2 6316   3.927   0.415  13.055  0.1434 -0.5310  0.5903
  420TMC3    C3 6317   3.991   0.484  13.151  0.5078  0.7777  0.5029
  420TMC3    C4 6318   4.020   0.222  13.154 -0.1041  0.1490  0.3462
  420TMC3    C5 6319   4.069   0.296  13.254  0.1187 -0.5858 -0.2574
  420TMC3    C6 6320   4.071   0.434  13.250  0.0106 -0.0087 -0.7843
  420TMC3     C 6321   3.912   0.192  12.951 -0.1931  0.0269  0.3396
  420TMC3     O 6322   3.937   0.073  12.969  0.0175 -0.0655  0.2027
  420TMC3     H 6323   3.860   0.462  12.984 -0.2742 -2.8633 -0.5813
  420TMC3    H1 6324   4.039   0.116  13.160  0.5021  0.2082 -0.3634
  420TMC3    H2 6325   4.117   0.500  13.323  0.6737  0.0866 -1.2930
  420TMC3    C7 6326   4.134   0.233  13.369  0.6190 -0.4133 -1.1875
  420TMC3    C8 6327   3.949   0.620  13.158 -0.0154 -0.7695  0.2716
  420TMC3    O1 6328   4.071   0.152  13.435  0.1846  0.1441  0.1639
  420TMC3    O2 6329   3.901   0.667  13.055 -0.1287  0.2002  0.5114
  421TMC3    C1 6330   0.362   2.297  13.827  0.3490 -1.0821  0.1817
  421TMC3    C2 6331   0.345   2.416  13.890  0.8389  0.5999  0.3595
  421TMC3    C3 6332   0.449   2.479  13.954 -0.1642  0.3312  0.0026
  421TMC3    C4 6333   0.477   2.227  13.849 -1.0178 -0.0012 -0.0193
  421TMC3    C5 6334   0.580   2.288  13.915  0.3494  0.3076  0.4318
  421TMC3    C6 6335   0.571   2.407  13.973 -0.0700  0.5975 -0.6664
  421TMC3     C 6336   0.255   2.239  13.743  0.0771  0.6715 -0.8059
  421TMC3     O 6337   0.171   2.324  13.718  0.0801 -0.0493 -0.0403
  421TMC3     H 6338   0.259   2.476  13.863  1.3147  0.9284 -0.4128
  421TMC3    H1 6339   0.491   2.140  13.786  1.9491  0.4307  0.0526
  421TMC3    H2 6340   0.649   2.454  14.032 -0.8032  0.5372  0.3509
  421TMC3    C7 6341   0.685   2.205  13.959  0.7665 -0.3539  0.1313
  421TMC3    C8 6342   0.442   2.608  14.029 -0.2358 -0.0727 -0.3657
  421TMC3    O1 6343   0.781   2.264  14.005 -0.3119 -0.3030 -0.6026
  421TMC3    O2 6344   0.544   2.644  14.085  0.9677  0.0304  0.1922
  422TMC3    C1 6345   3.020   3.570  12.359 -0.7811  0.1602  0.2834
  422TMC3    C2 6346   2.991   3.667  12.444 -0.1152  0.3573  0.2630
  422TMC3    C3 6347   2.856   3.691  12.471  1.0933 -0.0695  0.0438
  422TMC3    C4 6348   2.920   3.480  12.322 -0.2017  0.2036  0.6456
  422TMC3    C5 6349   2.788   3.497  12.360 -0.0968  0.8812 -0.1231
  422TMC3    C6 6350   2.752   3.604  12.436 -0.1471 -0.2999 -0.4473
  422TMC3     C 6351   3.153   3.552  12.304  0.4866  0.4850  0.0885
  422TMC3     O 6352   3.246   3.575  12.380  0.3979  0.0138  0.3297
  422TMC3     H 6353   3.070   3.738  12.465  0.3132 -0.0254 -0.0531
  422TMC3    H1 6354   2.951   3.385  12.280  0.1471  1.2083 -1.4170
  422TMC3    H2 6355   2.646   3.628  12.429 -0.2975 -0.4063  1.3958
  422TMC3    C7 6356   2.702   3.382  12.347  0.1549  0.5145  0.3260
  422TMC3    C8 6357   2.839   3.806  12.561 -0.6682 -0.0036  0.0544
  422TMC3    O1 6358   2.740   3.289  12.274  0.9692  0.1923  0.0367
  422TMC3    O2 6359   2.928   3.886  12.578 -0.0998 -0.5769 -0.5879
  423MPD2     C 6360   4.704   4.412   0.692  0.0568  0.7712 -0.4619
  423MPD2    C1 6361   4.700   4.284   0.736  1.0027 -0.0496 -0.6672
  423MPD2    C2 6362   4.690   4.176   0.647 -0.1067  0.3432 -0.1537
  423MPD2    C3 6363   4.682   4.203   0.508  0.1712  0.1236 -0.2828
  423MPD2    C4 6364   4.687   4.335   0.463 -0.1100  0.4865  0.2711
  423MPD2    C5 6365   4.698   4.433   0.560  0.0169 -0.7059 -0.2790
  423MPD2     H 6366   4.693   4.076   0.686 -1.3886  0.6660  0.7651
  423MPD2    H1 6367   4.678   4.361   0.358  0.2392  1.8133  0.5737
  423MPD2    H2 6368   4.710   4.493   0.763 -1.0546 -2.4563  3.3300
  423MPD2    H3 6369   4.694   4.536   0.528  1.6012 -0.6694 -0.3436
  423MPD2     N 6370   4.651   4.102   0.412  0.4360 -0.1700  0.1406
  423MPD2    H5 6371   4.626   4.126   0.317 -2.3934 -0.8974  0.6940
  423MPD2    N1 6372   4.727   4.256   0.865 -0.4712  0.1209  0.1906
  423MPD2    H7 6373   0.007   4.160   0.892 -0.6750 -0.2476 -0.9536
  424TMC3    C1 6374   0.032   4.271   1.078  0.5463  0.0039 -0.0774
  424TMC3    C2 6375   0.141   4.195   1.070 -0.0976 -0.3286 -0.5213
  424TMC3    C3 6376   0.154   4.107   1.173 -0.0690 -0.6995  0.1661
  424TMC3    C4 6377   4.663   4.235   1.152 -0.5452 -0.2837 -0.2396
  424TMC3    C5 6378   4.681   4.138   1.245  0.5360 -0.3747 -0.1238
  424TMC3    C6 6379   0.057   4.082   1.269 -0.4673 -0.5590 -0.2088
  424TMC3     C 6380   0.002   4.350   0.964 -0.6387 -0.2821  0.0963
  424TMC3     O 6381   4.699   4.463   0.987  0.1191 -0.3526 -0.4562
  424TMC3     H 6382   0.225   4.239   1.016 -1.0573  1.5588 -0.4876
  424TMC3    H1 6383   4.565   4.278   1.139 -0.1644  0.9313  0.9736
  424TMC3    H2 6384   0.068   4.020   1.358 -0.7274  0.4728  0.5462
  424TMC3    C7 6385   4.571   4.092   1.329 -0.3114 -0.2074  0.3449
  424TMC3    C8 6386   0.276   4.016   1.178 -0.0757 -0.0194 -0.2131
  424TMC3    O1 6387   4.607   4.047   1.437  0.1036  0.1417  0.5132
  424TMC3    O2 6388   0.281   3.916   1.253  0.3414  0.3090  0.3309
  425MPD2     C 6389   3.681   3.397  17.500 -0.3418 -0.3196 -0.2398
  425MPD2    C1 6390   3.592   3.357  17.399 -0.1604  0.5108 -0.3962
  425MPD2    C2 6391   3.470   3.422  17.395 -0.7880  0.5298 -0.0457
  425MPD2    C3 6392   3.432   3.513  17.489  0.4850 -1.0080  0.6819
  425MPD2    C4 6393   3.529   3.558  17.575  0.3654  0.6263 -0.4067
  425MPD2    C5 6394   3.655   3.504  17.583 -0.2503 -0.1601 -1.3390
  425MPD2     H 6395   3.387   3.397  17.330 -0.3704  1.8050 -1.0641
  425MPD2    H1 6396   3.503   3.637  17.645 -1.9408 -0.2062 -0.3252
  425MPD2    H2 6397   3.778   3.350  17.508 -0.3811 -0.2240  0.7435
  425MPD2    H3 6398   3.722   3.541  17.660 -0.6581 -2.5971  0.1735
  425MPD2     N 6399   3.298   3.557  17.472 -0.0781 -0.4378 -1.0049
  425MPD2    H5 6400   3.238   3.528  17.396 -1.8322  0.4653  0.0372
  425MPD2    N1 6401   3.609   3.235  17.332  0.2660 -0.0456 -0.6289
  425MPD2    H7 6402   3.695   3.186  17.355 -1.2800 -1.9818  0.9507
  426TMC3    C1 6403   3.543   3.034  17.235 -0.2733 -0.0598 -0.0400
  426TMC3    C2 6404   3.480   2.964  17.130 -0.3785  0.1383 -0.1999
  426TMC3    C3 6405   3.390   2.869  17.159 -0.5186  0.8607  0.8517
  426TMC3    C4 6406   3.521   2.989  17.363  0.4987 -0.5116  0.1222
  426TMC3    C5 6407   3.416   2.911  17.388  0.0871  0.7175 -0.3674
  426TMC3    C6 6408   3.344   2.847  17.289  0.5603  0.0914 -0.1202
  426TMC3     C 6409   3.523   3.175  17.232  0.5503  0.1039 -0.0656
  426TMC3     O 6410   3.429   3.221  17.169  0.4803  0.3359 -0.0353
  426TMC3     H 6411   3.494   2.993  17.026  0.2687  0.0548 -0.1332
  426TMC3    H1 6412   3.575   3.018  17.453 -1.5913 -0.2330  1.2894
  426TMC3    H2 6413   3.281   2.765  17.322  0.7142  0.2106  0.4658
  426TMC3    C7 6414   3.335   2.954  17.502 -0.7554 -0.4263  0.1088
  426TMC3    C8 6415   3.390   2.763  17.060  0.4331  0.4314 -0.5685
  426TMC3    O1 6416   3.261   2.871  17.550 -0.3511  0.3784  0.5958
  426TMC3    O2 6417   3.493   2.757  16.994 -0.1668 -0.1876  0.3689
  427MPD2     C 6418   1.977   1.007  14.910 -0.6899  1.3659 -0.4007
  427MPD2    C1 6419   1.953   0.897  14.981  0.2046  0.3772  0.1492
  427MPD2    C2 6420   1.824   0.862  15.002 -0.3988 -0.2231  0.2442
  427MPD2    C3 6421   1.723   0.948  14.975 -0.0815  0.2710 -0.2780
  427MPD2    C4 6422   1.747   1.071  14.929  0.0957 -0.1368  0.0485
  427MPD2    C5 6423   1.876   1.099  14.889  0.1863  0.6293  0.4143
  427MPD2     H 6424   1.805   0.769  15.056 -0.3294 -1.2309 -1.4846
  427MPD2    H1 6425   1.672   1.149  14.920  0.6603  0.5694  1.5119
  427MPD2    H2 6426   2.075   1.037  14.875  0.2551 -2.8510 -1.4399
  427MPD2    H3 6427   1.901   1.186  14.830  0.3367  1.0150  1.0534
  427MPD2     N 6428   1.589   0.919  15.007  0.6312 -0.3956  0.4998
  427MPD2    H5 6429   1.520   0.985  14.973 -0.5919 -0.8035  2.2347
  427MPD2    N1 6430   2.055   0.807  15.016  0.3319 -0.9698 -0.0276
  427MPD2    H7 6431   2.032   0.723  15.069  1.3535 -0.1261  1.7506
  428TMC3    C1 6432   2.276   0.728  15.052 -0.1500  0.1620  0.2410
  428TMC3    C2 6433   2.225   0.599  15.044  0.4443  0.4570  0.0309
  428TMC3    C3 6434   2.287   0.493  15.101 -0.6454 -0.1858 -0.6689
  428TMC3    C4 6435   2.407   0.744  15.097 -0.1633 -0.0542 -0.3476
  428TMC3    C5 6436   2.472   0.637  15.148  0.7542 -0.2872  0.8356
  428TMC3    C6 6437   2.414   0.511  15.149  0.0319  0.0594 -0.2547
  428TMC3     C 6438   2.190   0.836  15.009  0.6935  0.7989  1.2753
  428TMC3     O 6439   2.244   0.941  14.995 -0.3297 -0.5200 -0.0563
  428TMC3     H 6440   2.121   0.584  15.020  0.9959 -1.4299 -1.2065
  428TMC3    H1 6441   2.445   0.846  15.100 -0.3751  0.0824 -2.4872
  428TMC3    H2 6442   2.478   0.435  15.193 -1.6468 -1.1037  0.1939
  428TMC3    C7 6443   2.595   0.666  15.216 -0.4079 -0.6988 -0.0393
  428TMC3    C8 6444   2.220   0.368  15.082  0.2882 -0.0578  0.5034
  428TMC3    O1 6445   2.607   0.593  15.312  0.2518 -0.2624 -0.0793
  428TMC3    O2 6446   2.127   0.376  15.007  0.1201 -0.2465  0.1641
  429MPD2     C 6447   2.665   0.889  17.685  0.1943  0.3826 -0.0109
  429MPD2    C1 6448   2.798   0.868  17.701  0.0420  0.2090 -0.8905
  429MPD2    C2 6449   2.881   0.941  17.610  0.4411  0.1538 -0.2890
  429MPD2    C3 6450   2.826   1.030  17.517  0.2245 -0.2736 -0.0138
  429MPD2    C4 6451   2.691   1.051  17.518 -0.5062  0.5222 -0.1604
  429MPD2    C5 6452   2.614   0.980  17.599  0.0244  0.4073 -0.3301
  429MPD2     H 6453   2.989   0.926  17.605  0.1949 -1.4745 -0.7371
  429MPD2    H1 6454   2.646   1.128  17.457  0.1282  1.0946  0.0994
  429MPD2    H2 6455   2.598   0.850   0.001 -0.2966  0.3009 -0.4798
  429MPD2    H3 6456   2.507   0.996  17.606  0.2271  0.3502  3.1862
  429MPD2     N 6457   2.918   1.109  17.436 -0.0838  0.5829  0.8275
  429MPD2    H5 6458   3.016   1.091  17.455 -0.3794 -1.5233  0.2759
  429MPD2    N1 6459   2.858   0.780   0.033 -0.2458  0.3697 -0.1662
  429MPD2    H7 6460   2.958   0.765   0.023  0.2344  1.8886  2.3009
  430TMC3    C1 6461   3.007   1.285  17.301 -0.3640 -0.3055 -0.4016
  430TMC3    C2 6462   2.991   1.356  17.188 -0.4104  0.2893 -0.6471
  430TMC3    C3 6463   3.099   1.405  17.128  0.0353  0.1661 -0.4476
  430TMC3    C4 6464   3.127   1.257  17.351  0.2843  0.1036  0.9168
  430TMC3    C5 6465   3.241   1.309  17.291 -0.5165 -0.4134 -0.1326
  430TMC3    C6 6466   3.227   1.396  17.183  0.2835  0.0463  0.2538
  430TMC3     C 6467   2.890   1.212  17.351 -0.2777  0.1301  0.3683
  430TMC3     O 6468   2.782   1.247  17.305  0.0791  0.3396  0.5333
  430TMC3     H 6469   2.898   1.364  17.132 -1.0452 -1.5550  0.1424
  430TMC3    H1 6470   3.143   1.187  17.432 -0.0721  0.0355  0.9289
  430TMC3    H2 6471   3.314   1.426  17.127 -0.6096 -0.6867 -1.5196
  430TMC3    C7 6472   3.346   1.209  17.285  0.1597 -0.0232  0.1767
  430TMC3    C8 6473   3.096   1.417  16.988 -0.2180 -0.0035 -0.2445
  430TMC3    O1 6474   3.322   1.094  17.322 -0.6143  0.5339  0.1582
  430TMC3    O2 6475   3.032   1.329  16.929 -0.4084  0.2600 -0.8446
  431MPD2     C 6476   3.942   0.990  12.725  0.1443  0.1151 -0.1286
  431MPD2    C1 6477   4.056   0.996  12.642 -0.2608  0.2649  0.1747
  431MPD2    C2 6478   4.048   0.930  12.523 -0.2937  0.1592  0.2505
  431MPD2    C3 6479   3.935   0.848  12.486 -0.4546 -0.7265  1.3179
  431MPD2    C4 6480   3.831   0.850  12.573 -0.4815 -0.0374  0.6329
  431MPD2    C5 6481   3.825   0.927  12.681 -0.4574  0.3504  1.1904
  431MPD2     H 6482   4.136   0.932  12.460  0.1781 -1.1526  0.8608
  431MPD2    H1 6483   3.741   0.801  12.537  0.6282  0.0778 -2.2366
  431MPD2    H2 6484   3.948   1.037  12.822 -1.3475  0.9968 -0.4631
  431MPD2    H3 6485   3.743   0.927  12.752  0.2106  1.3938  1.9564
  431MPD2     N 6486   3.917   0.776  12.367 -0.7805  0.4804 -0.3865
  431MPD2    H5 6487   3.830   0.729  12.344 -0.7704 -0.1943  1.0101
  431MPD2    N1 6488   4.172   1.071  12.667 -0.0468 -0.3134 -0.1835
  431MPD2    H7 6489   4.228   1.090  12.584  0.6463 -0.2097  0.3077
  432TMC3    C1 6490   4.003   0.640  12.194  0.1889  0.1568 -0.1754
  432TMC3    C2 6491   4.110   0.619  12.116 -0.2357 -0.8345 -0.3441
  432TMC3    C3 6492   4.136   0.494  12.061  0.7089 -0.2221  0.6042
  432TMC3    C4 6493   3.914   0.548  12.224  0.1306 -0.4888  0.3370
  432TMC3    C5 6494   3.943   0.424  12.165  0.6073  0.3607  0.7610
  432TMC3    C6 6495   4.049   0.393  12.083  0.7887  0.3027 -0.6092
  432TMC3     C 6496   4.021   0.758  12.282 -0.3223  0.3690 -0.2908
  432TMC3     O 6497   4.131   0.810  12.265  0.9554 -0.4772 -1.0196
  432TMC3     H 6498   4.162   0.702  12.069  1.2593  0.0044  2.7753
  432TMC3    H1 6499   3.850   0.562  12.310  2.2353  1.9229  1.4977
  432TMC3    H2 6500   4.075   0.291  12.057  0.7879  0.2160 -0.2593
  432TMC3    C7 6501   3.891   0.309  12.241 -0.2687 -0.0218 -0.8624
  432TMC3    C8 6502   4.218   0.479  11.937 -0.1507 -0.0219  0.0452
  432TMC3    O1 6503   3.890   0.198  12.183 -0.1041 -0.2714  0.1996
  432TMC3    O2 6504   4.200   0.384  11.860 -0.1983  0.0647  0.4365
  433MPD2     C 6505   2.881   4.322  10.927  0.0983  0.3746  0.3443
  433MPD2    C1 6506   2.994   4.254  10.953  0.0670 -0.6416  0.0562
  433MPD2    C2 6507   3.024   4.244  11.083 -0.4190  0.3224  0.5325
  433MPD2    C3 6508   2.951   4.302  11.181 -0.2939 -0.2004  0.5324
  433MPD2    C4 6509   2.835   4.365  11.149 -0.1317 -0.4597  0.5540
  433MPD2    C5 6510   2.796   4.372  11.021  0.1254  0.8218  0.4711
  433MPD2     H 6511   3.121   4.205  11.112 -0.2869 -0.2599 -0.7095
  433MPD2    H1 6512   2.772   4.403  11.228 -2.3171 -2.4224 -0.2477
  433MPD2    H2 6513   2.847   4.334  10.825  0.8046  3.9769  0.5525
  433MPD2    H3 6514   2.709   4.429  10.993  0.5164  1.6001  0.8321
  433MPD2     N 6515   3.018   4.318  11.304  0.3285 -0.7993 -0.1258
  433MPD2    H5 6516   3.116   4.291  11.304  0.3766 -0.6343 -1.0873
  433MPD2    N1 6517   3.068   4.198  10.850 -0.4169 -0.4140  0.2548
  433MPD2    H7 6518   3.050   4.224  10.754  0.6915 -1.3580 -0.1990
  434TMC3    C1 6519   3.218   4.039  10.746  0.4505  0.1292 -0.4299
  434TMC3    C2 6520   3.295   3.930  10.772 -0.5119 -0.0881  0.5932
  434TMC3    C3 6521   3.409   3.915  10.701  0.0613 -0.3459 -0.1863
  434TMC3    C4 6522   3.247   4.130  10.643  0.3491  0.0318 -0.8373
  434TMC3    C5 6523   3.351   4.098  10.566  0.6460  0.3023  0.4347
  434TMC3    C6 6524   3.435   3.995  10.596  0.4579 -0.2000  0.4307
  434TMC3     C 6525   3.165   4.097  10.866 -0.0726  0.0910  0.0172
  434TMC3     O 6526   3.197   4.043  10.972 -0.1151  1.0129  0.0668
  434TMC3     H 6527   3.266   3.875  10.861 -2.2703  1.1501  0.7875
  434TMC3    H1 6528   3.188   4.220  10.634  0.2850  0.0727 -0.0037
  434TMC3    H2 6529   3.523   3.976  10.535  1.5663  0.8213  1.6956
  434TMC3    C7 6530   3.371   4.158  10.436 -0.4269 -0.4466  0.4274
  434TMC3    C8 6531   3.500   3.819  10.759  0.4430 -0.1470  0.2138
  434TMC3    O1 6532   3.484   4.208  10.417 -0.3535  0.0645 -0.4657
  434TMC3    O2 6533   3.448   3.729  10.820 -0.2599 -0.2933 -0.0116
  435MPD2     C 6534   0.217   4.101  15.765  0.3069  0.1530 -0.5830
  435MPD2    C1 6535   0.194   4.083  15.901  0.1141  0.1205 -0.0756
  435MPD2    C2 6536   0.292   4.014  15.971 -0.3911  0.3922  0.0408
  435MPD2    C3 6537   0.417   3.986  15.919 -0.3682  0.0093  1.0239
  435MPD2    C4 6538   0.435   4.024  15.792  0.5253  0.4372 -0.6157
  435MPD2    C5 6539   0.341   4.081  15.717  0.6731  0.2010  0.5038
  435MPD2     H 6540   0.266   3.995  16.074  1.3063  0.6275  0.5018
  435MPD2    H1 6541   0.525   4.005  15.735  0.3738  0.1242 -0.7483
  435MPD2    H2 6542   0.147   4.150  15.698 -1.9297 -2.0690  0.1325
  435MPD2    H3 6543   0.360   4.102  15.612  2.1764 -3.1662  0.1165
  435MPD2     N 6544   0.512   3.917  15.989  0.5433 -0.0160  0.0105
  435MPD2    H5 6545   0.478   3.877  16.076  1.3481 -1.4078 -0.3148
  435MPD2    N1 6546   0.068   4.100  15.968  0.2758 -0.5933 -0.6199
  435MPD2    H7 6547   0.070   4.070  16.065 -1.2520 -2.7508 -1.2418
  436TMC3    C1 6548   4.548   4.249  16.234  0.2442 -0.4859 -0.1045
  436TMC3    C2 6549   4.634   4.210  16.141 -0.0993 -0.0779 -0.7032
  436TMC3    C3 6550   4.592   4.167  16.019  0.2940  0.0424  0.9303
  436TMC3    C4 6551   4.411   4.266  16.198  0.2637  0.1717 -0.1877
  436TMC3    C5 6552   4.373   4.229  16.072  0.0009 -0.0383  0.3144
  436TMC3    C6 6553   4.465   4.186  15.978 -0.2504  0.3385 -0.2497
  436TMC3     C 6554   4.598   4.284  16.369  0.4367 -0.2857 -0.3949
  436TMC3     O 6555   4.721   4.282  16.391 -0.4090 -0.2760 -0.8295
  436TMC3     H 6556   4.737   4.223  16.171  0.1491  0.2354 -1.7039
  436TMC3    H1 6557   4.334   4.291  16.271 -0.7058 -0.2584 -1.0570
  436TMC3    H2 6558   4.439   4.144  15.881  0.8121  1.4955 -1.0439
  436TMC3    C7 6559   4.261   4.295  16.007 -0.7647  0.0749  0.1717
  436TMC3    C8 6560   4.692   4.132  15.914 -0.4636 -0.1874 -0.3445
  436TMC3    O1 6561   4.274   4.330  15.892  0.5215  0.1938 -0.3525
  436TMC3    O2 6562   4.657   4.130  15.799 -0.0286 -0.3272 -0.4708
  437TMC3    C1 6563   3.655   1.716  12.822 -0.3214  0.4405 -0.6117
  437TMC3    C2 6564   3.612   1.827  12.756  0.4594 -0.1225 -0.0472
  437TMC3    C3 6565   3.678   1.858  12.639 -0.1313 -0.4639  0.4208
  437TMC3    C4 6566   3.780   1.659  12.808 -0.1618 -0.4798 -0.3323
  437TMC3    C5 6567   3.844   1.700  12.691 -0.0498  0.3846 -0.2825
  437TMC3    C6 6568   3.784   1.788  12.599  0.6144  0.4728  0.2662
  437TMC3     C 6569   3.565   1.677  12.930 -0.4293 -0.1671  0.0910
  437TMC3     O 6570   3.456   1.734  12.921 -0.1028  0.5408 -0.1550
  437TMC3     H 6571   3.535   1.893  12.796  1.0035  0.6113 -0.2179
  437TMC3    H1 6572   3.833   1.597  12.879 -0.7791  1.5464  1.9005
  437TMC3    H2 6573   3.827   1.803  12.500 -1.0429 -0.4179 -0.5889
  437TMC3    C7 6574   3.989   1.686  12.680 -0.2160  0.1540 -0.2266
  437TMC3    C8 6575   3.643   1.976  12.566 -0.3443  0.5057 -0.6326
  437TMC3    O1 6576   4.041   1.625  12.772  0.6845 -0.5180  0.2013
  437TMC3    O2 6577   3.708   2.001  12.462  0.2493 -0.5092  0.6333
  438MPD2     C 6578   1.291   1.747  16.764 -0.0532 -0.0676 -0.9839
  438MPD2    C1 6579   1.374   1.841  16.819 -0.1263  0.6531  0.0711
  438MPD2    C2 6580   1.354   1.874  16.954  0.6493  0.9078  0.1736
  438MPD2    C3 6581   1.251   1.818  17.031  0.5296  0.1777  0.5583
  438MPD2    C4 6582   1.168   1.731  16.969 -0.3273  0.0883  0.3886
  438MPD2    C5 6583   1.195   1.693  16.839 -0.5577 -0.1384  0.1361
  438MPD2     H 6584   1.417   1.944  17.008 -1.3746  1.9060  1.2408
  438MPD2    H1 6585   1.079   1.688  17.013  0.5997 -1.1554  1.0542
  438MPD2    H2 6586   1.291   1.712  16.662  3.1047 -1.4112 -0.5189
  438MPD2    H3 6587   1.134   1.618  16.790  1.6871 -0.4119 -2.2765
  438MPD2     N 6588   1.234   1.840  17.170  0.3781  0.3703 -0.1461
  438MPD2    H5 6589   1.177   1.773  17.221  2.8482 -2.2314 -0.8679
  438MPD2    N1 6590   1.485   1.896  16.761 -0.7144 -0.3739  0.5557
  438MPD2    H7 6591   1.539   1.957  16.821  1.4612 -0.6541 -1.1300
  439TMC3    C1 6592   1.663   1.907  16.608 -0.5031 -0.6384  0.0479
  439TMC3    C2 6593   1.679   1.976  16.491  0.1756 -0.2241  0.3301
  439TMC3    C3 6594   1.803   2.023  16.461  0.2981 -0.0637  0.3262
  439TMC3    C4 6595   1.758   1.897  16.704 -0.0064  0.1698  0.2498
  439TMC3    C5 6596   1.877   1.957  16.676  0.1506  0.5599 -0.4567
  439TMC3    C6 6597   1.898   2.020  16.557 -0.6143 -0.1830  0.2003
  439TMC3     C 6598   1.530   1.857  16.637  0.2492 -0.4713  0.1202
  439TMC3     O 6599   1.481   1.770  16.557  0.2833 -0.0124  0.1673
  439TMC3     H 6600   1.607   1.960  16.412 -0.4462  2.2307  0.4165
  439TMC3    H1 6601   1.743   1.829  16.788  0.4589  0.5892  0.6713
  439TMC3    H2 6602   1.993   2.066  16.531 -0.9462  0.0003 -0.6943
  439TMC3    C7 6603   1.987   1.906  16.746  0.7830  0.2000  0.4057
  439TMC3    C8 6604   1.856   2.011  16.327  0.3111  0.8564  0.3366
  439TMC3    O1 6605   1.983   1.854  16.854 -0.0039  0.5583  0.1845
  439TMC3    O2 6606   1.979   1.984  16.322 -0.5610  0.6125  0.2746
  440MPD2     C 6607   0.017   2.310  15.013  0.1662  0.3461 -0.0778
  440MPD2    C1 6608   0.083   2.421  15.061  0.2405  0.0962  0.2971
  440MPD2    C2 6609   0.207   2.408  15.114 -1.2489  0.5067  0.4247
  440MPD2    C3 6610   0.284   2.296  15.109 -0.1926 -0.2879 -0.5259
  440MPD2    C4 6611   0.223   2.182  15.064  0.4132 -0.6819 -0.0930
  440MPD2    C5 6612   0.093   2.194  15.021  0.1208  0.0971 -0.7566
  440MPD2     H 6613   0.247   2.495  15.164  3.1045 -0.6036 -1.1898
  440MPD2    H1 6614   0.272   2.085  15.074  0.0754 -0.5848  2.4698
  440MPD2    H2 6615   4.659   2.303  14.970  1.5478 -3.4287 -2.7404
  440MPD2    H3 6616   0.043   2.099  15.004  0.8690 -0.4272 -0.0233
  440MPD2     N 6617   0.415   2.287  15.168  0.3345  0.1408 -0.8967
  440MPD2    H5 6618   0.458   2.195  15.163  1.5811  0.6100  1.3648
  440MPD2    N1 6619   0.019   2.546  15.076  0.5658  0.2778  0.6144
  440MPD2    H7 6620   0.070   2.621  15.122 -0.2323  2.4632 -2.0786
  441TMC3    C1 6621   0.616   2.332  15.271  0.3484  0.6167  0.3739
  441TMC3    C2 6622   0.709   2.430  15.285  0.8598 -0.8576 -0.2692
  441TMC3    C3 6623   0.809   2.405  15.381 -0.1952 -0.1148 -0.0496
  441TMC3    C4 6624   0.628   2.208  15.345  0.1282  0.3784  0.4504
  441TMC3    C5 6625   0.733   2.185  15.430  0.6561  0.6886  0.3273
  441TMC3    C6 6626   0.826   2.284  15.453  0.7673 -0.9635 -0.1554
  441TMC3     C 6627   0.489   2.384  15.227  0.2258 -0.6100 -0.2566
  441TMC3     O 6628   0.464   2.505  15.235 -0.3383 -0.1509  0.3396
  441TMC3     H 6629   0.697   2.520  15.225  0.7760 -0.0855  0.9133
  441TMC3    H1 6630   0.550   2.134  15.331  0.6172  0.4179 -2.4482
  441TMC3    H2 6631   0.900   2.278  15.531  0.5920  0.0280  0.0838
  441TMC3    C7 6632   0.701   2.083  15.534  0.1119  0.4082  0.2624
  441TMC3    C8 6633   0.862   2.528  15.445 -0.0962  0.0450  0.8898
  441TMC3    O1 6634   0.596   2.021  15.527  0.1243 -0.0814 -0.0866
  441TMC3    O2 6635   0.984   2.528  15.465 -0.0110 -0.1202  0.5736
  442MPD2     C 6636   3.478   3.134  16.781  0.6729  0.0150 -0.3482
  442MPD2    C1 6637   3.364   3.073  16.822  0.0772  0.0013  0.5395
  442MPD2    C2 6638   3.331   2.948  16.775  0.1454  0.1405 -0.7583
  442MPD2    C3 6639   3.418   2.884  16.691 -0.3240 -0.8496  0.5263
  442MPD2    C4 6640   3.534   2.950  16.649 -0.3910 -0.3951  0.1717
  442MPD2    C5 6641   3.569   3.075  16.700 -0.3391  0.6258  0.1133
  442MPD2     H 6642   3.248   2.888  16.811  1.6513 -2.0803 -1.0090
  442MPD2    H1 6643   3.598   2.906  16.574 -0.3895  0.7232 -0.4891
  442MPD2    H2 6644   3.514   3.224  16.829 -0.3404  0.4988 -0.4857
  442MPD2    H3 6645   3.659   3.128  16.669  1.0204 -0.7055  1.8145
  442MPD2     N 6646   3.406   2.752  16.641  0.1186 -0.4934 -0.1300
  442MPD2    H5 6647   3.487   2.717  16.591 -0.2862 -0.1006 -1.0633
  442MPD2    N1 6648   3.262   3.130  16.906 -0.2344  0.2988  0.2277
  442MPD2    H7 6649   3.177   3.082  16.933  0.3821 -0.6017  0.5651
  443TMC3    C1 6650   3.127   3.284  17.005 -0.1799  0.5666  0.4424
  443TMC3    C2 6651   3.045   3.389  16.967  0.0291  0.2331  0.1813
  443TMC3    C3 6652   2.908   3.383  16.992 -0.5103  0.2257  0.2451
  443TMC3    C4 6653   3.076   3.189  17.087 -0.4875 -0.2870  0.2304
  443TMC3    C5 6654   2.943   3.186  17.121  0.5074 -0.3111 -0.1383
  443TMC3    C6 6655   2.857   3.289  17.083  0.1668  0.1058 -0.6045
  443TMC3     C 6656   3.247   3.263  16.926  0.4753 -0.3622 -0.2011
  443TMC3     O 6657   3.301   3.357  16.868  0.3443  0.0596 -0.3550
  443TMC3     H 6658   3.081   3.470  16.906  1.9776 -1.8353 -1.3899
  443TMC3    H1 6659   3.142   3.111  17.123  0.5780  0.3009 -0.4550
  443TMC3    H2 6660   2.750   3.291  17.098  0.1643  1.0029 -0.7367
  443TMC3    C7 6661   2.892   3.066  17.174  0.2023 -0.1144  0.6974
  443TMC3    C8 6662   2.827   3.382  16.867  0.2560  0.9108  0.4856
  443TMC3    O1 6663   2.943   2.962  17.131  0.6307  0.0954 -0.0487
  443TMC3    O2 6664   2.745   3.296  16.849 -0.0174 -0.1244  0.1945
  444MPD2     C 6665   3.597   2.353  17.236 -0.1352  0.1969 -0.2214
  444MPD2    C1 6666   3.499   2.255  17.235 -0.4085  0.2401 -0.5200
  444MPD2    C2 6667   3.529   2.126  17.209  0.0285 -0.5352 -0.1325
  444MPD2    C3 6668   3.665   2.099  17.194  0.1313  0.0726  0.9290
  444MPD2    C4 6669   3.766   2.193  17.206 -0.3947  0.1582 -0.0549
  444MPD2    C5 6670   3.732   2.321  17.228  0.1277 -0.0194  0.1856
  444MPD2     H 6671   3.453   2.049  17.208 -0.2088 -0.2921 -0.7891
  444MPD2    H1 6672   3.871   2.170  17.189 -0.9058 -2.3366  0.1799
  444MPD2    H2 6673   3.571   2.458  17.240 -0.2038  0.2117 -1.0877
  444MPD2    H3 6674   3.806   2.400  17.221  0.6822 -0.5983 -0.5426
  444MPD2     N 6675   3.693   1.966  17.158 -0.2197  0.4239 -0.2811
  444MPD2    H5 6676   3.609   1.911  17.138  1.0470 -1.3129 -0.8613
  444MPD2    N1 6677   3.367   2.285  17.268 -0.3850  0.4595 -0.0989
  444MPD2    H7 6678   3.305   2.205  17.282 -1.8344  1.7651  0.9954
  445TMC3    C1 6679   3.826   1.768  17.085 -0.0108  0.5444 -0.1435
  445TMC3    C2 6680   3.714   1.698  17.061 -0.3596 -0.5444  0.9208
  445TMC3    C3 6681   3.733   1.564  17.040 -0.2230 -0.0755 -0.0735
  445TMC3    C4 6682   3.954   1.711  17.074 -0.1766  0.1042  0.5283
  445TMC3    C5 6683   3.968   1.575  17.058 -0.0173  0.0439  0.7267
  445TMC3    C6 6684   3.853   1.495  17.049 -0.0097  0.0443  0.0611
  445TMC3     C 6685   3.816   1.907  17.127 -0.0975  0.6310  0.0904
  445TMC3     O 6686   3.926   1.962  17.134 -0.1237  0.3278 -0.1537
  445TMC3     H 6687   3.617   1.746  17.054  1.7117  3.3773 -0.4227
  445TMC3    H1 6688   4.042   1.771  17.091 -1.4953  1.8081  1.3370
  445TMC3    H2 6689   3.855   1.387  17.055  1.0810  0.0468 -0.1196
  445TMC3    C7 6690   4.100   1.515  17.055  0.3825  0.0697 -0.2068
  445TMC3    C8 6691   3.613   1.493  16.991 -0.2767 -0.1098  0.8998
  445TMC3    O1 6692   4.195   1.584  17.090 -0.1316 -0.0828 -0.3284
  445TMC3    O2 6693   3.502   1.521  17.043 -0.1768 -0.1923  0.6854
  446MPD2     C 6694   3.004   3.572  11.210 -0.9408  0.0027  0.1968
  446MPD2    C1 6695   2.977   3.695  11.154 -0.3459 -0.2678 -0.2549
  446MPD2    C2 6696   3.080   3.779  11.113 -0.0199 -0.5574 -0.1114
  446MPD2    C3 6697   3.210   3.742  11.140  0.0622 -0.1842 -0.2793
  446MPD2    C4 6698   3.237   3.624  11.215  0.2842 -0.0361  0.9362
  446MPD2    C5 6699   3.135   3.540  11.238 -0.3682  0.4521 -0.1233
  446MPD2     H 6700   3.049   3.875  11.074  0.2546 -0.0623  0.8903
  446MPD2    H1 6701   3.337   3.585  11.233  0.7264  1.3059  1.4005
  446MPD2    H2 6702   2.927   3.505  11.246 -1.0642  0.0518  0.0248
  446MPD2    H3 6703   3.160   3.444  11.280  1.8068  0.9688 -0.2521
  446MPD2     N 6704   3.315   3.837  11.111 -0.1375 -0.1591  0.4811
  446MPD2    H5 6705   3.290   3.922  11.061 -0.7007 -0.2879  0.5398
  446MPD2    N1 6706   2.849   3.739  11.134  0.0544  0.6554 -0.3627
  446MPD2    H7 6707   2.829   3.824  11.081  4.2439  2.5603  1.0783
  447TMC3    C1 6708   3.519   3.953  11.146  0.3484 -0.5143  0.0486
  447TMC3    C2 6709   3.522   4.027  11.032  0.2516 -0.2914 -0.2049
  447TMC3    C3 6710   3.641   4.092  11.009 -0.0980 -0.3886  0.4632
  447TMC3    C4 6711   3.611   3.958  11.242  0.8515 -0.0625  0.4852
  447TMC3    C5 6712   3.727   4.028  11.217 -0.3870 -0.0816  1.1732
  447TMC3    C6 6713   3.742   4.090  11.099 -0.5964  0.2961 -0.6038
  447TMC3     C 6714   3.453   3.824  11.138 -0.0639 -0.4311  0.1274
  447TMC3     O 6715   3.509   3.720  11.173 -0.4404  0.0661 -0.0651
  447TMC3     H 6716   3.458   4.022  10.945  2.0014 -1.9888 -1.3953
  447TMC3    H1 6717   3.602   3.880  11.317  1.5209 -1.2071 -0.6321
  447TMC3    H2 6718   3.839   4.133  11.077  0.0441 -1.5128 -1.3188
  447TMC3    C7 6719   3.839   4.007  11.307 -0.5116 -0.5644 -0.3558
  447TMC3    C8 6720   3.647   4.181  10.893  0.0778  0.2063  0.2705
  447TMC3    O1 6721   3.945   4.029  11.253 -0.4419 -0.0058 -0.2090
  447TMC3    O2 6722   3.540   4.206  10.836  0.0690  0.4074 -0.2513
  448TMC3    C1 6723   1.404   3.557  17.008  0.5194  0.0824 -0.9995
  448TMC3    C2 6724   1.366   3.449  16.932 -0.7570 -0.4560  0.5200
  448TMC3    C3 6725   1.444   3.336  16.927  0.1945 -0.5010  0.1395
  448TMC3    C4 6726   1.515   3.554  17.081  0.5107  0.0068 -0.4262
  448TMC3    C5 6727   1.586   3.436  17.093  0.6057 -0.7333  0.8123
  448TMC3    C6 6728   1.556   3.336  17.007  0.0099  0.1618 -0.5109
  448TMC3     C 6729   1.347   3.684  16.984  0.0866  0.3030 -0.0295
  448TMC3     O 6730   1.393   3.780  17.039  0.4774 -0.0053  0.1346
  448TMC3     H 6731   1.292   3.464  16.855  1.4390  0.7090 -1.3563
  448TMC3    H1 6732   1.549   3.639  17.139 -2.9218  0.5978  0.7382
  448TMC3    H2 6733   1.629   3.257  16.997 -2.4071 -2.0477 -0.6845
  448TMC3    C7 6734   1.673   3.420  17.213  0.6008 -0.1016  0.0614
  448TMC3    C8 6735   1.434   3.226  16.833 -0.1378  0.1706 -0.1933
  448TMC3    O1 6736   1.724   3.523  17.248 -0.3441  0.6896 -0.1142
  448TMC3    O2 6737   1.532   3.151  16.824  0.1649 -0.3899  0.0937
  449MPD2     C 6738   2.438   1.803  14.067 -1.1744  0.4425 -0.1690
  449MPD2    C1 6739   2.415   1.715  13.966  0.3035  0.1975  0.2708
  449MPD2    C2 6740   2.405   1.584  13.991 -0.1444 -0.9897  0.1243
  449MPD2    C3 6741   2.442   1.527  14.112  0.0793  0.2482 -0.2635
  449MPD2    C4 6742   2.482   1.614  14.205  0.4638 -0.2407  0.0224
  449MPD2    C5 6743   2.489   1.745  14.183  0.1387 -0.3697  0.2224
  449MPD2     H 6744   2.380   1.524  13.905  2.2053 -0.7133 -0.7506
  449MPD2    H1 6745   2.532   1.575  14.292 -1.4544  0.9719  1.6720
  449MPD2    H2 6746   2.451   1.910  14.057 -0.2595  0.0214 -3.5502
  449MPD2    H3 6747   2.526   1.805  14.265 -0.8225 -1.8524  1.7406
  449MPD2     N 6748   2.436   1.388  14.118  0.3554  0.4945  0.0103
  449MPD2    H5 6749   2.412   1.338  14.033 -0.4793 -0.2697  0.6866
  449MPD2    N1 6750   2.376   1.761  13.838 -0.1131 -0.0113 -0.0218
  449MPD2    H7 6751   2.334   1.692  13.776 -0.1241  2.7955 -3.1782
  450TMC3    C1 6752   2.368   1.861  13.637 -0.2535  0.2001 -0.4691
  450TMC3    C2 6753   2.469   1.860  13.547  0.0144 -0.2949  0.0288
  450TMC3    C3 6754   2.452   1.778  13.439 -0.2516 -0.4062  0.0677
  450TMC3    C4 6755   2.259   1.776  13.630  0.7474  0.9414  0.4499
  450TMC3    C5 6756   2.247   1.695  13.518  0.0748  1.0645  0.6434
  450TMC3    C6 6757   2.338   1.696  13.420 -0.0382 -0.6464  0.9180
  450TMC3     C 6758   2.430   1.863  13.768 -0.0321 -0.0880  0.3160
  450TMC3     O 6759   2.493   1.959  13.804 -0.0271 -0.3234  0.6805
  450TMC3     H 6760   2.559   1.920  13.548  1.3034 -2.2429  1.3999
  450TMC3    H1 6761   2.175   1.767  13.697  0.7367  0.7969  0.4171
  450TMC3    H2 6762   2.329   1.629  13.335 -1.4730 -0.8991  1.2801
  450TMC3    C7 6763   2.221   1.565  13.575 -0.1636  0.0285 -0.3058
  450TMC3    C8 6764   2.518   1.810  13.313 -0.7129  1.3052 -0.4265
  450TMC3    O1 6765   2.212   1.545  13.692  0.3823 -0.2617  0.0732
  450TMC3    O2 6766   2.465   1.774  13.208 -0.3985 -0.0017  0.2406
  451MPD2     C 6767   3.630   0.400   1.251  0.6813  0.3117 -0.3463
  451MPD2    C1 6768   3.715   0.503   1.207  0.4869  0.0039 -0.2425
  451MPD2    C2 6769   3.835   0.470   1.150  0.7783  0.7283 -0.1389
  451MPD2    C3 6770   3.864   0.335   1.116 -0.0229  0.3751 -0.1181
  451MPD2    C4 6771   3.766   0.237   1.137 -0.3018  0.5478  0.4396
  451MPD2    C5 6772   3.652   0.268   1.213  0.3749  0.3978  0.4441
  451MPD2     H 6773   3.907   0.542   1.112  0.4950  1.2843  0.3800
  451MPD2    H1 6774   3.785   0.134   1.110  1.2771  1.9283 -3.6368
  451MPD2    H2 6775   3.537   0.414   1.305  0.7464 -0.1278 -0.1200
  451MPD2    H3 6776   3.577   0.194   1.237  0.4624  0.7617  1.8059
  451MPD2     N 6777   3.972   0.294   1.039  0.0115  0.0366 -0.4574
  451MPD2    H5 6778   3.987   0.196   1.018 -0.7507  0.0744 -1.1669
  451MPD2    N1 6779   3.672   0.640   1.219 -0.2153  0.3473 -0.0602
  451MPD2    H7 6780   3.585   0.651   1.270 -1.4160 -4.5968 -0.9985
  452TMC3    C1 6781   4.175   0.310   0.913  0.6512  0.8110  0.4199
  452TMC3    C2 6782   4.143   0.213   0.829 -1.0212 -0.2126 -0.9519
  452TMC3    C3 6783   4.242   0.127   0.788  0.3719  0.2658  0.0290
  452TMC3    C4 6784   4.309   0.342   0.937 -0.3786  0.8984 -0.3668
  452TMC3    C5 6785   4.406   0.267   0.870 -0.6198  0.1482  0.1354
  452TMC3    C6 6786   4.378   0.159   0.792  0.7609 -0.7289 -0.1058
  452TMC3     C 6787   4.078   0.377   0.997  0.1629  0.2126 -0.3325
  452TMC3     O 6788   4.118   0.491   1.030 -0.0072 -0.0754 -0.2878
  452TMC3     H 6789   4.039   0.191   0.806 -1.2556 -1.2958  1.1231
  452TMC3    H1 6790   4.350   0.420   0.999  0.8300 -1.1494  1.4336
  452TMC3    H2 6791   4.456   0.105   0.738  1.7090 -0.3288  0.8721
  452TMC3    C7 6792   4.523   0.335   0.827 -0.0373 -0.0043 -0.1346
  452TMC3    C8 6793   4.204   0.019   0.696  0.1270 -0.3856  0.9640
  452TMC3    O1 6794   4.565   0.311   0.717  0.0666 -0.5235  0.1888
  452TMC3    O2 6795   4.097   0.035   0.635  0.2521  0.1776  0.1982
  453TMC3    C1 6796   0.103   2.519  12.849 -0.0246 -0.5765  0.3253
  453TMC3    C2 6797   4.738   2.439  12.834 -0.4304 -0.2485  0.2867
  453TMC3    C3 6798   4.648   2.474  12.738  0.0507 -0.7330 -0.3353
  453TMC3    C4 6799   0.125   2.630  12.772 -0.1316  0.5305 -0.4172
  453TMC3    C5 6800   0.028   2.663  12.685  0.2099  0.4115 -0.2946
  453TMC3    C6 6801   4.670   2.581  12.656 -0.2687 -0.2534  0.4413
  453TMC3     C 6802   0.231   2.446  12.863  0.1161 -0.0490 -0.5780
  453TMC3     O 6803   0.330   2.503  12.897  0.4657  0.4069  0.3617
  453TMC3     H 6804   4.730   2.366  12.914  0.5803 -1.8993 -1.1239
  453TMC3    H1 6805   0.206   2.698  12.798 -0.4768  0.8658 -0.2113
  453TMC3    H2 6806   4.607   2.625  12.579  2.0404  2.6314  0.1648
  453TMC3    C7 6807   0.060   2.763  12.590 -0.0368  0.7252  0.4405
  453TMC3    C8 6808   4.617   2.352  12.665 -0.2664  0.6585 -0.2393
  453TMC3    O1 6809   4.717   2.849  12.569 -0.9373  0.2095 -0.0811
  453TMC3    O2 6810   4.662   2.257  12.728 -0.2175 -0.2429  1.2433
  454MPD2     C 6811   4.385   1.783  16.821 -0.2117 -0.3658  0.9333
  454MPD2    C1 6812   4.341   1.883  16.736 -0.3796 -1.2086 -0.5596
  454MPD2    C2 6813   4.273   1.989  16.784 -0.3295  0.0423  0.6907
  454MPD2    C3 6814   4.211   1.988  16.910 -0.4042  0.3452 -0.7579
  454MPD2    C4 6815   4.269   1.904  16.993 -0.2320  0.1249 -0.4294
  454MPD2    C5 6816   4.353   1.805  16.955  0.0723  0.4100 -0.3684
  454MPD2     H 6817   4.248   2.071  16.718 -1.3434  0.0375  1.0642
  454MPD2    H1 6818   4.232   1.891  17.094  1.8027 -1.4067  0.1335
  454MPD2    H2 6819   4.444   1.697  16.790 -2.3179 -0.9196 -1.4784
  454MPD2    H3 6820   4.381   1.730  17.029  1.5569 -0.9330 -2.2860
  454MPD2     N 6821   4.112   2.077  16.962 -0.0145 -0.4343  0.1885
  454MPD2    H5 6822   4.062   2.054  17.047 -0.2546  2.1686  0.7498
  454MPD2    N1 6823   4.341   1.867  16.597  0.2104 -0.6443  0.6183
  454MPD2    H7 6824   4.319   1.949  16.540  0.1570 -1.1414 -0.0779
  455TMC3    C1 6825   3.923   2.145  16.854 -0.1879 -0.1043 -0.2895
  455TMC3    C2 6826   3.836   2.249  16.841 -0.0626  0.0383  0.7478
  455TMC3    C3 6827   3.709   2.219  16.814 -0.0292 -0.8592  0.4088
  455TMC3    C4 6828   3.895   2.013  16.821 -0.3043  0.0280 -0.1966
  455TMC3    C5 6829   3.767   1.992  16.777  0.1830 -0.2200 -0.1632
  455TMC3    C6 6830   3.671   2.089  16.792  0.3100 -0.7580  0.0282
  455TMC3     C 6831   4.063   2.184  16.893 -0.6944 -0.1470  0.0714
  455TMC3     O 6832   4.114   2.267  16.823  0.0608  0.2635 -0.3979
  455TMC3     H 6833   3.863   2.348  16.875 -0.5986  0.0436  1.1693
  455TMC3    H1 6834   3.973   1.940  16.808  2.2021  2.9651 -1.6077
  455TMC3    H2 6835   3.572   2.066  16.755  1.5713 -0.4342 -3.5994
  455TMC3    C7 6836   3.742   1.864  16.721 -0.7489 -0.5060  0.5265
  455TMC3    C8 6837   3.616   2.310  16.858  0.0550  0.1770  0.5658
  455TMC3    O1 6838   3.631   1.854  16.670  0.4205 -0.0266 -0.8055
  455TMC3    O2 6839   3.660   2.423  16.875 -0.4575  0.1057 -0.4916
  456MPD2     C 6840   1.962   2.576  15.718 -0.3390 -0.0420  0.5713
  456MPD2    C1 6841   2.044   2.534  15.817  0.0279  0.3287  0.4407
  456MPD2    C2 6842   2.004   2.512  15.947 -0.3754 -0.6617  0.4477
  456MPD2    C3 6843   1.873   2.531  15.982  0.5219  0.8614 -0.2052
  456MPD2    C4 6844   1.789   2.552  15.869 -0.2501  0.1843 -0.0551
  456MPD2    C5 6845   1.828   2.578  15.742  1.0721 -0.4253  0.5363
  456MPD2     H 6846   2.067   2.502  16.034  0.0573 -1.8797 -0.0076
  456MPD2    H1 6847   1.682   2.560  15.885  0.1525  0.9386  2.3264
  456MPD2    H2 6848   1.999   2.592  15.617 -1.2498  0.8517  0.3743
  456MPD2    H3 6849   1.752   2.587  15.665  1.0823  0.1058  0.5919
  456MPD2     N 6850   1.820   2.510  16.109  0.4413  0.2753  0.2730
  456MPD2    H5 6851   1.885   2.493  16.186  0.0368 -0.0681  0.5393
  456MPD2    N1 6852   2.176   2.517  15.777  0.6056 -0.3735 -0.3343
  456MPD2    H7 6853   2.194   2.550  15.683  2.0771  0.4699  0.2450
  457TMC3    C1 6854   1.679   2.538  16.297 -0.5654  0.0997  0.9517
  457TMC3    C2 6855   1.582   2.633  16.340 -0.1854  0.0237 -0.2934
  457TMC3    C3 6856   1.578   2.656  16.475  0.0759 -0.7766  0.8772
  457TMC3    C4 6857   1.767   2.474  16.383 -0.5378 -0.5357 -0.1451
  457TMC3    C5 6858   1.753   2.506  16.512  0.8494 -0.7932 -1.2568
  457TMC3    C6 6859   1.658   2.586  16.562  0.2704  0.4706  0.4728
  457TMC3     C 6860   1.693   2.535  16.148  0.5782 -0.4578  0.2561
  457TMC3     O 6861   1.599   2.586  16.089 -0.4880  0.0387 -0.0059
  457TMC3     H 6862   1.534   2.697  16.267  2.2520 -0.4043 -2.2702
  457TMC3    H1 6863   1.836   2.397  16.348  0.3316  1.4245 -2.7867
  457TMC3    H2 6864   1.633   2.593  16.668  0.7895  0.6321  0.5813
  457TMC3    C7 6865   1.819   2.420  16.605  0.3998  0.7339  0.0307
  457TMC3    C8 6866   1.535   2.786  16.529 -0.3567  0.2668 -0.8573
  457TMC3    O1 6867   1.745   2.393  16.699  0.0845  0.0560 -0.8145
  457TMC3    O2 6868   1.598   2.830  16.625 -0.1124 -0.2213  0.5802
  458MPD2     C 6869   4.436   1.901  12.553 -0.0620  0.5686  0.2379
  458MPD2    C1 6870   4.413   1.805  12.643 -0.2125 -0.0684  0.2410
  458MPD2    C2 6871   4.284   1.761  12.666 -0.0063  0.0065 -0.4204
  458MPD2    C3 6872   4.182   1.813  12.590  0.7500  0.0901 -0.2817
  458MPD2    C4 6873   4.210   1.913  12.497  0.3829  0.2470 -0.7594
  458MPD2    C5 6874   4.332   1.959  12.479 -0.3858  0.2662  0.2421
  458MPD2     H 6875   4.272   1.679  12.737 -2.0941  0.1825 -0.5734
  458MPD2    H1 6876   4.132   1.963  12.442  1.5993  0.4287 -2.2973
  458MPD2    H2 6877   4.538   1.927  12.525 -0.0117  0.3004  0.1706
  458MPD2    H3 6878   4.357   2.032  12.403 -0.1205  0.1372  0.2076
  458MPD2     N 6879   4.044   1.784  12.599 -0.0302 -0.0382  0.1762
  458MPD2    H5 6880   3.978   1.841  12.545  1.1087  1.7326  0.6636
  458MPD2    N1 6881   4.527   1.769  12.719 -0.2030  0.8029  0.5605
  458MPD2    H7 6882   4.612   1.821  12.698 -0.2273  0.8184  0.5012
  459TMC3    C1 6883   4.647   1.666  12.898  0.0357 -0.0225 -0.1899
  459TMC3    C2 6884   0.025   1.698  12.849  0.6423  1.7511  0.1801
  459TMC3    C3 6885   0.136   1.691  12.929  0.3448  0.1998  1.0664
  459TMC3    C4 6886   4.630   1.621  13.024 -0.0962 -0.3902  0.7499
  459TMC3    C5 6887   4.740   1.611  13.108  0.2577  0.0313  0.3429
  459TMC3    C6 6888   0.125   1.638  13.061 -0.1401  0.8320 -0.1081
  459TMC3     C 6889   4.527   1.674  12.823  0.0033 -0.4174 -0.4342
  459TMC3     O 6890   4.443   1.594  12.855 -0.4277 -0.3663  0.4687
  459TMC3     H 6891   0.044   1.713  12.743 -1.6905  3.5532  0.0443
  459TMC3    H1 6892   4.529   1.613  13.064 -0.2296 -3.9119 -0.2865
  459TMC3    H2 6893   0.204   1.598  13.122 -0.8500 -1.4005 -0.6480
  459TMC3    C7 6894   4.727   1.558  13.236 -0.0189 -0.1592 -0.3467
  459TMC3    C8 6895   0.270   1.703  12.875  0.3503 -0.8409  0.7548
  459TMC3    O1 6896   0.090   1.522  13.290  0.0521 -0.0797 -0.0141
  459TMC3    O2 6897   0.299   1.694  12.754  0.3283 -0.3570  0.4152
  460MPD2     C 6898   3.929   4.356  10.720 -0.3280 -0.4635  0.6847
  460MPD2    C1 6899   3.796   4.323  10.740  0.3050  0.6514  0.1297
  460MPD2    C2 6900   3.699   4.386  10.667  0.0789 -0.3345  0.7651
  460MPD2    C3 6901   3.729   4.485  10.578 -0.1037 -0.4394  0.4795
  460MPD2    C4 6902   3.862   4.508  10.553  0.7905 -0.4921  0.3072
  460MPD2    C5 6903   3.958   4.443  10.623  0.0140  0.5049  0.3792
  460MPD2     H 6904   3.592   4.371  10.676 -0.3381  1.0287 -1.8334
  460MPD2    H1 6905   3.899   4.578  10.479 -0.7998  0.2155  0.1829
  460MPD2    H2 6906   4.012   4.300  10.762  1.0716  1.9942  1.2331
  460MPD2    H3 6907   4.064   4.445  10.601  0.2634 -1.8995  1.3566
  460MPD2     N 6908   3.628   4.545  10.500 -0.0846  0.0022  0.4040
  460MPD2    H5 6909   3.531   4.528  10.524  0.6570 -1.0799  2.6838
  460MPD2    N1 6910   3.772   4.234  10.851  0.1922  0.6559 -0.0145
  460MPD2    H7 6911   3.853   4.184  10.887  0.4506  1.6275  0.7555
  461TMC3    C1 6912   3.508   4.666  10.354  0.0322 -0.1478  0.0038
  461TMC3    C2 6913   3.427   4.557  10.320 -0.4928  0.2263 -0.3159
  461TMC3    C3 6914   3.315   4.574  10.247 -0.0639  0.4596  0.4950
  461TMC3    C4 6915   3.482   0.050  10.311  0.2489 -0.6962 -0.0923
  461TMC3    C5 6916   3.364   0.066  10.240  1.0907 -0.4524 -0.5771
  461TMC3    C6 6917   3.285   4.701  10.205  0.4264  0.2867  0.1376
  461TMC3     C 6918   3.644   4.638  10.401  0.3473 -0.1780  0.1974
  461TMC3     O 6919   3.738   4.700  10.361  0.1974 -0.1409  0.3721
  461TMC3     H 6920   3.460   4.455  10.339 -0.1968  0.4748  0.4894
  461TMC3    H1 6921   3.545   0.132  10.344 -1.5511  1.1383 -1.2133
  461TMC3    H2 6922   3.199   4.719  10.142  0.6129 -0.8843 -0.4353
  461TMC3    C7 6923   3.312   0.202  10.211  0.0612 -0.0949  0.5168
  461TMC3    C8 6924   3.286   4.468  10.152  0.3523  0.0972  0.2490
  461TMC3    O1 6925   3.194   0.208  10.197 -0.1297  0.1561 -0.0620
  461TMC3    O2 6926   3.361   4.369  10.145 -0.2188 -0.3429  0.0185
  462TMC3    C1 6927   3.269   0.065  17.714 -0.6944 -0.5728 -0.2954
  462TMC3    C2 6928   3.182   0.028  17.609  0.3671 -0.7191  0.3285
  462TMC3    C3 6929   3.190   4.648  17.564 -0.4518 -0.4509  0.5985
  462TMC3    C4 6930   3.347   4.715   0.019  0.0417  0.7233 -0.3329
  462TMC3    C5 6931   3.348   4.587  17.726 -0.4431 -0.0965 -0.1476
  462TMC3    C6 6932   3.286   4.552  17.607  0.7565  0.5633  0.0560
  462TMC3     C 6933   3.293   0.213  17.731 -0.1648 -0.4372 -0.6514
  462TMC3     O 6934   3.235   0.283  17.651 -0.4902  0.7002  0.1490
  462TMC3     H 6935   3.103   0.099  17.583  1.5496 -0.3571 -2.3160
  462TMC3    H1 6936   3.387   4.730   0.118 -1.5706  1.2176  0.2522
  462TMC3    H2 6937   3.289   4.450  17.570  2.3527 -0.5635  3.2310
  462TMC3    C7 6938   3.362   4.476   0.053 -0.5735 -0.0725  0.5520
  462TMC3    C8 6939   3.136   4.621  17.433 -0.4965  0.2229 -0.6598
  462TMC3    O1 6940   3.296   4.373   0.039  0.8602  0.4360  0.2272
  462TMC3    O2 6941   3.028   4.569  17.427  0.5504 -0.2295 -0.2738
  463MPD2     C 6942   0.411   2.250   1.236  0.5166  0.1841 -0.6734
  463MPD2    C1 6943   0.357   2.357   1.299 -0.1227 -0.3357  0.0178
  463MPD2    C2 6944   0.435   2.438   1.375 -0.3579  0.0528 -0.1581
  463MPD2    C3 6945   0.572   2.424   1.376  0.5252  0.0806 -0.2362
  463MPD2    C4 6946   0.632   2.332   1.293 -0.3200  0.1467 -0.1570
  463MPD2    C5 6947   0.549   2.242   1.233 -0.0586 -0.5978 -0.5284
  463MPD2     H 6948   0.392   2.504   1.450 -0.8000  0.4410 -0.7526
  463MPD2    H1 6949   0.737   2.337   1.268 -0.1085 -0.9316  0.5454
  463MPD2    H2 6950   0.357   2.166   1.193 -0.9162  1.0433 -0.5676
  463MPD2    H3 6951   0.589   2.175   1.158 -0.9998 -0.7918 -0.8560
  463MPD2     N 6952   0.631   2.537   1.437  0.4620 -0.3021  0.0569
  463MPD2    H5 6953   0.567   2.609   1.470  0.1280 -0.6760  0.2286
  463MPD2    N1 6954   0.219   2.380   1.308 -0.0823 -0.2277 -0.5615
  463MPD2    H7 6955   0.197   2.454   1.374  0.9320  0.2602 -0.7633
  464TMC3    C1 6956   4.727   2.361   1.285  0.3585 -0.1642  1.0056
  464TMC3    C2 6957   4.699   2.411   1.415  0.1527  0.7737  0.5350
  464TMC3    C3 6958   4.567   2.437   1.446  0.0518  0.3096  0.2437
  464TMC3    C4 6959   4.633   2.345   1.189  0.1549  0.0832  0.1371
  464TMC3    C5 6960   4.506   2.371   1.228 -0.2912 -0.1362 -0.6145
  464TMC3    C6 6961   4.470   2.421   1.351  0.5091  0.0623  0.1042
  464TMC3     C 6962   0.121   2.310   1.253  0.2349 -0.4427 -0.7091
  464TMC3     O 6963   0.136   2.230   1.160 -0.1430  0.3899  0.2705
  464TMC3     H 6964   0.033   2.405   1.493  1.6865  2.2141 -0.8321
  464TMC3    H1 6965   4.648   2.300   1.091 -0.9470  1.5734 -0.7225
  464TMC3    H2 6966   4.373   2.466   1.371 -0.2746 -1.3189 -0.5970
  464TMC3    C7 6967   4.410   2.383   1.121  0.2766 -0.4758  0.2252
  464TMC3    C8 6968   4.533   2.527   1.557 -0.1562 -0.4819  0.4667
  464TMC3    O1 6969   4.406   2.295   1.035 -0.2712 -0.1079  0.1010
  464TMC3    O2 6970   4.419   2.543   1.595  0.1582  0.0427 -0.0274
  465MPD2     C 6971   1.082   2.127  16.891  1.3277  0.5730 -0.3526
  465MPD2    C1 6972   0.963   2.100  16.952 -0.0941  0.3217 -0.0885
  465MPD2    C2 6973   0.844   2.086  16.880 -0.2218 -0.2413 -0.1344
  465MPD2    C3 6974   0.843   2.101  16.747  0.3800 -0.1663 -0.7531
  465MPD2    C4 6975   0.966   2.114  16.677 -0.5990  0.2989 -0.1685
  465MPD2    C5 6976   1.081   2.123  16.755 -0.6023  0.0856 -0.1491
  465MPD2     H 6977   0.755   2.064  16.936 -1.5813  2.5341 -1.1823
  465MPD2    H1 6978   0.978   2.113  16.569  1.1857 -1.3485  0.0324
  465MPD2    H2 6979   1.173   2.148  16.945  0.0302  2.4002  1.1199
  465MPD2    H3 6980   1.172   2.151  16.703 -0.7712  0.2122 -0.3751
  465MPD2     N 6981   0.722   2.097  16.670 -0.1756  1.0916  0.4611
  465MPD2    H5 6982   0.633   2.080  16.716 -0.0393  1.5009  0.8763
  465MPD2    N1 6983   0.950   2.100  17.089 -0.3870  0.2920  0.7400
  465MPD2    H7 6984   0.881   2.032  17.121  0.1885 -1.4882 -1.8248
  466TMC3    C1 6985   0.369   2.097  16.597 -0.5529  0.1620 -0.7640
  466TMC3    C2 6986   0.336   2.227  16.568 -0.0025 -0.2856 -0.2019
  466TMC3    C3 6987   0.411   2.293  16.476  0.2605  0.8340 -0.7835
  466TMC3    C4 6988   0.484   2.047  16.557  0.7586 -0.2292  0.4172
  466TMC3    C5 6989   0.569   2.124  16.485 -0.6913  0.1393  0.7194
  466TMC3    C6 6990   0.532   2.247  16.436  0.0061  0.1585 -0.6190
  466TMC3     C 6991   0.316   2.041  16.725  0.1138  0.2886  0.6296
  466TMC3     O 6992   0.291   2.123  16.814  0.9376 -0.2756 -0.6348
  466TMC3     H 6993   0.237   2.257  16.601 -0.7135 -1.5044 -1.2384
  466TMC3    H1 6994   0.527   1.956  16.597  2.7268  0.3319 -0.3631
  466TMC3    H2 6995   0.599   2.304  16.371  0.3671 -2.1501 -2.3038
  466TMC3    C7 6996   0.702   2.130  16.534  0.0535 -0.1053  0.5565
  466TMC3    C8 6997   0.374   2.425  16.445 -0.0941 -0.1595  0.5053
  466TMC3    O1 6998   0.781   2.180  16.460 -0.0436  0.8599  0.0310
  466TMC3    O2 6999   0.418   2.480  16.347 -0.7456 -0.1022  0.0573
  467TMC3    C1 7000   2.017   0.695  13.865  0.4757  0.1954  0.1913
  467TMC3    C2 7001   1.935   0.772  13.786 -0.5116 -0.7717  0.4715
  467TMC3    C3 7002   1.804   0.762  13.809  0.1545  0.2948  0.2426
  467TMC3    C4 7003   1.958   0.602  13.956 -0.0864  0.3604  0.5678
  467TMC3    C5 7004   1.820   0.588  13.971  0.8022 -0.3170  0.2750
  467TMC3    C6 7005   1.742   0.676  13.905 -0.0893 -0.0321  0.0405
  467TMC3     C 7006   2.157   0.714  13.855  0.1654 -0.3827 -0.4712
  467TMC3     O 7007   2.197   0.767  13.752  0.0075 -0.1398  0.2607
  467TMC3     H 7008   1.977   0.850  13.723  0.3680 -0.3169  1.6073
  467TMC3    H1 7009   2.026   0.540  14.014  0.6239  0.5559 -0.0558
  467TMC3    H2 7010   1.635   0.676  13.916  0.0462  0.8630  1.3748
  467TMC3    C7 7011   1.772   0.489  14.054 -0.3644  0.0827 -0.1243
  467TMC3    C8 7012   1.717   0.855  13.736  0.0639 -0.4015 -0.0622
  467TMC3    O1 7013   1.848   0.400  14.083 -0.2632 -0.2194  0.1658
  467TMC3    O2 7014   1.769   0.952  13.680 -0.1963  0.2721 -0.3246
  468MPD2     C 7015   0.476   4.575  11.070 -0.1337  0.2777 -0.7722
  468MPD2    C1 7016   0.604   4.571  11.117 -0.1442 -0.9205 -0.1214
  468MPD2    C2 7017   0.640   4.462  11.192  0.1641  0.1783 -0.5920
  468MPD2    C3 7018   0.545   4.372  11.238  0.4535 -0.5761  0.0836
  468MPD2    C4 7019   0.416   4.394  11.204 -0.9626 -0.2849 -0.2564
  468MPD2    C5 7020   0.377   4.489  11.116 -0.1460  0.0208 -0.9932
  468MPD2     H 7021   0.743   4.461  11.227  0.0388  0.3089 -0.2222
  468MPD2    H1 7022   0.330   4.334  11.231 -1.1417 -0.5776 -1.4616
  468MPD2    H2 7023   0.457   4.651  10.995  0.9542 -1.6183 -2.9719
  468MPD2    H3 7024   0.281   4.505  11.068 -0.5397 -0.1183 -0.2525
  468MPD2     N 7025   0.590   4.267  11.324 -0.3750  0.4132  0.0051
  468MPD2    H5 7026   0.687   4.255  11.350 -0.7871  2.4285  2.5036
  468MPD2    N1 7027   0.700   4.679  11.105  0.2546  0.5363  0.5094
  468MPD2    H7 7028   0.786   4.652  11.152  0.9234  0.9127 -0.4855
  469TMC3    C1 7029   0.786   0.148  11.100  0.6348  0.2912 -0.4046
  469TMC3    C2 7030   0.901   0.078  11.124  0.7043  0.1011 -0.3869
  469TMC3    C3 7031   0.994   0.137  11.204  0.3720 -0.1133 -0.1367
  469TMC3    C4 7032   0.751   0.261  11.159 -0.3393  0.4205  1.0932
  469TMC3    C5 7033   0.854   0.322  11.233 -0.0505  0.2886  0.1739
  469TMC3    C6 7034   0.966   0.255  11.270 -0.3413  0.0730 -0.3589
  469TMC3     C 7035   0.675   0.063  11.059  0.0928  0.0114  0.3557
  469TMC3     O 7036   0.566   0.107  11.020 -0.0583  0.0001 -0.4300
  469TMC3     H 7037   0.935   4.734  11.067  1.2919 -0.0661  0.2004
  469TMC3    H1 7038   0.660   0.309  11.126  0.4304  0.5730 -0.7591
  469TMC3    H2 7039   1.043   0.307  11.327  1.5846 -0.3564 -2.5451
  469TMC3    C7 7040   0.821   0.447  11.298 -0.2419  0.5382 -0.3888
  469TMC3    C8 7041   1.124   0.062  11.224  0.3318  0.5930  0.1633
  469TMC3    O1 7042   0.915   0.514  11.338  0.0565  0.4801  0.4608
  469TMC3    O2 7043   1.144   4.714  11.140  0.1729  0.1674 -0.7270
  470TMC3    C1 7044   2.897   4.376   0.513 -0.0739 -0.5403 -0.6398
  470TMC3    C2 7045   2.966   4.454   0.606 -0.5589  0.5468 -0.1791
  470TMC3    C3 7046   2.900   4.478   0.723  0.1836 -0.2841 -0.2557
  470TMC3    C4 7047   2.765   4.330   0.522 -0.5670 -0.1782 -0.1337
  470TMC3    C5 7048   2.702   4.366   0.635  0.8952  0.7946 -0.5865
  470TMC3    C6 7049   2.771   4.426   0.741 -0.7742  0.5532  0.0864
  470TMC3     C 7050   2.988   4.296   0.427  0.4990 -0.4604  0.4451
  470TMC3     O 7051   3.104   4.280   0.463  0.1295 -0.4709 -0.6065
  470TMC3     H 7052   3.065   4.492   0.582 -0.3231  1.5107  2.3184
  470TMC3    H1 7053   2.710   4.283   0.441 -0.0157 -1.4243  0.2078
  470TMC3    H2 7054   2.720   4.452   0.833  2.8861 -0.6043  2.4164
  470TMC3    C7 7055   2.560   4.339   0.645  0.0337 -0.6144 -0.0157
  470TMC3    C8 7056   2.943   4.601   0.810  0.0776 -0.1895  0.5911
  470TMC3    O1 7057   2.519   4.279   0.549  0.1891  0.4180  0.1875
  470TMC3    O2 7058   2.850   4.641   0.882 -0.4300 -0.4964  0.3490
  471MPD2     C 7059   3.347   1.551  16.552 -0.3771  1.1331  0.1263
  471MPD2    C1 7060   3.261   1.442  16.581 -0.3066 -0.1145  0.0483
  471MPD2    C2 7061   3.204   1.423  16.703  0.1940 -0.5550 -0.0258
  471MPD2    C3 7062   3.231   1.518  16.808 -0.1212  0.5237 -0.2335
  471MPD2    C4 7063   3.315   1.622  16.783  0.0024  0.0038 -0.1348
  471MPD2    C5 7064   3.378   1.632  16.658 -0.6448  0.4912 -0.0946
  471MPD2     H 7065   3.149   1.332  16.722  0.5664 -1.1704 -1.8516
  471MPD2    H1 7066   3.346   1.690  16.861 -0.6976 -1.5324  1.4650
  471MPD2    H2 7067   3.409   1.569  16.466  1.3964 -2.8407  0.5880
  471MPD2    H3 7068   3.445   1.715  16.637 -0.6434  0.4643 -0.1943
  471MPD2     N 7069   3.190   1.507  16.943 -0.5489  0.1207  0.4901
  471MPD2    H5 7070   3.218   1.575  17.012 -0.4689 -0.2127  0.7904
  471MPD2    N1 7071   3.238   1.335  16.483  0.3725  0.2789  0.5453
  471MPD2    H7 7072   3.184   1.251  16.501  0.1698 -0.4369 -3.3755
  472TMC3    C1 7073   3.280   1.216  16.289 -0.0258  0.5339 -0.7357
  472TMC3    C2 7074   3.218   1.220  16.163 -0.0534  0.2612 -0.2312
  472TMC3    C3 7075   3.203   1.100  16.096 -0.9248 -0.0581 -0.7737
  472TMC3    C4 7076   3.317   1.102  16.357 -0.4098  0.3361 -0.4532
  472TMC3    C5 7077   3.296   0.989  16.282  0.1930  0.2275  0.7321
  472TMC3    C6 7078   3.249   0.987  16.154  1.1203 -0.1490  0.7562
  472TMC3     C 7079   3.287   1.344  16.356  0.1567 -0.7123 -0.4178
  472TMC3     O 7080   3.326   1.436  16.288  0.2836  0.1516  0.2176
  472TMC3     H 7081   3.176   1.314  16.129 -0.1282  0.4810  0.4589
  472TMC3    H1 7082   3.364   1.101  16.455  3.5520 -0.0243 -2.3740
  472TMC3    H2 7083   3.268   0.896  16.099  1.1460  0.4459 -0.2137
  472TMC3    C7 7084   3.258   0.884  16.371 -0.4826  0.9973 -0.4266
  472TMC3    C8 7085   3.064   1.081  16.057 -0.5068 -0.2000 -0.1956
  472TMC3    O1 7086   3.300   0.885  16.485 -0.5331  0.2118 -0.3537
  472TMC3    O2 7087   3.024   0.971  16.087 -0.0062 -0.2892 -0.5044
  473MPD2     C 7088   2.829   3.319  13.681 -0.2371 -0.7515  0.2388
  473MPD2    C1 7089   2.836   3.439  13.614  0.1530  0.0719 -0.0583
  473MPD2    C2 7090   2.861   3.556  13.692 -0.2613  0.0645 -0.0102
  473MPD2    C3 7091   2.887   3.544  13.830 -0.6582 -0.6492  0.5665
  473MPD2    C4 7092   2.879   3.423  13.888 -0.4787  0.2429  0.0281
  473MPD2    C5 7093   2.859   3.313  13.812  0.6458  0.1664  0.1485
  473MPD2     H 7094   2.848   3.653  13.646  1.1344  0.2310 -0.0515
  473MPD2    H1 7095   2.894   3.397  13.993  1.1974 -0.6668 -0.4408
  473MPD2    H2 7096   2.790   3.226  13.642 -1.3934 -0.3296  0.4043
  473MPD2    H3 7097   2.847   3.221  13.869  0.0928 -1.1363 -2.0941
  473MPD2     N 7098   2.903   3.651  13.922  0.2004  0.0365 -0.1882
  473MPD2    H5 7099   2.926   3.624  14.017 -0.8039  1.4072  0.4419
  473MPD2    N1 7100   2.801   3.456  13.478  0.1045 -0.2885 -0.6544
  473MPD2    H7 7101   2.798   3.553  13.449 -2.5402  0.5461  2.4234
  474TMC3    C1 7102   2.932   3.877  13.990 -0.4481 -0.1787 -0.1864
  474TMC3    C2 7103   2.901   4.003  13.961  0.7604 -0.4551  0.3159
  474TMC3    C3 7104   2.951   4.104  14.045  0.2577 -0.3509  0.9206
  474TMC3    C4 7105   2.986   3.836  14.108 -0.0233  0.0324 -0.1037
  474TMC3    C5 7106   3.034   3.929  14.193  1.4119 -0.4844  0.1399
  474TMC3    C6 7107   3.024   4.066  14.162  0.0900 -0.3919 -0.0114
  474TMC3     C 7108   2.903   3.779  13.884 -0.1004  0.3021 -0.1351
  474TMC3     O 7109   2.898   3.830  13.772  0.1134  0.1629 -0.4069
  474TMC3     H 7110   2.863   4.027  13.862 -1.1739  0.1845  1.2252
  474TMC3    H1 7111   2.976   3.732  14.138 -0.3084  0.8501  2.5951
  474TMC3    H2 7112   3.052   4.137  14.240  0.1877 -1.4878  0.9558
  474TMC3    C7 7113   3.005   3.889  14.331 -0.5085  0.2451  0.0122
  474TMC3    C8 7114   2.957   4.244  13.993  0.4773  0.1733 -0.3057
  474TMC3    O1 7115   2.933   3.795  14.347 -0.3318 -0.1014  0.1379
  474TMC3    O2 7116   2.919   4.249  13.874 -0.2082  0.5490 -0.3143
  475MPD2     C 7117   1.557   2.199  11.226 -0.1834 -0.3734  1.0242
  475MPD2    C1 7118   1.532   2.336  11.235 -0.2440 -0.3120 -0.3929
  475MPD2    C2 7119   1.410   2.371  11.282 -0.0920 -0.4594  1.1018
  475MPD2    C3 7120   1.309   2.279  11.314 -0.0312 -0.4176 -0.4728
  475MPD2    C4 7121   1.337   2.145  11.303 -0.0821  0.7610 -0.3145
  475MPD2    C5 7122   1.459   2.108  11.269 -0.3738  0.5038 -0.2686
  475MPD2     H 7123   1.382   2.476  11.287  0.4448 -0.2773  0.0098
  475MPD2    H1 7124   1.263   2.065  11.313 -0.2948  0.9583 -0.3032
  475MPD2    H2 7125   1.656   2.172  11.190 -0.7350 -0.5496 -0.3388
  475MPD2    H3 7126   1.477   2.001  11.262 -1.3513  0.4921 -2.7614
  475MPD2     N 7127   1.179   2.327  11.321 -0.2412 -0.2508  0.0051
  475MPD2    H5 7128   1.172   2.426  11.298  0.7029  0.0404  0.9611
  475MPD2    N1 7129   1.618   2.434  11.187  0.2513 -0.2902  0.2779
  475MPD2    H7 7130   1.578   2.526  11.203 -0.2444 -0.0891 -2.0366
  476TMC3    C1 7131   1.760   2.554  11.062 -0.2321  0.2924 -0.0526
  476TMC3    C2 7132   1.722   2.567  10.931 -0.5089 -0.6414 -0.2903
  476TMC3    C3 7133   1.661   2.684  10.889  0.8097 -0.1519  0.4409
  476TMC3    C4 7134   1.737   2.646  11.151  0.4799 -0.5367  0.2193
  476TMC3    C5 7135   1.687   2.767  11.104  0.1621  0.5657 -0.1500
  476TMC3    C6 7136   1.657   2.788  10.972  0.6472 -0.1893 -0.4046
  476TMC3     C 7137   1.726   2.419  11.109 -0.1646 -0.0286  0.3653
  476TMC3     O 7138   1.759   2.320  11.042 -0.2045  0.3886 -0.1729
  476TMC3     H 7139   1.735   2.485  10.861 -0.4915 -1.2841  0.4698
  476TMC3    H1 7140   1.750   2.625  11.257 -0.3900 -1.6336  0.1114
  476TMC3    H2 7141   1.602   2.875  10.940  0.6686  0.1955  0.5901
  476TMC3    C7 7142   1.582   2.823  11.183  0.2088 -0.5515 -0.0622
  476TMC3    C8 7143   1.543   2.680  10.801  0.0720  0.1284 -0.1743
  476TMC3    O1 7144   1.545   2.747  11.276 -0.2545  0.2452 -0.1129
  476TMC3    O2 7145   1.466   2.774  10.796 -0.0697 -0.6205  0.4182
  477MPD2     C 7146   4.267   3.384  11.827  0.5934 -0.6733  0.0930
  477MPD2    C1 7147   4.139   3.375  11.858 -0.1712  0.8113  0.0596
  477MPD2    C2 7148   4.100   3.315  11.978  0.0624 -0.6962  0.2425
  477MPD2    C3 7149   4.197   3.265  12.067 -1.1665  0.8798 -0.0301
  477MPD2    C4 7150   4.329   3.258  12.025 -0.1372  0.7260  0.1389
  477MPD2    C5 7151   4.365   3.330  11.911 -0.2416  0.4904  0.3132
  477MPD2     H 7152   3.994   3.307  12.002 -0.3376 -0.4255 -1.4215
  477MPD2    H1 7153   4.408   3.202  12.074 -0.4212  1.5251  1.5225
  477MPD2    H2 7154   4.302   3.439  11.741  0.1601 -0.1533  0.2489
  477MPD2    H3 7155   4.467   3.339  11.874  0.0047  3.0802  1.6521
  477MPD2     N 7156   4.150   3.200  12.187  0.0728 -0.0160 -0.1541
  477MPD2    H5 7157   4.055   3.166  12.191  0.0925 -0.1251 -0.6292
  477MPD2    N1 7158   4.032   3.436  11.777 -0.0681 -0.1975  0.4664
  477MPD2    H7 7159   3.936   3.430  11.810  0.1405  3.3752  1.7222
  478TMC3    C1 7160   3.931   3.526  11.582 -0.6090  0.5433  0.6211
  478TMC3    C2 7161   3.826   3.593  11.640 -0.6979 -0.2240  0.1484
  478TMC3    C3 7162   3.719   3.637  11.561  0.2200  0.4448  0.0622
  478TMC3    C4 7163   3.949   3.530  11.446  0.0421 -0.0131 -0.0589
  478TMC3    C5 7164   3.851   3.579  11.374  0.0800  0.2426  0.0461
  478TMC3    C6 7165   3.736   3.631  11.427 -0.4509  0.4277 -0.0806
  478TMC3     C 7166   4.048   3.496  11.658  0.3808 -0.6274 -0.3358
  478TMC3     O 7167   4.154   3.509  11.599  0.1827 -0.8963  0.1997
  478TMC3     H 7168   3.817   3.614  11.746 -0.4985 -2.1432  0.5459
  478TMC3    H1 7169   4.028   3.464  11.410  0.4946  1.4608 -1.7453
  478TMC3    H2 7170   3.654   3.665  11.365  0.7385  0.2190 -1.7818
  478TMC3    C7 7171   3.885   3.595  11.233 -0.1953  0.0269  0.6693
  478TMC3    C8 7172   3.623   3.732  11.614  0.3559 -0.3739 -0.5751
  478TMC3    O1 7173   3.997   3.560  11.197 -1.0203 -0.4814 -0.0717
  478TMC3    O2 7174   3.585   3.821  11.538 -0.1008 -0.8399 -0.1630
  479MPD2     C 7175   2.800   0.965  15.165 -0.1799  0.1998 -0.5383
  479MPD2    C1 7176   2.754   0.854  15.227  0.5178  0.0147  0.0574
  479MPD2    C2 7177   2.786   0.830  15.358 -0.2894  0.1751  0.6688
  479MPD2    C3 7178   2.854   0.926  15.427  0.6005  0.0208  0.4774
  479MPD2    C4 7179   2.905   1.038  15.364  0.1203  0.4181  0.1403
  479MPD2    C5 7180   2.872   1.066  15.229  0.1746  0.1706 -0.2898
  479MPD2     H 7181   2.742   0.750  15.416  2.6023 -2.3090 -0.5259
  479MPD2    H1 7182   2.965   1.113  15.414 -1.0737  1.4184  0.0605
  479MPD2    H2 7183   2.776   0.972  15.059  0.9656 -0.6052 -0.8504
  479MPD2    H3 7184   2.916   1.154  15.184 -2.0783  0.9416 -0.9847
  479MPD2     N 7185   2.890   0.923  15.558 -0.0299 -0.5537 -0.1780
  479MPD2    H5 7186   2.929   1.010  15.593  1.3557 -1.5073  0.6814
  479MPD2    N1 7187   2.661   0.770  15.162 -0.5557 -0.1191 -0.2345
  479MPD2    H7 7188   2.635   0.798  15.068 -1.5628  0.4069  0.1916
  480TMC3    C1 7189   2.698   0.813  15.954 -0.2216  0.6177 -0.3903
  480TMC3    C2 7190   2.606   0.910  15.929  0.5144 -0.0281  0.0588
  480TMC3    C3 7191   2.628   1.006  15.834 -0.6500  0.6911  0.1910
  480TMC3    C4 7192   2.806   0.807  15.871 -0.3071  0.3400 -0.1928
  480TMC3    C5 7193   2.822   0.895  15.774 -0.3429 -0.9301  0.0823
  480TMC3    C6 7194   2.732   0.997  15.756 -0.1346  0.2901  0.1053
  480TMC3     C 7195   2.678   0.701  16.051 -0.0168  0.7251  0.0911
  480TMC3     O 7196   2.767   0.618  16.060  0.2423  0.5381 -0.1684
  480TMC3     H 7197   2.518   0.907  15.993  0.0656  2.3198 -0.4310
  480TMC3    H1 7198   2.874   0.724  15.889  0.1595  1.2176  2.1835
  480TMC3    H2 7199   2.753   1.073  15.682  0.9725  0.0606  0.1872
  480TMC3    C7 7200   2.855   0.834  15.654 -0.5137  0.2377  0.0725
  480TMC3    C8 7201   2.505   1.022  15.754 -0.3646 -0.3540  0.3916
  480TMC3    O1 7202   2.819   0.717  15.641 -0.5789 -0.2018 -0.1704
  480TMC3    O2 7203   2.403   0.987  15.808  0.1493 -0.1224  0.3445
  481MPD2     C 7204   4.696   0.342  14.591  0.1102  0.3864  0.4973
  481MPD2    C1 7205   4.560   0.317  14.587 -0.8538 -0.1704  0.4547
  481MPD2    C2 7206   4.485   0.320  14.705 -0.1373 -0.2781  0.0758
  481MPD2    C3 7207   4.558   0.355  14.821 -0.0122 -0.7784  0.5391
  481MPD2    C4 7208   4.692   0.378  14.824  0.7489 -0.3357  0.8732
  481MPD2    C5 7209   0.020   0.376  14.706 -0.6389 -0.4102  0.4181
  481MPD2     H 7210   4.379   0.300  14.706  0.2135 -2.2852 -1.3291
  481MPD2    H1 7211   4.733   0.402  14.921  0.8021 -1.4605  1.1293
  481MPD2    H2 7212   0.004   0.347  14.494 -2.1322  0.4742 -0.6321
  481MPD2    H3 7213   0.124   0.408  14.711 -0.7605 -0.0871  0.9175
  481MPD2     N 7214   4.482   0.373  14.942  0.2339  0.0933 -0.1866
  481MPD2    H5 7215   4.536   0.379  15.027 -0.6279 -1.2985  0.4597
  481MPD2    N1 7216   4.504   0.289  14.458  0.1170  0.2628 -0.3580
  481MPD2    H7 7217   4.559   0.325  14.382 -1.0153  0.0183 -1.2870
  482TMC3    C1 7218   4.330   0.208  14.306 -0.9342 -0.1818  0.1366
  482TMC3    C2 7219   4.207   0.155  14.302 -0.1961  1.0049  0.3527
  482TMC3    C3 7220   4.145   0.192  14.182 -0.5195 -0.4269 -0.3698
  482TMC3    C4 7221   4.402   0.260  14.200  0.1902  0.2880 -0.3328
  482TMC3    C5 7222   4.335   0.274  14.081  0.3282  0.4258 -0.1991
  482TMC3    C6 7223   4.201   0.253  14.072 -0.1564 -0.1759 -0.0019
  482TMC3     C 7224   4.381   0.221  14.441 -0.4690 -0.6291  0.6432
  482TMC3     O 7225   4.334   0.145  14.527  0.0283 -0.3792 -0.2728
  482TMC3     H 7226   4.145   0.122  14.384 -0.8550 -0.6760 -0.8273
  482TMC3    H1 7227   4.510   0.269  14.208  0.2646  1.6427 -2.6916
  482TMC3    H2 7228   4.147   0.253  13.977  1.5414 -0.0367 -0.9692
  482TMC3    C7 7229   4.422   0.265  13.966  0.3353  0.9570  1.6497
  482TMC3    C8 7230   4.009   0.142  14.172  0.2535 -1.1398  0.5991
  482TMC3    O1 7231   4.546   0.262  13.981 -0.2885  0.4500 -0.0454
  482TMC3    O2 7232   3.999   0.037  14.235  0.1816  0.2019 -0.1138
  483TMC3    C1 7233   2.151   3.800   1.088  0.5882 -0.1708  0.2381
  483TMC3    C2 7234   2.228   3.913   1.068  0.2662 -1.4743 -0.6384
  483TMC3    C3 7235   2.294   3.957   1.180  0.6961  0.1378  1.0064
  483TMC3    C4 7236   2.152   3.730   1.204  0.6391  1.7141  0.1014
  483TMC3    C5 7237   2.225   3.770   1.304 -0.2349  0.0603 -0.1672
  483TMC3    C6 7238   2.295   3.885   1.294  0.2135  0.1796 -0.2260
  483TMC3     C 7239   2.070   3.758   0.977  0.9470 -0.8672  0.3625
  483TMC3     O 7240   2.032   3.850   0.908  0.5308  0.0412 -0.0076
  483TMC3     H 7241   2.217   3.969   0.976  1.7367  0.4228  0.3298
  483TMC3    H1 7242   2.090   3.642   1.219  1.2157  1.4040  0.6582
  483TMC3    H2 7243   2.361   3.918   1.374 -0.7513 -2.6447  1.7249
  483TMC3    C7 7244   2.313   3.670   1.362 -0.3283 -0.2125 -0.0992
  483TMC3    C8 7245   2.424   4.010   1.133 -0.1983  0.2578 -0.1212
  483TMC3    O1 7246   2.402   3.711   1.438 -0.0391 -0.4860  0.0431
  483TMC3    O2 7247   2.458   3.967   1.023  0.0748 -0.3936 -0.0801
  484MPD2     C 7248   0.548   1.711  13.112 -0.2239 -0.8694 -0.5935
  484MPD2    C1 7249   0.494   1.712  12.985 -0.8563 -0.5179  0.4615
  484MPD2    C2 7250   0.580   1.700  12.879  0.1603  0.0723 -0.0028
  484MPD2    C3 7251   0.712   1.687  12.894 -0.2927 -0.0216  0.6704
  484MPD2    C4 7252   0.765   1.677  13.022  0.2456 -0.2709  0.4450
  484MPD2    C5 7253   0.682   1.686  13.130  0.0762 -0.7080 -0.3416
  484MPD2     H 7254   0.540   1.705  12.779 -0.8226  0.5203  0.4080
  484MPD2    H1 7255   0.866   1.643  13.041 -0.0355 -0.9882  0.6621
  484MPD2    H2 7256   0.486   1.719  13.200  0.4061  0.2582 -0.2525
  484MPD2    H3 7257   0.710   1.662  13.232 -1.0426 -2.1500 -0.3675
  484MPD2     N 7258   0.807   1.675  12.786  0.0498  0.3449 -0.4062
  484MPD2    H5 7259   0.906   1.672  12.806 -0.1547 -1.2256  0.3238
  484MPD2    N1 7260   0.351   1.718  12.981  0.0070 -0.1731  0.4409
  484MPD2    H7 7261   0.296   1.724  13.066 -0.2847 -0.0996  0.2458
  485TMC3    C1 7262   0.914   1.689  12.571 -0.8565 -0.1067 -0.8065
  485TMC3    C2 7263   1.031   1.656  12.634 -0.1407  0.0417 -0.1099
  485TMC3    C3 7264   1.133   1.745  12.607 -0.4103  0.0657  0.5031
  485TMC3    C4 7265   0.897   1.785  12.481  0.1058  0.3188  1.0451
  485TMC3    C5 7266   0.996   1.878  12.462  0.3212 -0.3578  0.2500
  485TMC3    C6 7267   1.112   1.861  12.536  0.2254 -0.2910  0.1835
  485TMC3     C 7268   0.794   1.673  12.647 -0.7394 -0.7752  0.7217
  485TMC3     O 7269   0.689   1.688  12.587 -0.1894  0.4790 -0.0768
  485TMC3     H 7270   1.045   1.563  12.688 -0.1625 -0.7395 -1.4385
  485TMC3    H1 7271   0.798   1.806  12.442 -0.0529  1.2113  1.9457
  485TMC3    H2 7272   1.196   1.929  12.521 -1.1830  1.3360 -0.3011
  485TMC3    C7 7273   1.012   1.945  12.334  0.6107  0.2213  0.2069
  485TMC3    C8 7274   1.263   1.696  12.567  0.4807 -0.6331  0.1509
  485TMC3    O1 7275   1.095   2.034  12.333  0.4707 -0.2517 -0.0082
  485TMC3    O2 7276   1.345   1.781  12.543  0.0638 -0.0755 -0.5813
  486MPD2     C 7277   2.377   0.906  13.102  0.1087  0.0515  0.2513
  486MPD2    C1 7278   2.360   0.914  12.964  0.1748 -0.2872  0.2059
  486MPD2    C2 7279   2.336   1.042  12.914  0.1115 -0.3242  0.0630
  486MPD2    C3 7280   2.320   1.156  12.991 -0.6015 -0.2248  0.0076
  486MPD2    C4 7281   2.349   1.137  13.127  1.1321 -0.2373 -0.1805
  486MPD2    C5 7282   2.384   1.018  13.180  0.1910  0.3111  0.2204
  486MPD2     H 7283   2.320   1.051  12.807 -2.2234  1.3443  0.5800
  486MPD2    H1 7284   2.340   1.219  13.198 -2.2601 -1.4298  0.7640
  486MPD2    H2 7285   2.395   0.809  13.147  1.4733  0.4171  0.4992
  486MPD2    H3 7286   2.381   1.007  13.288 -2.1235 -1.4914 -0.0017
  486MPD2     N 7287   2.286   1.283  12.928 -0.5797 -0.7025 -0.7986
  486MPD2    H5 7288   2.253   1.279  12.832 -0.3792 -0.5713 -0.8730
  486MPD2    N1 7289   2.340   0.798  12.878  0.8196  0.3273 -0.7344
  486MPD2    H7 7290   2.344   0.705  12.919  2.2539 -0.1237 -1.8677
  487TMC3    C1 7291   2.346   0.649  12.690  0.0188  0.4838  0.2865
  487TMC3    C2 7292   2.269   0.613  12.586  0.1343  0.3974 -0.8935
  487TMC3    C3 7293   2.256   0.477  12.572 -0.6822 -0.2619 -0.2672
  487TMC3    C4 7294   2.424   0.559  12.761 -0.1924 -0.5412 -0.0896
  487TMC3    C5 7295   2.410   0.420  12.737  0.3851  0.1655  0.2366
  487TMC3    C6 7296   2.320   0.382  12.643  0.2934 -0.0058 -0.4922
  487TMC3     C 7297   2.319   0.784  12.744 -0.0170 -0.1990 -0.1631
  487TMC3     O 7298   2.287   0.868  12.662  0.4077  0.0346 -0.5454
  487TMC3     H 7299   2.196   0.666  12.526 -2.1535  1.3825  2.7416
  487TMC3    H1 7300   2.482   0.591  12.846  0.9836 -0.2477 -1.0024
  487TMC3    H2 7301   2.342   0.285  12.600 -0.1283  0.1655 -1.0808
  487TMC3    C7 7302   2.434   0.330  12.854 -0.2821 -0.0195  0.2155
  487TMC3    C8 7303   2.120   0.431  12.556  0.2137 -0.1975  0.2390
  487TMC3    O1 7304   2.519   0.367  12.939  0.0456  0.0746 -0.1393
  487TMC3    O2 7305   2.060   0.416  12.452 -0.1956  0.5599 -0.4704
  488MPD2     C 7306   2.574   2.428  16.343  1.0235 -0.5097 -0.5810
  488MPD2    C1 7307   2.649   2.516  16.417  0.0042 -0.1381  0.5621
  488MPD2    C2 7308   2.679   2.489  16.550  0.6333  0.2126 -0.2729
  488MPD2    C3 7309   2.635   2.375  16.610  0.0352 -0.2092 -0.6090
  488MPD2    C4 7310   2.572   2.283  16.530 -0.2237  0.2206  0.4564
  488MPD2    C5 7311   2.547   2.305  16.400  0.1369 -0.0933 -0.0024
  488MPD2     H 7312   2.725   2.573  16.601  1.4831 -0.8944  0.7721
  488MPD2    H1 7313   2.525   2.197  16.576 -1.1006 -0.4341 -1.6233
  488MPD2    H2 7314   2.540   2.459  16.245 -1.8447 -0.3533  0.4796
  488MPD2    H3 7315   2.484   2.236  16.345  2.6180 -0.8900 -1.8628
  488MPD2     N 7316   2.666   2.366  16.749 -0.3424  0.2431  0.0192
  488MPD2    H5 7317   2.721   2.443  16.787 -1.5189  0.1722  1.8471
  488MPD2    N1 7318   2.689   2.641  16.363  0.4794  0.0913 -0.5383
  488MPD2    H7 7319   2.722   2.712  16.428 -0.6723 -0.6165  0.8196
  489TMC3    C1 7320   2.645   2.292  16.988 -0.6236 -0.2518 -0.2062
  489TMC3    C2 7321   2.696   2.407  17.034 -0.1820  0.0663  0.2011
  489TMC3    C3 7322   2.699   2.426  17.172 -0.2829  0.1001  0.3844
  489TMC3    C4 7323   2.592   2.194  17.067 -0.2910 -0.6420  0.1078
  489TMC3    C5 7324   2.576   2.222  17.200  0.1183  0.0395  0.5916
  489TMC3    C6 7325   2.641   2.334  17.249 -0.8388 -0.1995  0.1237
  489TMC3     C 7326   2.623   2.269  16.834  0.0374 -0.1761 -1.0229
  489TMC3     O 7327   2.560   2.171  16.807 -0.0799  0.0883  0.3990
  489TMC3     H 7328   2.715   2.491  16.969 -1.6365  0.7101  0.5993
  489TMC3    H1 7329   2.541   2.108  17.026  1.3236  0.2144 -3.7580
  489TMC3    H2 7330   2.630   2.366  17.352 -0.9327 -0.6856  0.2670
  489TMC3    C7 7331   2.507   2.135  17.292 -0.2506  0.3510  0.3782
  489TMC3    C8 7332   2.736   2.556  17.209 -0.1455  0.1401 -0.2534
  489TMC3    O1 7333   2.474   2.174  17.404  0.4285 -0.0048  0.3707
  489TMC3    O2 7334   2.832   2.607  17.150  0.3761  0.3513  0.0533
  490MPD2     C 7335   3.775   1.532  17.475  0.1493  0.5332 -0.4997
  490MPD2    C1 7336   3.711   1.653  17.456  1.1336  0.7378 -0.1799
  490MPD2    C2 7337   3.799   1.760  17.445  0.4113 -0.2806 -0.0483
  490MPD2    C3 7338   3.937   1.743  17.443 -0.2512 -0.5268 -0.7992
  490MPD2    C4 7339   3.995   1.616  17.450  0.4877 -0.4449 -0.5869
  490MPD2    C5 7340   3.913   1.510  17.468  0.5795 -0.4787 -0.4175
  490MPD2     H 7341   3.749   1.856  17.438 -1.6576 -1.3681 -0.2102
  490MPD2    H1 7342   4.101   1.599  17.431  0.3690 -1.8694  0.0684
  490MPD2    H2 7343   3.717   1.448  17.511 -0.6565  0.7199 -1.3738
  490MPD2    H3 7344   3.959   1.414  17.490 -0.6572 -0.8193  0.7105
  490MPD2     N 7345   4.024   1.843  17.423 -0.1058  0.1989  0.7197
  490MPD2    H5 7346   4.114   1.818  17.384 -0.1196  1.6808 -0.2617
  490MPD2    N1 7347   3.569   1.673  17.472 -0.4352  0.7092 -0.2799
  490MPD2    H7 7348   3.530   1.766  17.471  1.6541  1.5731 -0.9516
  491TMC3    C1 7349   3.336   1.630  17.485 -0.4849  0.2714 -0.0545
  491TMC3    C2 7350   3.245   1.543  17.537  0.2359  0.4621  0.0203
  491TMC3    C3 7351   3.116   1.569  17.507  0.2865  0.5170 -0.5396
  491TMC3    C4 7352   3.308   1.719  17.392 -0.0980  0.3762 -0.1263
  491TMC3    C5 7353   3.179   1.729  17.347  0.0787  0.1196  0.4749
  491TMC3    C6 7354   3.080   1.666  17.416 -0.0643  0.3816 -0.2693
  491TMC3     C 7355   3.468   1.573  17.475 -0.2285  0.3898  0.2966
  491TMC3     O 7356   3.477   1.450  17.483 -1.0109 -0.1531 -0.2087
  491TMC3     H 7357   3.278   1.475  17.615  0.8713 -0.2361 -0.8509
  491TMC3    H1 7358   3.388   1.777  17.347 -2.2176  3.4111  0.0443
  491TMC3    H2 7359   2.979   1.665  17.378 -0.0948 -0.1963 -0.1834
  491TMC3    C7 7360   3.161   1.800  17.220 -0.4742  0.2061  0.1783
  491TMC3    C8 7361   3.009   1.493  17.581  0.3325  0.2403 -0.6175
  491TMC3    O1 7362   3.261   1.856  17.175 -0.2250  0.3241 -0.4659
  491TMC3    O2 7363   2.889   1.515  17.560 -0.2028 -0.3869  0.1774
  492MPD2     C 7364   3.774   2.288  11.648  0.3682  0.2083  0.1795
  492MPD2    C1 7365   3.685   2.236  11.545 -0.3827  0.7944 -0.2254
  492MPD2    C2 7366   3.577   2.151  11.575 -0.1522  0.1524 -0.6864
  492MPD2    C3 7367   3.560   2.120  11.712  0.0104 -0.0783  0.3034
  492MPD2    C4 7368   3.648   2.165  11.809  0.1509  0.4636 -0.2463
  492MPD2    C5 7369   3.755   2.244  11.781 -0.0754 -0.3489 -0.8142
  492MPD2     H 7370   3.501   2.113  11.507 -0.1912 -1.7321  0.4115
  492MPD2    H1 7371   3.639   2.131  11.912 -0.1209  0.0866 -0.3978
  492MPD2    H2 7372   3.864   2.343  11.623  1.0621 -0.6771  0.7103
  492MPD2    H3 7373   3.831   2.278  11.850 -0.7322  0.4293 -0.4741
  492MPD2     N 7374   3.450   2.044  11.768 -0.0633 -0.0470  0.1272
  492MPD2    H5 7375   3.437   2.064  11.866 -1.4948  2.3430 -0.5678
  492MPD2    N1 7376   3.711   2.279  11.412  0.0237  0.0130 -0.6525
  492MPD2    H7 7377   3.790   2.343  11.406  0.3160 -0.1940  1.0345
  493TMC3    C1 7378   3.701   2.289  11.179 -0.3308  0.1201  0.0392
  493TMC3    C2 7379   3.733   2.419  11.176  0.0313  0.7400 -0.1770
  493TMC3    C3 7380   3.768   2.475  11.057 -0.1826 -0.0074  0.1854
  493TMC3    C4 7381   3.708   2.201  11.070  0.7648  0.4774 -0.0383
  493TMC3    C5 7382   3.722   2.264  10.951  0.3589  0.0644  0.2276
  493TMC3    C6 7383   3.749   2.395  10.944  0.2989 -0.0820 -0.6423
  493TMC3     C 7384   3.651   2.229  11.299 -0.2774  0.8247 -0.4659
  493TMC3     O 7385   3.570   2.139  11.283  0.0315  0.5298 -0.7899
  493TMC3     H 7386   3.731   2.483  11.264 -1.0992  0.3214  0.1061
  493TMC3    H1 7387   3.670   2.100  11.081 -0.3221  0.9274  0.3829
  493TMC3    H2 7388   3.751   2.440  10.845  0.2207  1.9721  0.2829
  493TMC3    C7 7389   3.642   2.214  10.843 -0.4848  0.4704 -0.5276
  493TMC3    C8 7390   3.792   2.616  11.059  0.3393  0.5116 -0.5489
  493TMC3    O1 7391   3.596   2.299  10.771 -0.1683  0.1310  0.2912
  493TMC3    O2 7392   3.779   2.669  11.168 -0.1537  0.2818 -0.2366
  494TMC3    C1 7393   4.132   3.420   0.797  0.2064  0.1773 -0.4439
  494TMC3    C2 7394   4.101   3.290   0.782  0.1384 -0.2466 -0.6979
  494TMC3    C3 7395   4.070   3.254   0.655  0.1716  0.6025 -0.2303
  494TMC3    C4 7396   4.125   3.516   0.694  0.6829  0.3789 -0.6633
  494TMC3    C5 7397   4.087   3.475   0.571  0.1606  0.1195  0.7585
  494TMC3    C6 7398   4.057   3.342   0.551  0.0344  0.6260  0.0062
  494TMC3     C 7399   4.143   3.453   0.938 -0.1571 -0.1418  0.0761
  494TMC3     O 7400   4.069   3.393   1.014  0.4887 -0.4872  0.6874
  494TMC3     H 7401   4.086   3.225   0.867  1.9657  1.7309  1.1322
  494TMC3    H1 7402   4.103   3.616   0.730  2.4199 -0.1959  2.0162
  494TMC3    H2 7403   4.040   3.291   0.457  0.1299  1.8504 -0.6727
  494TMC3    C7 7404   4.116   3.560   0.453 -0.3713 -0.8650 -0.7581
  494TMC3    C8 7405   4.055   3.116   0.617 -0.1708  0.7350 -0.4451
  494TMC3    O1 7406   4.069   3.516   0.352  0.3746 -0.4004  0.2510
  494TMC3    O2 7407   3.981   3.086   0.526  0.2532  0.3067  0.0241
  495TMC3    C1 7408   2.604   1.285  14.786 -0.2660  0.5962  0.0759
  495TMC3    C2 7409   2.490   1.298  14.716  0.3086  0.0346  0.1518
  495TMC3    C3 7410   2.374   1.274  14.784 -0.2141  0.0226 -0.4011
  495TMC3    C4 7411   2.610   1.250  14.920  0.7439 -0.1302 -0.2661
  495TMC3    C5 7412   2.490   1.234  14.992  0.3034 -0.3779 -0.0021
  495TMC3    C6 7413   2.373   1.237  14.917  0.4064  0.0107  0.3237
  495TMC3     C 7414   2.725   1.263  14.703  0.1195  0.5533 -0.2026
  495TMC3     O 7415   2.799   1.177  14.747 -0.6548 -0.7479  0.3429
  495TMC3     H 7416   2.486   1.326  14.611  1.3592 -1.8881 -0.3911
  495TMC3    H1 7417   2.703   1.231  14.972  0.9705  2.8753  0.4622
  495TMC3    H2 7418   2.284   1.217  14.975  0.8953  0.5302  1.2481
  495TMC3    C7 7419   2.501   1.185  15.125  0.2114  0.0173  0.6870
  495TMC3    C8 7420   2.295   1.181  14.703  0.6306 -0.2293 -0.2186
  495TMC3    O1 7421   2.584   1.247  15.193  0.3264  0.3392  0.3447
  495TMC3    O2 7422   2.174   1.196  14.714 -0.1115 -0.1129 -0.2843
  496MPD2     C 7423   0.118   1.022  15.791 -0.7705 -0.1435 -0.3291
  496MPD2    C1 7424   0.045   0.950  15.694  0.3226  0.3448  0.1644
  496MPD2    C2 7425   4.647   0.925  15.722 -0.2878  0.2505  0.0795
  496MPD2    C3 7426   4.586   0.969  15.837 -0.3477  0.1918  0.3878
  496MPD2    C4 7427   4.665   1.040  15.923 -0.8445  0.2484  0.0283
  496MPD2    C5 7428   0.058   1.055  15.907 -0.6359  0.8747 -0.3606
  496MPD2     H 7429   4.590   0.866  15.651  0.8695  1.9688 -2.2546
  496MPD2    H1 7430   4.637   1.096  16.012  0.9270 -0.0318  0.7533
  496MPD2    H2 7431   0.224   1.044  15.786 -0.5940 -1.2603 -1.8266
  496MPD2    H3 7432   0.108   1.116  15.982 -0.3284 -1.9281  1.6970
  496MPD2     N 7433   4.457   0.923  15.874 -0.6159  0.0908 -0.4252
  496MPD2    H5 7434   4.405   0.862  15.813  3.0681 -0.5014 -2.9598
  496MPD2    N1 7435   0.102   0.894  15.583  0.3235  0.2882 -0.0153
  496MPD2    H7 7436   0.041   0.841  15.521 -0.2026  2.9354 -1.7401
  497TMC3    C1 7437   4.277   0.872  16.012 -0.6650  0.2066 -0.0134
  497TMC3    C2 7438   4.228   0.841  15.887  0.5169 -0.9510 -0.2824
  497TMC3    C3 7439   4.186   0.716  15.848 -0.2280 -0.2295 -0.8545
  497TMC3    C4 7440   4.287   0.763  16.095 -0.0181 -0.5804  0.6991
  497TMC3    C5 7441   4.255   0.637  16.057 -0.1388  1.0156  0.7649
  497TMC3    C6 7442   4.207   0.606  15.932  0.1485 -0.2857  0.1493
  497TMC3     C 7443   4.402   0.950  16.001 -0.1580  0.2015  0.8659
  497TMC3     O 7444   4.453   1.005  16.100 -0.1881 -0.3853  0.1545
  497TMC3     H 7445   4.217   0.912  15.806 -1.0196 -0.3986  0.4136
  497TMC3    H1 7446   4.328   0.778  16.194  0.4056 -2.5609  0.8159
  497TMC3    H2 7447   4.173   0.508  15.900 -2.3626  0.9074 -0.8206
  497TMC3    C7 7448   4.283   0.529  16.148 -0.4227 -0.3390 -0.0249
  497TMC3    C8 7449   4.223   0.692  15.707  0.4282 -0.1320  0.0686
  497TMC3    O1 7450   4.225   0.425  16.142  0.4132  0.0807  0.1910
  497TMC3    O2 7451   4.325   0.747  15.664  0.2472  0.3547  0.0033
  498MPD2     C 7452   1.081   2.164  10.009 -0.6036  0.0025  0.0323
  498MPD2    C1 7453   1.021   2.240  10.105 -0.1953 -0.7566 -0.5209
  498MPD2    C2 7454   0.913   2.195  10.173  0.0110 -0.1989  0.1159
  498MPD2    C3 7455   0.852   2.082  10.138 -0.2048  0.3470 -0.1304
  498MPD2    C4 7456   0.903   2.015  10.035 -0.2273  0.2206  0.2817
  498MPD2    C5 7457   1.015   2.046   9.970 -0.6839 -0.2023  0.4785
  498MPD2     H 7458   0.880   2.253  10.258 -2.3339 -0.7685 -0.4087
  498MPD2    H1 7459   0.864   1.918  10.006  0.3504  0.3814 -1.0543
  498MPD2    H2 7460   1.168   2.193   9.951  1.3951 -0.2699  2.8930
  498MPD2    H3 7461   1.056   1.974   9.899 -1.5081 -0.4680  0.2703
  498MPD2     N 7462   0.740   2.042  10.220 -0.1629 -0.2471 -0.1317
  498MPD2    H5 7463   0.734   2.093  10.307 -0.4011 -0.4456 -0.0326
  498MPD2    N1 7464   1.090   2.356  10.155  0.1960  0.0884  0.3415
  498MPD2    H7 7465   1.043   2.413  10.224 -0.3407  1.2816 -0.9924
  499TMC3    C1 7466   1.263   2.512  10.191 -0.5154 -0.1644  0.4216
  499TMC3    C2 7467   1.389   2.513  10.239  0.1131 -0.7792 -0.1481
  499TMC3    C3 7468   1.439   2.620  10.315 -0.4670  0.0488 -0.0621
  499TMC3    C4 7469   1.173   2.608  10.224 -0.8223 -1.0203 -0.4463
  499TMC3    C5 7470   1.216   2.705  10.309  0.0539 -0.4223 -0.2181
  499TMC3    C6 7471   1.349   2.714  10.351 -0.0935 -0.3289  0.6672
  499TMC3     C 7472   1.221   2.389  10.126  0.4182 -0.6980  0.0708
  499TMC3     O 7473   1.309   2.332  10.060 -0.3040 -0.2076  0.3754
  499TMC3     H 7474   1.459   2.440  10.200  0.2220 -0.8279  0.1344
  499TMC3    H1 7475   1.077   2.615  10.175 -0.8193 -2.8586 -0.7289
  499TMC3    H2 7476   1.376   2.792  10.421 -0.1252  1.2888 -1.1122
  499TMC3    C7 7477   1.127   2.817  10.335  0.2640 -0.6681 -0.0747
  499TMC3    C8 7478   1.568   2.609  10.376 -0.1845 -0.0160  0.3478
  499TMC3    O1 7479   1.177   2.922  10.374 -0.5476  0.5183  0.3311
  499TMC3    O2 7480   1.622   2.498  10.370  0.2166 -0.5147 -0.2472
  500MPD2     C 7481   2.453   3.506  10.933 -0.2319 -0.2311  0.0418
  500MPD2    C1 7482   2.503   3.549  10.814  0.1323  0.1984  0.0606
  500MPD2    C2 7483   2.416   3.605  10.722  0.4963 -0.2417 -0.1920
  500MPD2    C3 7484   2.283   3.632  10.755 -0.1052  0.2138  0.4061
  500MPD2    C4 7485   2.237   3.598  10.877 -0.3068 -0.2938  0.1505
  500MPD2    C5 7486   2.328   3.536  10.968  1.3204  0.2717 -0.6356
  500MPD2     H 7487   2.454   3.636  10.625 -1.6988  1.7727 -0.4103
  500MPD2    H1 7488   2.133   3.608  10.904 -0.5894  1.5523 -1.5897
  500MPD2    H2 7489   2.511   3.451  11.007  0.0922 -1.6569 -1.2847
  500MPD2    H3 7490   2.299   3.492  11.063  0.4174  2.6434  0.1743
  500MPD2     N 7491   2.185   3.679  10.661  0.2167 -0.1362  0.1727
  500MPD2    H5 7492   2.094   3.695  10.703 -0.2249  0.3756 -0.9826
  500MPD2    N1 7493   2.640   3.534  10.771  0.1768 -0.1484 -0.1757
  500MPD2    H7 7494   2.656   3.557  10.673  0.0116  0.8661  0.0290
  501TMC3    C1 7495   2.876   3.513  10.808  0.6499 -0.2916 -0.4502
  501TMC3    C2 7496   2.904   3.597  10.700  0.1147  0.1593 -0.7453
  501TMC3    C3 7497   3.036   3.617  10.666  0.3281 -0.0916  0.2257
  501TMC3    C4 7498   2.973   3.455  10.876 -0.0443  0.0878 -0.2165
  501TMC3    C5 7499   3.105   3.491  10.861  0.0857 -0.0653  0.9584
  501TMC3    C6 7500   3.138   3.563  10.751 -0.2312 -0.2919  0.2524
  501TMC3     C 7501   2.741   3.477  10.849 -0.3965 -0.9304  0.2458
  501TMC3     O 7502   2.725   3.396  10.938  0.3597 -0.4594 -0.1254
  501TMC3     H 7503   2.821   3.654  10.659  0.9372  3.7361  2.6201
  501TMC3    H1 7504   2.946   3.379  10.948 -3.4858 -0.1285 -1.7617
  501TMC3    H2 7505   3.239   3.585  10.720 -0.0689  0.7065  1.4842
  501TMC3    C7 7506   3.198   3.399  10.924 -0.3172 -0.0204 -0.6070
  501TMC3    C8 7507   3.081   3.715  10.568 -0.3458 -0.8575 -0.0392
  501TMC3    O1 7508   3.158   3.292  10.967  0.4189  0.4903  0.0500
  501TMC3    O2 7509   3.198   3.731  10.551 -0.1272  0.1629 -0.0731
  502TMC3    C1 7510   2.136   1.566  15.232  0.4790 -0.2037  1.0522
  502TMC3    C2 7511   2.123   1.700  15.197  0.8611  0.6235  0.0672
  502TMC3    C3 7512   2.031   1.777  15.274 -0.3825  0.8441  0.4710
  502TMC3    C4 7513   2.059   1.507  15.335 -0.7435  0.6591 -0.5234
  502TMC3    C5 7514   1.968   1.590  15.411  0.0653 -0.1953  0.4472
  502TMC3    C6 7515   1.946   1.722  15.373  0.3254 -0.1880  0.1833
  502TMC3     C 7516   2.239   1.478  15.170 -0.1010  0.0289  0.2345
  502TMC3     O 7517   2.201   1.361  15.149  0.2516 -0.0498 -0.3188
  502TMC3     H 7518   2.178   1.748  15.116  0.4103  1.8182  0.4621
  502TMC3    H1 7519   2.080   1.407  15.372 -2.9254  0.8740  1.2964
  502TMC3    H2 7520   1.896   1.786  15.445  0.6582 -1.2387  1.3396
  502TMC3    C7 7521   1.868   1.513  15.486  0.2422  0.1975 -0.6244
  502TMC3    C8 7522   2.038   1.922  15.255 -0.1527  0.3735 -0.0400
  502TMC3    O1 7523   1.901   1.409  15.541  0.4964 -0.6476  0.6756
  502TMC3    O2 7524   2.101   1.960  15.156  0.3869 -0.0208  1.1636
  503MPD2     C 7525   4.384   2.327  17.201  0.6068  0.5308 -0.2256
  503MPD2    C1 7526   4.398   2.353  17.334 -0.1184 -0.0103 -0.5609
  503MPD2    C2 7527   4.443   2.256  17.421  0.8166  0.1456  1.0129
  503MPD2    C3 7528   4.466   2.128  17.378 -0.0369 -0.5106  0.3734
  503MPD2    C4 7529   4.453   2.100  17.244 -0.1742  0.2048 -0.2858
  503MPD2    C5 7530   4.412   2.196  17.157 -0.2733  0.1725  0.1106
  503MPD2     H 7531   4.448   2.279  17.527  0.3390 -0.3720  1.1487
  503MPD2    H1 7532   4.463   1.998  17.209 -2.8111 -0.6476  1.3633
  503MPD2    H2 7533   4.367   2.404  17.127 -1.4281  0.5808  0.3198
  503MPD2    H3 7534   4.412   2.184  17.050  0.9085  2.0432 -0.1032
  503MPD2     N 7535   4.518   2.031  17.464 -0.4535  0.3683 -0.3089
  503MPD2    H5 7536   4.544   2.068  17.555  3.6845 -0.5737 -1.1488
  503MPD2    N1 7537   4.379   2.481  17.391  0.6540  0.1521  0.1556
  503MPD2    H7 7538   4.375   2.492  17.492 -1.1021 -0.5255  0.1640
  504TMC3    C1 7539   4.617   1.834  17.556 -0.8123 -0.1873 -1.1536
  504TMC3    C2 7540   4.651   1.918  17.657 -0.1436 -0.4660  0.2019
  504TMC3    C3 7541   0.027   1.911  17.720  0.5509 -0.2192  0.2442
  504TMC3    C4 7542   4.706   1.732  17.521 -0.7889  0.2468  0.2089
  504TMC3    C5 7543   0.080   1.722  17.598  0.2341  0.1364 -0.9233
  504TMC3    C6 7544   0.117   1.808  17.696 -0.3583  0.0579 -0.1854
  504TMC3     C 7545   4.531   1.891  17.455  0.4608  1.0338 -0.1925
  504TMC3     O 7546   4.506   1.825  17.354 -0.0888 -0.2301  0.0772
  504TMC3     H 7547   4.568   1.968  17.705  2.2732  2.4681  1.3122
  504TMC3    H1 7548   4.681   1.661  17.444 -1.9817 -0.5178  1.3045
  504TMC3    H2 7549   0.218   1.809  17.735 -0.2247 -1.8014 -0.5005
  504TMC3    C7 7550   0.186   1.654  17.534  0.7696 -0.2985 -0.4166
  504TMC3    C8 7551   0.024   1.988   0.081  0.1443  0.2501 -0.1673
  504TMC3    O1 7552   0.285   1.723  17.515  0.2452 -0.4461 -0.0405
  504TMC3    O2 7553   4.712   2.099   0.072 -0.3882  0.0940  0.1209
  505MPD2     C 7554   4.719   1.374  11.281 -0.4629  0.0901  1.3645
  505MPD2    C1 7555   0.107   1.326  11.265  1.0844 -0.3299 -0.6051
  505MPD2    C2 7556   0.213   1.401  11.318  0.0522 -0.0161  0.0473
  505MPD2    C3 7557   0.196   1.532  11.363 -0.1947 -0.1832 -0.1546
  505MPD2    C4 7558   0.074   1.589  11.362 -0.5049 -0.4893  0.1649
  505MPD2    C5 7559   4.707   1.510  11.317  0.1112 -0.6104 -0.3877
  505MPD2     H 7560   0.310   1.354  11.333  0.2696  1.2607  2.7089
  505MPD2    H1 7561   0.057   1.695  11.380  1.3876 -0.2440  0.4503
  505MPD2    H2 7562   4.630   1.314  11.264  0.2807 -1.0548  1.5067
  505MPD2    H3 7563   4.613   1.564  11.317 -0.1663 -1.0858 -0.8905
  505MPD2     N 7564   0.316   1.584  11.421  0.2742  0.4168 -0.6095
  505MPD2    H5 7565   0.401   1.528  11.423  1.5266  2.3926  1.4527
  505MPD2    N1 7566   0.124   1.203  11.198  0.4127  0.3852 -0.0293
  505MPD2    H7 7567   0.037   1.162  11.165  1.5188 -1.2169 -0.9666
  506TMC3    C1 7568   0.238   1.014  11.101 -0.0459  0.2453 -0.4926
  506TMC3    C2 7569   0.192   1.044  10.973  0.5952  0.4852 -0.5180
  506TMC3    C3 7570   0.261   0.987  10.864  0.3574 -0.5738  0.0787
  506TMC3    C4 7571   0.352   0.947  11.120  0.2303 -0.0047 -0.2098
  506TMC3    C5 7572   0.420   0.900  11.012 -0.4443  0.3702 -0.0079
  506TMC3    C6 7573   0.374   0.912  10.883 -0.9706 -0.2728  0.2800
  506TMC3     C 7574   0.237   1.128  11.189 -0.4167 -0.5031  0.6492
  506TMC3     O 7575   0.345   1.142  11.248  0.2541  0.2061  0.5071
  506TMC3     H 7576   0.116   1.121  10.966  0.0575  0.1953  2.0718
  506TMC3    H1 7577   0.392   0.926  11.219 -1.9763  1.3850  0.9604
  506TMC3    H2 7578   0.435   0.871  10.803  0.3267  0.2533  1.0005
  506TMC3    C7 7579   0.555   0.931  11.030 -0.0311 -0.4465  0.3903
  506TMC3    C8 7580   0.237   1.033  10.725 -0.2933 -1.2886 -0.1090
  506TMC3    O1 7581   0.637   0.869  10.964 -0.4538  0.5276  0.4973
  506TMC3    O2 7582   0.247   0.949  10.631 -0.2818  0.0410 -0.0347
  507TMC3    C1 7583   0.773   1.915  14.969 -0.0050 -0.3265 -0.2619
  507TMC3    C2 7584   0.748   1.835  14.864 -0.0877 -0.1547 -0.1981
  507TMC3    C3 7585   0.754   1.887  14.739  0.4118 -0.1654  0.0494
  507TMC3    C4 7586   0.829   2.035  14.946  0.4807  0.5926  0.2082
  507TMC3    C5 7587   0.849   2.083  14.822 -0.0113  0.1484  0.1755
  507TMC3    C6 7588   0.809   2.009  14.715 -0.2896 -0.6970  0.2476
  507TMC3     C 7589   0.666   1.916  15.068  0.7090 -0.1805 -0.5692
  507TMC3     O 7590   0.675   1.989  15.167  0.0455  0.0409 -0.9673
  507TMC3     H 7591   0.720   1.730  14.871  1.8277 -0.5543  1.2410
  507TMC3    H1 7592   0.821   2.103  15.030 -2.0881  1.2687 -0.5897
  507TMC3    H2 7593   0.831   2.036  14.612 -1.1239 -0.2458  0.1893
  507TMC3    C7 7594   0.802   2.220  14.809  1.1591 -0.3314  0.3952
  507TMC3    C8 7595   0.621   1.870  14.674  0.0152  0.3527 -0.3978
  507TMC3    O1 7596   0.699   2.237  14.745  0.1269 -0.3304 -0.0190
  507TMC3    O2 7597   0.552   1.775  14.712  0.1360 -0.7841  0.0777
  508MPD2     C 7598   1.549   4.140  16.331 -0.3729 -0.3981  0.0599
  508MPD2    C1 7599   1.569   4.260  16.397 -0.5900  0.7323 -0.4569
  508MPD2    C2 7600   1.555   4.379  16.341 -0.4119  0.2909  0.3221
  508MPD2    C3 7601   1.500   4.380  16.212  0.8495 -0.4008 -0.1883
  508MPD2    C4 7602   1.479   4.262  16.139 -0.3192 -0.8151  0.0292
  508MPD2    C5 7603   1.501   4.140  16.202  0.3689  0.3054  0.1322
  508MPD2     H 7604   1.590   4.472  16.384  0.0914  0.1213  0.2718
  508MPD2    H1 7605   1.444   4.261  16.036 -2.0331 -1.3922  0.6051
  508MPD2    H2 7606   1.578   4.044  16.373 -0.0817 -0.1192  0.5041
  508MPD2    H3 7607   1.485   4.048  16.147  1.6352 -0.9572  1.9151
  508MPD2     N 7608   1.502   4.504  16.140  0.3139 -0.0013 -0.0715
  508MPD2    H5 7609   1.528   4.586  16.195 -3.2979 -0.0049  1.6858
  508MPD2    N1 7610   1.626   4.259  16.532 -0.0799  0.0202 -0.2259
  508MPD2    H7 7611   1.633   4.348  16.579 -3.7417  0.0218  0.2994
  509TMC3    C1 7612   1.372   0.109  15.853 -0.6432  0.5929 -0.4206
  509TMC3    C2 7613   1.458   0.200  15.919  0.0510  1.0941  0.0707
  509TMC3    C3 7614   1.543   0.143  16.015 -0.1122  0.0992 -0.8905
  509TMC3    C4 7615   1.367   4.714  15.884  0.4192 -0.0929  0.2958
  509TMC3    C5 7616   1.453   4.668  15.980  0.8451  0.3299  0.7132
  509TMC3    C6 7617   1.546   0.004  16.047  0.6648 -0.2133 -0.3213
  509TMC3     C 7618   1.252   0.172  15.811 -0.0100  0.5474  0.7179
  509TMC3     O 7619   1.153   0.156  15.882 -0.5229 -0.1170 -0.6344
  509TMC3     H 7620   1.465   0.305  15.894  2.0102  0.7270 -0.8877
  509TMC3    H1 7621   1.299   4.646  15.835 -0.0810  2.0840 -2.0168
  509TMC3    H2 7622   1.619   4.707  16.117 -0.0017  1.0910  1.0818
  509TMC3    C7 7623   1.447   4.528  16.021  0.4533  0.7225 -0.0770
  509TMC3    C8 7624   1.669   0.212  16.058 -0.0601  0.7872  0.0284
  509TMC3    O1 7625   1.386   4.452  15.946  0.7867  0.7458 -0.1699
  509TMC3    O2 7626   1.751   0.162  16.137  0.1698  0.3429 -0.1637
  510MPD2     C 7627   4.176   1.395  14.641 -0.3793 -0.0553  0.1480
  510MPD2    C1 7628   4.213   1.318  14.751  0.1953  0.2365  0.0604
  510MPD2    C2 7629   4.345   1.286  14.774 -0.3734 -0.9934 -0.5948
  510MPD2    C3 7630   4.439   1.323  14.686  0.3406  0.0868  0.1682
  510MPD2    C4 7631   4.406   1.405  14.576 -0.4050  0.7092  0.3945
  510MPD2    C5 7632   4.274   1.440  14.564 -0.8947  0.5816  0.1274
  510MPD2     H 7633   4.376   1.220  14.854 -1.6185 -0.5979  0.2202
  510MPD2    H1 7634   4.471   1.457  14.507  1.6444 -3.2385 -0.6574
  510MPD2    H2 7635   4.080   1.442  14.623  0.6022  1.4894 -1.0589
  510MPD2    H3 7636   4.257   1.512  14.485  0.5246  0.3086 -0.4203
  510MPD2     N 7637   4.572   1.266  14.704  0.7690  0.3464  0.1896
  510MPD2    H5 7638   4.582   1.198  14.779  0.8073 -2.9442 -2.7990
  510MPD2    N1 7639   4.108   1.275  14.836 -0.3298  0.7614 -0.1816
  510MPD2    H7 7640   4.014   1.289  14.800  0.5780  1.1049 -2.4411
  511TMC3    C1 7641   4.000   1.157  15.015 -0.5255  0.8328  0.5841
  511TMC3    C2 7642   4.006   1.125  15.152 -0.3699 -0.0930 -0.2486
  511TMC3    C3 7643   3.909   1.036  15.199 -0.2837  0.6143  0.1455
  511TMC3    C4 7644   3.904   1.113  14.931  0.3396 -0.6317  0.1574
  511TMC3    C5 7645   3.834   1.007  14.977  0.4658  0.0495  0.0141
  511TMC3    C6 7646   3.826   0.965  15.109 -0.3435 -0.3570 -0.1677
  511TMC3     C 7647   4.118   1.225  14.962  0.1328  0.9441  0.7621
  511TMC3     O 7648   4.215   1.227  15.035  0.3888 -0.0063 -0.1033
  511TMC3     H 7649   4.078   1.169  15.220 -0.2338 -1.0184  0.2015
  511TMC3    H1 7650   3.909   1.142  14.826 -0.1474 -2.7341 -0.4363
  511TMC3    H2 7651   3.780   0.873  15.144  1.0551  0.0851  2.8271
  511TMC3    C7 7652   3.793   0.915  14.873  1.4627 -0.2678  0.8069
  511TMC3    C8 7653   3.867   1.039  15.337 -1.0314  0.0124  0.3426
  511TMC3    O1 7654   3.835   0.929  14.759 -0.0687  0.3681 -0.4774
  511TMC3    O2 7655   3.926   1.124  15.404  0.0120 -0.5038 -0.3795
  512TMC3    C1 7656   3.232   0.936  13.354  0.1719  0.1876  0.3424
  512TMC3    C2 7657   3.338   0.864  13.394  0.2476 -0.2080  0.0285
  512TMC3    C3 7658   3.321   0.730  13.406 -0.4753 -0.0875  0.1313
  512TMC3    C4 7659   3.114   0.876  13.308 -0.5463 -0.3331  0.7986
  512TMC3    C5 7660   3.110   0.742  13.307 -0.6875 -0.5112 -0.3957
  512TMC3    C6 7661   3.209   0.666  13.358 -0.2973 -0.6759  0.6443
  512TMC3     C 7662   3.226   1.080  13.386 -0.5438 -0.1362 -0.6389
  512TMC3     O 7663   3.304   1.108  13.473  0.0549  0.6809 -0.3199
  512TMC3     H 7664   3.431   0.906  13.429 -0.2083  0.8531 -0.0287
  512TMC3    H1 7665   3.026   0.931  13.276 -0.1211 -0.3800 -0.4433
  512TMC3    H2 7666   3.189   0.566  13.395  2.6652 -1.9659 -1.2359
  512TMC3    C7 7667   2.999   0.677  13.250  0.0645  0.2624 -0.2684
  512TMC3    C8 7668   3.384   0.657  13.506 -0.6968  0.2278 -0.3030
  512TMC3    O1 7669   2.909   0.752  13.222 -0.7580 -0.7740  0.5187
  512TMC3    O2 7670   3.402   0.537  13.496  0.0201  0.0235 -0.7829
  513MPD2     C 7671   0.667   0.928  13.476 -0.4119  0.2941 -0.4106
  513MPD2    C1 7672   0.676   0.847  13.361  0.4080 -0.1090  0.4434
  513MPD2    C2 7673   0.802   0.800  13.323 -0.2101 -0.0060  0.1902
  513MPD2    C3 7674   0.913   0.827  13.395 -0.3635  0.3139  0.0849
  513MPD2    C4 7675   0.903   0.907  13.511  0.1281 -0.0257  0.0269
  513MPD2    C5 7676   0.783   0.950  13.551  0.1058  0.6933  0.5310
  513MPD2     H 7677   0.815   0.746  13.230  0.0570 -0.1402  0.3058
  513MPD2    H1 7678   0.994   0.940  13.559  0.2786 -1.0709  0.4569
  513MPD2    H2 7679   0.571   0.951  13.520 -0.3498 -0.3512  0.0629
  513MPD2    H3 7680   0.789   1.027  13.628  0.0874  0.1328  1.0914
  513MPD2     N 7681   1.029   0.778  13.338 -0.0220  0.1916 -0.4186
  513MPD2    H5 7682   1.018   0.744  13.243  0.2346  1.1850 -0.8087
  513MPD2    N1 7683   0.569   0.800  13.282 -0.0295 -0.3658  0.1604
  513MPD2    H7 7684   0.587   0.730  13.211 -0.4444 -0.3160  0.0066
  514TMC3    C1 7685   0.373   0.775  13.174  0.4663 -0.2920 -0.5710
  514TMC3    C2 7686   0.299   0.854  13.089  0.3552 -0.7050  0.8853
  514TMC3    C3 7687   0.317   0.843  12.952  0.9131 -0.1164  0.2591
  514TMC3    C4 7688   0.438   0.663  13.126 -0.1083  0.6879  0.4239
  514TMC3    C5 7689   0.457   0.649  12.990  0.2702 -0.3075  0.2805
  514TMC3    C6 7690   0.397   0.739  12.901 -0.0175 -0.5873  0.3693
  514TMC3     C 7691   0.434   0.839  13.289 -0.1516 -0.1279  0.0552
  514TMC3     O 7692   0.365   0.922  13.349  0.3314 -0.4287  0.1790
  514TMC3     H 7693   0.253   0.943  13.129  1.2129  0.0573  0.1478
  514TMC3    H1 7694   0.477   0.582  13.187 -0.4287  2.4289  2.9824
  514TMC3    H2 7695   0.422   0.743  12.796 -0.5378 -0.5632  0.2464
  514TMC3    C7 7696   0.593   0.623  12.961  0.0409 -0.1977  1.1176
  514TMC3    C8 7697   0.220   0.913  12.867  0.2526 -0.1231 -0.1908
  514TMC3    O1 7698   0.665   0.627  13.063  0.0210 -0.4418 -0.0243
  514TMC3    O2 7699   0.124   0.946  12.931  0.4921 -0.0827  0.2289
  515MPD2     C 7700   3.293   2.825  14.955  0.3115  0.6565 -0.0078
  515MPD2    C1 7701   3.321   2.689  14.927 -0.3810 -0.0767 -0.0652
  515MPD2    C2 7702   3.438   2.636  14.972  0.6228 -0.2344  0.0837
  515MPD2    C3 7703   3.536   2.706  15.042 -1.0221 -0.1838  0.2988
  515MPD2    C4 7704   3.510   2.841  15.063 -0.0716  0.1358  0.0221
  515MPD2    C5 7705   3.388   2.893  15.029  0.4782 -0.4364  0.0542
  515MPD2     H 7706   3.459   2.533  14.946 -1.2240 -0.6117  0.1147
  515MPD2    H1 7707   3.585   2.901  15.113 -0.2083  0.0012  0.3855
  515MPD2    H2 7708   3.203   2.872  14.918  0.1849  2.6795  2.8577
  515MPD2    H3 7709   3.366   2.997  15.049  1.4523 -0.5691  1.8273
  515MPD2     N 7710   3.647   2.641  15.102 -0.0301 -0.4720  0.3436
  515MPD2    H5 7711   3.712   2.708  15.143  2.4631 -1.6683 -1.6918
  515MPD2    N1 7712   3.231   2.599  14.869 -0.1311 -0.5571 -0.1319
  515MPD2    H7 7713   3.272   2.509  14.847  1.1865  0.8977 -3.5429
  516TMC3    C1 7714   3.031   2.523  14.764 -0.5274  1.1556 -1.0039
  516TMC3    C2 7715   2.922   2.561  14.684 -0.0100 -0.3140 -0.2077
  516TMC3    C3 7716   2.863   2.460  14.617 -0.1176  0.1848  0.8559
  516TMC3    C4 7717   3.070   2.390  14.770 -0.2698  0.2872  0.1258
  516TMC3    C5 7718   2.998   2.301  14.702  0.2428 -0.5524  0.2565
  516TMC3    C6 7719   2.898   2.332  14.618  0.5039  0.1872  0.6190
  516TMC3     C 7720   3.101   2.634  14.832 -0.0223  0.1617  0.0888
  516TMC3     O 7721   3.046   2.744  14.838  0.3050 -0.0876 -0.5102
  516TMC3     H 7722   2.881   2.661  14.677 -2.7575 -1.3176  2.0752
  516TMC3    H1 7723   3.135   2.355  14.849  2.3764 -0.0268 -2.1615
  516TMC3    H2 7724   2.838   2.257  14.567  0.5114  0.1882  0.6086
  516TMC3    C7 7725   2.995   2.167  14.759  1.2672  0.1289  0.2196
  516TMC3    C8 7726   2.758   2.505  14.530  0.0601  0.3757  0.2105
  516TMC3    O1 7727   3.034   2.149  14.871 -0.2629 -0.1324  0.3725
  516TMC3    O2 7728   2.686   2.600  14.574 -0.3813 -0.8146 -0.1695
  517MPD2     C 7729   2.665   3.725   0.277  0.5852 -0.1265  0.1342
  517MPD2    C1 7730   2.798   3.750   0.245  0.1425 -0.2703 -0.0622
  517MPD2    C2 7731   2.879   3.810   0.339 -1.0441 -0.2365  0.2567
  517MPD2    C3 7732   2.824   3.849   0.461 -0.6035 -0.4711 -0.8708
  517MPD2    C4 7733   2.690   3.838   0.481  0.4996 -0.0495 -0.0048
  517MPD2    C5 7734   2.607   3.778   0.392 -0.2397 -0.4981 -0.0946
  517MPD2     H 7735   2.979   3.831   0.302 -1.9798  0.2679 -2.0077
  517MPD2    H1 7736   2.657   3.868   0.580  0.6121 -0.3968  0.1398
  517MPD2    H2 7737   2.595   3.672   0.214 -0.7551  0.2475  1.2887
  517MPD2    H3 7738   2.509   3.750   0.429  0.0042  0.8409  1.5351
  517MPD2     N 7739   2.898   3.907   0.570  0.2025 -0.3832  0.7099
  517MPD2    H5 7740   2.851   3.930   0.657  0.9882  1.6934  0.6098
  517MPD2    N1 7741   2.864   3.698   0.127 -0.0379  0.1499  0.6346
  517MPD2    H7 7742   2.963   3.720   0.117  0.0703 -0.8757 -0.5464
  518TMC3    C1 7743   2.895   3.570  17.693 -0.6623  0.4425 -0.4255
  518TMC3    C2 7744   2.858   3.446  17.640  1.0860 -0.2111 -0.7554
  518TMC3    C3 7745   2.949   3.383  17.562 -0.2188 -0.4001 -0.4541
  518TMC3    C4 7746   3.014   3.631  17.666 -0.2672  0.3664  0.5107
  518TMC3    C5 7747   3.086   3.575  17.564 -0.6150 -0.1832  0.3643
  518TMC3    C6 7748   3.063   3.447  17.516  0.2012 -0.0787  0.1359
  518TMC3     C 7749   2.804   3.626   0.030 -0.4169 -1.2254  0.1996
  518TMC3     O 7750   2.696   3.578   0.028 -0.3631 -0.0551  0.2800
  518TMC3     H 7751   2.756   3.411  17.654  0.8718 -0.0365 -1.8972
  518TMC3    H1 7752   3.037   3.727  17.711 -1.3735  0.6210  0.5311
  518TMC3    H2 7753   3.129   3.387  17.455 -0.8282 -0.5102 -0.5650
  518TMC3    C7 7754   3.228   3.623  17.569  0.5571 -0.0284 -0.1040
  518TMC3    C8 7755   2.940   3.240  17.525 -0.3087 -0.1303 -0.3381
  518TMC3    O1 7756   3.273   3.674  17.673 -0.3680 -0.3878  0.0396
  518TMC3    O2 7757   3.032   3.189  17.460  0.7392  0.0244  0.1778
  519MPD2     C 7758   4.100   2.426  14.569  0.2599  0.7883 -0.0896
  519MPD2    C1 7759   4.012   2.331  14.510 -0.1778  1.0959  0.6422
  519MPD2    C2 7760   4.027   2.200  14.547  0.0149  1.2084  0.1487
  519MPD2    C3 7761   4.128   2.155  14.631  0.1965 -0.4227  0.5043
  519MPD2    C4 7762   4.213   2.246  14.675  0.4328 -0.0777  0.2644
  519MPD2    C5 7763   4.191   2.375  14.657 -0.2625 -0.1925 -0.1552
  519MPD2     H 7764   3.965   2.134  14.487 -0.5011  0.6583  1.2898
  519MPD2    H1 7765   4.289   2.207  14.742  0.5666 -0.6720 -0.2376
  519MPD2    H2 7766   4.095   2.531  14.543 -2.0135  1.2377  2.0410
  519MPD2    H3 7767   4.263   2.441  14.704 -0.4390 -2.1819  2.8951
  519MPD2     N 7768   4.168   2.021  14.634 -0.2303 -0.3138 -0.1048
  519MPD2    H5 7769   4.259   1.993  14.667 -0.5506 -0.1993  0.8944
  519MPD2    N1 7770   3.916   2.351  14.405 -0.1646  0.4910 -0.5939
  519MPD2    H7 7771   3.868   2.275  14.358  0.8074  0.5093 -1.6133
  520TMC3    C1 7772   4.161   1.837  14.498  0.5511  0.2858  0.0752
  520TMC3    C2 7773   4.101   1.787  14.384  0.6349 -0.6540  0.2909
  520TMC3    C3 7774   4.176   1.749  14.279 -0.2754 -0.6224 -0.1916
  520TMC3    C4 7775   4.300   1.829  14.516 -0.0287  0.4892  0.0593
  520TMC3    C5 7776   4.372   1.776  14.411  0.2111  0.4140 -0.2132
  520TMC3    C6 7777   4.315   1.754  14.285 -0.1834 -0.5256  0.4797
  520TMC3     C 7778   4.084   1.931  14.577  0.4383 -0.1110  0.0224
  520TMC3     O 7779   3.962   1.925  14.557 -0.6971  0.6440 -0.8948
  520TMC3     H 7780   3.994   1.800  14.372  0.5052 -1.4713  0.5805
  520TMC3    H1 7781   4.343   1.857  14.611  1.5963 -0.1610 -0.4878
  520TMC3    H2 7782   4.368   1.717  14.197 -0.8767 -0.8211  0.1911
  520TMC3    C7 7783   4.516   1.764  14.421  0.1954  0.2708  0.3479
  520TMC3    C8 7784   4.119   1.764  14.149  0.2102  0.2886  0.1921
  520TMC3    O1 7785   4.567   1.742  14.529  0.2095 -0.1957 -0.1795
  520TMC3    O2 7786   4.201   1.814  14.074 -0.2487 -0.1996  0.0428
  521MPD2     C 7787   0.355   0.285  17.716 -0.5621 -0.7166 -0.5399
  521MPD2    C1 7788   0.329   0.188  17.619 -0.5841  0.2103 -0.5785
  521MPD2    C2 7789   0.436   0.109  17.570 -0.1081  0.1645  0.0517
  521MPD2    C3 7790   0.570   0.131  17.613  0.0922 -0.5852 -0.2081
  521MPD2    C4 7791   0.589   0.236  17.706  0.2233  0.0286 -0.7968
  521MPD2    C5 7792   0.482   0.300  17.754 -0.3745  0.8637 -0.4006
  521MPD2     H 7793   0.406   0.017  17.522  1.8472 -1.4717  1.9340
  521MPD2    H1 7794   0.688   0.263  17.740 -0.1365  1.2076 -0.6508
  521MPD2    H2 7795   0.289   0.348   0.012  0.1634 -0.0550 -0.4275
  521MPD2    H3 7796   0.499   0.386   0.058  1.5279  1.8552 -2.2071
  521MPD2     N 7797   0.676   0.048  17.558  0.1610 -0.4722 -0.1339
  521MPD2    H5 7798   0.647   4.724  17.485  0.7751 -0.6448 -0.2270
  521MPD2    N1 7799   0.193   0.156  17.573 -0.2001 -0.2468  0.0781
  521MPD2    H7 7800   0.117   0.197  17.625 -0.3160 -0.6506  0.2292
  522TMC3    C1 7801   0.891   4.706  17.524 -0.4057 -0.0096 -0.0836
  522TMC3    C2 7802   1.029   4.732  17.517 -0.1670  0.9769 -0.0254
  522TMC3    C3 7803   1.105   4.648  17.449 -0.1729 -0.1708 -0.0694
  522TMC3    C4 7804   0.843   4.601  17.458  0.1893 -0.1508  0.0611
  522TMC3    C5 7805   0.925   4.516  17.398 -0.0349 -0.6072 -0.0275
  522TMC3    C6 7806   1.059   4.531  17.402  0.3615  0.0639 -0.3563
  522TMC3     C 7807   0.805   0.050  17.598 -0.0271  0.4726  0.0540
  522TMC3     O 7808   0.857   0.116  17.685  0.4973 -1.0552 -0.0675
  522TMC3     H 7809   1.070   0.079  17.565  3.0221 -1.0128  0.9592
  522TMC3    H1 7810   0.742   4.566  17.477  1.0158 -2.4007  0.3479
  522TMC3    H2 7811   1.133   4.457  17.374  0.7177  1.0495 -1.9960
  522TMC3    C7 7812   0.875   4.432  17.293  0.7880  0.4955 -0.2485
  522TMC3    C8 7813   1.246   4.673  17.451  0.1150  0.6873  0.1178
  522TMC3    O1 7814   0.939   4.340  17.250  0.2883 -0.2703 -0.5150
  522TMC3    O2 7815   1.282   0.027  17.520 -0.4499 -0.4590 -0.4480
  523MPD2     C 7816   3.458   0.537  10.223 -0.2620 -0.3349  0.5777
  523MPD2    C1 7817   3.365   0.441  10.244  0.7637  0.1198  0.1018
  523MPD2    C2 7818   3.235   0.479  10.265 -0.7744  0.2817 -0.4312
  523MPD2    C3 7819   3.196   0.611  10.266 -0.6166  0.4821 -0.2983
  523MPD2    C4 7820   3.291   0.705  10.220  0.1259 -0.3926  0.3625
  523MPD2    C5 7821   3.423   0.668  10.203  0.2709  0.7684  0.7243
  523MPD2     H 7822   3.176   0.403  10.314 -0.0600 -0.2920 -0.4731
  523MPD2    H1 7823   3.249   0.805  10.213 -1.3712 -1.0395  0.1951
  523MPD2    H2 7824   3.564   0.513  10.220 -0.2337 -0.4992  2.6682
  523MPD2    H3 7825   3.499   0.742  10.182  2.2081 -1.6724 -0.9370
  523MPD2     N 7826   3.061   0.650  10.289 -0.2179 -0.0584  0.4594
  523MPD2    H5 7827   3.053   0.751  10.293  0.4129  0.0339 -0.5951
  523MPD2    N1 7828   3.403   0.307  10.234  0.1106  0.0889  0.5436
  523MPD2    H7 7829   3.500   0.285  10.217 -0.1844 -2.2141  1.7656
  524TMC3    C1 7830   2.815   0.638  10.309  0.1844 -0.1289 -0.3735
  524TMC3    C2 7831   2.698   0.572  10.323  0.1649  0.0319 -0.1606
  524TMC3    C3 7832   2.591   0.627  10.392  0.3781  0.4737 -0.3345
  524TMC3    C4 7833   2.821   0.774  10.339  0.6352 -0.0113  0.0475
  524TMC3    C5 7834   2.711   0.826  10.402 -0.4549 -0.5832 -0.0571
  524TMC3    C6 7835   2.599   0.753  10.436  0.4358 -0.2386  0.1868
  524TMC3     C 7836   2.950   0.565  10.305  0.0936  0.1225  0.0946
  524TMC3     O 7837   2.937   0.444  10.302 -0.3063 -0.3064  0.1663
  524TMC3     H 7838   2.692   0.465  10.308  1.5866 -0.1607  0.6791
  524TMC3    H1 7839   2.908   0.837  10.324  1.8964 -2.1898 -1.7678
  524TMC3    H2 7840   2.515   0.795  10.489  0.1595  2.4159 -2.3311
  524TMC3    C7 7841   2.688   0.974  10.408  0.7557 -0.4549  0.3429
  524TMC3    C8 7842   2.459   0.567  10.374 -0.7920 -0.3032  0.7789
  524TMC3    O1 7843   2.609   1.013  10.493  0.1225 -0.6580 -0.1273
  524TMC3    O2 7844   2.376   0.594  10.463 -0.1827 -0.5094  0.2661
  525MPD2     C 7845   0.858   1.658  14.529 -0.0999 -0.7043  0.6385
  525MPD2    C1 7846   0.974   1.674  14.603 -0.2258  0.0200 -0.6263
  525MPD2    C2 7847   1.066   1.775  14.581  0.1111 -0.4694 -0.5346
  525MPD2    C3 7848   1.034   1.862  14.482 -0.2199 -0.4960 -0.1506
  525MPD2    C4 7849   0.919   1.853  14.409  0.5736  0.0145  0.0010
  525MPD2    C5 7850   0.832   1.748  14.430  0.1771  0.4385 -0.0004
  525MPD2     H 7851   1.164   1.778  14.628  0.3335  1.2111 -1.0876
  525MPD2    H1 7852   0.903   1.922  14.326 -0.6978  0.6916  0.8156
  525MPD2    H2 7853   0.790   1.579  14.558 -4.3258  2.2092 -1.3534
  525MPD2    H3 7854   0.744   1.747  14.367  0.6946 -0.8572 -0.7061
  525MPD2     N 7855   1.121   1.970  14.445  0.4241 -0.2810  0.1345
  525MPD2    H5 7856   1.073   2.049  14.404 -1.4391 -1.8544 -0.6976
  525MPD2    N1 7857   1.018   1.570  14.693 -0.6964  0.0907  0.2119
  525MPD2    H7 7858   1.113   1.582  14.727 -0.1710 -1.7157 -0.5716
  526TMC3    C1 7859   1.008   1.382  14.829 -0.0421 -0.0839 -0.2544
  526TMC3    C2 7860   0.955   1.342  14.942 -0.4439  0.7625  0.2402
  526TMC3    C3 7861   1.040   1.291  15.034  0.7252  0.1529  0.7744
  526TMC3    C4 7862   1.141   1.360  14.794 -0.2960  0.3194 -0.3754
  526TMC3    C5 7863   1.218   1.293  14.889  0.2055 -0.0378  0.4962
  526TMC3    C6 7864   1.165   1.268  15.011 -0.4799  0.5264 -0.0473
  526TMC3     C 7865   0.935   1.481  14.750  0.4712  0.2246  0.1121
  526TMC3     O 7866   0.812   1.487  14.756  0.4105  0.2892  0.0093
  526TMC3     H 7867   0.850   1.366  14.956  0.0400  0.4245  4.4591
  526TMC3    H1 7868   1.175   1.382  14.694 -1.8218  0.0516 -0.9531
  526TMC3    H2 7869   1.232   1.229  15.086  1.0569 -0.0051 -1.7020
  526TMC3    C7 7870   1.345   1.228  14.843  0.5879  0.5408  0.4320
  526TMC3    C8 7871   0.997   1.269  15.173 -1.0092  0.3589 -0.1422
  526TMC3    O1 7872   1.397   1.145  14.915  0.0740  0.0922  0.4000
  526TMC3    O2 7873   1.091   1.279  15.255  0.3082  0.4488 -0.2057
  527MPD2     C 7874   4.098   3.901   1.411  0.7255 -0.5132  0.1218
  527MPD2    C1 7875   4.099   3.956   1.283  1.3609  0.1557  0.1346
  527MPD2    C2 7876   4.212   4.021   1.240 -0.0252  0.0200  1.1326
  527MPD2    C3 7877   4.327   4.020   1.318  0.2423 -0.4999  0.5891
  527MPD2    C4 7878   4.328   3.965   1.446 -0.2695 -0.1210  0.2268
  527MPD2    C5 7879   4.213   3.906   1.489  0.0153 -0.4038  0.0847
  527MPD2     H 7880   4.217   4.080   1.150 -3.5707  0.6385  1.3653
  527MPD2    H1 7881   4.415   3.938   1.504 -0.5179 -0.7977  0.2872
  527MPD2    H2 7882   4.015   3.839   1.440  1.2845 -0.9993  0.6700
  527MPD2    H3 7883   4.210   3.831   1.568  1.4476 -3.1672 -2.5121
  527MPD2     N 7884   4.446   4.083   1.264  0.1258 -0.0086 -0.4898
  527MPD2    H5 7885   4.441   4.107   1.166 -3.8670 -0.2653 -0.3515
  527MPD2    N1 7886   3.981   3.962   1.203 -0.4906  0.6636 -0.4438
  527MPD2    H7 7887   3.993   3.994   1.107 -0.9352  1.3164 -0.2818
  528TMC3    C1 7888   3.761   3.913   1.128  0.1513  0.5208  0.3051
  528TMC3    C2 7889   3.794   3.900   0.999 -0.0896  0.2908 -0.6317
  528TMC3    C3 7890   3.693   3.903   0.908 -0.5262 -0.8466  0.3295
  528TMC3    C4 7891   3.632   3.908   1.175 -0.1670 -0.2315  0.3768
  528TMC3    C5 7892   3.527   3.886   1.082 -0.4461  0.1965  0.4018
  528TMC3    C6 7893   3.557   3.896   0.948 -0.2621 -0.1862  0.3350
  528TMC3     C 7894   3.856   3.914   1.242  0.8839  0.2958 -0.5679
  528TMC3     O 7895   3.815   3.878   1.350  0.3048 -0.0511  0.5895
  528TMC3     H 7896   3.898   3.903   0.966 -0.1752 -0.2228 -0.9564
  528TMC3    H1 7897   3.607   3.919   1.279  2.9768  2.0683  0.8801
  528TMC3    H2 7898   3.478   3.908   0.875 -0.3901  1.6349  0.7685
  528TMC3    C7 7899   3.391   3.890   1.129  0.2425 -1.0076 -0.2632
  528TMC3    C8 7900   3.723   3.922   0.769  0.3398  0.0158  0.0491
  528TMC3    O1 7901   3.376   3.908   1.248 -0.5132  0.1336 -0.0989
  528TMC3    O2 7902   3.831   3.974   0.740 -0.4479  0.0957  0.0186
  529MPD2     C 7903   1.482   2.670   0.866  0.5295 -0.1375  0.2991
  529MPD2    C1 7904   1.563   2.594   0.779 -0.3055 -0.2409  0.2168
  529MPD2    C2 7905   1.548   2.617   0.643  0.3826  0.4899  0.3213
  529MPD2    C3 7906   1.461   2.704   0.595  0.6477  0.1105 -0.6261
  529MPD2    C4 7907   1.382   2.775   0.683 -0.1842 -0.3249  0.1822
  529MPD2    C5 7908   1.392   2.759   0.816 -0.4642  0.7770  0.5863
  529MPD2     H 7909   1.604   2.559   0.570 -0.1634  0.4222 -0.0451
  529MPD2    H1 7910   1.306   2.840   0.641 -0.8048 -1.8487 -1.0555
  529MPD2    H2 7911   1.490   2.659   0.973 -0.4240 -1.0585  0.2796
  529MPD2    H3 7912   1.339   2.820   0.888 -1.4964  1.2975 -0.6110
  529MPD2     N 7913   1.437   2.729   0.457  0.3320 -0.0805 -0.5233
  529MPD2    H5 7914   1.363   2.795   0.437 -1.1663 -1.3542  0.8479
  529MPD2    N1 7915   1.660   2.502   0.816  0.4724  0.8138 -0.4477
  529MPD2    H7 7916   1.705   2.449   0.743  1.2890 -1.4419  1.7043
  530TMC3    C1 7917   1.854   2.428   0.934 -0.1854 -0.0638  0.0626
  530TMC3    C2 7918   1.949   2.458   1.023 -0.1874 -0.5714 -0.1318
  530TMC3    C3 7919   2.048   2.379   1.047  0.0849 -0.2307  0.0362
  530TMC3    C4 7920   1.862   2.319   0.864  0.2373  0.0709  0.0553
  530TMC3    C5 7921   1.959   2.229   0.903  0.1357  0.0262  0.2532
  530TMC3    C6 7922   2.061   2.255   0.996 -0.0577  0.0691 -0.2357
  530TMC3     C 7923   1.721   2.492   0.941 -0.3323  0.5325  0.6513
  530TMC3     O 7924   1.700   2.556   1.044 -0.0943  0.1696 -0.0769
  530TMC3     H 7925   1.933   2.547   1.083 -0.8923 -1.3302  0.8011
  530TMC3    H1 7926   1.779   2.268   0.817 -2.1079  2.6516  1.4469
  530TMC3    H2 7927   2.138   2.186   1.028 -0.2601  1.5317  3.3786
  530TMC3    C7 7928   1.948   2.097   0.855 -0.3334  0.2252  0.4544
  530TMC3    C8 7929   2.100   2.406   1.180  0.1128  0.0171 -0.7950
  530TMC3    O1 7930   1.930   2.073   0.733 -0.2319 -0.6647 -0.1145
  530TMC3    O2 7931   2.043   2.486   1.256 -1.2307 -0.4334 -0.3511
  531MPD2     C 7932   1.015   0.535  12.690  0.0013 -0.0138 -0.3623
  531MPD2    C1 7933   1.002   0.571  12.815  0.0109 -0.0573 -0.4817
  531MPD2    C2 7934   0.871   0.592  12.867  0.1721  0.0463  0.2780
  531MPD2    C3 7935   0.759   0.585  12.788  0.6066 -0.4092 -0.3195
  531MPD2    C4 7936   0.776   0.558  12.657 -0.7490 -1.1084  0.1845
  531MPD2    C5 7937   0.905   0.536  12.610  0.2403  0.5315  0.7808
  531MPD2     H 7938   0.863   0.596  12.975  0.3146  1.7752  0.2262
  531MPD2    H1 7939   0.689   0.544  12.594 -0.7750  1.8597 -0.4393
  531MPD2    H2 7940   1.111   0.498  12.656 -0.0279 -0.7501  0.3453
  531MPD2    H3 7941   0.907   0.504  12.506  2.8070  0.1750  0.9347
  531MPD2     N 7942   0.624   0.601  12.831  0.0369 -0.4228  0.1749
  531MPD2    H5 7943   0.550   0.584  12.763  1.5603 -0.3147 -1.5225
  531MPD2    N1 7944   1.113   0.573  12.897 -0.3346 -0.1001 -0.3864
  531MPD2    H7 7945   1.194   0.525  12.859 -0.8352 -0.8084 -0.5669
  532TMC3    C1 7946   1.240   0.655  13.094 -0.1356  0.2439  0.6469
  532TMC3    C2 7947   1.226   0.763  13.179  0.2446  0.0467 -0.3642
  532TMC3    C3 7948   1.253   0.727  13.311 -0.2135  0.3387  0.1340
  532TMC3    C4 7949   1.278   0.525  13.130  0.0083  0.2474 -0.4236
  532TMC3    C5 7950   1.316   0.508  13.260  0.1377 -0.0440 -1.0212
  532TMC3    C6 7951   1.308   0.609  13.344 -0.6771  0.8226  0.2545
  532TMC3     C 7952   1.122   0.660  13.008 -0.4369 -0.1571 -0.9186
  532TMC3     O 7953   1.046   0.747  13.043  0.0941 -1.4254  0.3102
  532TMC3     H 7954   1.204   0.862  13.142 -1.7374 -0.0161  0.6692
  532TMC3    H1 7955   1.290   0.443  13.060 -2.1537 -0.9771  0.6437
  532TMC3    H2 7956   1.324   0.582  13.448 -1.2521 -1.6631 -0.3212
  532TMC3    C7 7957   1.342   0.374  13.310  0.2195 -0.1792 -0.1705
  532TMC3    C8 7958   1.147   0.766  13.403  0.1704  0.7442  0.1821
  532TMC3    O1 7959   1.411   0.352  13.408  0.1521  0.4743 -0.1176
  532TMC3    O2 7960   1.156   0.759  13.523  0.7553 -0.1982 -0.7976
  533TMC3    C1 7961   1.288   2.121  14.525 -0.4976  0.0438  0.2984
  533TMC3    C2 7962   1.423   2.146  14.525 -0.3775  0.5229  0.0193
  533TMC3    C3 7963   1.473   2.245  14.615 -0.1319 -0.3565 -0.7762
  533TMC3    C4 7964   1.207   2.204  14.611 -0.0143 -0.0860 -0.5976
  533TMC3    C5 7965   1.261   2.299  14.698  0.1563  0.0941  0.5323
  533TMC3    C6 7966   1.395   2.321  14.695 -0.1764  0.2049 -0.4734
  533TMC3     C 7967   1.248   1.982  14.496  0.2816  0.8059 -0.1315
  533TMC3     O 7968   1.336   1.895  14.488 -0.0879 -0.4299 -0.2877
  533TMC3     H 7969   1.491   2.078  14.476  0.4627 -0.6143  2.7768
  533TMC3    H1 7970   1.100   2.191  14.624  0.3003 -3.9278 -1.9605
  533TMC3    H2 7971   1.437   2.398  14.759 -2.0649 -0.4428  1.5423
  533TMC3    C7 7972   1.202   2.274  14.830 -0.1075 -0.3446 -0.2429
  533TMC3    C8 7973   1.618   2.262  14.631 -0.2673  0.7207  0.0983
  533TMC3    O1 7974   1.137   2.169  14.848 -0.4064 -0.5669  0.2172
  533TMC3    O2 7975   1.661   2.293  14.743 -0.1112  0.3232 -0.3862
  534MPD2     C 7976   4.203   2.471   0.929  0.1968  0.9653  0.0539
  534MPD2    C1 7977   4.233   2.539   1.042  0.6027 -0.3731  0.3066
  534MPD2    C2 7978   4.168   2.657   1.070  0.0227  0.0272  0.4678
  534MPD2    C3 7979   4.068   2.706   0.984  0.2159  0.3864  0.7281
  534MPD2    C4 7980   4.033   2.624   0.881  0.1877  0.0099 -0.1923
  534MPD2    C5 7981   4.096   2.507   0.859  0.2245  0.1084  0.2149
  534MPD2     H 7982   4.197   2.712   1.159  2.5298 -1.6113  0.6707
  534MPD2    H1 7983   3.950   2.636   0.812  0.6470  1.6207 -0.4793
  534MPD2    H2 7984   4.258   2.381   0.903 -0.6198 -0.2609  2.5689
  534MPD2    H3 7985   4.068   2.455   0.768 -0.9650 -1.0396  1.2507
  534MPD2     N 7986   4.005   2.830   1.002 -0.5566 -0.2008  0.6199
  534MPD2    H5 7987   3.926   2.862   0.947  0.3519 -0.0483 -0.6248
  534MPD2    N1 7988   4.337   2.497   1.133 -0.6531  0.2481 -0.3730
  534MPD2    H7 7989   4.366   2.557   1.210 -0.2406 -0.2756 -0.1175
  535TMC3    C1 7990   3.903   2.998   1.130 -0.3237  0.0600 -0.2015
  535TMC3    C2 7991   3.812   2.988   1.228 -0.2222  0.1768 -0.0907
  535TMC3    C3 7992   3.693   3.048   1.216  0.1629 -0.5293 -0.3209
  535TMC3    C4 7993   3.875   3.069   1.018  0.3744 -0.9232  0.3600
  535TMC3    C5 7994   3.759   3.145   1.012  0.0022 -0.1563  0.0236
  535TMC3    C6 7995   3.666   3.133   1.109  0.8091  0.0604  0.8302
  535TMC3     C 7996   4.012   2.900   1.121  0.0658 -0.1997 -0.1247
  535TMC3     O 7997   4.072   2.871   1.227 -0.1074  0.0064 -0.2312
  535TMC3     H 7998   3.838   2.906   1.294  1.0193 -0.4103 -1.2983
  535TMC3    H1 7999   3.944   3.074   0.934  2.4701  1.5691  2.2318
  535TMC3    H2 8000   3.570   3.184   1.114  2.3692  3.0134  0.8612
  535TMC3    C7 8001   3.715   3.160   0.877  0.6725  0.0659  0.1483
  535TMC3    C8 8002   3.580   2.998   1.277  0.0612  0.4504 -0.8858
  535TMC3    O1 8003   3.793   3.140   0.786  0.0635  0.2405  0.1453
  535TMC3    O2 8004   3.469   3.014   1.220 -0.1428 -0.0802  0.1799
  536MPD2     C 8005   2.933   1.561  16.118 -0.0008  0.1549 -0.1405
  536MPD2    C1 8006   2.800   1.573  16.154  0.4668  1.1205 -0.2320
  536MPD2    C2 8007   2.725   1.661  16.075  0.4573  0.4049  0.8908
  536MPD2    C3 8008   2.767   1.717  15.958  0.2190 -0.8243  0.5598
  536MPD2    C4 8009   2.890   1.684  15.921 -0.3566  0.5884  0.0913
  536MPD2    C5 8010   2.975   1.612  16.002  0.1801 -0.1116  1.1609
  536MPD2     H 8011   2.627   1.686  16.115 -0.4076  0.2142 -1.1255
  536MPD2    H1 8012   2.927   1.723  15.827 -0.1062  1.1437  0.4190
  536MPD2    H2 8013   3.009   1.503  16.168 -1.7219 -1.8712  0.1447
  536MPD2    H3 8014   3.079   1.602  15.972  0.4638  3.4904  0.9599
  536MPD2     N 8015   2.703   1.816  15.885  0.7867  0.0246 -0.0173
  536MPD2    H5 8016   2.731   1.834  15.790  0.8808  0.7951  0.1563
  536MPD2    N1 8017   2.759   1.515  16.274  0.0273 -1.0724  0.1176
  536MPD2    H7 8018   2.828   1.483  16.341 -0.2798 -1.5819  0.1922
  537TMC3    C1 8019   2.606   1.467  16.446  0.4173 -0.2912 -0.2607
  537TMC3    C2 8020   2.691   1.516  16.545  0.0674 -0.1251 -0.5291
  537TMC3    C3 8021   2.666   1.486  16.674 -0.6473  1.0794 -0.3253
  537TMC3    C4 8022   2.496   1.394  16.479  0.4170 -0.7920  0.5122
  537TMC3    C5 8023   2.469   1.365  16.613 -0.0516 -0.4364  0.4177
  537TMC3    C6 8024   2.556   1.408  16.709  0.0683  0.6654 -0.2574
  537TMC3     C 8025   2.624   1.498  16.312  0.1534 -0.3285  0.3969
  537TMC3     O 8026   2.528   1.513  16.239  0.0897 -0.4249 -0.1626
  537TMC3     H 8027   2.780   1.575  16.522 -0.0459 -0.4745 -1.8748
  537TMC3    H1 8028   2.428   1.348  16.408  0.0989 -0.3083  0.5023
  537TMC3    H2 8029   2.539   1.398  16.815 -0.4449 -1.1394 -0.5148
  537TMC3    C7 8030   2.361   1.271  16.643  0.1186 -0.1138  0.5933
  537TMC3    C8 8031   2.745   1.544  16.780  0.3503 -0.4697 -0.3638
  537TMC3    O1 8032   2.270   1.267  16.568  0.3423 -0.4202 -0.0408
  537TMC3    O2 8033   2.763   1.486  16.886 -0.1933 -0.5846  0.2063
  538TMC3    C1 8034   3.771   4.491  11.116 -0.7745 -0.0800  0.3364
  538TMC3    C2 8035   3.910   4.472  11.112 -0.5161 -0.1399 -0.5510
  538TMC3    C3 8036   3.975   4.525  11.004  0.2067  0.2743 -1.1715
  538TMC3    C4 8037   3.707   4.561  11.018  0.4133 -0.3282 -0.4865
  538TMC3    C5 8038   3.780   4.618  10.916  0.0276 -0.0219 -0.1090
  538TMC3    C6 8039   3.915   4.603  10.908  0.1548  0.3739  0.1813
  538TMC3     C 8040   3.696   4.408  11.202 -0.0061 -0.2116 -0.5901
  538TMC3     O 8041   3.579   4.392  11.165 -0.2014 -0.0644  0.0067
  538TMC3     H 8042   3.965   4.401  11.171  2.0200  2.4927  0.2365
  538TMC3    H1 8043   3.599   4.571  11.024  0.4727  0.3478 -0.5011
  538TMC3    H2 8044   3.974   4.645  10.828 -2.4298  1.8974 -0.9201
  538TMC3    C7 8045   3.706   4.697  10.818  0.1745  0.2558  0.5977
  538TMC3    C8 8046   4.115   4.484  10.994 -0.2270  0.3187 -0.0137
  538TMC3    O1 8047   3.589   4.671  10.804 -0.5861  0.0696  0.0629
  538TMC3    O2 8048   4.141   4.372  11.026 -0.7015 -0.2412  0.0203
  539MPD2     C 8049   3.537   3.797  11.971  0.4515  0.7175 -0.0896
  539MPD2    C1 8050   3.543   3.822  11.832  0.2184  0.1018  0.1598
  539MPD2    C2 8051   3.464   3.923  11.786  0.3258 -0.2844  0.3332
  539MPD2    C3 8052   3.382   3.997  11.874 -0.0215  0.0917  0.3333
  539MPD2    C4 8053   3.388   3.972  12.008 -0.2849 -0.6819  0.0439
  539MPD2    C5 8054   3.463   3.876  12.052  0.1150 -0.0940  0.2658
  539MPD2     H 8055   3.469   3.961  11.685 -0.9947 -0.1135  0.3268
  539MPD2    H1 8056   3.341   4.040  12.079  0.9017  0.5521 -0.3358
  539MPD2    H2 8057   3.597   3.720  12.019 -0.7371 -0.4826 -0.5353
  539MPD2    H3 8058   3.458   3.860  12.159 -1.4614 -4.8563 -0.5167
  539MPD2     N 8059   3.308   4.112  11.834 -0.5511 -0.6462 -0.5535
  539MPD2    H5 8060   3.283   4.180  11.904 -1.2872 -0.4901 -0.9634
  539MPD2    N1 8061   3.617   3.728  11.753 -0.5117 -0.3461 -0.5020
  539MPD2    H7 8062   3.659   3.646  11.797  1.1692  0.5300 -0.4389
  540TMC3    C1 8063   3.191   4.249  11.679  0.1805 -0.1649 -0.0089
  540TMC3    C2 8064   3.142   4.262  11.556 -0.0944  0.5251  0.2634
  540TMC3    C3 8065   3.072   4.378  11.518 -0.4120 -0.0607  0.7572
  540TMC3    C4 8066   3.171   4.346  11.776  0.3998  0.2136  0.3436
  540TMC3    C5 8067   3.097   4.463  11.740  0.0654  0.3355  0.1814
  540TMC3    C6 8068   3.061   4.478  11.609 -0.6797 -0.1588 -0.6877
  540TMC3     C 8069   3.257   4.121  11.704 -0.3327 -1.0577 -0.3334
  540TMC3     O 8070   3.257   4.039  11.615 -0.2271  0.1209  0.8641
  540TMC3     H 8071   3.150   4.179  11.486  1.2667 -0.5750  1.7569
  540TMC3    H1 8072   3.194   4.322  11.880 -2.1227  1.6972  1.2595
  540TMC3    H2 8073   3.004   4.566  11.582  0.3752  0.2640 -1.5318
  540TMC3    C7 8074   3.056   4.561  11.834  0.5617 -0.0492  0.3502
  540TMC3    C8 8075   2.963   4.371  11.421 -0.7897  0.6329  0.2788
  540TMC3    O1 8076   2.962   4.627  11.798 -0.0619 -0.3886  0.0661
  540TMC3    O2 8077   2.851   4.422  11.443  0.0165  0.1842 -0.3404
  541MPD2     C 8078   1.561   0.793  13.372  0.1897  0.0830  0.0466
  541MPD2    C1 8079   1.625   0.714  13.273  1.4533 -0.5969 -0.1718
  541MPD2    C2 8080   1.650   0.778  13.149  0.0987 -0.4470 -0.2286
  541MPD2    C3 8081   1.602   0.908  13.122 -0.5267 -0.3336  0.3633
  541MPD2    C4 8082   1.533   0.981  13.223  0.4634  0.1248 -0.2287
  541MPD2    C5 8083   1.514   0.924  13.345 -0.1415  0.0896 -0.4234
  541MPD2     H 8084   1.690   0.719  13.067 -0.7191 -0.0971 -0.8819
  541MPD2    H1 8085   1.502   1.084  13.209  0.1357  0.2715  1.5589
  541MPD2    H2 8086   1.541   0.753  13.471  0.8165 -2.1864 -0.7364
  541MPD2    H3 8087   1.466   0.975  13.428 -0.4392 -0.7172 -0.1031
  541MPD2     N 8088   1.612   0.970  12.995  0.3407 -0.1454 -0.2343
  541MPD2    H5 8089   1.593   1.069  12.984 -1.4554 -0.3631  0.9073
  541MPD2    N1 8090   1.679   0.584  13.293 -0.0402  0.4594  0.5460
  541MPD2    H7 8091   1.721   0.539  13.212  0.2628  1.3531  0.2030
  542TMC3    C1 8092   1.648   0.986  12.757  0.0135  0.7924 -0.3530
  542TMC3    C2 8093   1.649   0.936  12.628  0.4488 -0.1402 -0.0893
  542TMC3    C3 8094   1.659   1.030  12.529  0.0147 -1.1912 -0.2481
  542TMC3    C4 8095   1.655   1.121  12.773 -0.1221 -0.3418 -0.0799
  542TMC3    C5 8096   1.660   1.204  12.668 -0.3532  0.0027 -0.3341
  542TMC3    C6 8097   1.670   1.163  12.540  0.0317  0.4134 -1.3837
  542TMC3     C 8098   1.628   0.902  12.878 -0.2298  0.1655 -0.5936
  542TMC3     O 8099   1.654   0.784  12.853 -0.1988  0.4678 -0.2829
  542TMC3     H 8100   1.645   0.831  12.601  2.1828  0.3998 -2.4108
  542TMC3    H1 8101   1.657   1.169  12.871  0.8661 -1.7701  0.5940
  542TMC3    H2 8102   1.652   1.233  12.459 -0.9153 -0.6055 -2.0415
  542TMC3    C7 8103   1.616   1.338  12.690 -0.3129 -0.2019  0.0205
  542TMC3    C8 8104   1.678   0.986  12.389 -0.0100  0.2880 -0.0375
  542TMC3    O1 8105   1.664   1.429  12.618  0.6893  0.5689  0.2464
  542TMC3    O2 8106   1.696   1.071  12.303  0.6871  0.1343  0.1152
  543TMC3    C1 8107   1.261   1.925  17.386 -0.3225 -0.3475 -0.5389
  543TMC3    C2 8108   1.259   1.792  17.442 -0.4797 -0.4287 -0.0846
  543TMC3    C3 8109   1.260   1.781  17.582  0.0455  0.3952  0.1204
  543TMC3    C4 8110   1.278   2.034  17.469 -0.3608 -0.0252  0.7863
  543TMC3    C5 8111   1.278   2.017  17.600  0.1498  0.1836  0.3069
  543TMC3    C6 8112   1.265   1.896  17.659  0.0181  0.1040  0.0824
  543TMC3     C 8113   1.302   1.937  17.246 -0.2960  0.0932  0.4210
  543TMC3     O 8114   1.357   2.043  17.209  0.2189  0.1078  0.0867
  543TMC3     H 8115   1.275   1.704  17.380  2.0668 -0.8046  1.1070
  543TMC3    H1 8116   1.294   2.135  17.433  2.1235 -0.7321 -0.1073
  543TMC3    H2 8117   1.270   1.891   0.006 -0.0208 -1.1189  0.0289
  543TMC3    C7 8118   1.227   2.124  17.684 -0.4494  0.6037 -0.2707
  543TMC3    C8 8119   1.243   1.641  17.642  0.2496 -1.2300 -0.2053
  543TMC3    O1 8120   1.191   2.092   0.035  0.2531 -1.0052  0.3740
  543TMC3    O2 8121   1.208   1.558  17.559 -0.7059  0.3046 -0.5453
  544MPD2     C 8122   1.187   1.313   0.277 -0.0672  0.0758 -0.0278
  544MPD2    C1 8123   1.177   1.296   0.141  0.1431 -0.0182 -0.1734
  544MPD2    C2 8124   1.198   1.397   0.053 -0.3302 -0.0858 -0.2720
  544MPD2    C3 8125   1.241   1.518   0.100  0.1201  0.4672  0.9515
  544MPD2    C4 8126   1.261   1.532   0.237  0.3668 -0.2312  0.1996
  544MPD2    C5 8127   1.224   1.436   0.320  0.1572  0.2679 -0.2740
  544MPD2     H 8128   1.180   1.369  17.710 -0.5599  0.3556 -0.3519
  544MPD2    H1 8129   1.308   1.619   0.282  0.6732  0.5018 -1.5186
  544MPD2    H2 8130   1.177   1.235   0.352 -0.6676  3.0583  3.0153
  544MPD2    H3 8131   1.237   1.453   0.426 -0.6230 -0.4400 -0.0687
  544MPD2     N 8132   1.266   1.633   0.020  0.2129  0.2783  0.1889
  544MPD2    H5 8133   1.293   1.720   0.065  0.5651  0.1302  0.2632
  544MPD2    N1 8134   1.137   1.167   0.106  0.1813 -0.2276 -0.2036
  544MPD2    H7 8135   1.123   1.098   0.180  1.9054 -2.0563 -1.5872
  545TMC3    C1 8136   1.077   0.970  17.726 -0.2859  0.1278  0.4386
  545TMC3    C2 8137   1.111   0.908  17.610  0.2632  0.1984 -0.0320
  545TMC3    C3 8138   1.071   0.779  17.598  0.6452  0.1564  0.1319
  545TMC3    C4 8139   1.002   0.911   0.065 -0.8301 -0.1558  0.3644
  545TMC3    C5 8140   0.977   0.780   0.048  0.5723 -0.3950  0.2451
  545TMC3    C6 8141   1.019   0.706  17.703  0.2523 -0.3590  0.4300
  545TMC3     C 8142   1.124   1.109  17.740  0.3924 -0.0491 -0.4249
  545TMC3     O 8143   1.169   1.164  17.641 -0.2669  0.2485  0.2121
  545TMC3     H 8144   1.155   0.952  17.522  3.9091 -0.4816  1.4277
  545TMC3    H1 8145   0.985   0.968   0.155 -3.3450 -1.3893  0.6547
  545TMC3    H2 8146   0.999   0.600  17.692  0.4120 -0.3442 -0.0061
  545TMC3    C7 8147   0.869   0.728   0.127  0.4375  0.5126  0.3162
  545TMC3    C8 8148   1.051   0.726  17.461  0.3977  0.1628 -0.0764
  545TMC3    O1 8149   0.788   0.807   0.171 -0.3832 -0.3700 -0.6278
  545TMC3    O2 8150   1.018   0.610  17.460  0.3796  0.2578  0.1233
  546MPD2     C 8151   2.615   1.822  17.633 -0.2032 -0.3971  0.6148
  546MPD2    C1 8152   2.681   1.811  17.519  0.0743 -0.1834 -0.1571
  546MPD2    C2 8153   2.769   1.905  17.482 -0.3050 -0.2000 -0.2176
  546MPD2    C3 8154   2.775   2.016  17.551 -0.1853 -1.3663  0.9222
  546MPD2    C4 8155   2.704   2.036  17.662  0.6377 -0.4575  0.6317
  546MPD2    C5 8156   2.619   1.939  17.707 -0.5480  0.5033 -0.1547
  546MPD2     H 8157   2.824   1.887  17.391  0.5003  0.9254  0.0419
  546MPD2    H1 8158   2.718   2.135  17.704  1.0725 -0.3364  0.1983
  546MPD2    H2 8159   2.556   1.744  17.681 -1.4059 -1.1133 -2.0279
  546MPD2    H3 8160   2.556   1.952   0.034 -0.7109  0.2174 -0.2262
  546MPD2     N 8161   2.851   2.128  17.515 -0.1119 -0.4909  0.7460
  546MPD2    H5 8162   2.860   2.201  17.585  0.7526  0.1087  0.0093
  546MPD2    N1 8163   2.643   1.697  17.444 -0.1864 -0.0466  0.1509
  546MPD2    H7 8164   2.571   1.635  17.480  0.5831 -0.7158  0.5308
  547TMC3    C1 8165   2.612   1.560  17.261 -0.0623 -0.1310  0.8176
  547TMC3    C2 8166   2.601   1.580  17.126 -0.3299  0.1317 -0.2849
  547TMC3    C3 8167   2.487   1.515  17.078  0.0377  0.1973 -0.6778
  547TMC3    C4 8168   2.539   1.473  17.336 -0.9848 -0.5044 -0.0975
  547TMC3    C5 8169   2.450   1.396  17.278  0.5676 -0.2120  0.5519
  547TMC3    C6 8170   2.411   1.422  17.146  0.3199  0.0687  0.3214
  547TMC3     C 8171   2.691   1.663  17.323  0.6515  0.0914  0.5904
  547TMC3     O 8172   2.775   1.712  17.251  0.6773  0.4355 -0.0026
  547TMC3     H 8173   2.653   1.654  17.067  1.5045 -0.4048  0.6502
  547TMC3    H1 8174   2.571   1.456  17.438 -0.3187  0.4730 -0.1433
  547TMC3    H2 8175   2.341   1.363  17.087  0.9904 -0.8493  0.4416
  547TMC3    C7 8176   2.390   1.285  17.364  0.7703  0.0396  0.6080
  547TMC3    C8 8177   2.410   1.580  16.971  0.0133 -0.1119  0.3622
  547TMC3    O1 8178   2.414   1.293  17.485 -0.5535 -0.9850  0.5992
  547TMC3    O2 8179   2.294   1.550  16.954  0.4616 -0.0660  0.0366
  548MPD2     C 8180   2.171   2.663  12.256 -0.2233  0.8274 -0.1667
  548MPD2    C1 8181   2.237   2.642  12.374 -0.4059 -0.2456 -0.0598
  548MPD2    C2 8182   2.371   2.597  12.370 -0.1017  0.7102  0.4934
  548MPD2    C3 8183   2.431   2.573  12.251 -0.1842  0.3899  0.1035
  548MPD2    C4 8184   2.360   2.592  12.132 -0.3337  0.5588 -0.0435
  548MPD2    C5 8185   2.229   2.628  12.133  0.4305 -0.7904 -0.6714
  548MPD2     H 8186   2.432   2.575  12.457  1.3287  1.2526 -0.3739
  548MPD2    H1 8187   2.398   2.559  12.035  1.4312  0.7206  0.5870
  548MPD2    H2 8188   2.071   2.704  12.255  0.0591  1.5033 -0.4875
  548MPD2    H3 8189   2.177   2.648  12.040  0.1555  1.2782 -0.0851
  548MPD2     N 8190   2.565   2.530  12.253 -0.5511 -0.7911  0.8282
  548MPD2    H5 8191   2.602   2.512  12.345  2.5968 -0.2293 -0.3259
  548MPD2    N1 8192   2.174   2.656  12.497 -0.5444  0.1514  0.7427
  548MPD2    H7 8193   2.078   2.687  12.495 -0.0788  1.5547  0.3051
  549TMC3    C1 8194   2.106   2.607  12.715 -0.5442 -0.2279 -0.5953
  549TMC3    C2 8195   1.976   2.649  12.690 -0.0341  0.8328 -0.0525
  549TMC3    C3 8196   1.902   2.671  12.797 -0.6481  1.0865  0.1935
  549TMC3    C4 8197   2.149   2.595  12.845 -0.2133 -0.1183  0.6917
  549TMC3    C5 8198   2.063   2.597  12.943 -0.2314  0.2188  0.2785
  549TMC3    C6 8199   1.932   2.625  12.924  0.2060  0.7165  0.2277
  549TMC3     C 8200   2.212   2.604  12.616 -0.6055  0.5409 -0.3191
  549TMC3     O 8201   2.314   2.544  12.640 -0.3786 -0.6743 -0.7587
  549TMC3     H 8202   1.935   2.669  12.592  0.3941  0.8922 -0.2200
  549TMC3    H1 8203   2.249   2.556  12.861  0.9570  2.9699  0.9456
  549TMC3    H2 8204   1.861   2.626  13.006  0.0639  2.0190  0.0802
  549TMC3    C7 8205   2.089   2.515  13.055 -0.4180 -0.1210 -0.9581
  549TMC3    C8 8206   1.759   2.679  12.767  0.2131  0.6598  0.2204
  549TMC3    O1 8207   2.045   2.543  13.165 -0.2427 -0.5158 -0.8635
  549TMC3    O2 8208   1.719   2.644  12.653  0.9800  0.2217 -0.0743
  550TMC3    C1 8209   1.283   0.370  11.657 -0.3841 -0.5160  0.1704
  550TMC3    C2 8210   1.337   0.309  11.762  0.2278  0.7883  0.2731
  550TMC3    C3 8211   1.285   0.341  11.888 -0.4100  0.7805 -0.1415
  550TMC3    C4 8212   1.167   0.442  11.665  0.3120  0.4018  0.6283
  550TMC3    C5 8213   1.108   0.458  11.783 -0.5859 -0.1841 -0.7190
  550TMC3    C6 8214   1.170   0.409  11.898  0.4533 -0.4048  0.3540
  550TMC3     C 8215   1.347   0.334  11.530 -0.6605 -0.4524  0.1962
  550TMC3     O 8216   1.433   0.250  11.530 -0.5132 -0.0011  0.4054
  550TMC3     H 8217   1.431   0.255  11.749 -1.2919 -1.5437 -0.9941
  550TMC3    H1 8218   1.134   0.491  11.574 -0.1101 -1.7905 -0.3871
  550TMC3    H2 8219   1.115   0.417  11.991 -1.2456 -1.9023 -0.5266
  550TMC3    C7 8220   0.990   0.550  11.803 -0.0183  0.0237  0.1685
  550TMC3    C8 8221   1.383   0.354  11.994 -0.2613  0.3068 -0.7629
  550TMC3    O1 8222   0.931   0.533  11.905  0.3399 -0.4134 -0.5413
  550TMC3    O2 8223   1.493   0.306  11.981  0.2147 -0.0931  0.2375
  551TMC3    C1 8224   3.126   3.055  13.434 -0.1406 -0.8835 -0.2523
  551TMC3    C2 8225   3.218   2.959  13.422 -0.5076 -0.1996 -0.9413
  551TMC3    C3 8226   3.317   2.955  13.516  0.5661 -0.2193  0.4767
  551TMC3    C4 8227   3.122   3.144  13.537  0.2717  0.0182 -0.1024
  551TMC3    C5 8228   3.214   3.128  13.637 -0.1759  0.3666  0.4305
  551TMC3    C6 8229   3.312   3.026  13.632  0.7630  0.2910 -0.3193
  551TMC3     C 8230   3.060   3.077  13.312 -0.2363 -0.4298 -0.8843
  551TMC3     O 8231   3.018   2.979  13.256  0.0500  0.3399  0.7832
  551TMC3     H 8232   3.226   2.886  13.343 -0.9768 -0.9203 -0.3162
  551TMC3    H1 8233   3.036   3.210  13.542  0.1060 -0.2205  0.1883
  551TMC3    H2 8234   3.403   3.024  13.691  1.0217  1.8245 -0.6569
  551TMC3    C7 8235   3.237   3.213  13.750  0.0342 -0.0441 -0.0540
  551TMC3    C8 8236   3.447   2.944  13.450  0.1780  0.1016 -0.3613
  551TMC3    O1 8237   3.271   3.161  13.854 -0.1981  0.6956 -0.2078
  551TMC3    O2 8238   3.463   2.857  13.367  0.3968 -0.5183 -0.2265
  552MPD2     C 8239   0.344   0.180  14.498 -0.4099  0.2963  0.0990
  552MPD2    C1 8240   0.402   0.055  14.514  0.0891 -0.0955 -0.3012
  552MPD2    C2 8241   0.485   0.038  14.624  0.5559  0.4335 -0.1238
  552MPD2    C3 8242   0.526   0.142  14.704 -0.1560 -0.5072 -0.0661
  552MPD2    C4 8243   0.479   0.263  14.673 -0.2097  0.3575 -0.9991
  552MPD2    C5 8244   0.391   0.284  14.572 -0.3820  0.0290  0.4704
  552MPD2     H 8245   0.516   4.676  14.640  1.9409  0.4074 -2.7990
  552MPD2    H1 8246   0.505   0.350  14.732 -0.9063  1.2380 -1.9886
  552MPD2    H2 8247   0.271   0.208  14.422 -1.3241  0.5259  1.0595
  552MPD2    H3 8248   0.346   0.381  14.556 -0.3146 -0.4882 -2.8229
  552MPD2     N 8249   0.609   0.116  14.817 -0.1987  0.3233  0.0831
  552MPD2    H5 8250   0.671   0.188  14.854  0.3541  0.0313 -0.2898
  552MPD2    N1 8251   0.362   4.680  14.431 -0.0274 -0.3354  0.2865
  552MPD2    H7 8252   0.415   4.594  14.433  1.2927  0.4761  0.4474
  553TMC3    C1 8253   0.270   4.578  14.234 -0.0622  0.4132 -0.3625
  553TMC3    C2 8254   0.236   4.607  14.109 -0.8137 -0.2340  0.5077
  553TMC3    C3 8255   0.225   4.502  14.025 -0.0835  0.7023  0.5161
  553TMC3    C4 8256   0.263   4.456  14.291 -0.2805 -0.5242  0.4756
  553TMC3    C5 8257   0.255   4.355  14.202 -0.0322 -0.3795  0.8600
  553TMC3    C6 8258   0.257   4.370  14.070  0.5227 -0.4537 -0.1574
  553TMC3     C 8259   0.274   4.691  14.324 -0.1297 -0.3508  0.3414
  553TMC3     O 8260   0.216   0.049  14.280  0.1995 -0.4768  0.4814
  553TMC3     H 8261   0.236   4.710  14.073  0.2920 -0.1185  0.8101
  553TMC3    H1 8262   0.296   4.431  14.392 -1.7977 -1.3858  0.7603
  553TMC3    H2 8263   0.250   4.286  14.003 -2.0527  0.1882 -0.7203
  553TMC3    C7 8264   0.339   4.247  14.249  0.3308  0.0829 -0.0547
  553TMC3    C8 8265   0.206   4.516  13.882  0.1941 -0.4609  0.1400
  553TMC3    O1 8266   0.301   4.185  14.345  0.2219 -0.0627 -0.2483
  553TMC3    O2 8267   0.221   4.413  13.819 -0.0690 -0.2994  0.0165
  554TMC3    C1 8268   2.619   4.616  11.568  0.9418 -0.4505  0.2285
  554TMC3    C2 8269   2.531   4.542  11.489 -0.1786 -0.0227 -0.0586
  554TMC3    C3 8270   2.531   4.562  11.356 -0.3871  0.2363 -0.1652
  554TMC3    C4 8271   2.711   4.699  11.515  0.0922 -0.6080 -0.6679
  554TMC3    C5 8272   2.700   4.727  11.383  0.1299  0.5844 -1.1750
  554TMC3    C6 8273   2.616   4.652  11.300  0.0739 -0.0666  0.2204
  554TMC3     C 8274   2.640   4.567  11.700  0.9306  0.1083 -0.3779
  554TMC3     O 8275   2.602   4.639  11.796  0.0385 -0.3701 -0.2928
  554TMC3     H 8276   2.467   4.467  11.533 -0.9965 -0.1487 -1.4636
  554TMC3    H1 8277   2.771   0.022  11.579  1.6750 -0.9999 -1.7364
  554TMC3    H2 8278   2.594   4.687  11.200  0.3780  1.6903  0.7713
  554TMC3    C7 8279   2.795   0.068  11.308 -0.0874  0.6223 -0.3515
  554TMC3    C8 8280   2.416   4.539  11.271 -0.0214 -0.6198 -0.2322
  554TMC3    O1 8281   2.813   0.033  11.193  0.2860  0.0071  0.2650
  554TMC3    O2 8282   2.439   4.527  11.149 -0.0360  0.4067 -0.1509
  555TMC3    C1 8283   1.408   3.432  15.369 -0.6472 -0.2839 -0.3135
  555TMC3    C2 8284   1.425   3.519  15.476 -0.2322  0.9115  0.5324
  555TMC3    C3 8285   1.474   3.473  15.591 -0.0201 -0.0989  0.2159
  555TMC3    C4 8286   1.441   3.299  15.384  0.3364  0.3051 -0.8174
  555TMC3    C5 8287   1.497   3.257  15.504 -1.2187 -0.7385 -0.6035
  555TMC3    C6 8288   1.511   3.345  15.606 -0.0623 -0.6405  0.0860
  555TMC3     C 8289   1.422   3.485  15.235 -0.6165 -0.3054  1.0319
  555TMC3     O 8290   1.517   3.447  15.173 -0.5129  0.6027  0.0455
  555TMC3     H 8291   1.422   3.626  15.459 -2.3680  0.8242  0.3449
  555TMC3    H1 8292   1.419   3.230  15.304 -0.5375 -2.5696  1.9026
  555TMC3    H2 8293   1.556   3.315  15.700  0.1148 -1.6475 -0.3232
  555TMC3    C7 8294   1.516   3.117  15.522 -0.8217  0.4371 -0.0917
  555TMC3    C8 8295   1.527   3.572  15.676 -0.2348  0.4109  0.3921
  555TMC3    O1 8296   1.493   3.085  15.641  0.6967  0.2601  0.5860
  555TMC3    O2 8297   1.465   3.677  15.674  0.3285  0.0564 -0.2615
  556MPD2     C 8298   4.589   0.978  10.857  0.2071 -0.8374  0.2123
  556MPD2    C1 8299   4.557   0.870  10.934 -0.0040  0.5278 -0.0718
  556MPD2    C2 8300   4.549   0.748  10.869 -0.0238 -0.1702 -0.1543
  556MPD2    C3 8301   4.574   0.731  10.734 -0.0803 -0.4735 -0.2443
  556MPD2    C4 8302   4.596   0.845  10.657 -0.1195  0.2808 -0.3420
  556MPD2    C5 8303   4.605   0.964  10.721 -0.3719 -0.0162 -0.2206
  556MPD2     H 8304   4.538   0.663  10.936 -4.0932 -0.2730 -0.9631
  556MPD2    H1 8305   4.606   0.837  10.550  1.0438 -1.1021 -0.1321
  556MPD2    H2 8306   4.595   1.077  10.901  0.5382 -1.3989  1.4254
  556MPD2    H3 8307   4.625   1.047  10.655  0.5912 -0.8124 -0.9256
  556MPD2     N 8308   4.575   0.604  10.679 -0.3933 -0.0365  0.4552
  556MPD2    H5 8309   4.544   0.528  10.739 -0.9558  0.4138  0.7246
  556MPD2    N1 8310   4.548   0.869  11.072  0.2158  1.2102 -0.0719
  556MPD2    H7 8311   4.509   0.782  11.107  1.2825  1.5003  1.8608
  557TMC3    C1 8312   4.607   0.427  10.513  0.1728  0.8288  0.0863
  557TMC3    C2 8313   4.583   0.391  10.381  0.5205 -0.1664  0.2348
  557TMC3    C3 8314   4.562   0.258  10.350  0.4383 -0.2390  1.1007
  557TMC3    C4 8315   4.609   0.331  10.609  0.0787  0.5346 -0.4188
  557TMC3    C5 8316   4.588   0.209  10.579  0.8616 -0.5154  0.0177
  557TMC3    C6 8317   4.562   0.168  10.452 -0.5287  0.0926  0.0941
  557TMC3     C 8318   4.606   0.569  10.550 -0.5976 -0.0174  0.4371
  557TMC3     O 8319   4.616   0.640  10.453  0.0353  0.4887  0.0625
  557TMC3     H 8320   4.583   0.457  10.295 -0.3377  0.8037  0.9723
  557TMC3    H1 8321   4.640   0.349  10.712 -1.9927  0.0135  0.2956
  557TMC3    H2 8322   4.535   0.065  10.434 -0.9171  0.3429 -0.7596
  557TMC3    C7 8323   4.535   0.135  10.682  0.5086  0.3693 -0.3537
  557TMC3    C8 8324   4.530   0.214  10.216  0.0545  0.5520  1.0278
  557TMC3    O1 8325   4.461   0.191  10.763 -0.6064  0.2628  0.1543
  557TMC3    O2 8326   4.472   0.291  10.139 -0.0226  0.3097 -0.4456
  558TMC3    C1 8327   2.089   3.766  10.469  0.3268  0.5292 -0.7621
  558TMC3    C2 8328   1.989   3.823  10.541  0.5994  0.2203  0.0707
  558TMC3    C3 8329   1.886   3.875  10.466  0.0145 -0.3875 -0.6533
  558TMC3    C4 8330   2.082   3.750  10.330 -0.2714  0.0978  0.0477
  558TMC3    C5 8331   1.980   3.808  10.258  0.5382 -0.2038 -0.7033
  558TMC3    C6 8332   1.883   3.874  10.329 -0.6144 -0.8918 -0.6170
  558TMC3     C 8333   2.203   3.694  10.527  0.2527 -0.7817  0.6331
  558TMC3     O 8334   2.294   3.666  10.450 -0.4873  0.1513  0.5351
  558TMC3     H 8335   1.998   3.839  10.648  2.3622 -0.1654 -0.0189
  558TMC3    H1 8336   2.146   3.692  10.265  0.4943 -2.0253  2.7046
  558TMC3    H2 8337   1.795   3.919  10.285 -0.6680 -0.4671 -0.0754
  558TMC3    C7 8338   1.946   3.742  10.135 -0.2488 -1.0130 -0.1565
  558TMC3    C8 8339   1.779   3.940  10.536 -0.6378 -0.0400 -0.9205
  558TMC3    O1 8340   2.024   3.672  10.074 -0.0534 -0.0735  0.1821
  558TMC3    O2 8341   1.726   4.036  10.482  0.4743 -0.0754  0.2404
  559MPD2     C 8342   2.081   4.154  10.645 -0.4090  0.0585 -0.2177
  559MPD2    C1 8343   2.042   4.130  10.775  0.3099 -0.1103 -0.4319
  559MPD2    C2 8344   2.123   4.045  10.851 -0.1084 -0.0523  0.8927
  559MPD2    C3 8345   2.246   4.007  10.806  0.0872 -0.3422 -0.5405
  559MPD2    C4 8346   2.288   4.032  10.679 -0.2807  0.4429 -0.8970
  559MPD2    C5 8347   2.203   4.105  10.596  0.2928 -0.0964 -0.2678
  559MPD2     H 8348   2.101   4.043  10.957 -1.6455  1.2349  0.6003
  559MPD2    H1 8349   2.382   3.998  10.639  0.2704  0.5083  0.3474
  559MPD2    H2 8350   2.019   4.216  10.582  0.2924 -0.9949 -1.9443
  559MPD2    H3 8351   2.239   4.142  10.501  1.6935  0.3793  0.4416
  559MPD2     N 8352   2.324   3.945  10.906 -0.9932  0.5953  0.1882
  559MPD2    H5 8353   2.283   3.934  10.998  0.7971 -0.4910  0.8664
  559MPD2    N1 8354   1.918   4.184  10.815 -0.3776  0.0305  0.0401
  559MPD2    H7 8355   1.879   4.262  10.763  1.2093  1.3233  0.7833
  560TMC3    C1 8356   2.499   3.906  11.038 -0.2866 -0.1078 -0.3271
  560TMC3    C2 8357   2.408   3.908  11.138  0.2485 -0.2165  0.2669
  560TMC3    C3 8358   2.418   3.833  11.250 -0.1102  0.4547  0.4675
  560TMC3    C4 8359   2.604   3.825  11.051  0.3274 -0.6284 -1.2201
  560TMC3    C5 8360   2.614   3.746  11.158 -0.4449 -0.6547  0.3060
  560TMC3    C6 8361   2.521   3.745  11.265 -0.7402 -0.2733  0.6821
  560TMC3     C 8362   2.462   3.941  10.902  0.1118  0.9864 -0.5374
  560TMC3     O 8363   2.545   3.952  10.812  0.6977  0.6741 -0.3480
  560TMC3     H 8364   2.332   3.985  11.151  0.5348 -0.1112  1.3450
  560TMC3    H1 8365   2.666   3.807  10.964 -0.2808 -0.6142 -1.6554
  560TMC3    H2 8366   2.539   3.695  11.359  1.3894  1.2194  1.0784
  560TMC3    C7 8367   2.740   3.690  11.204 -0.0919  0.3263  0.2214
  560TMC3    C8 8368   2.286   3.804  11.308 -0.1094 -0.4911 -0.3003
  560TMC3    O1 8369   2.741   3.602  11.288 -0.0429  0.6869  0.1950
  560TMC3    O2 8370   2.190   3.863  11.260  0.4084 -0.3167  0.3778
  561TMC3    C1 8371   0.528   2.964  11.835  0.0987 -0.1152 -0.2861
  561TMC3    C2 8372   0.464   2.841  11.837 -0.0740 -0.1898 -0.0007
  561TMC3    C3 8373   0.334   2.842  11.854 -0.4971 -0.1877 -0.3606
  561TMC3    C4 8374   0.457   3.083  11.835 -0.5650 -0.6444  0.5482
  561TMC3    C5 8375   0.321   3.075  11.838 -0.8366 -0.5893 -0.4182
  561TMC3    C6 8376   0.260   2.958  11.855 -0.0408  0.1845 -0.0227
  561TMC3     C 8377   0.663   2.979  11.872 -0.1815  0.6768 -0.3012
  561TMC3     O 8378   0.748   2.900  11.845  0.0079  0.6461 -0.3604
  561TMC3     H 8379   0.521   2.749  11.845 -1.6753 -1.0605  1.2801
  561TMC3    H1 8380   0.495   3.183  11.847 -0.6283 -0.3826 -1.3822
  561TMC3    H2 8381   0.153   2.949  11.837 -0.2613 -0.5988  1.6556
  561TMC3    C7 8382   0.242   3.198  11.848 -0.6383  0.8941  0.3651
  561TMC3    C8 8383   0.275   2.737  11.927  0.3668  0.0230 -0.0473
  561TMC3    O1 8384   0.139   3.179  11.910 -0.5065  0.2277  0.3365
  561TMC3    O2 8385   0.341   2.634  11.951  0.3420  0.3822 -0.3169
  562TMC3    C1 8386   1.570   3.697  16.666 -0.1700  0.4409  0.3644
  562TMC3    C2 8387   1.538   3.831  16.671 -0.1728  0.1198 -0.7116
  562TMC3    C3 8388   1.428   3.873  16.607 -0.3115  0.2709  0.0052
  562TMC3    C4 8389   1.489   3.607  16.603 -0.2150  0.1187  0.4426
  562TMC3    C5 8390   1.380   3.652  16.541 -0.3932 -0.0591 -0.0326
  562TMC3    C6 8391   1.352   3.785  16.533 -0.6166  0.6438  0.1618
  562TMC3     C 8392   1.663   3.655  16.762 -0.4522 -0.1137  0.4034
  562TMC3     O 8393   1.692   3.731  16.852 -0.2046 -0.2718  0.1371
  562TMC3     H 8394   1.592   3.907  16.726 -0.7841  0.1416 -0.1349
  562TMC3    H1 8395   1.489   3.504  16.636 -3.2980 -0.0578 -0.1294
  562TMC3    H2 8396   1.261   3.808  16.479 -0.2190  1.3388 -0.2176
  562TMC3    C7 8397   1.316   3.570  16.434  0.3025 -0.4717  0.5259
  562TMC3    C8 8398   1.372   4.007  16.615  0.7094  0.0209  0.3380
  562TMC3    O1 8399   1.193   3.587  16.417  0.0396  0.0341 -0.0820
  562TMC3    O2 8400   1.407   4.072  16.714 -0.4410  0.0904 -0.7920
  563MPD2     C 8401   3.752   0.667  15.900 -0.0018  0.5058  0.5757
  563MPD2    C1 8402   3.788   0.646  16.029 -0.1207 -0.6977 -0.3972
  563MPD2    C2 8403   3.853   0.531  16.071  0.0139 -0.2100 -1.0276
  563MPD2    C3 8404   3.887   0.438  15.975  0.2096 -1.0676 -0.1793
  563MPD2    C4 8405   3.867   0.464  15.840  0.1194 -0.1009  0.6537
  563MPD2    C5 8406   3.796   0.577  15.804 -0.7400  0.4789  0.4570
  563MPD2     H 8407   3.862   0.501  16.175  1.3344 -0.1286 -1.1183
  563MPD2    H1 8408   3.875   0.388  15.763 -0.9042 -0.1382  0.5741
  563MPD2    H2 8409   3.694   0.755  15.876  0.5839  0.9461  0.7926
  563MPD2    H3 8410   3.776   0.600  15.700  1.6941 -1.2842 -0.3792
  563MPD2     N 8411   3.937   0.316  16.024  0.1603  0.3240 -0.1631
  563MPD2    H5 8412   3.944   0.308  16.125  1.1495 -2.2915 -0.4350
  563MPD2    N1 8413   3.720   0.726  16.128  0.1405 -0.5040 -0.2270
  563MPD2    H7 8414   3.659   0.795  16.085  0.4337  0.2535  0.5877
  564TMC3    C1 8415   3.583   0.726  16.331  0.1066 -0.1625 -0.2311
  564TMC3    C2 8416   3.484   0.672  16.259 -0.5908  0.4618  0.1474
  564TMC3    C3 8417   3.398   0.588  16.325  0.5744 -0.1043 -0.0886
  564TMC3    C4 8418   3.597   0.695  16.467 -0.2481  0.1172 -0.2352
  564TMC3    C5 8419   3.508   0.619  16.529  0.0778 -0.6658  0.4646
  564TMC3    C6 8420   3.401   0.569  16.457 -0.8278  0.0273  0.5362
  564TMC3     C 8421   3.719   0.711  16.262  0.2684 -0.1635  0.7028
  564TMC3     O 8422   3.804   0.658  16.324  0.1262  0.1350  0.2305
  564TMC3     H 8423   3.469   0.689  16.153 -0.6520 -2.1490 -0.2406
  564TMC3    H1 8424   3.679   0.730  16.529 -1.4132  2.7929 -0.2135
  564TMC3    H2 8425   3.332   0.501  16.505 -1.3106  0.2232  0.1203
  564TMC3    C7 8426   3.581   0.516  16.601 -0.5973 -0.2790 -1.3781
  564TMC3    C8 8427   3.351   0.471  16.250 -0.2541 -0.0072  0.1187
  564TMC3    O1 8428   3.675   0.546  16.679  0.4970  0.1293 -0.2876
  564TMC3    O2 8429   3.285   0.394  16.315 -0.2692  0.5095  0.3555
  565TMC3    C1 8430   4.677   2.367  10.511  0.8355 -0.7339 -0.9566
  565TMC3    C2 8431   4.618   2.245  10.538 -0.3727 -0.3651  0.0346
  565TMC3    C3 8432   4.567   2.180  10.422  0.3694 -0.7185  0.3538
  565TMC3    C4 8433   4.697   2.417  10.386 -0.0951  0.0586 -0.7772
  565TMC3    C5 8434   4.637   2.348  10.282 -0.0342 -1.0919  0.2869
  565TMC3    C6 8435   4.570   2.232  10.295  0.1957 -0.5670 -0.6656
  565TMC3     C 8436   4.681   2.461  10.622  0.1654  0.3095  0.1396
  565TMC3     O 8437   0.016   2.555  10.613 -0.3254 -0.0825  0.0680
  565TMC3     H 8438   4.611   2.216  10.642 -0.5182 -0.8433 -0.1122
  565TMC3    H1 8439   4.718   2.523  10.378 -0.5619  0.3027  1.1151
  565TMC3    H2 8440   4.546   2.163  10.214  0.5879 -2.7974  1.1205
  565TMC3    C7 8441   4.684   2.368  10.150  0.3065  0.0569  0.4729
  565TMC3    C8 8442   4.481   2.070  10.460  1.0220  0.2603  0.1126
  565TMC3    O1 8443   4.613   2.315  10.067 -0.0602 -1.0975 -0.2116
  565TMC3    O2 8444   4.502   2.017  10.567  0.0492  0.4364 -0.4514
  566MPD2     C 8445   0.938   3.665  14.132 -0.4663 -0.0718 -0.1527
  566MPD2    C1 8446   1.041   3.699  14.044  0.4311  0.8561  0.2414
  566MPD2    C2 8447   1.019   3.714  13.910  0.3056 -0.1226 -0.2486
  566MPD2    C3 8448   0.892   3.683  13.860  0.1705  0.0722 -0.4025
  566MPD2    C4 8449   0.786   3.654  13.945  0.4279  0.5062  0.0372
  566MPD2    C5 8450   0.811   3.652  14.082  0.8725 -0.1039  0.9138
  566MPD2     H 8451   1.096   3.745  13.840 -0.7446 -0.0728 -1.3955
  566MPD2    H1 8452   0.683   3.641  13.914  0.7880  1.0691 -1.3956
  566MPD2    H2 8453   0.958   3.651  14.238 -1.6423  0.4338  0.1402
  566MPD2    H3 8454   0.738   3.628  14.158  0.6216 -0.1057  0.6704
  566MPD2     N 8455   0.869   3.679  13.717 -0.4560  0.3118 -0.1146
  566MPD2    H5 8456   0.780   3.645  13.680 -0.1167 -2.0421  1.2595
  566MPD2    N1 8457   1.171   3.708  14.097 -0.0088  0.0699  0.0384
  566MPD2    H7 8458   1.170   3.714  14.199 -1.0858  1.7716 -0.0722
  567TMC3    C1 8459   1.411   3.711  14.099  0.3515  0.0394  0.4995
  567TMC3    C2 8460   1.521   3.771  14.041  0.3148 -0.8212  0.1343
  567TMC3    C3 8461   1.643   3.749  14.097  0.0007 -0.5208  0.5901
  567TMC3    C4 8462   1.409   3.625  14.208 -0.0926 -0.3192 -0.3170
  567TMC3    C5 8463   1.542   3.609  14.259  0.3049 -0.2712  0.0004
  567TMC3    C6 8464   1.651   3.670  14.200  0.2420 -0.0966  0.0302
  567TMC3     C 8465   1.290   3.723  14.024  0.3220 -0.2810 -0.0522
  567TMC3     O 8466   1.307   3.743  13.900  0.3471  0.6115  0.1381
  567TMC3     H 8467   1.505   3.825  13.948  0.6356 -1.5144 -0.3222
  567TMC3    H1 8468   1.321   3.587  14.259 -0.0167  1.0634  0.8456
  567TMC3    H2 8469   1.745   3.652  14.250  0.4848  0.2651 -0.2917
  567TMC3    C7 8470   1.561   3.566  14.398 -0.2540 -0.3069 -0.2748
  567TMC3    C8 8471   1.753   3.762  14.013  0.1142 -0.2599 -0.0470
  567TMC3    O1 8472   1.673   3.580  14.443 -0.2862  0.0649 -0.0720
  567TMC3    O2 8473   1.723   3.773  13.895 -0.4110 -0.4301 -0.3906
  568MPD2     C 8474   3.888   4.058  16.792 -0.2967  0.6591 -0.4342
  568MPD2    C1 8475   3.756   4.044  16.841 -0.8357 -0.0727 -0.6830
  568MPD2    C2 8476   3.660   4.122  16.783  0.5012  1.0014 -0.4427
  568MPD2    C3 8477   3.685   4.205  16.676  0.0382 -0.3334 -0.5014
  568MPD2    C4 8478   3.815   4.216  16.629 -0.5098 -0.7091 -0.2598
  568MPD2    C5 8479   3.919   4.150  16.692  0.0548 -0.3241 -0.1437
  568MPD2     H 8480   3.558   4.106  16.817 -0.2200  2.0036 -2.0985
  568MPD2    H1 8481   3.843   4.283  16.549  0.8097 -2.1488 -1.0238
  568MPD2    H2 8482   3.969   4.004  16.841 -0.4963 -1.2119 -2.1852
  568MPD2    H3 8483   4.024   4.163  16.666 -0.3494  1.6709 -0.8023
  568MPD2     N 8484   3.576   4.275  16.619 -0.6496 -0.7896 -0.3009
  568MPD2    H5 8485   3.484   4.271  16.663 -0.9534  4.9276 -0.3430
  568MPD2    N1 8486   3.711   3.949  16.933 -0.2059  0.2643 -0.2613
  568MPD2    H7 8487   3.611   3.933  16.937  0.0296 -0.8758  1.2626
  569TMC3    C1 8488   3.447   4.417  16.463 -0.1899 -0.6386  0.0909
  569TMC3    C2 8489   3.372   4.494  16.543 -0.3495  0.2025  0.4206
  569TMC3    C3 8490   3.276   4.569  16.485  0.1688  0.1025  0.1289
  569TMC3    C4 8491   3.457   4.438  16.327 -0.2924 -0.6035 -0.2900
  569TMC3    C5 8492   3.362   4.518  16.275  0.4053 -1.0646  0.5277
  569TMC3    C6 8493   3.269   4.585  16.351  0.4003 -1.1205 -0.4206
  569TMC3     C 8494   3.581   4.359  16.505 -0.3483 -0.3904  0.5537
  569TMC3     O 8495   3.674   4.388  16.430 -0.6261  0.3738  0.4131
  569TMC3     H 8496   3.383   4.489  16.651 -3.1314  0.4183  0.7196
  569TMC3    H1 8497   3.522   4.386  16.256 -2.0550 -0.8559 -1.7351
  569TMC3    H2 8498   3.176   4.621  16.309  0.9190 -0.2708 -0.8522
  569TMC3    C7 8499   3.401   4.577  16.154  0.2457 -0.6313  0.5431
  569TMC3    C8 8500   3.197   4.651  16.573  0.4013  0.0446  0.6778
  569TMC3    O1 8501   3.488   4.525  16.086  0.4833  0.1866  0.5236
  569TMC3    O2 8502   3.096   4.697  16.520 -0.1739 -0.0037 -0.7995
  570TMC3    C1 8503   2.741   2.811  16.212 -0.2400  0.5692 -0.2793
  570TMC3    C2 8504   2.799   2.838  16.087  0.4094  0.3129 -0.2022
  570TMC3    C3 8505   2.856   2.965  16.069  0.5445 -0.2254 -0.0465
  570TMC3    C4 8506   2.729   2.909  16.306  0.7371  0.3886  0.6470
  570TMC3    C5 8507   2.794   3.029  16.286  0.3830 -0.5810  0.2575
  570TMC3    C6 8508   2.864   3.060  16.167  0.0777  0.1532 -0.1839
  570TMC3     C 8509   2.690   2.676  16.231 -0.9513  0.0879 -0.0743
  570TMC3     O 8510   2.676   2.599  16.136 -0.3669  0.5601  0.0923
  570TMC3     H 8511   2.795   2.765  16.007  1.1606  1.3504 -1.1737
  570TMC3    H1 8512   2.661   2.885  16.387 -1.5365  0.7377 -1.1366
  570TMC3    H2 8513   2.923   3.151  16.160 -0.4489  0.4633 -0.6734
  570TMC3    C7 8514   2.779   3.135  16.384 -0.1195 -0.1260  0.3402
  570TMC3    C8 8515   2.939   2.999  15.951  0.0069 -0.4367  0.1396
  570TMC3    O1 8516   2.718   3.105  16.489  0.3639  0.4538  0.3776
  570TMC3    O2 8517   2.950   3.118  15.919  0.0513  0.1440 -0.2147
  571MPD2     C 8518   1.238   4.174   0.317 -0.6920 -0.9432  0.5888
  571MPD2    C1 8519   1.118   4.119   0.364  0.3946  0.1974 -0.2341
  571MPD2    C2 8520   1.030   4.205   0.433 -0.1424  0.2149  0.3278
  571MPD2    C3 8521   1.066   4.335   0.463 -0.6161 -0.0954 -0.7414
  571MPD2    C4 8522   1.189   4.384   0.411 -0.0054  0.2258  0.3060
  571MPD2    C5 8523   1.272   4.303   0.347 -0.0548 -0.0250 -0.4410
  571MPD2     H 8524   0.927   4.179   0.454 -0.0595  0.8974  1.5983
  571MPD2    H1 8525   1.218   4.488   0.423 -0.5779  0.4169  0.0331
  571MPD2    H2 8526   1.311   4.115   0.263 -1.6618 -3.3690  1.9659
  571MPD2    H3 8527   1.367   4.341   0.311 -0.4008  0.0685 -1.2629
  571MPD2     N 8528   0.985   4.432   0.536 -0.4112 -0.3284 -0.3251
  571MPD2    H5 8529   1.022   4.526   0.531 -1.0672  0.0374  1.4163
  571MPD2    N1 8530   1.081   3.986   0.328  0.2425 -0.1480 -0.0657
  571MPD2    H7 8531   1.134   3.948   0.250 -1.1307  1.0823 -1.6064
  572TMC3    C1 8532   0.798   4.523   0.657  0.5117  0.4096 -0.0792
  572TMC3    C2 8533   0.703   4.497   0.757  0.4340  0.6867  0.1879
  572TMC3    C3 8534   0.633   4.600   0.810  0.2288 -0.4075  0.0969
  572TMC3    C4 8535   0.834   4.654   0.628 -0.3173  0.4838 -0.1580
  572TMC3    C5 8536   0.757   0.010   0.681  0.0701 -0.8511 -0.7071
  572TMC3    C6 8537   0.663   4.728   0.775  0.0105 -0.0657 -0.0843
  572TMC3     C 8538   0.883   4.406   0.617  1.0614  0.3401 -0.2354
  572TMC3     O 8539   0.839   4.298   0.645  0.8404 -0.1065 -0.8336
  572TMC3     H 8540   0.663   4.397   0.767  2.1115  0.0191  0.1958
  572TMC3    H1 8541   0.893   4.678   0.540 -0.6970 -0.7727 -0.7612
  572TMC3    H2 8542   0.624   0.070   0.835  1.0053  0.3313  0.0124
  572TMC3    C7 8543   0.778   0.151   0.652 -0.3576  0.3457 -0.1291
  572TMC3    C8 8544   0.556   4.578   0.927 -0.4423  0.0443  0.3153
  572TMC3    O1 8545   0.687   0.231   0.667  0.2813 -0.3666 -0.1636
  572TMC3    O2 8546   0.486   4.671   0.969  0.0164 -0.7121 -0.9318
  573MPD2     C 8547   1.573   4.460  17.679  0.3524  0.0106 -0.7421
  573MPD2    C1 8548   1.534   4.572  17.746 -0.2630 -0.5479 -0.9294
  573MPD2    C2 8549   1.402   4.590   0.026  0.4051  0.2443 -1.1354
  573MPD2    C3 8550   1.314   4.490   0.003 -0.0597 -0.2106 -0.0616
  573MPD2    C4 8551   1.356   4.373  17.697  0.2165 -0.7361 -0.0723
  573MPD2    C5 8552   1.484   4.360  17.652 -0.2421  0.1308  0.2330
  573MPD2     H 8553   1.376   4.684   0.073 -1.6423 -1.4886  1.1809
  573MPD2    H1 8554   1.288   4.291  17.672 -2.9723  1.2241  2.1247
  573MPD2    H2 8555   1.672   4.444  17.637  0.7483  1.3367 -0.3175
  573MPD2    H3 8556   1.520   4.279  17.590 -2.7216 -1.3155  0.6519
  573MPD2     N 8557   1.181   4.496   0.052  0.5361  0.1412  0.5482
  573MPD2    H5 8558   1.128   4.410   0.039  1.2072 -0.8448  4.3334
  573MPD2    N1 8559   1.629   4.675   0.003  0.5510 -0.0692 -0.2547
  573MPD2    H7 8560   1.709   4.675  17.700 -0.6620 -0.6656 -1.7837
  574TMC3    C1 8561   0.992   4.562   0.175 -0.0478  0.0956  0.6166
  574TMC3    C2 8562   0.921   4.673   0.214  0.1114 -0.3891 -0.4811
  574TMC3    C3 8563   0.789   4.653   0.248  0.1539  0.4655  0.4868
  574TMC3    C4 8564   0.941   4.438   0.183 -0.8337 -0.3168  0.1540
  574TMC3    C5 8565   0.813   4.416   0.225  0.3790 -0.2654 -0.0299
  574TMC3    C6 8566   0.735   4.525   0.262 -0.3200  0.0550  0.8325
  574TMC3     C 8567   1.120   4.603   0.107  0.6678 -0.2528  0.1847
  574TMC3     O 8568   1.154   4.721   0.122 -0.0342  0.6715  0.3768
  574TMC3     H 8569   0.969   0.029   0.204  0.9564 -1.0566 -2.8646
  574TMC3    H1 8570   0.992   4.350   0.146 -0.8996  0.2578 -1.3399
  574TMC3    H2 8571   0.629   4.523   0.283 -0.0071 -2.0787  2.2501
  574TMC3    C7 8572   0.758   4.284   0.244 -0.3911 -0.6929  0.1829
  574TMC3    C8 8573   0.722   0.033   0.299  0.0152 -0.1203  0.4293
  574TMC3    O1 8574   0.675   4.269   0.333 -0.6429 -0.3449 -0.2265
  574TMC3    O2 8575   0.643   0.021   0.389 -0.4919  0.0667 -0.2877
  575TMC3    C1 8576   4.288   1.308  10.859  0.3469  0.5049 -0.8362
  575TMC3    C2 8577   4.291   1.205  10.772 -0.4776  0.0399 -0.3303
  575TMC3    C3 8578   4.294   1.233  10.640 -0.1372  0.9618  0.0325
  575TMC3    C4 8579   4.259   1.439  10.825 -0.4723  0.4306 -0.2854
  575TMC3    C5 8580   4.268   1.465  10.690  0.0344  0.8503 -0.5981
  575TMC3    C6 8581   4.273   1.360  10.595  0.3587  0.1626 -0.2123
  575TMC3     C 8582   4.274   1.276  11.003  0.4391  0.2031 -0.3726
  575TMC3     O 8583   4.263   1.157  11.022 -0.1774 -0.4530  0.2571
  575TMC3     H 8584   4.320   1.105  10.803  0.1016 -0.6599 -3.0975
  575TMC3    H1 8585   4.255   1.529  10.886  2.1644  1.1328 -1.1470
  575TMC3    H2 8586   4.278   1.385  10.490  1.1868  0.3972 -0.1201
  575TMC3    C7 8587   4.267   1.601  10.640  0.5183 -0.0614 -0.9035
  575TMC3    C8 8588   4.352   1.134  10.551  1.0041  0.9199  0.8266
  575TMC3    O1 8589   4.324   1.688  10.706  0.3275 -0.1071 -0.3915
  575TMC3    O2 8590   4.347   1.018  10.587  1.0944  0.6292  0.0955
  576MPD2     C 8591   3.759   2.805  12.714  0.5705  0.9227 -0.6481
  576MPD2    C1 8592   3.811   2.931  12.687 -0.1590 -0.2505 -0.2555
  576MPD2    C2 8593   3.751   3.039  12.753 -0.2061 -0.5522 -0.4412
  576MPD2    C3 8594   3.649   3.019  12.849 -0.0903 -0.5232 -0.5304
  576MPD2    C4 8595   3.606   2.892  12.876  0.8162 -0.0875 -0.3350
  576MPD2    C5 8596   3.662   2.791  12.801 -0.2514  0.2205  0.3410
  576MPD2     H 8597   3.785   3.140  12.732 -1.8165  0.7285  3.1580
  576MPD2    H1 8598   3.533   2.872  12.953 -0.4068 -1.7872 -1.9466
  576MPD2    H2 8599   3.793   2.715  12.665  1.6423  0.2260  1.3700
  576MPD2    H3 8600   3.633   2.688  12.820  0.8858 -0.2850 -0.6512
  576MPD2     N 8601   3.597   3.139  12.919 -0.3617 -0.0328 -0.1885
  576MPD2    H5 8602   3.642   3.225  12.890 -1.8908  0.4762 -1.0277
  576MPD2    N1 8603   3.928   2.952  12.604 -0.3295  0.0623  0.1653
  576MPD2    H7 8604   3.962   3.046  12.586  0.4762 -0.6311 -1.9721
  577TMC3    C1 8605   4.114   2.891  12.486  0.2131  0.3342 -0.3296
  577TMC3    C2 8606   4.214   2.797  12.476 -0.2790  0.1724 -0.2979
  577TMC3    C3 8607   4.331   2.831  12.411 -0.1985 -0.0558  0.4343
  577TMC3    C4 8608   4.113   3.007  12.415 -0.0031  0.0243 -0.3427
  577TMC3    C5 8609   4.223   3.038  12.348 -0.3297  0.4147  0.5078
  577TMC3    C6 8610   4.337   2.962  12.348  0.3816 -0.0851  0.4653
  577TMC3     C 8611   3.995   2.846  12.549  0.1360 -0.2288 -0.4580
  577TMC3     O 8612   3.990   2.727  12.569  0.0928  0.6389  0.2849
  577TMC3     H 8613   4.208   2.697  12.520 -2.4856  1.1074  1.5264
  577TMC3    H1 8614   4.024   3.069  12.420  0.0940  0.0178  1.6958
  577TMC3    H2 8615   4.423   2.990  12.288 -1.0419  0.6682 -1.2423
  577TMC3    C7 8616   4.240   3.169  12.282 -0.2193 -0.2944  0.0868
  577TMC3    C8 8617   4.432   2.723  12.380 -0.9529 -0.3548 -0.1965
  577TMC3    O1 8618   4.355   3.210  12.289  0.0854 -1.0377  0.0125
  577TMC3    O2 8619   4.414   2.609  12.425  0.0661 -0.0287  0.3886
  578MPD2     C 8620   2.232   2.884   1.202  0.2198  0.7902 -0.2433
  578MPD2    C1 8621   2.321   2.864   1.100 -0.5256 -0.4664 -0.6927
  578MPD2    C2 8622   2.451   2.807   1.119  0.1274  0.8118 -0.2181
  578MPD2    C3 8623   2.484   2.787   1.243 -0.1374 -0.5754  0.3580
  578MPD2    C4 8624   2.388   2.781   1.349  0.6729  0.5673 -0.1257
  578MPD2    C5 8625   2.265   2.834   1.329  0.8573  0.0572 -0.1873
  578MPD2     H 8626   2.518   2.784   1.037 -0.6449 -0.2159 -0.5651
  578MPD2    H1 8627   2.408   2.756   1.452  0.3574  0.0348 -0.1931
  578MPD2    H2 8628   2.134   2.929   1.192 -0.6949 -1.3911 -1.0650
  578MPD2    H3 8629   2.201   2.860   1.412  1.1001  0.5862 -0.1625
  578MPD2     N 8630   2.611   2.733   1.257  0.1911 -0.1771  0.5779
  578MPD2    H5 8631   2.659   2.705   1.172  0.6735  1.4578  0.3061
  578MPD2    N1 8632   2.270   2.892   0.973 -0.4223  0.0408 -0.0737
  578MPD2    H7 8633   2.187   2.950   0.966 -0.1353  0.7493  2.0729
  579TMC3    C1 8634   2.798   2.637   1.353  0.1500 -0.5284 -0.1371
  579TMC3    C2 8635   2.889   2.656   1.453 -0.0248  0.8341  0.1256
  579TMC3    C3 8636   3.003   2.582   1.448 -0.0840  0.1950 -0.4362
  579TMC3    C4 8637   2.799   2.531   1.267 -0.1044  0.7958  0.0198
  579TMC3    C5 8638   2.914   2.458   1.264  0.1245  0.5511  0.3745
  579TMC3    C6 8639   3.017   2.495   1.347 -0.3114  0.5163  0.0053
  579TMC3     C 8640   2.678   2.717   1.374 -0.1105  0.1584  0.1110
  579TMC3     O 8641   2.646   2.750   1.488  0.3884 -0.4588 -0.3688
  579TMC3     H 8642   2.884   2.734   1.528  1.3039 -0.2698  1.3580
  579TMC3    H1 8643   2.719   2.511   1.196  0.2126 -0.9674  0.1762
  579TMC3    H2 8644   3.109   2.437   1.343 -1.3947 -1.1323 -0.9050
  579TMC3    C7 8645   2.922   2.341   1.187  0.0587  0.0650 -0.6522
  579TMC3    C8 8646   3.106   2.634   1.529 -0.5992 -0.3879 -0.2736
  579TMC3    O1 8647   3.033   2.296   1.170 -0.5743  0.9032  0.3610
  579TMC3    O2 8648   3.087   2.647   1.649 -0.5259 -0.2741 -0.2637
  580TMC3    C1 8649   1.648   2.266  12.003 -0.1815  0.0713 -0.1006
  580TMC3    C2 8650   1.684   2.251  11.866  0.8670  0.1322  0.7425
  580TMC3    C3 8651   1.808   2.200  11.844 -0.2564 -0.8878  0.5396
  580TMC3    C4 8652   1.712   2.196  12.106 -0.1545  0.2324 -0.7013
  580TMC3    C5 8653   1.819   2.119  12.066  0.4039 -0.3101 -0.2981
  580TMC3    C6 8654   1.872   2.125  11.938  0.0664 -0.0040  0.2841
  580TMC3     C 8655   1.596   2.395  12.027  0.0875 -0.0996  0.0470
  580TMC3     O 8656   1.584   2.465  11.930  0.3316  0.1710 -0.0670
  580TMC3     H 8657   1.634   2.302  11.785  0.6334  1.0990  1.4946
  580TMC3    H1 8658   1.679   2.201  12.209 -0.3302 -1.8206 -0.6599
  580TMC3    H2 8659   1.971   2.090  11.914  0.4019  0.7117  0.6184
  580TMC3    C7 8660   1.865   2.022  12.165  0.0671 -0.1572  0.3873
  580TMC3    C8 8661   1.908   2.301  11.805  0.3934  0.8911  0.6359
  580TMC3    O1 8662   1.837   2.039  12.285 -0.0992  0.1661  0.4324
  580TMC3    O2 8663   2.003   2.263  11.742  0.0283 -0.2431  0.2172
  581MPD2     C 8664   4.486   1.567  14.983  0.5205 -0.3853 -0.4117
  581MPD2    C1 8665   4.464   1.613  15.112 -0.6735  0.4134 -0.1404
  581MPD2    C2 8666   4.363   1.710  15.142 -0.4888 -0.5876  0.6317
  581MPD2    C3 8667   4.284   1.749  15.034 -0.3420 -0.0678  0.2276
  581MPD2    C4 8668   4.311   1.702  14.902  0.1510  0.5327 -0.1474
  581MPD2    C5 8669   4.410   1.613  14.882  0.5550 -0.5044  0.1397
  581MPD2     H 8670   4.339   1.735  15.244 -4.0869  0.6614 -0.5160
  581MPD2    H1 8671   4.262   1.747  14.817  0.9224 -1.3064 -1.5778
  581MPD2    H2 8672   4.555   1.484  14.972  0.6168 -0.2992 -0.4587
  581MPD2    H3 8673   4.434   1.587  14.779  3.0251 -0.4993  0.6963
  581MPD2     N 8674   4.172   1.833  15.060 -0.0615 -0.5476  0.1512
  581MPD2    H5 8675   4.158   1.864  15.156 -0.0727  1.8822 -0.6361
  581MPD2    N1 8676   4.549   1.561  15.209  0.0783  0.4127  0.6630
  581MPD2    H7 8677   4.624   1.499  15.179  0.1302  1.1845 -0.7810
  582TMC3    C1 8678   4.646   1.508  15.414 -0.2778 -0.1070 -0.3933
  582TMC3    C2 8679   4.687   1.549  15.533 -0.9570  0.0601 -0.3878
  582TMC3    C3 8680   4.736   1.459  15.619  0.5500  0.4420 -0.1033
  582TMC3    C4 8681   4.629   1.382  15.385  0.0984  0.0648 -1.0118
  582TMC3    C5 8682   4.681   1.292  15.475 -0.1501 -0.8513  0.1634
  582TMC3    C6 8683   4.738   1.328  15.596 -0.1299 -0.6071  0.0172
  582TMC3     C 8684   4.559   1.602  15.335 -0.0585  0.5428 -0.2375
  582TMC3     O 8685   4.502   1.696  15.394  0.2557  0.2951 -0.5692
  582TMC3     H 8686   4.686   1.651  15.569  0.0355  0.1675 -0.6655
  582TMC3    H1 8687   4.589   1.352  15.289  0.7986  0.8157 -1.5397
  582TMC3    H2 8688   0.040   1.258  15.668 -0.9369 -1.2012 -0.0817
  582TMC3    C7 8689   4.591   1.185  15.503 -0.3306  0.0770 -0.2577
  582TMC3    C8 8690   0.063   1.511  15.739  0.6229  0.4942 -0.0833
  582TMC3    O1 8691   4.557   1.099  15.417  0.1118  0.0338  0.7682
  582TMC3    O2 8692   0.020   1.613  15.788 -0.6761 -0.1123  0.3290
  583MPD2     C 8693   4.452   2.981  17.013  0.5892 -0.1833  0.3069
  583MPD2    C1 8694   4.476   3.099  16.942 -0.5935 -0.0633  0.2756
  583MPD2    C2 8695   4.445   3.212  17.014  0.1187 -0.1043  0.3559
  583MPD2    C3 8696   4.420   3.211  17.146  0.8664 -0.1683  0.2006
  583MPD2    C4 8697   4.418   3.101  17.214 -0.1628  0.2962  0.2674
  583MPD2    C5 8698   4.430   2.981  17.146  0.1053  0.5037  0.3558
  583MPD2     H 8699   4.454   3.311  16.970 -0.9737 -0.3194 -0.3653
  583MPD2    H1 8700   4.414   3.101  17.322 -1.3818  1.8841  0.2264
  583MPD2    H2 8701   4.466   2.882  16.973 -2.7394 -0.7778  0.6523
  583MPD2    H3 8702   4.440   2.897  17.214  1.8436  0.4002 -0.0081
  583MPD2     N 8703   4.411   3.338  17.214 -0.1537 -0.3541  0.4054
  583MPD2    H5 8704   4.404   3.421  17.156 -1.3201 -0.9428 -0.2784
  583MPD2    N1 8705   4.516   3.105  16.809 -0.3804 -0.3283 -0.3106
  583MPD2    H7 8706   4.528   3.198  16.770  0.0088  0.1494  0.9555
  584TMC3    C1 8707   4.382   3.486  17.397  0.1416  0.2606  0.3293
  584TMC3    C2 8708   4.360   3.592  17.314 -0.3586  0.0182  0.1458
  584TMC3    C3 8709   4.334   3.721  17.364  0.1136 -0.5473  0.0567
  584TMC3    C4 8710   4.368   3.502  17.532  0.0352 -0.0528 -0.5356
  584TMC3    C5 8711   4.342   3.621  17.586  0.2648  0.2993 -0.4665
  584TMC3    C6 8712   4.331   3.735  17.503  0.1240 -0.5513 -0.7172
  584TMC3     C 8713   4.395   3.355  17.351 -0.1297 -0.4686  0.4854
  584TMC3     O 8714   4.401   3.269  17.444  0.2112  0.4427  0.1717
  584TMC3     H 8715   4.386   3.589  17.209 -0.8159  0.3545  0.0229
  584TMC3    H1 8716   4.365   3.414  17.595 -0.4020  2.3084  2.7302
  584TMC3    H2 8717   4.288   3.826  17.545  1.0269 -0.2163 -0.5251
  584TMC3    C7 8718   4.335   3.624  17.735 -0.3612  0.0210  0.8556
  584TMC3    C8 8719   4.326   3.833  17.272 -0.6526  0.2518  0.2681
  584TMC3    O1 8720   4.354   3.518   0.028 -0.0390  0.1501  0.0106
  584TMC3    O2 8721   4.285   3.807  17.161  0.2450  0.9168  0.3039
  585MPD2     C 8722   3.471   2.425  17.658  0.0367  0.4216 -1.1053
  585MPD2    C1 8723   3.575   2.510  17.696 -0.3706  0.0244  0.5515
  585MPD2    C2 8724   3.702   2.468  17.673  0.5155 -0.4558  0.0197
  585MPD2    C3 8725   3.733   2.348  17.612  0.5135 -0.1212  0.4416
  585MPD2    C4 8726   3.627   2.275  17.561 -0.7481 -0.3938  0.0497
  585MPD2    C5 8727   3.496   2.306  17.592  0.1839 -0.4558 -0.1240
  585MPD2     H 8728   3.782   2.522  17.723 -2.7497  3.0293  1.4425
  585MPD2    H1 8729   3.634   2.177  17.515  0.5331 -0.9785  1.5157
  585MPD2    H2 8730   3.369   2.457  17.677  0.0210 -0.7080  0.7233
  585MPD2    H3 8731   3.413   2.243  17.563 -0.3272  0.7309 -1.2560
  585MPD2     N 8732   3.856   2.275  17.606  0.1235 -1.4580  0.2017
  585MPD2    H5 8733   3.858   2.185  17.559  0.3806 -1.0765 -0.5327
  585MPD2    N1 8734   3.548   2.637  17.756 -0.2472  0.2676 -0.3395
  585MPD2    H7 8735   3.453   2.672  17.759  1.2177  4.2104  0.8145
  586TMC3    C1 8736   4.084   2.238  17.611  0.2656 -0.3276 -0.0502
  586TMC3    C2 8737   4.159   2.151  17.694  0.8543  0.4020  0.0654
  586TMC3    C3 8738   4.221   2.044  17.636 -0.4362 -0.4467  0.2903
  586TMC3    C4 8739   4.049   2.196  17.479 -0.2358  0.4290  0.1909
  586TMC3    C5 8740   4.102   2.073  17.436  0.0704 -0.0672 -0.0585
  586TMC3    C6 8741   4.197   2.004  17.510 -0.3012  0.2795 -0.3574
  586TMC3     C 8742   3.977   2.314  17.667  0.0516 -1.4340  0.4360
  586TMC3     O 8743   4.002   2.386  17.759  0.0175  0.4383 -0.2238
  586TMC3     H 8744   4.155   2.170   0.040  1.2855 -0.9527  0.3251
  586TMC3    H1 8745   3.978   2.248  17.415 -0.7869  2.5489  2.5121
  586TMC3    H2 8746   4.260   1.936  17.453  1.5529  0.6499  1.2332
  586TMC3    C7 8747   3.989   1.981  17.431 -1.3059  0.1680 -0.0417
  586TMC3    C8 8748   4.266   1.936  17.712  0.2112  0.1726 -0.0103
  586TMC3    O1 8749   3.884   2.022  17.475  0.4289 -0.0340  0.2688
  586TMC3    O2 8750   4.258   1.829  17.648  0.3427  0.2130 -0.0209
  587TMC3    C1 8751   1.270   0.712  16.383 -0.4165  0.4471 -0.4836
  587TMC3    C2 8752   1.294   0.764  16.509 -0.1358  0.4192 -0.2043
  587TMC3    C3 8753   1.416   0.809  16.532  0.0691 -0.4326  0.3116
  587TMC3    C4 8754   1.365   0.710  16.280  0.1202 -0.3321 -0.1290
  587TMC3    C5 8755   1.481   0.777  16.307 -0.5232 -0.3930  0.2731
  587TMC3    C6 8756   1.510   0.813  16.432  0.5170 -0.0048  0.4544
  587TMC3     C 8757   1.142   0.648  16.378 -0.2453 -0.0480 -0.4355
  587TMC3     O 8758   1.089   0.621  16.488  0.2030 -0.7134 -0.0473
  587TMC3     H 8759   1.226   0.754  16.593  1.5563 -0.4165  1.0540
  587TMC3    H1 8760   1.349   0.668  16.181 -0.3887  1.9321 -1.0234
  587TMC3    H2 8761   1.603   0.860  16.462  0.5614  0.1241  0.1139
  587TMC3    C7 8762   1.531   0.851  16.187  0.2572 -0.0402  0.0356
  587TMC3    C8 8763   1.452   0.870  16.664 -0.5721  0.7832 -0.3360
  587TMC3    O1 8764   1.499   0.807  16.075 -0.3130 -0.1451 -0.0368
  587TMC3    O2 8765   1.561   0.842  16.712  0.7287 -0.0359  0.3116
  588TMC3    C1 8766   3.785   4.174   9.947  0.4067 -0.0878 -0.4346
  588TMC3    C2 8767   3.748   4.046   9.919  0.2468  0.0086  0.3350
  588TMC3    C3 8768   3.830   3.947   9.964  0.4853  0.3544  0.2844
  588TMC3    C4 8769   3.892   4.200  10.026 -0.1313 -0.2419 -0.0713
  588TMC3    C5 8770   3.985   4.099  10.055 -0.1265 -0.3684  0.1493
  588TMC3    C6 8771   3.946   3.970  10.042  1.1089  0.1131  0.0907
  588TMC3     C 8772   3.693   4.273   9.896 -0.1083 -0.3722  0.4905
  588TMC3     O 8773   3.581   4.237   9.855 -0.4687 -0.2972  0.1062
  588TMC3     H 8774   3.663   4.036   9.853  1.6585  1.5505 -1.7111
  588TMC3    H1 8775   3.902   4.303  10.058  1.5168 -0.4304  0.0098
  588TMC3    H2 8776   4.007   3.890  10.081  0.2712  0.5408  2.2546
  588TMC3    C7 8777   4.109   4.132  10.125  0.3342 -1.1258  0.7118
  588TMC3    C8 8778   3.765   3.820   9.965 -0.0928  1.0842 -0.1059
  588TMC3    O1 8779   4.157   4.046  10.194 -0.0994  0.3529  0.1493
  588TMC3    O2 8780   3.663   3.809   9.894 -0.1958 -0.0137  0.4725
  589TMC3    C1 8781   2.615   0.634   1.007 -0.4204 -0.1739 -0.4322
  589TMC3    C2 8782   2.640   0.684   1.135  0.1274 -0.3397  0.2864
  589TMC3    C3 8783   2.740   0.628   1.209 -0.0199  0.0679  0.2023
  589TMC3    C4 8784   2.675   0.522   0.962 -0.8169  0.3372 -0.3353
  589TMC3    C5 8785   2.783   0.480   1.029 -0.3026  0.4752 -0.8319
  589TMC3    C6 8786   2.815   0.530   1.154  0.3053  0.3998 -0.1329
  589TMC3     C 8787   2.538   0.706   0.916  1.0362  0.0334 -0.7985
  589TMC3     O 8788   2.501   0.646   0.815 -0.3646 -0.0317 -0.1792
  589TMC3     H 8789   2.581   0.765   1.177  1.6000  1.4083 -1.0336
  589TMC3    H1 8790   2.649   0.485   0.863  0.3527 -1.2841 -0.0252
  589TMC3    H2 8791   2.893   0.479   1.210  0.8912  2.3541  0.8673
  589TMC3    C7 8792   2.848   0.359   0.973  0.3641 -0.2240 -0.2150
  589TMC3    C8 8793   2.780   0.699   1.323  0.5725 -0.0798  0.1096
  589TMC3    O1 8794   2.782   0.288   0.893 -0.3574 -0.6033 -0.1234
  589TMC3    O2 8795   2.697   0.778   1.366  0.1115 -0.3060  0.0078
  590MPD2     C 8796   2.382   4.116  16.748  0.2852 -0.1410  0.1825
  590MPD2    C1 8797   2.297   4.228  16.753 -0.2960  0.8400 -0.1313
  590MPD2    C2 8798   2.362   4.346  16.716  0.3878 -0.3151  0.3909
  590MPD2    C3 8799   2.495   4.358  16.679  0.2495  0.2954 -0.3426
  590MPD2    C4 8800   2.577   4.249  16.702 -0.6238  0.7268  0.2505
  590MPD2    C5 8801   2.518   4.126  16.727  0.0694 -0.0715  0.5678
  590MPD2     H 8802   2.293   4.430  16.721 -0.4939 -0.8880 -2.0463
  590MPD2    H1 8803   2.684   4.237  16.690 -0.9099 -0.6166 -0.9749
  590MPD2    H2 8804   2.346   4.017  16.773 -1.0932 -0.0568 -1.5310
  590MPD2    H3 8805   2.585   4.042  16.746 -0.3809 -0.7634 -0.8621
  590MPD2     N 8806   2.546   4.485  16.631 -0.2128  0.0510  0.4270
  590MPD2    H5 8807   2.486   4.564  16.611 -1.2945 -0.8115  0.2581
  590MPD2    N1 8808   2.163   4.217  16.787  0.3939 -0.2303 -0.0585
  590MPD2    H7 8809   2.127   4.122  16.787  0.4495 -0.2466  0.6921
  591TMC3    C1 8810   2.702   4.634  16.536  0.0780 -1.0189  0.5974
  591TMC3    C2 8811   2.802   4.622  16.442 -0.0907 -0.0461  0.2337
  591TMC3    C3 8812   2.799   4.712  16.342  0.5726 -0.7631  0.3126
  591TMC3    C4 8813   2.616   4.739  16.530  0.0066 -0.6612  0.5826
  591TMC3    C5 8814   2.627   0.089  16.437 -0.0609  0.7448 -0.1583
  591TMC3    C6 8815   2.720   0.081  16.340 -0.0524 -0.1740 -0.3009
  591TMC3     C 8816   2.683   4.514  16.616  0.0047  0.1444  0.3357
  591TMC3     O 8817   2.780   4.437  16.623 -0.1199 -0.4615 -0.0031
  591TMC3     H 8818   2.880   4.546  16.441 -0.4318 -0.3692 -1.7406
  591TMC3    H1 8819   2.536   0.003  16.602  0.4719 -3.3643  1.3071
  591TMC3    H2 8820   2.720   0.147  16.254  0.3402  0.6579  0.3360
  591TMC3    C7 8821   2.525   0.193  16.426  0.1842 -0.1460 -0.3477
  591TMC3    C8 8822   2.892   4.685  16.236  0.3769  0.0883  0.3677
  591TMC3    O1 8823   2.414   0.172  16.479  0.3865 -0.2693 -0.2845
  591TMC3    O2 8824   2.916   4.572  16.203  0.2232 -0.1758 -1.2027
  592MPD2     C 8825   2.537   1.812  11.602  0.2504 -0.1002  0.4085
  592MPD2    C1 8826   2.625   1.841  11.698 -0.0167 -0.2853 -0.2840
  592MPD2    C2 8827   2.635   1.758  11.806  0.2582 -0.1066  0.0180
  592MPD2    C3 8828   2.543   1.656  11.824  0.1524 -0.2367 -0.1816
  592MPD2    C4 8829   2.445   1.631  11.731  0.4288  0.2191  1.2412
  592MPD2    C5 8830   2.447   1.709  11.616 -0.1506 -0.5003 -0.2299
  592MPD2     H 8831   2.712   1.765  11.882 -1.7064  0.7409  1.9281
  592MPD2    H1 8832   2.361   1.564  11.745 -1.4082  1.9188 -1.6652
  592MPD2    H2 8833   2.533   1.879  11.518 -0.7881 -0.7954 -0.0902
  592MPD2    H3 8834   2.378   1.682  11.537  0.1377  0.4064 -0.7870
  592MPD2     N 8835   2.559   1.575  11.938 -0.7610 -0.5165  0.5603
  592MPD2    H5 8836   2.626   1.608  12.007  0.9042  1.0928 -1.8332
  592MPD2    N1 8837   2.711   1.946  11.682  0.8950  0.1780 -0.4361
  592MPD2    H7 8838   2.709   2.004  11.599 -0.6814 -1.8208 -1.8111
  593TMC3    C1 8839   2.856   2.124  11.755  0.3477 -0.0611  0.1775
  593TMC3    C2 8840   2.880   2.222  11.842 -0.4470 -0.1374  0.2099
  593TMC3    C3 8841   2.982   2.312  11.816 -0.0154 -0.1110 -0.3751
  593TMC3    C4 8842   2.935   2.119  11.636  0.2038 -0.2941 -0.6679
  593TMC3    C5 8843   3.028   2.216  11.609  0.1714 -0.4792 -0.4154
  593TMC3    C6 8844   3.062   2.313  11.702 -0.8618 -0.1529 -0.1306
  593TMC3     C 8845   2.767   2.006  11.787 -0.0057  0.1804  0.0712
  593TMC3     O 8846   2.766   1.979  11.906 -0.2243  0.5444  0.0374
  593TMC3     H 8847   2.814   2.241  11.926 -0.3516 -0.2938  0.3195
  593TMC3    H1 8848   2.908   2.046  11.561  0.8666  0.1647 -1.3508
  593TMC3    H2 8849   3.130   2.393  11.676 -1.0396  0.1876  0.4483
  593TMC3    C7 8850   3.090   2.231  11.478 -0.4227  1.0819 -0.3723
  593TMC3    C8 8851   2.996   2.431  11.898  0.4225  0.1114  0.3010
  593TMC3    O1 8852   3.177   2.320  11.471  0.3056  0.2837 -0.0788
  593TMC3    O2 8853   2.898   2.478  11.952  0.5482 -0.0574  0.0515
  594MPD2     C 8854   1.417   4.679  14.936 -0.2885 -0.4049  0.9652
  594MPD2    C1 8855   1.328   0.042  14.916  0.0346 -0.7226 -0.0547
  594MPD2    C2 8856   1.369   0.162  14.850 -0.5193  0.3099 -0.5429
  594MPD2    C3 8857   1.503   0.168  14.809 -0.4271  0.3386  0.4126
  594MPD2    C4 8858   1.593   0.063  14.820 -0.5212 -0.1947 -0.4191
  594MPD2    C5 8859   1.545   4.694  14.880 -0.6461  0.2174 -0.6513
  594MPD2     H 8860   1.302   0.247  14.838  1.4191  1.8416 -0.6451
  594MPD2    H1 8861   1.695   0.064  14.785 -0.2437 -2.0372  0.3565
  594MPD2    H2 8862   1.385   4.583  14.973  2.3782 -1.3022  0.9181
  594MPD2    H3 8863   1.623   4.623  14.905 -0.5742  0.1309 -1.1318
  594MPD2     N 8864   1.550   0.298  14.772 -0.2401 -0.7957  0.2655
  594MPD2    H5 8865   1.477   0.367  14.762  0.6072 -0.0642 -0.8016
  594MPD2    N1 8866   1.202   0.023  14.961  0.2749 -0.1596  0.3764
  594MPD2    H7 8867   1.187   4.673  15.003  2.8147 -1.3325 -1.2972
  595TMC3    C1 8868   1.859   0.612  14.609  0.6250 -0.5011 -0.9064
  595TMC3    C2 8869   1.827   0.503  14.681 -0.2391  0.0145 -0.0451
  595TMC3    C3 8870   1.698   0.482  14.716 -0.3955 -1.0877  1.0580
  595TMC3    C4 8871   1.760   0.696  14.567  0.7513 -0.7033  0.2121
  595TMC3    C5 8872   1.632   0.679  14.610  0.1650 -0.0389  0.6049
  595TMC3    C6 8873   1.592   0.564  14.682  0.7287  0.1898 -0.8734
  595TMC3     C 8874   1.994   0.625  14.553  0.1823  0.2513 -0.2950
  595TMC3     O 8875   2.058   0.522  14.544  0.0446 -0.0474  0.0398
  595TMC3     H 8876   1.895   0.423  14.706  0.1579  0.3759  0.0341
  595TMC3    H1 8877   1.790   0.770  14.494 -0.9148 -1.1217 -0.9006
  595TMC3    H2 8878   1.487   0.546  14.703  0.5542  0.0009 -1.9015
  595TMC3    C7 8879   1.546   0.791  14.606  0.2909 -0.0551 -0.4044
  595TMC3    C8 8880   1.681   0.341  14.757  0.2898 -0.1362  0.4490
  595TMC3    O1 8881   1.445   0.790  14.673  0.3145  0.4384  0.3223
  595TMC3    O2 8882   1.779   0.268  14.764 -0.5575 -0.4486  0.3470
  596MPD2     C 8883   0.534   3.015  16.861 -0.3811 -0.1613  0.1064
  596MPD2    C1 8884   0.508   3.118  16.769 -0.2035  0.4435  0.2585
  596MPD2    C2 8885   0.500   3.077  16.636 -0.0581 -0.9020  0.4811
  596MPD2    C3 8886   0.535   2.951  16.587 -0.0710 -0.0671 -0.5180
  596MPD2    C4 8887   0.575   2.861  16.687 -0.3921  0.5392  0.8248
  596MPD2    C5 8888   0.574   2.892  16.818 -0.1805  0.0778 -0.0035
  596MPD2     H 8889   0.463   3.146  16.561  0.5123  0.7974  1.7564
  596MPD2    H1 8890   0.604   2.758  16.669 -0.9496  0.3764  0.8602
  596MPD2    H2 8891   0.538   3.044  16.965  3.0877  0.8972 -0.3349
  596MPD2    H3 8892   0.617   2.827  16.894 -0.7959 -1.5832 -1.0544
  596MPD2     N 8893   0.540   2.913  16.451  0.0169 -0.4362 -0.0631
  596MPD2    H5 8894   0.529   2.816  16.423  0.1330 -0.7725  1.0784
  596MPD2    N1 8895   0.477   3.248  16.806 -0.3637 -0.6893  0.5687
  596MPD2    H7 8896   0.472   3.316  16.731  1.8002  0.6791  1.6571
  597TMC3    C1 8897   0.411   3.426  16.946 -0.5345 -0.3887  0.8142
  597TMC3    C2 8898   0.470   3.505  16.857  0.4268 -0.3123 -0.1429
  597TMC3    C3 8899   0.476   3.641  16.882 -0.0860  0.3557  0.1504
  597TMC3    C4 8900   0.372   3.473  17.066 -0.1040  0.0601  0.8262
  597TMC3    C5 8901   0.383   3.606  17.091 -0.1273 -0.0326  0.1655
  597TMC3    C6 8902   0.430   3.692  16.998  0.2691 -0.0800  0.0356
  597TMC3     C 8903   0.439   3.285  16.935 -0.6560 -0.6054 -0.7242
  597TMC3     O 8904   0.428   3.218  17.039  0.3568 -0.1561  0.3805
  597TMC3     H 8905   0.505   3.472  16.760  3.3628  0.1142  0.7886
  597TMC3    H1 8906   0.337   3.407  17.144 -0.4644  0.7776  1.2777
  597TMC3    H2 8907   0.445   3.796  17.027  0.6402  0.1466 -0.9930
  597TMC3    C7 8908   0.316   3.652  17.210  0.2098 -0.1187  0.1985
  597TMC3    C8 8909   0.536   3.732  16.791 -0.0791  0.1688 -0.5211
  597TMC3    O1 8910   0.307   3.579  17.311  0.0301  0.5641 -0.5021
  597TMC3    O2 8911   0.501   3.849  16.807 -0.0563  0.0255 -0.3963
  598TMC3    C1 8912   3.291   0.113  15.160 -0.2855  0.2221  0.2308
  598TMC3    C2 8913   3.165   0.063  15.132  0.5678  0.9959 -0.5825
  598TMC3    C3 8914   3.108   0.109  15.019 -0.2775 -0.2127  0.0128
  598TMC3    C4 8915   3.357   0.212  15.086  1.0230 -0.2465 -0.5784
  598TMC3    C5 8916   3.282   0.264  14.990  0.2243  0.0990 -0.6283
  598TMC3    C6 8917   3.162   0.209  14.944  0.1869  0.0417 -0.5115
  598TMC3     C 8918   3.360   0.036  15.261 -0.2245 -0.1396  0.1607
  598TMC3     O 8919   3.309   4.662  15.279 -0.4701  0.0097 -0.0126
  598TMC3     H 8920   3.111   4.725  15.184  1.2186 -0.2520 -1.8077
  598TMC3    H1 8921   3.464   0.225  15.086  1.0372 -0.2816  2.3703
  598TMC3    H2 8922   3.116   0.256  14.858 -0.4184  1.0866  0.3881
  598TMC3    C7 8923   3.362   0.317  14.890  0.2816  0.1141  0.2483
  598TMC3    C8 8924   2.968   0.093  15.010 -0.1925 -0.3408  0.2497
  598TMC3    O1 8925   3.347   0.263  14.782 -0.0013  0.3670  0.4359
  598TMC3    O2 8926   2.920   4.728  15.056  0.4196  0.5124 -0.0929
  599MPD2     C 8927   4.086   2.330  16.478 -0.0189  0.8760 -0.3579
  599MPD2    C1 8928   4.009   2.215  16.460 -0.4211 -0.4595  0.3552
  599MPD2    C2 8929   3.873   2.221  16.480  0.1783  0.4904 -0.3935
  599MPD2    C3 8930   3.803   2.339  16.514 -0.2755  0.0576 -0.9826
  599MPD2    C4 8931   3.882   2.450  16.530 -0.6100  0.3010 -0.1028
  599MPD2    C5 8932   4.018   2.448  16.511 -0.4000  0.7091  0.2376
  599MPD2     H 8933   3.808   2.136  16.461 -1.3161  1.5477  0.0080
  599MPD2    H1 8934   3.837   2.542  16.565 -0.4047 -0.0034  0.9588
  599MPD2    H2 8935   4.193   2.327  16.467  0.3036 -0.0378  2.9624
  599MPD2    H3 8936   4.076   2.536  16.538 -0.8920  0.9847  0.3946
  599MPD2     N 8937   3.666   2.364  16.537 -0.0438 -1.3451  0.0723
  599MPD2    H5 8938   3.647   2.457  16.574 -1.2409 -1.1015 -1.1352
  599MPD2    N1 8939   4.068   2.092  16.438  1.1633  0.1175  0.4767
  599MPD2    H7 8940   4.167   2.088  16.456  1.2445 -0.4123 -0.0904
  600TMC3    C1 8941   3.433   2.337  16.540 -0.2348 -0.4554 -0.2858
  600TMC3    C2 8942   3.318   2.273  16.488  0.6332 -0.3845  0.0887
  600TMC3    C3 8943   3.194   2.330  16.511 -0.3683  0.6956  0.3402
  600TMC3    C4 8944   3.427   2.465  16.592  0.7255  0.2895 -0.3960
  600TMC3    C5 8945   3.305   2.529  16.601 -0.3038 -1.0321 -0.0593
  600TMC3    C6 8946   3.189   2.459  16.561  0.4360  0.1660 -0.7044
  600TMC3     C 8947   3.562   2.284  16.497 -0.4470 -0.2624  0.0572
  600TMC3     O 8948   3.569   2.168  16.471 -0.2134 -0.0100 -0.3935
  600TMC3     H 8949   3.332   2.175  16.445  0.2307 -0.4770  0.1745
  600TMC3    H1 8950   3.513   2.517  16.630  1.8571 -1.6438 -0.2794
  600TMC3    H2 8951   3.096   2.510  16.538 -0.6535 -1.7633 -0.5146
  600TMC3    C7 8952   3.297   2.662  16.655  0.3736  0.2455 -0.0801
  600TMC3    C8 8953   3.084   2.252  16.464 -0.2702  0.6020 -0.3308
  600TMC3    O1 8954   3.192   2.683  16.716 -0.2218 -0.5266 -0.2245
  600TMC3    O2 8955   3.089   2.134  16.496 -0.1144 -0.6746 -0.5461
  601MPD2     C 8956   1.075   0.533   0.464 -0.3712 -0.9472 -0.8672
  601MPD2    C1 8957   0.958   0.542   0.540 -0.4167  0.5044  0.9768
  601MPD2    C2 8958   0.898   0.415   0.574  0.0200  0.3756 -0.2469
  601MPD2    C3 8959   0.953   0.295   0.542 -0.3178 -0.7447  0.6555
  601MPD2    C4 8960   1.066   0.299   0.461  0.3718 -0.3356 -0.6253
  601MPD2    C5 8961   1.130   0.415   0.426  0.0004  0.2286  0.2757
  601MPD2     H 8962   0.809   0.417   0.635 -0.4880  0.8678 -0.9957
  601MPD2    H1 8963   1.112   0.208   0.424  1.4026 -0.2222  0.3747
  601MPD2    H2 8964   1.130   0.622   0.437  0.1850 -0.8878  0.4863
  601MPD2    H3 8965   1.221   0.421   0.368 -0.1669  0.8648  0.0804
  601MPD2     N 8966   0.895   0.166   0.582 -0.5751 -0.3763 -0.3168
  601MPD2    H5 8967   0.952   0.084   0.565 -1.1790 -1.0503  0.9278
  601MPD2    N1 8968   0.876   0.657   0.561  0.2255 -0.4857 -0.0371
  601MPD2    H7 8969   0.789   0.626   0.603  0.9106  1.5416  2.8536
  602TMC3    C1 8970   0.811   0.882   0.520  0.2259  0.8585  0.2143
  602TMC3    C2 8971   0.841   1.004   0.465  0.4976 -0.8819  0.2828
  602TMC3    C3 8972   0.730   1.065   0.403  0.3181  0.5774 -0.5330
  602TMC3    C4 8973   0.679   0.832   0.520 -0.2328  0.2688 -0.3115
  602TMC3    C5 8974   0.572   0.909   0.467 -0.9134 -0.4300 -0.1298
  602TMC3    C6 8975   0.600   1.021   0.402  0.2146 -0.4368 -0.7970
  602TMC3     C 8976   0.920   0.779   0.528  0.6822 -0.6428 -0.3247
  602TMC3     O 8977   1.030   0.826   0.494  0.7076  0.9019 -0.4862
  602TMC3     H 8978   0.940   1.046   0.452  0.2004 -0.6322 -1.1070
  602TMC3    H1 8979   0.656   0.732   0.553  0.8866  1.3017  3.5800
  602TMC3    H2 8980   0.525   1.064   0.336 -3.0404 -0.8340  2.6520
  602TMC3    C7 8981   0.469   0.832   0.414  0.0311  0.3800  0.2549
  602TMC3    C8 8982   0.766   1.162   0.304 -0.1155  0.7167 -0.4690
  602TMC3    O1 8983   0.390   0.780   0.490  0.3740 -0.0909  0.4181
  602TMC3    O2 8984   0.812   1.273   0.333 -0.0781 -0.4019 -0.0734
  603TMC3    C1 8985   4.021   1.641  11.190  0.6036  0.2837 -0.4447
  603TMC3    C2 8986   4.013   1.599  11.323  0.1019 -0.1623 -0.6005
  603TMC3    C3 8987   4.059   1.681  11.421  0.3770  0.2522 -0.3993
  603TMC3    C4 8988   4.073   1.765  11.160 -0.0696  0.1074 -0.1182
  603TMC3    C5 8989   4.115   1.842  11.265  0.1501  0.3350  0.0033
  603TMC3    C6 8990   4.116   1.799  11.396  0.8252  0.2518  0.0126
  603TMC3     C 8991   3.985   1.560  11.078 -0.3288  0.1735 -0.6112
  603TMC3     O 8992   3.984   1.616  10.970  0.0241 -0.1081  0.1941
  603TMC3     H 8993   3.982   1.500  11.352 -1.9068  0.4049 -0.7915
  603TMC3    H1 8994   4.081   1.798  11.058 -0.2977  2.1607  0.5248
  603TMC3    H2 8995   4.124   1.875  11.473  1.6450  1.0381 -0.8475
  603TMC3    C7 8996   4.105   1.991  11.247  0.0241  0.1946 -0.0976
  603TMC3    C8 8997   4.009   1.653  11.551 -0.3140  0.1492 -0.4147
  603TMC3    O1 8998   4.115   2.065  11.346  0.3473 -0.1751 -0.7344
  603TMC3    O2 8999   3.924   1.570  11.561 -0.1722 -0.2992  0.5026
  604MPD2     C 9000   4.511   4.507  16.822 -0.7727  0.1505  1.2893
  604MPD2    C1 9001   4.393   4.442  16.783 -1.1149  0.2945  0.1393
  604MPD2    C2 9002   4.393   4.367  16.669  0.3121  0.2617  0.0384
  604MPD2    C3 9003   4.508   4.350  16.589  0.3264 -0.7524 -0.5247
  604MPD2    C4 9004   4.623   4.406  16.634  0.5930  0.6309 -0.0456
  604MPD2    C5 9005   4.627   4.477  16.751 -0.0477  0.0210  0.4224
  604MPD2     H 9006   4.299   4.336  16.625 -0.4226  0.2163  1.6424
  604MPD2    H1 9007   4.718   4.384  16.586 -0.7213 -0.0342 -2.3281
  604MPD2    H2 9008   4.523   4.576  16.904 -0.2608  1.1206  0.3965
  604MPD2    H3 9009   4.714   4.531  16.786 -0.0077 -0.1270  0.5513
  604MPD2     N 9010   4.495   4.287  16.459  0.1295  0.7914 -0.3065
  604MPD2    H5 9011   4.410   4.236  16.434  1.8401 -1.9573 -0.5846
  604MPD2    N1 9012   4.279   4.464  16.856  0.0639 -0.6583 -0.4279
  604MPD2    H7 9013   4.304   4.523  16.935  0.4230  1.2899 -1.9869
  605TMC3    C1 9014   4.066   4.506  16.924  0.4434 -0.6907 -0.4988
  605TMC3    C2 9015   4.126   4.537  17.041  0.6184  0.3652 -0.5322
  605TMC3    C3 9016   4.111   4.660  17.107  0.2586  0.4250 -0.1054
  605TMC3    C4 9017   3.981   4.592  16.872  0.4172 -0.3490  0.2185
  605TMC3    C5 9018   3.964   4.715  16.932  0.3771  0.3024 -0.3007
  605TMC3    C6 9019   4.025   0.013  17.050  0.5276  0.5825  0.1240
  605TMC3     C 9020   4.149   4.441  16.822  0.2681  0.0504 -0.7765
  605TMC3     O 9021   4.098   4.374  16.733 -0.0530 -0.2082 -0.1794
  605TMC3     H 9022   4.188   4.461  17.089 -2.0864 -2.8342 -2.0683
  605TMC3    H1 9023   3.940   4.573  16.773  0.2372  0.7690  0.0721
  605TMC3    H2 9024   4.029   0.117  17.078  1.8887  0.3641  0.8004
  605TMC3    C7 9025   3.886   0.067  16.854  0.6294 -0.2833  0.0642
  605TMC3    C8 9026   4.251   4.708  17.121  0.0072  0.8020  0.1404
  605TMC3    O1 9027   3.892   0.185  16.882 -0.2531  0.2290  0.1138
  605TMC3    O2 9028   4.332   4.637  17.063 -0.3967 -0.2441  0.0451
  606TMC3    C1 9029   0.746   3.237  17.267 -0.4124  0.0769 -0.2298
  606TMC3    C2 9030   0.706   3.246  17.398 -0.2540  0.0610 -0.1456
  606TMC3    C3 9031   0.682   3.128  17.470  0.0629 -0.3628  0.2306
  606TMC3    C4 9032   0.765   3.117  17.203  1.0671 -0.0597 -0.1498
  606TMC3    C5 9033   0.734   3.005  17.273 -0.3517 -0.0520 -0.4225
  606TMC3    C6 9034   0.702   3.007  17.407  0.2117  0.3592 -0.3791
  606TMC3     C 9035   0.755   3.359  17.184  0.2248  0.5797  0.4742
  606TMC3     O 9036   0.801   3.353  17.076  0.7250 -0.1897 -0.2436
  606TMC3     H 9037   0.728   3.340  17.448 -0.8840  0.2911 -0.3042
  606TMC3    H1 9038   0.795   3.108  17.099 -0.7874 -0.1710 -0.6693
  606TMC3    H2 9039   0.720   2.921  17.470 -1.5240  1.2181  1.2766
  606TMC3    C7 9040   0.735   2.876  17.194 -0.7281  0.2710  0.0472
  606TMC3    C8 9041   0.755   3.122  17.596 -0.3493  0.6755  0.4006
  606TMC3    O1 9042   0.801   2.875  17.094 -0.2884 -0.6086 -0.2408
  606TMC3    O2 9043   0.848   3.204  17.611 -0.2163 -0.1628  0.1613
  607MPD2     C 9044   2.881   1.376  11.800 -0.1945 -1.1749  0.2339
  607MPD2    C1 9045   2.923   1.463  11.896  0.2916 -0.3920  0.4989
  607MPD2    C2 9046   2.918   1.424  12.035  0.7790 -0.1472  0.0070
  607MPD2    C3 9047   2.869   1.299  12.065  0.5749  0.0513  0.0735
  607MPD2    C4 9048   2.825   1.217  11.963  0.2889  0.2004 -0.0528
  607MPD2    C5 9049   2.835   1.249  11.828 -0.3259  0.2833 -0.0170
  607MPD2     H 9050   2.950   1.491  12.114 -0.2396  0.6450 -0.2520
  607MPD2    H1 9051   2.775   1.122  11.979  1.3483 -0.4423 -0.5585
  607MPD2    H2 9052   2.889   1.401  11.695 -2.2765 -0.0566  0.3332
  607MPD2    H3 9053   2.813   1.183  11.746  1.1524  0.0783 -0.2511
  607MPD2     N 9054   2.843   1.284  12.201  0.5953 -0.1594  0.0645
  607MPD2    H5 9055   2.832   1.371  12.252 -1.0702  1.0967 -2.4281
  607MPD2    N1 9056   2.979   1.588  11.867  0.0326  0.6319  0.2455
  607MPD2    H7 9057   3.018   1.629  11.952 -1.1606  1.6027  0.3208
  608TMC3    C1 9058   3.058   1.789  11.786  0.4953  0.0918 -0.2223
  608TMC3    C2 9059   3.032   1.849  11.909  0.7985 -0.3971 -0.5158
  608TMC3    C3 9060   3.108   1.954  11.951 -0.1208 -0.6626 -0.1212
  608TMC3    C4 9061   3.169   1.833  11.715  0.0859  0.2214  0.2766
  608TMC3    C5 9062   3.239   1.937  11.765 -0.5680  0.2246  0.4131
  608TMC3    C6 9063   3.211   2.003  11.884 -0.4410 -0.2069  0.9794
  608TMC3     C 9064   3.009   1.658  11.754  0.8688  0.0012 -0.3593
  608TMC3     O 9065   2.986   1.623  11.637  0.2570 -0.6774  0.0757
  608TMC3     H 9066   2.936   1.825  11.953  0.9414 -0.4583 -0.2387
  608TMC3    H1 9067   3.189   1.789  11.618  0.3929  1.0600 -0.0376
  608TMC3    H2 9068   3.254   2.100  11.904  0.3142 -0.2157 -0.6420
  608TMC3    C7 9069   3.363   1.964  11.693 -0.6322  0.2474  0.5545
  608TMC3    C8 9070   3.093   2.004  12.088  0.3636 -0.1495 -0.3918
  608TMC3    O1 9071   3.375   1.919  11.579 -0.1524 -0.4936 -0.3175
  608TMC3    O2 9072   3.115   2.123  12.107  0.8069 -0.3601 -0.4522
  609TMC3    C1 9073   1.001   0.943   9.254  0.2818  0.3529  0.3510
  609TMC3    C2 9074   0.901   0.849   9.262 -0.0524 -0.3862 -0.0995
  609TMC3    C3 9075   0.904   0.731   9.195  0.0500 -0.7766  0.7448
  609TMC3    C4 9076   1.119   0.901   9.194 -0.0408  0.3713 -0.1457
  609TMC3    C5 9077   1.125   0.777   9.140  0.6946  0.4450 -0.2522
  609TMC3    C6 9078   1.018   0.688   9.133 -0.6150  0.2678  0.4988
  609TMC3     C 9079   1.007   1.048   9.357  0.0881  0.2819  0.5192
  609TMC3     O 9080   0.931   1.046   9.454  0.3607 -0.0871 -0.2964
  609TMC3     H 9081   0.811   0.877   9.315 -0.3211  0.3203 -0.9198
  609TMC3    H1 9082   1.202   0.971   9.196 -0.4383  0.8254  0.6765
  609TMC3    H2 9083   1.023   0.588   9.090  0.9021  0.6770 -0.2822
  609TMC3    C7 9084   1.262   0.729   9.134 -1.0366  0.3441  0.2145
  609TMC3    C8 9085   0.801   0.629   9.211  0.2701  0.1105  0.5137
  609TMC3    O1 9086   1.348   0.807   9.171  0.5090 -1.3753 -0.9142
  609TMC3    O2 9087   0.716   0.656   9.294 -0.5546  0.3966  0.3013
  610TMC3    C1 9088   3.320   1.181  12.962 -0.2632  0.3848 -0.5079
  610TMC3    C2 9089   3.352   1.262  12.851 -0.7062  0.1381 -0.0887
  610TMC3    C3 9090   3.481   1.267  12.818 -0.2675 -0.1958  0.3682
  610TMC3    C4 9091   3.410   1.098  13.030 -0.0772  0.3422 -0.5972
  610TMC3    C5 9092   3.547   1.112  12.993  0.2695  0.2321  0.0975
  610TMC3    C6 9093   3.579   1.190  12.880 -0.2639  0.2517  0.4110
  610TMC3     C 9094   3.184   1.151  12.996  0.2256  0.4286  0.3780
  610TMC3     O 9095   3.172   1.048  13.063 -0.0243 -0.3204  0.1771
  610TMC3     H 9096   3.272   1.312  12.798  0.4913 -0.3174 -2.3094
  610TMC3    H1 9097   3.385   1.030  13.110 -0.8271  2.1885  0.7473
  610TMC3    H2 9098   3.679   1.229  12.866  0.2496 -0.2137  2.7780
  610TMC3    C7 9099   3.655   1.044  13.066 -0.1583  0.0610  0.4144
  610TMC3    C8 9100   3.527   1.366  12.722  0.1782 -0.0753  0.1990
  610TMC3    O1 9101   3.753   1.013  13.000 -0.3555 -0.1787 -0.0358
  610TMC3    O2 9102   3.640   1.344  12.669  0.2699  0.0023  0.6117
  611MPD2     C 9103   3.601   1.587  10.555  0.4726 -0.6172 -0.4574
  611MPD2    C1 9104   3.533   1.669  10.469 -0.1727  0.0098  0.3163
  611MPD2    C2 9105   3.592   1.794  10.444 -0.6841  0.0727  0.4430
  611MPD2    C3 9106   3.716   1.824  10.499  0.3320 -0.0245  0.4317
  611MPD2    C4 9107   3.775   1.743  10.596 -0.4149 -0.6340 -0.4005
  611MPD2    C5 9108   3.709   1.630  10.626  0.1849 -0.3018  0.8241
  611MPD2     H 9109   3.531   1.865  10.391 -1.3808 -1.5030 -0.8730
  611MPD2    H1 9110   3.872   1.773  10.636 -0.0478 -0.6523 -1.2876
  611MPD2    H2 9111   3.566   1.487  10.581  0.1759 -0.6933 -1.1507
  611MPD2    H3 9112   3.768   1.567  10.691  0.0877  0.3463  1.5369
  611MPD2     N 9113   3.773   1.953  10.490  0.1166  0.0863 -0.0880
  611MPD2    H5 9114   3.853   1.978  10.547  0.2600 -1.3373  0.3386
  611MPD2    N1 9115   3.403   1.632  10.440  0.9826 -0.4428 -0.4228
  611MPD2    H7 9116   3.364   1.559  10.499 -0.0488  2.7815  2.8837
  612TMC3    C1 9117   3.791   2.182  10.412 -0.0747 -0.0267 -0.2334
  612TMC3    C2 9118   3.849   2.213  10.535 -0.1955 -0.3996  0.1798
  612TMC3    C3 9119   3.876   2.343  10.548 -0.1528 -0.4291  0.5639
  612TMC3    C4 9120   3.761   2.270  10.309  0.2117  0.0720  1.0051
  612TMC3    C5 9121   3.793   2.398  10.334 -0.4103 -0.0998 -0.3348
  612TMC3    C6 9122   3.849   2.438  10.453 -0.4816 -0.0328 -0.8858
  612TMC3     C 9123   3.740   2.046  10.393 -0.5977  0.5997 -0.2801
  612TMC3     O 9124   3.669   2.030  10.296  0.1978 -0.2322  0.0005
  612TMC3     H 9125   3.848   2.155  10.626  0.1595 -1.2021 -0.3303
  612TMC3    H1 9126   3.741   2.240  10.207 -0.8095  0.6660  1.0328
  612TMC3    H2 9127   3.868   2.542  10.473 -0.6552 -0.0960 -0.3938
  612TMC3    C7 9128   3.761   2.504  10.248 -0.0036 -0.8330 -0.2000
  612TMC3    C8 9129   3.951   2.390  10.655  0.4986  0.7604 -0.0635
  612TMC3    O1 9130   3.826   2.608  10.262  0.4671 -0.7315 -0.4589
  612TMC3    O2 9131   3.930   2.502  10.706 -0.1379  0.1145 -0.0377
  613MPD2     C 9132   2.137   3.432  16.439  0.1037  0.0854 -0.2438
  613MPD2    C1 9133   2.187   3.380  16.321 -0.3133  0.0765 -0.3013
  613MPD2    C2 9134   2.151   3.251  16.292  0.0509 -0.3787 -0.3551
  613MPD2    C3 9135   2.063   3.173  16.367 -0.4522  0.4495 -0.5210
  613MPD2    C4 9136   2.018   3.227  16.485 -0.1115  0.1558  0.8071
  613MPD2    C5 9137   2.058   3.353  16.519 -0.3216  0.2666 -0.6948
  613MPD2     H 9138   2.180   3.208  16.197  0.0260 -2.2301  0.4636
  613MPD2    H1 9139   1.946   3.174  16.546  2.0721 -3.0206  0.6400
  613MPD2    H2 9140   2.167   3.528  16.478  1.4072  0.5720 -2.4138
  613MPD2    H3 9141   2.022   3.400  16.610 -0.9450 -1.0364 -0.2739
  613MPD2     N 9142   2.005   3.049  16.326 -0.1183  0.0230 -0.4179
  613MPD2    H5 9143   1.938   3.011  16.392  0.2789 -0.7253 -0.4394
  613MPD2    N1 9144   2.275   3.448  16.238 -0.2649 -0.2879 -0.1417
  613MPD2    H7 9145   2.302   3.394  16.157  0.5411  0.8347 -0.6191
  614TMC3    C1 9146   2.391   3.625  16.141  0.4650 -0.4695  0.0185
  614TMC3    C2 9147   2.433   3.522  16.062 -0.5380  0.1862 -0.7953
  614TMC3    C3 9148   2.389   3.516  15.932  0.0625  0.1434  0.2220
  614TMC3    C4 9149   2.334   3.733  16.073  0.8957  0.0311  0.4849
  614TMC3    C5 9150   2.289   3.728  15.946  0.3923 -0.7400  0.1775
  614TMC3    C6 9151   2.327   3.618  15.871 -0.5086  0.1700  0.4077
  614TMC3     C 9152   2.306   3.582  16.253  0.3289  0.7723  0.3870
  614TMC3     O 9153   2.255   3.673  16.316  0.1632 -0.5621 -0.3193
  614TMC3     H 9154   2.493   3.448  16.114  0.7153  0.9606 -1.1607
  614TMC3    H1 9155   2.299   3.814  16.136  0.2719  0.2332 -0.1158
  614TMC3    H2 9156   2.299   3.607  15.767  1.1410  0.3639 -0.0508
  614TMC3    C7 9157   2.159   3.794  15.946  0.2127  0.8972 -0.4949
  614TMC3    C8 9158   2.342   3.382  15.901 -1.5221  0.2436 -0.1713
  614TMC3    O1 9159   2.141   3.897  16.015 -0.0455  0.1568  0.1670
  614TMC3    O2 9160   2.341   3.303  15.990  0.1336  0.0657 -0.1895
  615MPD2     C 9161   1.324   4.640  16.399 -0.0392  0.0072  0.3377
  615MPD2    C1 9162   1.320   0.016  16.320  0.6029 -0.1414 -0.0965
  615MPD2    C2 9163   1.248   0.013  16.205  0.2224 -0.3551 -0.8552
  615MPD2    C3 9164   1.182   4.641  16.164  0.3419  0.0971 -0.6838
  615MPD2    C4 9165   1.186   4.526  16.244 -0.0080 -0.5433 -0.0388
  615MPD2    C5 9166   1.256   4.525  16.367  0.1116  0.4765 -0.3875
  615MPD2     H 9167   1.245   0.106  16.149 -1.3597  0.1086  0.0103
  615MPD2    H1 9168   1.144   4.434  16.204  1.0926 -0.8430 -0.5030
  615MPD2    H2 9169   1.384   4.635  16.489  0.9927 -3.3421 -0.5401
  615MPD2    H3 9170   1.268   4.435  16.426  2.5974  0.3648 -1.0670
  615MPD2     N 9171   1.092   4.647  16.051 -0.2022  0.3861  0.4328
  615MPD2    H5 9172   1.092   4.734  15.999  0.1310  0.5990  0.7872
  615MPD2    N1 9173   1.366   0.138  16.364  1.3773 -0.1956 -0.6287
  615MPD2    H7 9174   1.353   0.218  16.302 -0.2373 -0.2528 -0.3538
  616TMC3    C1 9175   1.466   0.291  16.521  0.5208 -0.4333  0.3003
  616TMC3    C2 9176   1.531   0.358  16.416  0.2924  0.9600  0.0555
  616TMC3    C3 9177   1.627   0.446  16.460  0.2304  0.0056  0.3566
  616TMC3    C4 9178   1.482   0.314  16.647 -0.4385  0.2396  0.1302
  616TMC3    C5 9179   1.568   0.419  16.681  0.1552  0.5010  0.2284
  616TMC3    C6 9180   1.637   0.488  16.592 -0.2080 -0.3828  0.3496
  616TMC3     C 9181   1.405   0.161  16.494  0.8874 -0.6614  0.7619
  616TMC3     O 9182   1.390   0.090  16.593  0.3896 -0.8022  0.0073
  616TMC3     H 9183   1.506   0.352  16.311 -0.3313  1.6854  0.1643
  616TMC3    H1 9184   1.420   0.266  16.722 -2.3039  0.4680 -1.2672
  616TMC3    H2 9185   1.699   0.569  16.630 -2.1959  1.0918  0.4880
  616TMC3    C7 9186   1.549   0.486  16.806 -0.4158  0.6063  0.1183
  616TMC3    C8 9187   1.711   0.506  16.364  0.2118  0.0064  0.0349
  616TMC3    O1 9188   1.636   0.556  16.853  0.2107 -0.0968  0.0727
  616TMC3    O2 9189   1.666   0.507  16.250 -0.1587 -0.6235 -0.1257
  617MPD2     C 9190   3.992   3.029  13.657 -0.5417  0.4458  0.0638
  617MPD2    C1 9191   4.074   2.981  13.755 -0.5160  0.0355  0.4220
  617MPD2    C2 9192   4.030   2.962  13.885 -0.1371  0.4009 -0.1955
  617MPD2    C3 9193   3.900   3.003  13.913  0.5134 -0.6966  0.2936
  617MPD2    C4 9194   3.821   3.046  13.814 -0.1706  0.0006  0.0561
  617MPD2    C5 9195   3.865   3.056  13.686  0.7573  0.0839 -0.2358
  617MPD2     H 9196   4.098   2.929  13.963  0.3425  4.2415  1.0280
  617MPD2    H1 9197   3.722   3.086  13.831 -0.4839 -1.2598  1.2078
  617MPD2    H2 9198   4.019   3.036  13.553  0.2241 -2.2902  0.0870
  617MPD2    H3 9199   3.797   3.103  13.616  0.9058  1.3762  0.4889
  617MPD2     N 9200   3.837   2.984  14.040 -0.3406  0.1076  0.4211
  617MPD2    H5 9201   3.745   3.026  14.046 -0.6936 -0.2485 -2.5670
  617MPD2    N1 9202   4.206   2.958  13.709 -0.1218  0.0683  0.1163
  617MPD2    H7 9203   4.213   2.959  13.607 -3.9624  1.2718 -0.1285
  618TMC3    C1 9204   4.426   2.868  13.706  0.8475 -0.7160 -0.2899
  618TMC3    C2 9205   4.556   2.875  13.756 -1.1101 -0.4226  0.4259
  618TMC3    C3 9206   4.660   2.831  13.686  0.0287  0.0051  0.2652
  618TMC3    C4 9207   4.405   2.797  13.594 -0.4044 -0.1455 -0.3671
  618TMC3    C5 9208   4.517   2.750  13.528  0.7075  0.7463  0.1791
  618TMC3    C6 9209   4.645   2.774  13.565  0.2447 -0.3290 -0.6555
  618TMC3     C 9210   4.319   2.929  13.782  0.8041 -0.0698 -0.3862
  618TMC3     O 9211   4.334   2.948  13.904 -0.0952 -1.0297  0.1598
  618TMC3     H 9212   4.580   2.919  13.852 -1.3604 -0.8486  0.6818
  618TMC3    H1 9213   4.306   2.787  13.551 -0.7560  2.2411 -0.1218
  618TMC3    H2 9214   4.726   2.747  13.499 -0.5821 -0.8287 -1.4658
  618TMC3    C7 9215   4.483   2.659  13.422 -0.2085 -0.1597  0.9888
  618TMC3    C8 9216   0.056   2.870  13.730  0.0355 -0.2672  0.2549
  618TMC3    O1 9217   4.380   2.673  13.359 -0.0102  0.6085  0.2418
  618TMC3    O2 9218   0.072   2.974  13.795  0.5618 -0.3160  0.0128
  619MPD2     C 9219   0.687   4.084  13.722 -0.4471  0.1691  0.0990
  619MPD2    C1 9220   0.585   4.164  13.665 -0.0688 -0.2335  0.0577
  619MPD2    C2 9221   0.454   4.146  13.713 -0.3394  0.5412  0.2553
  619MPD2    C3 9222   0.427   4.044  13.806 -0.0853 -0.5512  0.5026
  619MPD2    C4 9223   0.533   3.983  13.870 -0.7573 -0.3124  0.0552
  619MPD2    C5 9224   0.659   4.003  13.818  0.4437 -0.6336 -0.8762
  619MPD2     H 9225   0.373   4.206  13.674 -0.4571  1.5038  1.9538
  619MPD2    H1 9226   0.525   3.908  13.948 -1.6614  0.3515  0.5939
  619MPD2    H2 9227   0.786   4.091  13.677 -0.3756  1.7195  0.4793
  619MPD2    H3 9228   0.752   3.955  13.847 -0.2545 -0.4307  1.6676
  619MPD2     N 9229   0.300   3.998  13.828  0.2380  0.2225 -0.4245
  619MPD2    H5 9230   0.287   3.932  13.903 -0.8739  0.4636 -0.4193
  619MPD2    N1 9231   0.598   4.267  13.570  0.2856 -0.0865  0.0097
  619MPD2    H7 9232   0.513   4.292  13.519  1.4289  1.1246 -1.3238
  620TMC3    C1 9233   0.700   4.423  13.425  0.1306  0.1983  0.4236
  620TMC3    C2 9234   0.581   4.494  13.429  0.2806  0.2244  0.5423
  620TMC3    C3 9235   0.567   4.592  13.331 -0.5167 -0.7550  0.3615
  620TMC3    C4 9236   0.806   4.464  13.361  0.4256 -0.7489  0.1932
  620TMC3    C5 9237   0.790   4.566  13.270 -0.0313  0.0165  0.1745
  620TMC3    C6 9238   0.671   4.629  13.245  0.1585  0.5728 -0.1522
  620TMC3     C 9239   0.716   4.315  13.526  0.6169 -0.1903  0.6665
  620TMC3     O 9240   0.825   4.300  13.576 -0.7127  0.7717 -0.4866
  620TMC3     H 9241   0.517   4.484  13.516 -0.9917 -0.7782 -0.5113
  620TMC3    H1 9242   0.898   4.410  13.383  1.4547  0.2859 -1.5217
  620TMC3    H2 9243   0.677   4.729  13.204 -0.3547  0.0744 -1.4270
  620TMC3    C7 9244   0.906   4.649  13.252  0.1746 -0.1220  1.0242
  620TMC3    C8 9245   0.464   4.691  13.348 -0.0581 -0.0633  0.2708
  620TMC3    O1 9246   0.908   4.724  13.152  0.3761 -0.3896 -0.1636
  620TMC3    O2 9247   0.471   0.063  13.296  0.6691  0.3193 -0.1558
  621MPD2     C 9248   0.689   0.166   9.890 -0.4918 -0.0958 -0.3432
  621MPD2    C1 9249   0.819   0.127   9.893  0.1426  0.4083  0.7325
  621MPD2    C2 9250   0.906   0.169   9.794 -0.2405  0.1518  0.5155
  621MPD2    C3 9251   0.861   0.256   9.693  0.4253 -0.3271 -0.9536
  621MPD2    C4 9252   0.727   0.291   9.694  0.9009  0.4801  1.0825
  621MPD2    C5 9253   0.646   0.248   9.793 -0.2004 -0.4415  0.0570
  621MPD2     H 9254   1.013   0.150   9.796 -0.0621  1.0431 -0.9329
  621MPD2    H1 9255   0.693   0.361   9.619  1.3285  0.6324  1.0312
  621MPD2    H2 9256   0.621   0.128   9.965  1.1018  0.8446  1.5814
  621MPD2    H3 9257   0.544   0.284   9.790 -0.3064 -0.6326  1.2628
  621MPD2     N 9258   0.961   0.314   9.609  0.6478 -0.5677  0.1100
  621MPD2    H5 9259   1.054   0.276   9.620  1.0146  0.2782 -0.0895
  621MPD2    N1 9260   0.878   0.046   9.991 -0.1829 -0.1540 -0.0232
  621MPD2    H7 9261   0.976   0.022   9.980 -0.0872  1.1220 -1.9268
  622TMC3    C1 9262   0.895   4.648  10.193  0.2206 -0.4832  0.2169
  622TMC3    C2 9263   0.870   4.648  10.328  0.0409  0.2152 -0.1719
  622TMC3    C3 9264   0.941   4.557  10.404  0.0043 -0.1224  0.8302
  622TMC3    C4 9265   0.997   4.577  10.137  0.9034 -0.3451 -0.4275
  622TMC3    C5 9266   1.080   4.507  10.216 -0.3975 -0.4971 -0.7778
  622TMC3    C6 9267   1.058   4.493  10.353  0.3183 -0.6322  0.5801
  622TMC3     C 9268   0.814   0.003  10.109 -0.8612  0.4489  0.0113
  622TMC3     O 9269   0.703   0.033  10.154  0.0509  0.3708 -0.3387
  622TMC3     H 9270   0.784   4.702  10.365  0.9193  0.9956  0.7073
  622TMC3    H1 9271   0.998   4.573  10.029  2.0010  1.6853 -0.4922
  622TMC3    H2 9272   1.113   4.417  10.409  2.0874 -0.3706 -0.8008
  622TMC3    C7 9273   1.182   4.423  10.157 -0.2876  0.3713  0.4228
  622TMC3    C8 9274   0.956   4.590  10.547 -0.5564 -0.4900 -0.6602
  622TMC3    O1 9275   1.293   4.427  10.209  0.2241 -0.5422  0.1411
  622TMC3    O2 9276   1.050   4.545  10.615 -0.6766 -0.5898  0.2774
  623MPD2     C 9277   4.632   4.599  16.099 -1.5414 -0.4786 -0.1532
  623MPD2    C1 9278   4.556   4.665  16.199  0.4511  0.5922  0.2569
  623MPD2    C2 9279   4.613   4.678  16.324 -1.1869 -0.7277  0.0533
  623MPD2    C3 9280   0.005   4.652  16.350 -0.0273 -0.8374 -0.4036
  623MPD2    C4 9281   0.076   4.577  16.253 -0.0286 -0.5583  1.0871
  623MPD2    C5 9282   0.014   4.551  16.132  0.3730 -0.0797  0.6787
  623MPD2     H 9283   4.551   4.715  16.405 -0.4117  3.7562 -1.4072
  623MPD2    H1 9284   0.178   4.545  16.270  0.3041  0.6335  1.3433
  623MPD2    H2 9285   4.584   4.578  16.004 -2.0619 -3.0213  0.6665
  623MPD2    H3 9286   0.073   4.493  16.062  2.6313 -0.1447  2.6473
  623MPD2     N 9287   0.049   4.688  16.478  0.5472 -0.2641  0.8643
  623MPD2    H5 9288   4.737   4.726  16.556 -0.8759 -2.8088  1.1295
  623MPD2    N1 9289   4.422   4.704  16.179 -0.5561 -0.0584  0.3917
  623MPD2    H7 9290   4.374   0.004  16.258 -0.1829 -1.3075  1.2682
  624TMC3    C1 9291   0.318   4.740  16.862  0.3136  0.5272 -0.4399
  624TMC3    C2 9292   0.225   0.090  16.914  0.1515  0.1107  0.3879
  624TMC3    C3 9293   0.107   0.114  16.835  0.1940  0.6080 -0.3210
  624TMC3    C4 9294   0.294   4.682  16.743  0.0987  0.0083 -0.6104
  624TMC3    C5 9295   0.186   4.717  16.666  0.7003 -0.4575 -0.0815
  624TMC3    C6 9296   0.091   0.062  16.713  0.0853  0.1611 -0.3373
  624TMC3     C 9297   0.397   4.668  16.964  0.3234  0.1597 -0.0652
  624TMC3     O 9298   0.410   4.719  17.073  0.5973  0.1501  0.1489
  624TMC3     H 9299   0.226   0.135  17.013 -0.8455  0.7150  0.1300
  624TMC3    H1 9300   0.358   4.602  16.710  0.5258  0.4775 -0.9227
  624TMC3    H2 9301   0.002   0.090  16.658 -1.8918 -1.9620  1.8006
  624TMC3    C7 9302   0.179   4.670  16.526 -0.2764 -0.1781  0.7862
  624TMC3    C8 9303   4.724   0.130  16.906 -0.8240  0.3842  0.0514
  624TMC3    O1 9304   0.280   4.636  16.462 -0.3825 -0.1248  0.2331
  624TMC3    O2 9305   4.619   0.128  16.842  0.3608  0.1137 -0.8403
  625MPD2     C 9306   0.753   1.352   1.054 -0.1740  0.6349 -0.2060
  625MPD2    C1 9307   0.800   1.485   1.042 -0.2066 -0.0389  0.1241
  625MPD2    C2 9308   0.937   1.506   1.069 -0.4197 -0.2219  0.0492
  625MPD2    C3 9309   1.025   1.404   1.107  0.7919  0.2032  0.1032
  625MPD2    C4 9310   0.971   1.277   1.122 -0.4107  0.2414 -0.1856
  625MPD2    C5 9311   0.841   1.253   1.094 -0.0275 -1.0833  0.5419
  625MPD2     H 9312   0.977   1.607   1.069 -0.5139 -0.1840  0.4445
  625MPD2    H1 9313   1.031   1.193   1.153 -1.6500 -0.4835  0.2274
  625MPD2    H2 9314   0.646   1.339   1.043 -0.1442 -0.1718  0.5070
  625MPD2    H3 9315   0.801   1.153   1.110  0.2469 -1.2734  0.0324
  625MPD2     N 9316   1.160   1.433   1.135 -0.2841 -0.2879  0.3668
  625MPD2    H5 9317   1.196   1.526   1.116 -1.2109 -0.4609 -2.2612
  625MPD2    N1 9318   0.720   1.588   0.994 -0.0758 -0.6295  0.3219
  625MPD2    H7 9319   0.751   1.684   1.011  0.0413 -0.5183 -0.5274
  626TMC3    C1 9320   0.533   1.697   0.900  0.1789 -0.7152 -1.1720
  626TMC3    C2 9321   0.452   1.700   0.789 -0.0260  0.2245  0.3107
  626TMC3    C3 9322   0.335   1.770   0.795  0.6970  0.8426 -0.3059
  626TMC3    C4 9323   0.480   1.744   1.018  0.0438  0.5208 -0.1162
  626TMC3    C5 9324   0.362   1.811   1.024  0.7444  0.3404 -0.2026
  626TMC3    C6 9325   0.286   1.832   0.903  0.1689 -0.9621  0.1274
  626TMC3     C 9326   0.602   1.572   0.924 -0.3321  0.5966  0.1401
  626TMC3     O 9327   0.561   1.473   0.861 -0.0086 -0.2259 -0.4955
  626TMC3     H 9328   0.473   1.636   0.704  1.8862 -1.7983  2.3193
  626TMC3    H1 9329   0.534   1.717   1.108 -0.9981  1.5553  0.8217
  626TMC3    H2 9330   0.193   1.888   0.900 -0.2447 -1.6704 -0.2253
  626TMC3    C7 9331   0.302   1.838   1.156 -0.2573  0.0167 -0.6744
  626TMC3    C8 9332   0.279   1.797   0.665  0.0389  0.6445 -1.0090
  626TMC3    O1 9333   0.386   1.843   1.245 -0.0342  0.3318  0.5306
  626TMC3    O2 9334   0.307   1.727   0.570  0.4938 -0.2102 -0.4477
  627MPD2     C 9335   3.452   2.008  14.696 -0.8462 -0.0525 -0.1109
  627MPD2    C1 9336   3.499   1.918  14.788  0.4485 -0.2148 -0.9663
  627MPD2    C2 9337   3.452   1.786  14.798 -0.6812 -0.0798  0.6379
  627MPD2    C3 9338   3.357   1.748  14.711  0.7177 -0.2549  0.4736
  627MPD2    C4 9339   3.300   1.847  14.632  0.9004  0.2685 -0.0555
  627MPD2    C5 9340   3.347   1.974  14.619  0.0111  0.4730 -0.3593
  627MPD2     H 9341   3.500   1.720  14.870 -1.0411  0.1186  1.0658
  627MPD2    H1 9342   3.219   1.824  14.564  1.1371  1.4523 -0.7501
  627MPD2    H2 9343   3.484   2.111  14.682  0.0433 -0.2698  0.3112
  627MPD2    H3 9344   3.309   2.054  14.555  0.0179  0.0628 -0.8807
  627MPD2     N 9345   3.296   1.618  14.712  1.0928 -0.4447 -0.1991
  627MPD2    H5 9346   3.332   1.552  14.780  2.4787  0.7886  0.2662
  627MPD2    N1 9347   3.597   1.955  14.876 -0.1248  0.0423 -0.1988
  627MPD2    H7 9348   3.620   1.890  14.950  0.8343 -2.1062 -2.3978
  628TMC3    C1 9349   3.784   2.070  14.955 -0.4154  0.4269 -0.6064
  628TMC3    C2 9350   3.861   1.960  14.960 -0.5572  0.0606 -0.5950
  628TMC3    C3 9351   3.981   1.971  15.019 -0.4871 -0.5394  0.2905
  628TMC3    C4 9352   3.835   2.192  14.980  0.7263 -0.6286 -0.3569
  628TMC3    C5 9353   3.957   2.208  15.043 -0.1901 -0.3540 -0.1117
  628TMC3    C6 9354   4.029   2.096  15.070  0.0900 -0.5175  0.3884
  628TMC3     C 9355   3.671   2.069  14.869  0.2152  0.1388 -0.2221
  628TMC3     O 9356   3.649   2.172  14.806  0.2134  0.3745 -0.0612
  628TMC3     H 9357   3.818   1.863  14.936 -0.7059  0.6073 -2.5730
  628TMC3    H1 9358   3.757   2.268  14.974  1.6817  0.2594 -1.6286
  628TMC3    H2 9359   4.136   2.106  15.080  0.1344 -1.0340  0.4378
  628TMC3    C7 9360   4.019   2.333  15.033  0.1133 -0.0095  0.2329
  628TMC3    C8 9361   4.075   1.873  14.968  0.6289 -0.1148  1.2226
  628TMC3    O1 9362   4.133   2.353  15.090  0.0347 -0.2837  0.0661
  628TMC3    O2 9363   4.041   1.831  14.859  0.7521  0.2640  1.0530
  629MPD2     C 9364   2.066   0.868  16.236  0.0445  0.7773  0.0545
  629MPD2    C1 9365   2.114   0.809  16.348  0.2256 -0.2357 -0.4598
  629MPD2    C2 9366   2.031   0.710  16.402  0.6040  0.0335 -0.0665
  629MPD2    C3 9367   1.913   0.669  16.335  0.1561  0.2606  0.5031
  629MPD2    C4 9368   1.877   0.734  16.220  0.3217 -0.6232  0.0092
  629MPD2    C5 9369   1.950   0.836  16.178  0.6128 -0.5631 -0.3359
  629MPD2     H 9370   2.067   0.655  16.488 -1.1334  0.2718  0.8149
  629MPD2    H1 9371   1.787   0.716  16.161  0.3940 -1.3900  0.1316
  629MPD2    H2 9372   2.111   0.951  16.183  1.2431  0.5169  0.6603
  629MPD2    H3 9373   1.925   0.883  16.083 -0.8263 -1.9058 -0.6304
  629MPD2     N 9374   1.824   0.573  16.411  0.1166  0.4402 -0.1487
  629MPD2    H5 9375   1.856   0.543  16.503  0.3914  2.1123  0.2851
  629MPD2    N1 9376   2.238   0.848  16.405 -0.0302  0.1381  0.5099
  629MPD2    H7 9377   2.268   0.943  16.386  0.0473 -0.2313 -1.1965
  630TMC3    C1 9378   2.419   0.853  16.552 -0.1266 -0.7882  0.7298
  630TMC3    C2 9379   2.489   0.926  16.461  0.0177 -0.0174  0.1125
  630TMC3    C3 9380   2.610   0.974  16.504 -0.2017 -0.4337 -0.7620
  630TMC3    C4 9381   2.471   0.813  16.673 -0.0329 -0.9040 -0.0722
  630TMC3    C5 9382   2.587   0.877  16.717  0.0583  0.9556  0.2726
  630TMC3    C6 9383   2.659   0.954  16.627 -0.3211  0.7052 -0.4591
  630TMC3     C 9384   2.299   0.783  16.512  0.3007  0.0759 -0.1658
  630TMC3     O 9385   2.273   0.677  16.576 -0.3469 -0.2238  0.1213
  630TMC3     H 9386   2.456   0.947  16.360 -0.7327 -1.6344  0.0201
  630TMC3    H1 9387   2.394   0.778  16.741 -1.2321  2.5997  0.3864
  630TMC3    H2 9388   2.759   0.986  16.653 -0.2452 -0.3363  0.4842
  630TMC3    C7 9389   2.639   0.835  16.841  0.2709  0.5483 -0.2546
  630TMC3    C8 9390   2.690   1.037  16.405  1.5542 -0.4151 -0.8220
  630TMC3    O1 9391   2.583   0.751  16.906  0.6728 -0.1069  0.3662
  630TMC3    O2 9392   2.812   1.040  16.427 -0.4116  0.1397 -0.0834
  631MPD2     C 9393   0.175   0.217  15.819  0.2734  0.2933 -0.4546
  631MPD2    C1 9394   0.269   0.267  15.733 -0.5767  0.8216  0.6730
  631MPD2    C2 9395   0.385   0.194  15.716  0.2556  0.7298  0.1707
  631MPD2    C3 9396   0.408   0.085  15.798  0.4906  0.2010  0.2643
  631MPD2    C4 9397   0.322   0.050  15.898  0.2405  0.2406  0.7714
  631MPD2    C5 9398   0.202   0.113  15.901  0.2261  0.0386  0.0222
  631MPD2     H 9399   0.462   0.220  15.645 -1.2148  0.7265 -1.4019
  631MPD2    H1 9400   0.333   4.701  15.958  1.0919 -1.0022 -1.2500
  631MPD2    H2 9401   0.079   0.266  15.820  0.7681  1.2978 -3.0576
  631MPD2    H3 9402   0.135   0.076  15.977 -0.2971 -0.6233 -0.7682
  631MPD2     N 9403   0.530   0.017  15.777  0.2905  0.4520 -0.2420
  631MPD2    H5 9404   0.592   0.046  15.702 -2.1722  1.7821 -1.7441
  631MPD2    N1 9405   0.235   0.383  15.653 -0.0147  0.2335 -0.4318
  631MPD2    H7 9406   0.142   0.424  15.660  0.4190  0.6973  2.6904
  632TMC3    C1 9407   0.270   0.538  15.459  0.4398  0.0391 -0.3764
  632TMC3    C2 9408   0.229   0.649  15.525  0.3865 -0.7645 -0.3082
  632TMC3    C3 9409   0.249   0.770  15.463 -0.1061  0.2113 -0.0510
  632TMC3    C4 9410   0.356   0.545  15.350  0.1971 -0.1822 -0.1753
  632TMC3    C5 9411   0.376   0.665  15.293  0.1938 -0.3874 -0.2721
  632TMC3    C6 9412   0.325   0.777  15.351 -0.0602  0.0759  0.3529
  632TMC3     C 9413   0.311   0.426  15.545 -0.3147 -0.0737  0.1177
  632TMC3     O 9414   0.416   0.381  15.503 -0.5380 -0.5179  0.4240
  632TMC3     H 9415   0.184   0.643  15.623  2.0511  0.1308  0.4908
  632TMC3    H1 9416   0.367   0.464  15.279  0.9181 -0.6536  0.4731
  632TMC3    H2 9417   0.358   0.876  15.321  0.5407  0.0926  1.0574
  632TMC3    C7 9418   0.504   0.692  15.230 -0.0481 -0.2889 -0.1889
  632TMC3    C8 9419   0.234   0.888  15.547 -0.0369  0.4105  0.1352
  632TMC3    O1 9420   0.520   0.805  15.185 -0.2000 -0.1820  0.0176
  632TMC3    O2 9421   0.324   0.956  15.594 -0.0625 -0.4025  0.3663
  633MPD2     C 9422   0.082   2.832  17.604 -0.6918 -0.1419  0.1098
  633MPD2    C1 9423   0.053   2.763  17.487  0.4893 -0.1798  0.3650
  633MPD2    C2 9424   0.055   2.620  17.484  0.0694 -0.0520  0.6322
  633MPD2    C3 9425   0.106   2.546  17.592 -0.4366  0.2768 -0.0122
  633MPD2    C4 9426   0.152   2.617  17.700  0.0025 -0.4440  0.7473
  633MPD2    C5 9427   0.133   2.756  17.708  0.6726  0.2278  0.3217
  633MPD2     H 9428   0.029   2.580  17.387  0.2328  0.7900  0.2391
  633MPD2    H1 9429   0.197   2.565   0.023  1.9925  0.4448  0.2270
  633MPD2    H2 9430   0.088   2.939  17.621 -1.0624 -0.2479  0.9200
  633MPD2    H3 9431   0.166   2.814   0.031  2.3159 -0.0661 -0.1315
  633MPD2     N 9432   0.137   2.410  17.592 -0.0597 -0.4126  0.1369
  633MPD2    H5 9433   0.198   2.375  17.665  0.3227  0.6786  0.3325
  633MPD2    N1 9434   0.021   2.833  17.367 -0.0898 -0.7949 -0.1462
  633MPD2    H7 9435   0.005   2.775  17.285  2.6203  1.2753 -2.1149
  634TMC3    C1 9436   0.033   2.999  17.215 -0.2272 -0.4715 -0.6228
  634TMC3    C2 9437   0.093   2.909  17.125 -0.7542  0.0770 -0.2219
  634TMC3    C3 9438   0.146   2.956  17.013  0.0252  0.1654  0.5078
  634TMC3    C4 9439   0.022   3.128  17.191 -0.6916 -0.2365  0.9062
  634TMC3    C5 9440   0.071   3.169  17.067  0.1638  0.0860  0.5771
  634TMC3    C6 9441   0.128   3.086  16.974 -0.1775 -0.7645  0.5598
  634TMC3     C 9442   0.021   2.971  17.353  0.4172 -0.4186 -0.3713
  634TMC3     O 9443   4.729   3.060  17.429  0.0513  0.9671  0.0104
  634TMC3     H 9444   0.099   2.804  17.149  0.4535 -0.0448 -1.0640
  634TMC3    H1 9445   4.717   3.196  17.261 -1.2911  2.4197 -2.0286
  634TMC3    H2 9446   0.186   3.121  16.889 -1.4178  1.0228  0.4390
  634TMC3    C7 9447   0.033   3.294  17.012  0.0278  0.6815  0.3577
  634TMC3    C8 9448   0.197   2.856  16.922  0.0339 -0.0205 -0.2046
  634TMC3    O1 9449   0.021   3.309  16.893 -0.0454  0.2862 -0.4131
  634TMC3    O2 9450   0.199   2.735  16.957  0.6124  0.1184 -0.0496
  635TMC3    C1 9451   0.969   3.788   0.300 -0.5886 -0.2474  0.4098
  635TMC3    C2 9452   0.981   3.803   0.165  0.2587 -0.2180  0.1220
  635TMC3    C3 9453   0.956   3.696   0.091  0.2662  0.5292  0.4795
  635TMC3    C4 9454   0.900   3.685   0.359  0.0779  0.1695  1.0454
  635TMC3    C5 9455   0.863   3.590   0.273 -0.0393 -0.1297  0.1079
  635TMC3    C6 9456   0.891   3.581   0.138  0.5008 -0.4959  0.6595
  635TMC3     C 9457   0.992   3.900   0.389  0.5465  0.2095  1.4704
  635TMC3     O 9458   0.922   3.919   0.484  0.3544 -0.0002 -0.3013
  635TMC3     H 9459   1.016   3.896   0.121 -1.3083  0.7405  0.8826
  635TMC3    H1 9460   0.875   3.672   0.464 -0.3861  0.0926  0.9221
  635TMC3    H2 9461   0.855   3.502   0.074  0.9491  0.1599 -0.4109
  635TMC3    C7 9462   0.765   3.494   0.322  0.0490 -0.4752 -0.3119
  635TMC3    C8 9463   1.001   3.692  17.712 -0.2072 -0.3247 -0.8831
  635TMC3    O1 9464   0.765   3.455   0.437 -0.2476  0.6380 -0.1096
  635TMC3    O2 9465   1.037   3.798  17.666 -0.3305 -0.3987 -0.3399
  636MPD2     C 9466   1.257   3.349  16.244  0.2532 -0.1952 -0.5808
  636MPD2    C1 9467   1.374   3.365  16.306  0.0666  0.0091  0.3669
  636MPD2    C2 9468   1.468   3.277  16.291 -0.3493 -0.2423  0.1966
  636MPD2    C3 9469   1.453   3.165  16.216  0.6484 -0.5834 -0.3439
  636MPD2    C4 9470   1.334   3.135  16.164  0.3330  0.5148 -0.4695
  636MPD2    C5 9471   1.238   3.237  16.172 -0.0363 -0.2392  0.5218
  636MPD2     H 9472   1.556   3.318  16.340 -1.3504  2.9551 -0.6984
  636MPD2    H1 9473   1.310   3.038  16.122  0.8787  0.2583 -0.1906
  636MPD2    H2 9474   1.170   3.413  16.247  0.0138 -0.6146  1.2491
  636MPD2    H3 9475   1.139   3.234  16.128  1.4030 -0.1560 -2.7150
  636MPD2     N 9476   1.568   3.085  16.199 -0.0575 -0.8250  0.4529
  636MPD2    H5 9477   1.657   3.122  16.230 -0.3999  0.1158  0.3401
  636MPD2    N1 9478   1.405   3.474  16.391  0.3090  0.3274  0.1369
  636MPD2    H7 9479   1.498   3.488  16.428  0.5047  1.3251 -0.7438
  637TMC3    C1 9480   1.695   2.910  16.104  0.2342  0.7152 -0.6347
  637TMC3    C2 9481   1.786   2.935  16.198  0.4175  0.2454  0.4497
  637TMC3    C3 9482   1.917   2.898  16.167  0.5360 -0.1998  0.6270
  637TMC3    C4 9483   1.726   2.857  15.979  0.4185 -1.1389  0.6708
  637TMC3    C5 9484   1.855   2.836  15.947 -1.2904  0.1298 -0.0546
  637TMC3    C6 9485   1.942   2.839  16.051  0.6319 -0.2488 -0.5060
  637TMC3     C 9486   1.564   2.970  16.117  0.3501  0.1796  0.0033
  637TMC3     O 9487   1.480   2.909  16.050  0.2732  0.6823 -0.0486
  637TMC3     H 9488   1.755   2.974  16.294 -1.8461 -0.4355 -0.0058
  637TMC3    H1 9489   1.656   2.857  15.896  1.5232  0.3754 -0.2650
  637TMC3    H2 9490   2.039   2.793  16.036  1.3055  1.6315 -1.8935
  637TMC3    C7 9491   1.897   2.913  15.829  0.0094  0.2543 -0.5045
  637TMC3    C8 9492   2.021   2.987  16.207 -0.0780  0.8695  0.6727
  637TMC3    O1 9493   1.819   2.907  15.731 -0.4919 -0.0702  0.6569
  637TMC3    O2 9494   2.112   3.003  16.127  0.4180 -0.1775  0.9490
  638MPD2     C 9495   1.243   2.443  15.148  0.7767  0.4571  0.0716
  638MPD2    C1 9496   1.201   2.350  15.063  0.0366 -0.1237  0.3764
  638MPD2    C2 9497   1.146   2.237  15.122  0.2986 -0.0113  0.2759
  638MPD2    C3 9498   1.135   2.218  15.256 -0.3026 -0.3006  0.7163
  638MPD2    C4 9499   1.181   2.319  15.339 -0.4678  0.0462 -0.0812
  638MPD2    C5 9500   1.243   2.425  15.284  0.6444 -0.2532  0.0302
  638MPD2     H 9501   1.124   2.151  15.059  0.7042 -0.8913  1.3244
  638MPD2    H1 9502   1.171   2.305  15.446 -2.0648 -1.4293 -0.4164
  638MPD2    H2 9503   1.289   2.534  15.111 -2.2380  1.9314 -0.0219
  638MPD2    H3 9504   1.294   2.499  15.345 -0.5889 -1.6722  2.7810
  638MPD2     N 9505   1.098   2.090  15.300  0.0611 -0.0300  0.0728
  638MPD2    H5 9506   1.072   2.025  15.227  1.3673 -1.1574  0.6367
  638MPD2    N1 9507   1.238   2.362  14.928 -0.2829  0.0583 -0.2875
  638MPD2    H7 9508   1.293   2.444  14.903 -0.6430  1.2241  2.7407
  639TMC3    C1 9509   1.056   1.916  15.447 -0.7285 -0.4427 -0.4882
  639TMC3    C2 9510   0.950   1.867  15.363 -0.6913  0.5928  0.2998
  639TMC3    C3 9511   0.913   1.736  15.381  0.0785  0.3157  0.9098
  639TMC3    C4 9512   1.118   1.836  15.539 -0.4514  0.6208 -0.0987
  639TMC3    C5 9513   1.075   1.710  15.543 -0.3695 -0.1462  0.6438
  639TMC3    C6 9514   0.968   1.659  15.474  0.2135  0.3497  0.4462
  639TMC3     C 9515   1.101   2.051  15.432  0.4452  0.0438  0.4496
  639TMC3     O 9516   1.152   2.101  15.533  0.2521  0.5258 -0.6379
  639TMC3     H 9517   0.905   1.930  15.287 -0.3000  1.0822  0.4768
  639TMC3    H1 9518   1.182   1.864  15.621 -2.0267 -0.3101  1.4361
  639TMC3    H2 9519   0.943   1.554  15.479 -2.4915  0.9334 -0.3856
  639TMC3    C7 9520   1.162   1.609  15.608 -0.1510  0.4063 -0.0476
  639TMC3    C8 9521   0.845   1.671  15.271 -0.1230  0.4050 -0.3544
  639TMC3    O1 9522   1.117   1.499  15.649  0.1533  0.3784  0.0720
  639TMC3    O2 9523   0.887   1.694  15.156  0.3578  0.0114  0.4709
  640MPD2     C 9524   1.804   2.141   9.777  0.6625 -0.7580 -0.2514
  640MPD2    C1 9525   1.761   2.008   9.802  0.0356 -0.0755  0.1210
  640MPD2    C2 9526   1.651   1.983   9.881 -0.1664  0.2788  0.4768
  640MPD2    C3 9527   1.596   2.088   9.955 -0.0600  0.5138 -0.5097
  640MPD2    C4 9528   1.640   2.220   9.938 -0.4162  0.5860  0.9822
  640MPD2    C5 9529   1.739   2.240   9.846  0.7570  0.2955  0.7073
  640MPD2     H 9530   1.622   1.880   9.903  0.1424  0.0724 -0.0856
  640MPD2    H1 9531   1.586   2.301   9.987  0.5445  2.7433 -1.5539
  640MPD2    H2 9532   1.895   2.149   9.718  0.5383 -0.5717 -0.4189
  640MPD2    H3 9533   1.782   2.339   9.855 -0.3470  0.8716 -0.2828
  640MPD2     N 9534   1.481   2.068  10.044 -0.0527  0.3430  0.0004
  640MPD2    H5 9535   1.458   2.144  10.108 -1.4483 -1.4805  1.6264
  640MPD2    N1 9536   1.823   1.895   9.745  0.0743  0.0247 -0.2687
  640MPD2    H7 9537   1.881   1.913   9.664  1.6273 -1.2800  0.5385
  641TMC3    C1 9538   1.896   1.676   9.720  0.1705  0.3982  0.3188
  641TMC3    C2 9539   1.884   1.544   9.751 -0.1893 -0.1703  0.1737
  641TMC3    C3 9540   1.940   1.452   9.661  0.0190  0.7744 -0.2090
  641TMC3    C4 9541   1.980   1.718   9.619  0.1946  0.4434 -0.8083
  641TMC3    C5 9542   2.038   1.627   9.539 -0.1238 -0.2859  0.2925
  641TMC3    C6 9543   2.014   1.493   9.554  0.1859  0.3381 -0.9186
  641TMC3     C 9544   1.817   1.767   9.797  0.1965  0.4011  0.1745
  641TMC3     O 9545   1.801   1.730   9.913  0.2761  0.8303  0.1566
  641TMC3     H 9546   1.812   1.512   9.826 -1.2943  0.7021 -0.5036
  641TMC3    H1 9547   1.988   1.825   9.606 -0.1601  0.7763  1.7599
  641TMC3    H2 9548   2.061   1.412   9.499 -1.3489 -0.0202 -1.6973
  641TMC3    C7 9549   2.104   1.663   9.420 -0.1602  0.4371  0.0178
  641TMC3    C8 9550   1.922   1.312   9.692  0.3162 -0.4854  0.0558
  641TMC3    O1 9551   2.160   1.574   9.362 -0.1555  0.0787 -0.0325
  641TMC3    O2 9552   1.948   1.237   9.599  0.0707 -0.0684 -0.2033
  642TMC3    C1 9553   2.762   2.424  12.203 -0.3371  0.7533  0.1921
  642TMC3    C2 9554   2.821   2.489  12.303  0.2050 -0.0528 -0.4855
  642TMC3    C3 9555   2.878   2.405  12.398  0.0798 -0.6646  0.0143
  642TMC3    C4 9556   2.759   2.289  12.199 -0.1750 -0.8443 -0.5319
  642TMC3    C5 9557   2.786   2.216  12.313 -0.8580 -0.9073 -0.1730
  642TMC3    C6 9558   2.858   2.274  12.414  0.8228  1.0509 -0.0563
  642TMC3     C 9559   2.632   2.480  12.148  1.0510  0.1640 -0.0431
  642TMC3     O 9560   2.599   2.459  12.032  0.4127  0.2695 -0.1565
  642TMC3     H 9561   2.805   2.597  12.302 -2.3743 -0.4227  1.7112
  642TMC3    H1 9562   2.691   2.245  12.128  0.0725 -0.3107 -1.1010
  642TMC3    H2 9563   2.913   2.220  12.490  0.9409  1.2021 -0.0342
  642TMC3    C7 9564   2.718   2.095  12.330  0.0511  0.5946 -0.9127
  642TMC3    C8 9565   2.942   2.464  12.511 -0.5920 -0.4127 -0.2311
  642TMC3    O1 9566   2.698   2.040  12.226 -0.0043 -0.0401  0.7054
  642TMC3    O2 9567   2.973   2.396  12.609 -0.9885  0.3928 -0.1765
  643TMC3    C1 9568   2.186   1.250   0.211 -0.1519 -0.2234  0.0283
  643TMC3    C2 9569   2.067   1.288   0.162 -0.5395  0.4481 -0.1680
  643TMC3    C3 9570   1.976   1.194   0.120 -0.1049  0.3152 -0.5268
  643TMC3    C4 9571   2.227   1.125   0.191  0.3344  0.2603  0.2681
  643TMC3    C5 9572   2.143   1.029   0.128  0.0263  0.0088 -0.5551
  643TMC3    C6 9573   2.007   1.062   0.112  0.2856 -0.0237 -0.4836
  643TMC3     C 9574   2.260   1.334   0.301 -0.2357 -0.0208  0.7327
  643TMC3     O 9575   2.232   1.452   0.293 -0.1921  0.4510  0.0377
  643TMC3     H 9576   2.040   1.391   0.180 -0.9288  0.3397 -0.1255
  643TMC3    H1 9577   2.332   1.100   0.197 -0.1629 -1.5667  1.3216
  643TMC3    H2 9578   1.937   0.985   0.079 -0.1392 -0.5103  1.5141
  643TMC3    C7 9579   2.220   0.991   0.006 -0.4441  0.0293 -0.2690
  643TMC3    C8 9580   1.892   1.240   0.008  0.3528 -0.6157 -0.8130
  643TMC3    O1 9581   2.333   1.033  17.753 -0.3390 -0.3195 -0.0450
  643TMC3    O2 9582   1.800   1.172  17.724 -0.1577  0.0113 -0.2558
  644MPD2     C 9583   3.355   2.117  10.277 -0.1047  0.5616 -0.5615
  644MPD2    C1 9584   3.269   2.115  10.169 -0.1630  0.2019 -0.0177
  644MPD2    C2 9585   3.200   2.229  10.126  0.4029 -0.1882 -0.4370
  644MPD2    C3 9586   3.214   2.352  10.191 -0.0909 -0.3717 -0.6780
  644MPD2    C4 9587   3.299   2.350  10.298  0.0436  0.0044  0.2117
  644MPD2    C5 9588   3.375   2.240  10.336 -0.1082 -0.0500  0.0698
  644MPD2     H 9589   3.134   2.224  10.041  1.3109  2.1439 -1.2559
  644MPD2    H1 9590   3.314   2.440  10.356 -2.3027  0.5344  0.0038
  644MPD2    H2 9591   3.409   2.031  10.316  1.6649  1.5515 -0.8213
  644MPD2    H3 9592   3.431   2.245  10.429 -0.1605  1.6139  0.0141
  644MPD2     N 9593   3.134   2.457  10.149 -0.3120  0.6819  1.0232
  644MPD2    H5 9594   3.061   2.445  10.079 -1.2395  1.2414  1.8767
  644MPD2    N1 9595   3.259   1.985  10.104 -0.2119 -0.1024  0.0248
  644MPD2    H7 9596   3.297   1.908  10.158  2.1922  0.9223 -0.1951
  645TMC3    C1 9597   3.038   2.675  10.180 -0.7313  0.0787  0.5966
  645TMC3    C2 9598   2.919   2.632  10.117  0.2284 -1.1378 -0.1270
  645TMC3    C3 9599   2.837   2.728  10.059  0.1734 -0.0047  0.2213
  645TMC3    C4 9600   3.047   2.808  10.210 -0.1587  0.4787 -0.1100
  645TMC3    C5 9601   2.953   2.896  10.159  0.3719 -0.4876 -0.0635
  645TMC3    C6 9602   2.840   2.859  10.084 -0.8100  0.1106  0.4291
  645TMC3     C 9603   3.149   2.586  10.204 -0.5314  0.5456 -0.8656
  645TMC3     O 9604   3.239   2.635  10.276  0.2038 -0.3089 -0.2902
  645TMC3     H 9605   2.894   2.528  10.100  1.2174 -1.6086  1.3210
  645TMC3    H1 9606   3.137   2.847  10.257  0.1400  1.5210 -1.5493
  645TMC3    H2 9607   2.767   2.929  10.045 -0.3413 -0.4377 -1.4233
  645TMC3    C7 9608   2.984   3.041  10.190 -0.2393  0.1301 -0.8246
  645TMC3    C8 9609   2.733   2.686   9.979 -0.2601  0.3764 -0.4712
  645TMC3    O1 9610   3.084   3.064  10.258  1.0399  0.3058 -0.1999
  645TMC3    O2 9611   2.636   2.762   9.971  0.8806 -0.2144  0.4128
  646MPD2     C 9612   1.192   0.994  14.574  0.2738  0.1599 -0.5110
  646MPD2    C1 9613   1.108   1.007  14.684  0.5640 -0.1488  0.1616
  646MPD2    C2 9614   0.992   1.073  14.677 -0.2201 -0.4533 -0.1113
  646MPD2    C3 9615   0.943   1.118  14.553 -0.5786 -1.1993 -0.0766
  646MPD2    C4 9616   1.030   1.119  14.447  0.2824  0.2032  0.1440
  646MPD2    C5 9617   1.152   1.050  14.455 -0.0537  0.2238  0.2561
  646MPD2     H 9618   0.929   1.087  14.764  1.3063 -1.4747  1.1522
  646MPD2    H1 9619   1.013   1.167  14.351  0.6830 -0.2918 -0.1741
  646MPD2    H2 9620   1.289   0.946  14.574 -0.4421 -1.2881  0.4068
  646MPD2    H3 9621   1.223   1.055  14.374 -0.7021 -1.7482 -0.4354
  646MPD2     N 9622   0.822   1.190  14.558  0.5183  0.2892 -0.0381
  646MPD2    H5 9623   0.765   1.179  14.641  0.8590 -0.7629  0.0598
  646MPD2    N1 9624   1.153   0.950  14.803  0.6086 -0.2128 -0.3167
  646MPD2    H7 9625   1.246   0.910  14.792  0.6903 -0.3103  0.7438
  647TMC3    C1 9626   1.188   0.894  15.023 -0.5483 -0.5142  0.4069
  647TMC3    C2 9627   1.134   0.855  15.146  0.4649 -0.3312  0.0520
  647TMC3    C3 9628   1.212   0.787  15.241 -0.1232  0.8102 -0.0306
  647TMC3    C4 9629   1.318   0.870  14.995  0.3851  0.2901  0.4984
  647TMC3    C5 9630   1.394   0.823  15.099  0.1198 -0.1569 -0.0593
  647TMC3    C6 9631   1.347   0.777  15.221 -0.7240 -0.5601  0.2907
  647TMC3     C 9632   1.091   0.950  14.929 -1.1414 -0.1098 -0.4192
  647TMC3     O 9633   0.975   0.981  14.958  0.2613  0.5738  0.1960
  647TMC3     H 9634   1.027   0.866  15.159  0.5282  0.9293 -0.5022
  647TMC3    H1 9635   1.351   0.894  14.894 -0.9482 -0.8691 -0.2192
  647TMC3    H2 9636   1.426   0.758  15.293  0.0313  0.0477 -0.3667
  647TMC3    C7 9637   1.538   0.808  15.077  0.1529  0.5225  0.1616
  647TMC3    C8 9638   1.153   0.761  15.370 -0.0123 -0.3681  0.8093
  647TMC3    O1 9639   1.600   0.721  15.144 -0.0337  0.6152 -0.0973
  647TMC3    O2 9640   1.043   0.806  15.393 -0.5374  0.2599 -0.0978
  648TMC3    C1 9641   0.448   2.979  16.236  0.2247  0.1203 -1.0634
  648TMC3    C2 9642   0.437   2.851  16.187 -0.0172  0.0428 -0.6575
  648TMC3    C3 9643   0.359   2.847  16.080 -0.7669  0.2060  0.2200
  648TMC3    C4 9644   0.370   3.085  16.197  0.9649 -0.2540  0.4618
  648TMC3    C5 9645   0.288   3.072  16.088 -0.4993 -1.3223  0.3855
  648TMC3    C6 9646   0.280   2.948  16.030  0.3411  0.4154  0.4063
  648TMC3     C 9647   0.532   3.009  16.354 -0.0141  0.4957 -0.0255
  648TMC3     O 9648   0.588   3.116  16.358 -0.3958  0.2144  0.5820
  648TMC3     H 9649   0.501   2.767  16.214  1.8503  2.0053  0.9952
  648TMC3    H1 9650   0.392   3.181  16.242  0.2961 -0.3196  0.9276
  648TMC3    H2 9651   0.212   2.935  15.946 -0.2152  0.0317  0.9185
  648TMC3    C7 9652   0.220   3.187  16.028  0.3848 -0.6487 -0.3357
  648TMC3    C8 9653   0.386   2.730  15.995  0.1841  0.1465 -0.4361
  648TMC3    O1 9654   0.190   3.187  15.910 -0.2266  0.0543 -0.1514
  648TMC3    O2 9655   0.285   2.682  15.951  0.1475 -0.4439 -0.1440
  649TMC3    C1 9656   3.987   4.270  13.050  0.0144 -0.1217  0.0131
  649TMC3    C2 9657   4.093   4.339  13.104 -0.6036  0.0433 -0.8312
  649TMC3    C3 9658   4.152   4.304  13.224 -1.0224 -0.1410 -0.0334
  649TMC3    C4 9659   3.930   4.169  13.118  0.3421 -0.7298 -0.0513
  649TMC3    C5 9660   3.989   4.141  13.236 -0.8519 -0.0301 -0.5200
  649TMC3    C6 9661   4.097   4.197  13.288  1.2116 -1.4031  0.2478
  649TMC3     C 9662   3.897   4.343  12.962 -0.4091 -0.3816 -0.3134
  649TMC3     O 9663   3.913   4.460  12.960 -0.8156  0.5139  0.3039
  649TMC3     H 9664   4.123   4.428  13.049 -1.1630  1.1894  0.7226
  649TMC3    H1 9665   3.849   4.109  13.080 -1.1660  1.0817  0.3169
  649TMC3    H2 9666   4.121   4.169  13.390  2.2146  0.7645  0.6198
  649TMC3    C7 9667   3.887   4.118  13.341 -0.5614  0.6811  0.5385
  649TMC3    C8 9668   4.236   4.402  13.291  0.6467 -0.1959 -0.6105
  649TMC3    O1 9669   3.907   4.169  13.448  0.3250 -0.4034 -0.0379
  649TMC3    O2 9670   4.247   4.516  13.251 -0.0163 -0.6149  0.6312
  650TMC3    C1 9671   2.242   1.521  12.913  0.0965 -0.4494 -0.2302
  650TMC3    C2 9672   2.240   1.647  12.962 -1.0983 -0.3024  0.2111
  650TMC3    C3 9673   2.214   1.751  12.884 -1.0817  0.1389 -0.3613
  650TMC3    C4 9674   2.196   1.495  12.787  0.7382  0.4215 -0.3568
  650TMC3    C5 9675   2.170   1.606  12.712  0.1748 -0.2982 -0.3843
  650TMC3    C6 9676   2.172   1.736  12.754  0.2326 -0.3391 -0.2198
  650TMC3     C 9677   2.281   1.403  12.997 -0.6853  0.4664 -0.9730
  650TMC3     O 9678   2.273   1.420  13.120  0.1935 -0.4825  0.7061
  650TMC3     H 9679   2.265   1.653  13.068  0.1484  0.5614 -0.1393
  650TMC3    H1 9680   2.198   1.396  12.742  0.4888  1.6167 -2.9830
  650TMC3    H2 9681   2.154   1.822  12.690 -2.5490 -0.3016  0.6433
  650TMC3    C7 9682   2.132   1.584  12.572 -0.8621 -0.0630  0.3002
  650TMC3    C8 9683   2.188   1.883  12.934  0.2601 -0.4537  0.0992
  650TMC3    O1 9684   2.114   1.463  12.544  0.7380  0.2120  0.3645
  650TMC3    O2 9685   2.091   1.948  12.899  0.0527  0.2481  0.4876
  651MPD2     C 9686   1.195   4.088  11.641  0.4792 -0.4645 -0.1107
  651MPD2    C1 9687   1.116   4.101  11.524 -0.2185  0.3244 -0.3847
  651MPD2    C2 9688   1.189   4.131  11.413  0.2742 -0.5800  0.3533
  651MPD2    C3 9689   1.323   4.162  11.409 -0.3583 -0.4634  0.4058
  651MPD2    C4 9690   1.394   4.155  11.529  0.5817  0.4265  0.0055
  651MPD2    C5 9691   1.329   4.121  11.643  0.1900 -0.5271 -0.0675
  651MPD2     H 9692   1.141   4.125  11.316  1.5266  0.4306 -0.3277
  651MPD2    H1 9693   1.502   4.146  11.535  0.4630 -0.4858  0.7532
  651MPD2    H2 9694   1.151   4.050  11.732 -2.1358  1.7679 -0.4225
  651MPD2    H3 9695   1.388   4.098  11.731 -0.7920  2.2196  1.2833
  651MPD2     N 9696   1.384   4.198  11.287  0.1684  0.2362 -0.5467
  651MPD2    H5 9697   1.326   4.193  11.203 -0.6632 -0.8520  0.0961
  651MPD2    N1 9698   0.981   4.077  11.515 -1.0539  0.5515 -0.2882
  651MPD2    H7 9699   0.929   4.107  11.433 -0.0665 -2.4524 -2.0250
  652TMC3    C1 9700   1.727   4.216  10.965  0.6733  0.0290  0.3044
  652TMC3    C2 9701   1.680   4.181  11.088  0.6038  0.0538  0.2364
  652TMC3    C3 9702   1.565   4.233  11.133  0.0404 -0.4035  0.4916
  652TMC3    C4 9703   1.663   4.299  10.882 -0.0394  0.5759  0.4251
  652TMC3    C5 9704   1.544   4.353  10.935 -0.6063 -0.4445 -0.1548
  652TMC3    C6 9705   1.496   4.328  11.059  0.4160 -0.0575 -0.2367
  652TMC3     C 9706   1.850   4.139  10.932  0.0162 -0.1739  0.7467
  652TMC3     O 9707   1.885   4.056  11.012 -0.1132 -0.1711 -0.6017
  652TMC3     H 9708   1.735   4.118  11.156  0.7609  1.5914  1.5338
  652TMC3    H1 9709   1.684   4.287  10.776 -2.4706 -1.3209  0.1468
  652TMC3    H2 9710   1.427   4.391  11.114  0.1757 -0.4491 -0.0900
  652TMC3    C7 9711   1.495   4.475  10.881 -0.1064  0.0797  0.6855
  652TMC3    C8 9712   1.520   4.202  11.269 -0.3739 -0.4984  0.3174
  652TMC3    O1 9713   1.399   4.532  10.931  0.2931  0.1230 -0.5684
  652TMC3    O2 9714   1.604   4.151  11.340 -0.0622 -0.1944  0.2528
  653MPD2     C 9715   4.678   3.242   0.258 -0.2013 -0.4597  0.2325
  653MPD2    C1 9716   4.600   3.311   0.172  0.5492  0.5016  0.9707
  653MPD2    C2 9717   4.540   3.242   0.070  0.3527 -0.1314  0.5052
  653MPD2    C3 9718   4.547   3.105   0.052 -0.5099 -0.3624  0.2507
  653MPD2    C4 9719   4.628   3.037   0.135  0.2114 -0.1943  0.7017
  653MPD2    C5 9720   4.692   3.109   0.235 -0.2865 -0.0422 -0.3632
  653MPD2     H 9721   4.479   3.298  17.760  1.5126  0.5224  0.0291
  653MPD2    H1 9722   4.632   2.929   0.139  2.0282 -0.1117  1.0870
  653MPD2    H2 9723   4.727   3.282   0.346 -1.4640 -0.0871  0.7558
  653MPD2    H3 9724   0.002   3.053   0.313  2.1453  0.0945 -1.8628
  653MPD2     N 9725   4.474   3.037  17.710 -0.4996 -0.4849  0.2826
  653MPD2    H5 9726   4.428   3.095  17.640 -0.6553  0.8478  1.5020
  653MPD2    N1 9727   4.584   3.453   0.165 -0.1072  0.0441 -0.1733
  653MPD2    H7 9728   4.518   3.494   0.100 -2.3574 -1.0911  1.4082
  654TMC3    C1 9729   4.398   2.869  17.551 -0.1049  0.1168 -0.0667
  654TMC3    C2 9730   4.305   2.955  17.499 -0.3591  0.0704 -0.2282
  654TMC3    C3 9731   4.217   2.908  17.402  0.6631 -0.0505  0.0680
  654TMC3    C4 9732   4.411   2.741  17.505  0.4759 -0.6690 -0.1698
  654TMC3    C5 9733   4.316   2.698  17.410 -0.3099 -0.8466  0.2199
  654TMC3    C6 9734   4.223   2.780  17.356 -0.1810  1.4101  0.4393
  654TMC3     C 9735   4.469   2.902  17.680 -0.3192  0.2904 -0.4768
  654TMC3     O 9736   4.517   2.810  17.747 -0.2829 -0.0292  0.9185
  654TMC3     H 9737   4.286   3.053  17.541 -1.3687  0.5923 -1.8714
  654TMC3    H1 9738   4.475   2.660  17.540 -0.4337 -0.6531  1.5479
  654TMC3    H2 9739   4.143   2.735  17.298  3.5659 -4.6990  0.0016
  654TMC3    C7 9740   4.347   2.594  17.327 -0.5464 -0.2872 -0.9134
  654TMC3    C8 9741   4.118   2.999  17.340  0.2854  0.5090 -0.0296
  654TMC3    O1 9742   4.323   2.614  17.208 -0.1840  0.2805 -0.1115
  654TMC3    O2 9743   4.093   3.103  17.397 -0.1565  0.0033 -0.6341
  655MPD2     C 9744   1.051   3.314  15.799 -0.3417  0.7553  0.3551
  655MPD2    C1 9745   0.960   3.409  15.758  0.2319  0.4156  0.0711
  655MPD2    C2 9746   0.925   3.423  15.627  0.3354  0.0927 -0.5463
  655MPD2    C3 9747   0.983   3.353  15.532  1.0305  0.3932 -0.4474
  655MPD2    C4 9748   1.081   3.264  15.566 -0.0842 -0.0644 -0.3062
  655MPD2    C5 9749   1.109   3.245  15.700 -0.3986  0.3202  0.3204
  655MPD2     H 9750   0.860   3.508  15.615  0.7298  0.6556  1.2362
  655MPD2    H1 9751   1.130   3.199  15.495 -0.8712 -1.7662  0.7098
  655MPD2    H2 9752   1.079   3.294  15.902  1.2780  0.2231 -0.2048
  655MPD2    H3 9753   1.189   3.180  15.735  0.1387  0.7989 -0.0255
  655MPD2     N 9754   0.951   3.386  15.399  0.0800 -0.0952  0.3211
  655MPD2    H5 9755   0.869   3.444  15.381 -1.3131 -1.7606  1.2987
  655MPD2    N1 9756   0.887   3.488  15.855  0.4813 -0.3334 -0.6180
  655MPD2    H7 9757   0.820   3.548  15.808  0.0441 -0.7180 -0.4854
  656TMC3    C1 9758   0.831   3.586  16.066  0.3954  0.1589 -0.3141
  656TMC3    C2 9759   0.750   3.539  16.168 -0.1205  0.8594  0.3059
  656TMC3    C3 9760   0.639   3.602  16.202  0.2856 -0.7504 -0.1116
  656TMC3    C4 9761   0.797   3.701  15.990 -0.4476  0.0185 -0.1922
  656TMC3    C5 9762   0.685   3.766  16.041  0.0146  0.0166 -0.5385
  656TMC3    C6 9763   0.606   3.721  16.143 -0.5533  0.0599  0.1641
  656TMC3     C 9764   0.900   3.485  15.997  0.3248  0.3961 -0.9776
  656TMC3     O 9765   0.959   3.408  16.069  0.4438  0.0663 -0.6032
  656TMC3     H 9766   0.769   3.446  16.220  0.9612  0.5667 -0.6117
  656TMC3    H1 9767   0.859   3.737  15.909 -1.0610 -1.9213 -1.5020
  656TMC3    H2 9768   0.522   3.775  16.186 -0.1521  2.9650 -2.7498
  656TMC3    C7 9769   0.632   3.858  15.944 -0.1315 -0.1613 -0.1889
  656TMC3    C8 9770   0.541   3.548  16.301  0.1168  0.1375 -0.1075
  656TMC3    O1 9771   0.686   3.863  15.836  0.2752 -0.2817  0.3411
  656TMC3    O2 9772   0.547   3.428  16.325 -0.5730 -0.3983 -0.4946
  657TMC3    C1 9773   4.588   2.714  15.086  0.0005  0.5101  0.1138
  657TMC3    C2 9774   4.668   2.780  15.170  0.4835 -0.2025 -0.1957
  657TMC3    C3 9775   4.614   2.894  15.227  0.5132  0.2189  0.1779
  657TMC3    C4 9776   4.457   2.744  15.070  0.3990  0.2649  0.4426
  657TMC3    C5 9777   4.409   2.850  15.138 -0.6107  0.2817 -0.2748
  657TMC3    C6 9778   4.486   2.925  15.221 -0.2791  0.6421 -0.9975
  657TMC3     C 9779   4.627   2.580  15.048 -0.1248 -0.0097 -0.2065
  657TMC3     O 9780   4.543   2.508  15.001  0.2446  0.2166  0.2353
  657TMC3     H 9781   0.033   2.768  15.153  0.5953  0.3668  0.1023
  657TMC3    H1 9782   4.388   2.677  15.019  1.5998 -1.8267  1.5350
  657TMC3    H2 9783   4.435   2.995  15.286 -0.0068 -1.5382  1.6030
  657TMC3    C7 9784   4.266   2.848  15.166  0.1597 -0.0663 -0.1374
  657TMC3    C8 9785   4.681   2.943  15.344  1.1934 -1.2289  0.4561
  657TMC3    O1 9786   4.217   2.739  15.202  0.2965  0.1646 -0.2545
  657TMC3    O2 9787   4.632   3.039  15.399 -0.0984 -0.3765  0.4763
  658MPD2     C 9788   1.419   3.414  14.864 -0.4605  0.7061  0.0351
  658MPD2    C1 9789   1.308   3.451  14.789  0.8769 -0.0895  0.9239
  658MPD2    C2 9790   1.317   3.495  14.657 -0.7225  0.5495 -0.5363
  658MPD2    C3 9791   1.441   3.501  14.600 -0.2854 -0.2538  0.5676
  658MPD2    C4 9792   1.553   3.475  14.677  0.5247  0.3281 -0.0263
  658MPD2    C5 9793   1.541   3.425  14.807  0.1343  0.1446 -0.5624
  658MPD2     H 9794   1.225   3.516  14.604 -0.3330 -1.7885 -2.1657
  658MPD2    H1 9795   1.653   3.470  14.636  1.3716 -0.8461  2.1887
  658MPD2    H2 9796   1.416   3.396  14.971 -1.7654  1.1138  0.0697
  658MPD2    H3 9797   1.620   3.386  14.870  0.6284 -0.7603 -1.7446
  658MPD2     N 9798   1.445   3.534  14.463 -0.1048 -0.0559 -0.9666
  658MPD2    H5 9799   1.355   3.557  14.422 -0.6682  0.8169  0.7386
  658MPD2    N1 9800   1.191   3.450  14.865 -0.4815 -1.2103  0.1227
  658MPD2    H7 9801   1.203   3.405  14.956 -3.0746  0.4157  1.2909
  659TMC3    C1 9802   0.982   3.482  14.956 -0.7072  0.6495  0.1075
  659TMC3    C2 9803   1.044   3.457  15.073 -0.4861 -0.7138 -0.0905
  659TMC3    C3 9804   0.961   3.412  15.172  0.3960 -0.0435  0.2615
  659TMC3    C4 9805   0.853   3.453  14.924  0.6115  0.0974  0.0053
  659TMC3    C5 9806   0.782   3.395  15.025 -0.1996  0.3501 -0.2608
  659TMC3    C6 9807   0.830   3.376  15.150  0.2909  0.2926 -0.0250
  659TMC3     C 9808   1.065   3.506  14.834  0.0580  0.6058 -0.2098
  659TMC3     O 9809   1.011   3.542  14.726 -0.0528  0.1761  0.3945
  659TMC3     H 9810   1.149   3.480  15.088 -0.7634 -0.1626  0.9899
  659TMC3    H1 9811   0.805   3.475  14.829 -0.7064  1.5644  1.0224
  659TMC3    H2 9812   0.764   3.322  15.217  0.8003 -0.8180 -0.4107
  659TMC3    C7 9813   0.648   3.332  14.996  0.0492  0.2927 -0.6445
  659TMC3    C8 9814   1.025   3.359  15.288  0.2421 -0.0923  0.2717
  659TMC3    O1 9815   0.580   3.307  15.093 -0.1384  0.2231 -0.1452
  659TMC3    O2 9816   1.127   3.301  15.270 -0.2256  0.5172 -0.1979
  660MPD2     C 9817   3.982   2.105  12.787  0.2711  0.2484  0.3730
  660MPD2    C1 9818   3.856   2.164  12.793  0.6216  0.2813  0.2518
  660MPD2    C2 9819   3.765   2.110  12.881 -1.3748  0.2241 -0.7284
  660MPD2    C3 9820   3.802   2.000  12.964 -0.4114 -0.4793 -0.1929
  660MPD2    C4 9821   3.917   1.935  12.930 -0.2352 -0.5649  0.1112
  660MPD2    C5 9822   4.012   1.989  12.849 -0.1055 -0.1962  0.2799
  660MPD2     H 9823   3.667   2.155  12.888 -2.1775 -1.5135 -0.8753
  660MPD2    H1 9824   3.956   1.850  12.985  1.3690 -0.1685 -0.4359
  660MPD2    H2 9825   4.058   2.146  12.721  0.5104 -1.7841 -0.6302
  660MPD2    H3 9826   4.105   1.936  12.833 -0.4116 -0.5218 -0.4099
  660MPD2     N 9827   3.713   1.947  13.060 -0.0996 -0.1131 -0.0465
  660MPD2    H5 9828   3.752   1.869  13.113  2.5198  1.1957 -0.0281
  660MPD2    N1 9829   3.843   2.282  12.710 -0.4288  0.0591 -0.0989
  660MPD2    H7 9830   3.922   2.307  12.653  1.5814 -0.6125  2.3872
  661TMC3    C1 9831   3.727   2.460  12.590  0.2841 -0.2216  0.1726
  661TMC3    C2 9832   3.837   2.467  12.505 -0.2592  0.0144  0.5081
  661TMC3    C3 9833   3.827   2.524  12.385  0.0137 -0.1570  0.0458
  661TMC3    C4 9834   3.613   2.528  12.560  0.4450 -0.0463 -0.1668
  661TMC3    C5 9835   3.605   2.585  12.435 -0.0457  0.3778 -0.2912
  661TMC3    C6 9836   3.707   2.578  12.346  0.7876  0.3191 -0.2718
  661TMC3     C 9837   3.726   2.359  12.697  0.9536 -0.3170  0.8631
  661TMC3     O 9838   3.619   2.340  12.759  0.1751  0.2092 -0.4496
  661TMC3     H 9839   3.932   2.429  12.541  0.8641  0.3176 -2.1325
  661TMC3    H1 9840   3.526   2.504  12.620  1.0172  2.0142  1.4496
  661TMC3    H2 9841   3.708   2.640  12.257  0.4430  1.0570  0.2392
  661TMC3    C7 9842   3.476   2.629  12.384  0.0961  0.0186  0.1830
  661TMC3    C8 9843   3.947   2.542  12.302  0.4855 -0.2031  0.2847
  661TMC3    O1 9844   3.416   2.701  12.464  0.1583 -0.2922 -0.2007
  661TMC3    O2 9845   4.040   2.460  12.316  0.0994  0.7248  0.5208
  662MPD2     C 9846   4.504   1.722   0.343 -0.0321 -0.3715  0.0517
  662MPD2    C1 9847   4.447   1.666   0.230 -0.0074 -0.0658 -0.0423
  662MPD2    C2 9848   4.398   1.757   0.141  0.0408  0.6221 -0.2871
  662MPD2    C3 9849   4.387   1.893   0.161 -0.1473 -0.4078 -1.2563
  662MPD2    C4 9850   4.442   1.941   0.275  0.5742  0.2779 -0.2110
  662MPD2    C5 9851   4.505   1.854   0.359  0.4293 -0.1061 -0.5870
  662MPD2     H 9852   4.365   1.717   0.046  0.1644  1.0044 -0.4892
  662MPD2    H1 9853   4.444   2.047   0.297  3.3681  0.4282 -1.2531
  662MPD2    H2 9854   4.554   1.662   0.419 -0.2898  0.5845  0.9832
  662MPD2    H3 9855   4.558   1.903   0.440  1.1050  1.7281 -2.1175
  662MPD2     N 9856   4.318   1.975   0.068  1.2897  0.3630  0.3180
  662MPD2    H5 9857   4.313   2.076   0.079 -1.1340  0.6164 -3.3635
  662MPD2    N1 9858   4.438   1.532   0.198  0.2805  0.4775  0.2062
  662MPD2    H7 9859   4.386   1.506   0.115 -1.0856 -1.4604  1.6549
  663TMC3    C1 9860   4.470   1.302   0.199 -0.3773 -0.2460 -0.1184
  663TMC3    C2 9861   4.406   1.301   0.078 -0.5728  0.4627  0.1482
  663TMC3    C3 9862   4.383   1.180   0.020 -0.3745  0.0486  0.2921
  663TMC3    C4 9863   4.477   1.191   0.273  0.1015  0.3672  0.0638
  663TMC3    C5 9864   4.437   1.072   0.217 -0.9302  0.5929 -0.0196
  663TMC3    C6 9865   4.376   1.066   0.102  0.1369  0.3330 -0.2861
  663TMC3     C 9866   4.499   1.429   0.268 -0.1551  0.7439 -0.5245
  663TMC3     O 9867   4.565   1.419   0.371 -0.1817 -0.6719 -0.3215
  663TMC3     H 9868   4.420   1.383   0.009 -1.1534  0.8768  0.5242
  663TMC3    H1 9869   4.503   1.196   0.378 -1.2490 -0.4671  0.4391
  663TMC3    H2 9870   4.358   0.971   0.053  1.4320 -0.1126  0.0998
  663TMC3    C7 9871   4.421   0.961   0.302  0.0222  0.6219 -0.6955
  663TMC3    C8 9872   4.256   1.191  17.706 -0.0650  0.2460 -0.1769
  663TMC3    O1 9873   4.498   0.966   0.397 -0.5623  0.2221 -0.5570
  663TMC3    O2 9874   4.240   1.149  17.593 -0.2178 -0.3882  0.2616
  664MPD2     C 9875   2.116   0.208  17.262  0.0911 -0.1229  0.3801
  664MPD2    C1 9876   2.227   0.221  17.348  0.1842  0.2331 -0.5051
  664MPD2    C2 9877   2.243   0.133  17.450 -0.6793  0.0724  0.0476
  664MPD2    C3 9878   2.162   0.017  17.463 -0.0866  0.0206 -0.6209
  664MPD2    C4 9879   2.055   0.005  17.383 -0.5789 -0.0943 -0.6885
  664MPD2    C5 9880   2.035   0.098  17.283 -0.1239  0.4030  0.6089
  664MPD2     H 9881   2.326   0.147  17.517 -1.0117 -1.7692  0.8481
  664MPD2    H1 9882   1.985   4.664  17.396 -1.8833  1.1823  0.3611
  664MPD2    H2 9883   2.098   0.284  17.187  1.3813 -2.1243 -1.9533
  664MPD2    H3 9884   1.946   0.081  17.223 -0.6912  1.2117  1.2176
  664MPD2     N 9885   2.197   4.670  17.571  0.2270  0.2773  0.0466
  664MPD2    H5 9886   2.281   4.706  17.613  2.0181 -0.9372 -2.4890
  664MPD2    N1 9887   2.313   0.335  17.346  0.0526  0.3437  0.1429
  664MPD2    H7 9888   2.402   0.321  17.393  0.3792 -1.1016 -0.9183
  665TMC3    C1 9889   2.167   4.510  17.749 -0.5165  0.2039 -0.2667
  665TMC3    C2 9890   2.072   4.442   0.071 -0.4698  0.2226 -0.6913
  665TMC3    C3 9891   2.108   4.414   0.193  0.4307  0.1417 -0.2263
  665TMC3    C4 9892   2.277   4.564   0.046  0.1607  0.0444 -0.1657
  665TMC3    C5 9893   2.303   4.542   0.178 -0.2051  0.4202 -0.2677
  665TMC3    C6 9894   2.221   4.467   0.254  0.2682  0.1443 -0.7557
  665TMC3     C 9895   2.125   4.559  17.624  0.5274 -0.7025 -0.3766
  665TMC3     O 9896   2.024   4.518  17.568 -0.1741 -0.6956  0.2980
  665TMC3     H 9897   1.972   4.418   0.038  0.3480 -1.7265 -1.7981
  665TMC3    H1 9898   2.355   4.609  17.748  0.6285 -3.0928 -1.9391
  665TMC3    H2 9899   2.244   4.438   0.356 -2.7387  0.9422  0.1409
  665TMC3    C7 9900   2.436   4.581   0.229  0.0213  0.3228  1.3779
  665TMC3    C8 9901   2.015   4.333   0.269 -0.2224 -0.6249 -0.7338
  665TMC3    O1 9902   2.514   4.611   0.141 -0.5358 -0.5799  0.5442
  665TMC3    O2 9903   1.899   4.326   0.234  0.1200  0.0027  0.6214
  666TMC3    C1 9904   1.077   0.485   9.504 -0.4868  0.4916 -0.1215
  666TMC3    C2 9905   1.177   0.405   9.454  0.5230 -0.9341 -0.9163
  666TMC3    C3 9906   1.290   0.468   9.417  0.7538 -0.4838 -0.3808
  666TMC3    C4 9907   1.091   0.623   9.523 -0.7209  0.4204  0.3369
  666TMC3    C5 9908   1.203   0.682   9.488  0.1116 -0.5250 -0.4286
  666TMC3    C6 9909   1.304   0.603   9.439  0.9980  0.0049  0.3254
  666TMC3     C 9910   0.944   0.436   9.540  0.0813 -0.4251  0.4655
  666TMC3     O 9911   0.854   0.517   9.552 -0.2270  0.0421 -0.4969
  666TMC3     H 9912   1.160   0.299   9.443 -0.9775 -0.7649 -0.2559
  666TMC3    H1 9913   1.013   0.679   9.573 -0.2155  1.0983  0.3673
  666TMC3    H2 9914   1.395   0.654   9.406  1.9835 -1.9665  0.0197
  666TMC3    C7 9915   1.225   0.813   9.540  0.7918 -0.1296  0.0821
  666TMC3    C8 9916   1.394   0.396   9.475  0.3293 -0.0810  0.5149
  666TMC3    O1 9917   1.150   0.862   9.622  0.4213  0.4624 -0.2425
  666TMC3    O2 9918   1.442   0.442   9.581 -0.2703 -0.0770 -0.1220
  667MPD2     C 9919   3.258   0.402  14.503 -0.0867 -0.1216  0.7786
  667MPD2    C1 9920   3.151   0.476  14.549 -0.1555  0.2842  0.1483
  667MPD2    C2 9921   3.022   0.416  14.563 -0.7014  0.4626 -0.1325
  667MPD2    C3 9922   3.009   0.281  14.532  0.8169 -0.2409 -0.1455
  667MPD2    C4 9923   3.118   0.204  14.505 -0.0954  0.6125  0.8449
  667MPD2    C5 9924   3.237   0.269  14.480 -0.2575 -0.7852 -0.4774
  667MPD2     H 9925   2.931   0.467  14.591 -1.1102 -0.4520  0.2086
  667MPD2    H1 9926   3.114   0.097  14.487 -4.7399  0.8502  0.4093
  667MPD2    H2 9927   3.360   0.436  14.521  0.3134 -0.2729 -1.2040
  667MPD2    H3 9928   3.326   0.212  14.458  0.3508 -0.4395  1.0974
  667MPD2     N 9929   2.887   0.202  14.538 -0.0341  0.0369  0.1261
  667MPD2    H5 9930   2.892   0.103  14.516  0.9288 -0.2112  1.4989
  667MPD2    N1 9931   3.188   0.601  14.604  0.1197 -0.2252  0.2914
  667MPD2    H7 9932   3.121   0.641  14.669 -0.6908  1.1337 -1.3544
  668TMC3    C1 9933   3.338   0.773  14.691  0.1814 -0.0932  0.1678
  668TMC3    C2 9934   3.419   0.881  14.656 -0.2362 -0.5136  0.3940
  668TMC3    C3 9935   3.430   0.978  14.742 -0.0696 -0.1391 -1.3977
  668TMC3    C4 9936   3.273   0.771  14.816  0.3513  0.6970 -0.0093
  668TMC3    C5 9937   3.273   0.884  14.894 -0.2040 -0.1201 -0.0281
  668TMC3    C6 9938   3.362   0.989  14.860 -0.4183  0.1293  0.2176
  668TMC3     C 9939   3.318   0.665  14.596  0.1363 -0.0667 -0.2719
  668TMC3     O 9940   3.394   0.665  14.498 -0.4445 -0.3515  0.0521
  668TMC3     H 9941   3.456   0.891  14.554 -0.1968 -1.3062  0.3262
  668TMC3    H1 9942   3.211   0.686  14.841 -0.4154  1.1248 -0.4338
  668TMC3    H2 9943   3.395   1.069  14.926  0.1682 -1.5918  2.0159
  668TMC3    C7 9944   3.247   0.856  15.038  0.4652  0.3351  0.1341
  668TMC3    C8 9945   3.482   1.106  14.696 -0.2360  0.1205 -0.0822
  668TMC3    O1 9946   3.216   0.742  15.067 -0.8831 -0.2182  0.7094
  668TMC3    O2 9947   3.434   1.207  14.755 -0.5848 -0.0465  0.4097
  669TMC3    C1 9948   0.868   4.620  15.129  0.0189 -0.1922 -0.0776
  669TMC3    C2 9949   0.756   4.625  15.055  0.6074 -0.0082 -0.2971
  669TMC3    C3 9950   0.751   4.720  14.960  0.4601  0.4335  0.2013
  669TMC3    C4 9951   0.977   4.699  15.100  0.2651  0.7002  0.0094
  669TMC3    C5 9952   0.972   0.029  14.983  0.0696  0.9375  0.4682
  669TMC3    C6 9953   0.858   0.051  14.919 -0.5316  0.4243  0.5631
  669TMC3     C 9954   0.858   4.549  15.255  0.1917  0.1421  0.5421
  669TMC3     O 9955   0.746   4.513  15.293  0.0751  0.3176 -0.1952
  669TMC3     H 9956   0.669   4.563  15.075 -0.0147  0.9635  0.0282
  669TMC3    H1 9957   1.067   4.685  15.159  0.5355 -0.7530 -0.7472
  669TMC3    H2 9958   0.858   0.105  14.825  1.4909  0.8925  0.8465
  669TMC3    C7 9959   1.095   0.097  14.931  0.3440  0.3816  0.2092
  669TMC3    C8 9960   0.628   4.729  14.876 -0.4946  0.8323  0.5233
  669TMC3    O1 9961   1.077   0.183  14.846  0.0256  0.2395 -0.6815
  669TMC3    O2 9962   0.558   4.635  14.871 -0.3148  0.1882  0.4151
  670MPD2     C 9963   3.793   2.639  13.391 -0.1611 -0.6761  0.4521
  670MPD2    C1 9964   3.778   2.502  13.413  0.5250  0.0419  0.4462
  670MPD2    C2 9965   3.763   2.462  13.546 -0.7094 -0.1955  0.3073
  670MPD2    C3 9966   3.770   2.547  13.650 -0.0314 -0.4254 -0.1634
  670MPD2    C4 9967   3.776   2.684  13.618 -0.1600  0.7020 -0.0585
  670MPD2    C5 9968   3.778   2.732  13.491 -0.1333  0.2877  0.2396
  670MPD2     H 9969   3.754   2.356  13.570 -0.5113  0.2822  2.4473
  670MPD2    H1 9970   3.769   2.768  13.686  0.4723  0.1154  0.7258
  670MPD2    H2 9971   3.806   2.672  13.288 -1.0270 -0.2976  0.4606
  670MPD2    H3 9972   3.786   2.838  13.473 -1.5003  0.1903 -0.9593
  670MPD2     N 9973   3.763   2.493  13.787  0.1605 -0.3340 -0.3141
  670MPD2    H5 9974   3.763   2.392  13.794 -2.1235 -0.2166  1.2896
  670MPD2    N1 9975   3.787   2.403  13.311  0.5575  0.5066  0.0326
  670MPD2    H7 9976   3.773   2.305  13.333  0.6655  0.9653  2.1127
  671TMC3    C1 9977   3.737   2.499  14.014 -0.6430 -0.0236  1.1669
  671TMC3    C2 9978   3.809   2.539  14.123 -0.9448  0.0416  0.3893
  671TMC3    C3 9979   3.804   2.455  14.227  0.3006 -0.2546 -0.2495
  671TMC3    C4 9980   3.656   2.390  14.013 -0.3953  0.3185  0.5214
  671TMC3    C5 9981   3.634   2.326  14.131 -1.0202  0.0886  0.1501
  671TMC3    C6 9982   3.704   2.361  14.242 -0.6254  0.2407 -0.5149
  671TMC3     C 9983   3.741   2.576  13.894 -0.4849 -0.5160  0.6445
  671TMC3     O 9984   3.746   2.696  13.901 -0.0636  0.7094  0.1570
  671TMC3     H 9985   3.894   2.606  14.112 -0.2852 -0.7805  0.5386
  671TMC3    H1 9986   3.595   2.360  13.929  0.4071 -1.0673  0.4262
  671TMC3    H2 9987   3.691   2.314  14.339 -1.2713  1.0609 -0.2035
  671TMC3    C7 9988   3.565   2.206  14.134  0.1159  0.0880  0.5470
  671TMC3    C8 9989   3.896   2.467  14.342 -0.2311  0.3927 -0.2645
  671TMC3    O1 9990   3.466   2.193  14.063  0.2180 -0.0898  0.2614
  671TMC3    O2 9991   3.967   2.568  14.345 -0.1120  0.8932  0.1157
  672MPD2     C 9992   0.008   2.894   1.345 -0.3704 -0.1246  0.0324
  672MPD2    C1 9993   0.101   2.884   1.241  0.0685 -0.1115  0.2334
  672MPD2    C2 9994   0.209   2.976   1.229  0.5896  0.0520 -0.2845
  672MPD2    C3 9995   0.236   3.076   1.323 -1.0189 -0.6963 -0.0711
  672MPD2    C4 9996   0.135   3.089   1.415  0.2044  0.5725 -0.2228
  672MPD2    C5 9997   0.030   3.003   1.421 -0.2866 -0.4590  0.9294
  672MPD2     H 9998   0.272   2.974   1.140  1.9594 -2.8913  0.7449
  672MPD2    H1 9999   0.143   3.168   1.488  0.4951 -0.1350  0.5181
  672MPD2    H210000   4.675   2.819   1.371  0.6517 -1.0787  0.1948
  672MPD2    H310001   4.697   3.019   1.499 -1.8501  4.8104 -1.6106
  672MPD2     N10002   0.344   3.162   1.296 -0.5635 -0.0054 -0.5077
  672MPD2    H510003   0.339   3.256   1.336  3.5248 -0.1778  0.3660
  672MPD2    N110004   0.100   2.778   1.144  0.0584  0.3497  0.2409
  672MPD2    H710005   0.170   2.775   1.071  0.3331  0.9520  0.4797
  673TMC3    C110006   0.001   2.622   1.006  0.6814  0.3421  0.4699
  673TMC3    C210007   0.106   2.539   0.993  0.1244  0.0779  0.2906
  673TMC3    C310008   0.100   2.465   0.873  0.1690  0.0853  0.1134
  673TMC3    C410009   4.626   2.622   0.938  0.2401  0.1681  0.1835
  673TMC3    C510010   4.625   2.543   0.827  0.9070 -0.0442  0.5093
  673TMC3    C610011   4.735   2.470   0.790  0.6564 -0.0646 -0.2910
  673TMC3     C10012   4.731   2.695   1.127  0.2609 -0.2640 -0.3360
  673TMC3     O10013   4.635   2.678   1.198 -0.0210 -0.3739  0.4312
  673TMC3     H10014   0.188   2.520   1.062  0.3658  2.0985  0.5409
  673TMC3    H110015   4.542   2.684   0.968  0.6933  0.8245  0.0928
  673TMC3    H210016   4.735   2.418   0.695 -1.5876 -0.8741  0.1543
  673TMC3    C710017   4.518   2.559   0.733  0.2452 -0.3009  0.1419
  673TMC3    C810018   0.203   2.370   0.842  0.3401 -0.3741  0.4731
  673TMC3    O110019   4.487   2.463   0.663 -0.7119 -0.2215  0.2007
  673TMC3    O210020   0.162   2.272   0.783 -0.6450  0.3804  0.0671
  674MPD2     C10021   4.257   3.116   0.209 -0.7285  0.1587 -0.8918
  674MPD2    C110022   4.201   2.993   0.192 -0.3694 -0.7510  0.0411
  674MPD2    C210023   4.064   2.982   0.170  0.0961 -0.2326 -0.1467
  674MPD2    C310024   3.989   3.094   0.142  0.1518 -0.0324 -0.8301
  674MPD2    C410025   4.051   3.216   0.150 -0.0906  0.1710  0.2277
  674MPD2    C510026   4.183   3.224   0.182  0.9805 -0.0774  0.5633
  674MPD2     H10027   4.017   2.885   0.166 -0.3814  0.0778 -2.1538
  674MPD2    H110028   4.004   3.310   0.123  1.1400  1.6815  3.3293
  674MPD2    H210029   4.358   3.125   0.249 -1.4752  0.1819  0.9464
  674MPD2    H310030   4.223   3.324   0.178  1.0448 -0.1572 -0.9874
  674MPD2     N10031   3.858   3.073   0.091 -0.0286  0.6842  0.2967
  674MPD2    H510032   3.833   2.976   0.078  1.6636  0.4108 -0.9574
  674MPD2    N110033   4.291   2.875   0.197  0.1959  0.1953  0.5384
  674MPD2    H710034   4.390   2.890   0.218  0.5527  0.2670 -1.2314
  675TMC3    C110035   4.347   2.646   0.220 -0.6989  0.0326  0.3295
  675TMC3    C210036   4.301   2.515   0.229  0.0480 -0.5407  0.6553
  675TMC3    C310037   4.375   2.430   0.310  0.2180  0.5737 -0.7076
  675TMC3    C410038   4.458   2.693   0.289  0.0269  0.0605 -0.0399
  675TMC3    C510039   4.532   2.594   0.347  0.1029 -0.2440  0.2295
  675TMC3    C610040   4.495   2.467   0.363 -0.6832 -0.7561  0.0382
  675TMC3     C10041   4.252   2.747   0.175  0.1080  0.0455  0.1255
  675TMC3     O10042   4.146   2.703   0.141 -0.2557  0.4055 -0.4572
  675TMC3     H10043   4.206   2.487   0.185  0.7741 -0.2902 -1.0720
  675TMC3    H110044   4.486   2.798   0.294 -0.9018  0.3107  0.0090
  675TMC3    H210045   4.547   2.394   0.423 -0.7276  0.4175  1.5142
  675TMC3    C710046   4.656   2.641   0.408 -0.2013 -0.1268  0.0789
  675TMC3    C810047   4.306   2.315   0.368  0.3053  0.2181 -0.6277
  675TMC3    O110048   4.650   2.759   0.450 -0.1420  0.0727  0.2414
  675TMC3    O210049   4.215   2.268   0.302  0.3425  1.4398 -0.1436
  676MPD2     C10050   2.380   1.654  11.046 -0.5001 -0.2365 -0.1433
  676MPD2    C110051   2.325   1.561  11.127  0.1272  0.9268 -0.6587
  676MPD2    C210052   2.357   1.429  11.106  0.2277  0.4526 -0.1226
  676MPD2    C310053   2.439   1.388  11.004  0.2437  0.1893 -0.0421
  676MPD2    C410054   2.499   1.484  10.931  0.0659 -0.0463  0.5869
  676MPD2    C510055   2.467   1.611  10.950  0.2071 -0.0113  0.4115
  676MPD2     H10056   2.309   1.366  11.180 -0.6947  1.1393 -0.1314
  676MPD2    H110057   2.578   1.455  10.863 -0.7370 -0.1116 -0.3244
  676MPD2    H210058   2.370   1.761  11.061  1.1500  0.1376 -1.8308
  676MPD2    H310059   2.527   1.680  10.892  0.6049  0.4041  1.3171
  676MPD2     N10060   2.462   1.251  10.983 -0.3411  0.5169  0.4761
  676MPD2    H510061   2.518   1.224  10.902 -1.3600  1.5780 -0.5916
  676MPD2    N110062   2.249   1.592  11.240  0.3379  0.5530  0.1557
  676MPD2    H710063   2.219   1.505  11.284  0.7315  0.6006  0.5163
  677TMC3    C110064   2.144   1.708  11.406  1.0459  0.0712 -0.1534
  677TMC3    C210065   2.060   1.602  11.435  0.2066  0.3380  0.4949
  677TMC3    C310066   1.995   1.598  11.554  0.6560 -0.1383  0.7740
  677TMC3    C410067   2.142   1.821  11.478  0.3382 -0.2584 -0.6846
  677TMC3    C510068   2.061   1.817  11.590  0.1451 -0.2446  0.0207
  677TMC3    C610069   1.986   1.707  11.633  0.8111 -0.1213  0.1971
  677TMC3     C10070   2.223   1.714  11.282 -0.9842  0.4001  0.1382
  677TMC3     O10071   2.253   1.823  11.234 -0.0855 -0.0926  0.4059
  677TMC3     H10072   2.050   1.522  11.362 -1.5253 -1.6828  2.9543
  677TMC3    H110073   2.201   1.902  11.438  0.4484 -0.5691 -1.1595
  677TMC3    H210074   1.921   1.717  11.719  0.3451  4.1400 -0.6557
  677TMC3    C710075   2.099   1.901  11.700 -0.0318 -0.2551 -0.0299
  677TMC3    C810076   2.019   1.487  11.644  0.1762  0.7151  0.1812
  677TMC3    O110077   2.018   1.905  11.795 -0.1146  0.1199 -0.3404
  677TMC3    O210078   2.125   1.425  11.623 -0.5379 -0.4621 -0.5798
  678MPD2     C10079   3.157   0.962   1.551 -0.1508  0.2918  0.0488
  678MPD2    C110080   3.207   0.892   1.444 -0.1525  0.1546  0.7826
  678MPD2    C210081   3.133   0.794   1.383 -0.4637  0.5142 -0.6479
  678MPD2    C310082   2.997   0.777   1.411  0.3384 -0.0739 -0.3213
  678MPD2    C410083   2.947   0.852   1.516 -0.5024  0.4115 -0.1397
  678MPD2    C510084   3.026   0.942   1.581  0.1304  0.2478  0.0062
  678MPD2     H10085   3.172   0.731   1.304 -0.4558  2.3002 -2.0614
  678MPD2    H110086   2.848   0.820   1.548 -0.8396 -1.6557 -3.2383
  678MPD2    H210087   3.214   1.027   1.617 -0.0164  0.0149  0.2060
  678MPD2    H310088   2.993   0.993   1.671  0.2452 -0.3031  0.3651
  678MPD2     N10089   2.920   0.696   1.324 -0.5871 -0.4968 -0.3201
  678MPD2    H510090   2.966   0.626   1.266  1.0092  1.1524 -1.0519
  678MPD2    N110091   3.351   0.903   1.416 -0.8022 -0.8133 -0.1241
  678MPD2    H710092   3.390   0.824   1.366 -0.4122  0.6657 -2.1494
  679TMC3    C110093   3.682   0.873   1.207 -0.7299 -0.6601 -0.4961
  679TMC3    C210094   3.597   0.876   1.325 -0.2195 -0.1199 -0.3854
  679TMC3    C310095   3.554   1.000   1.365 -0.3780  0.5700  0.2787
  679TMC3    C410096   3.712   0.982   1.133 -0.3579 -0.0035  0.0775
  679TMC3    C510097   3.657   1.105   1.171 -0.2613  0.2072  0.1563
  679TMC3    C610098   3.575   1.109   1.284  0.0286  0.0946 -0.2658
  679TMC3     C10099   3.737   0.745   1.163 -0.0710 -0.6281  0.0472
  679TMC3     O10100   3.826   0.752   1.080  0.7140 -0.6835  0.5805
  679TMC3     H10101   3.573   0.786   1.382 -0.9389 -0.1992 -0.8125
  679TMC3    H110102   3.767   0.973   1.040  0.6245 -0.6461  0.7188
  679TMC3    H210103   3.531   1.205   1.307 -0.5724  0.0839 -1.3475
  679TMC3    C710104   3.658   1.213   1.072  0.1250 -0.6678  0.7112
  679TMC3    C810105   3.436   1.005   1.449  0.1071  0.4957 -0.2001
  679TMC3    O110106   3.697   1.182   0.959  0.2557  0.6642  0.1423
  679TMC3    O210107   3.415   1.101   1.520 -0.4756 -0.0226  0.1353
  680MPD2     C10108   3.585   0.071  13.899  1.3583 -0.0251  0.0762
  680MPD2    C110109   3.648   4.722  13.983  0.2291  0.2552  0.8090
  680MPD2    C210110   3.751   0.039  14.058  0.7746 -0.3229  0.6894
  680MPD2    C310111   3.797   0.168  14.034  0.3053 -0.0914  0.0991
  680MPD2    C410112   3.723   0.262  13.957 -0.6403 -0.4826 -0.8544
  680MPD2    C510113   3.629   0.198  13.883 -0.1867  0.1537  0.9255
  680MPD2     H10114   3.805   4.716  14.126 -1.1352 -0.4915  2.0335
  680MPD2    H110115   3.756   0.363  13.936 -1.6808 -0.2413 -1.3117
  680MPD2    H210116   3.494   0.051  13.842  2.7041  0.2271 -2.1792
  680MPD2    H310117   3.582   0.250  13.800  0.5506 -1.1864 -0.3195
  680MPD2     N10118   3.926   0.206  14.082  0.4475  0.1776 -0.2600
  680MPD2    H510119   3.955   0.298  14.051  0.6886  0.4423  0.7339
  680MPD2    N110120   3.600   4.594  14.004  0.4909  0.3183  0.7358
  680MPD2    H710121   3.646   4.540  14.077  1.2570 -0.2302 -0.1542
  681TMC3    C110122   3.491   4.385  13.961 -0.2470  0.5588  0.0614
  681TMC3    C210123   3.447   4.369  14.092  0.4804 -0.2616  0.2670
  681TMC3    C310124   3.399   4.243  14.118 -0.2651 -0.8602 -0.1771
  681TMC3    C410125   3.482   4.292  13.859  0.0411 -0.1488 -0.2828
  681TMC3    C510126   3.417   4.175  13.892  0.5627 -0.1299 -0.1411
  681TMC3    C610127   3.384   4.150  14.022 -0.3302  0.6124 -0.0293
  681TMC3     C10128   3.526   4.520  13.916  0.1382 -0.1962  0.3184
  681TMC3     O10129   3.499   4.546  13.800  0.2536  0.6225 -0.3897
  681TMC3     H10130   3.454   4.449  14.164  1.4155  1.0596 -1.2819
  681TMC3    H110131   3.505   4.320  13.757 -3.5501  3.5694 -0.0797
  681TMC3    H210132   3.366   4.046  14.048  0.4955  0.7329  1.0040
  681TMC3    C710133   3.427   4.060  13.800 -0.2537 -0.1025  0.0274
  681TMC3    C810134   3.414   4.192  14.251  1.4770  0.3475 -0.5404
  681TMC3    O110135   3.333   3.983  13.799  0.1288 -0.0327  0.0346
  681TMC3    O210136   3.345   4.098  14.290 -0.2179  0.1711 -0.0149
  682MPD2     C10137   1.566   1.831  10.401  0.3923  0.3531  0.8722
  682MPD2    C110138   1.485   1.722  10.427  0.4019  0.0504 -0.7446
  682MPD2    C210139   1.390   1.730  10.529  0.1810  0.2619 -0.9999
  682MPD2    C310140   1.380   1.851  10.602 -0.7739 -0.2422 -0.8335
  682MPD2    C410141   1.469   1.953  10.574  0.1281  0.2366  0.4118
  682MPD2    C510142   1.563   1.942  10.476  0.0973 -0.8586  0.3939
  682MPD2     H10143   1.325   1.645  10.548 -1.6476  1.5931 -1.2706
  682MPD2    H110144   1.473   2.047  10.627  0.4594  0.0628  0.7015
  682MPD2    H210145   1.640   1.835  10.322 -0.7256  0.0438 -0.1966
  682MPD2    H310146   1.626   2.025  10.448  0.2457 -1.4829 -1.0992
  682MPD2     N10147   1.289   1.860  10.713  0.3759 -0.1669 -0.3627
  682MPD2    H510148   1.306   1.933  10.781 -0.7607 -0.8478  0.6335
  682MPD2    N110149   1.487   1.600  10.363 -0.0540  0.2534 -0.4394
  682MPD2    H710150   1.424   1.526  10.393 -0.3331  0.1251 -1.3351
  683TMC3    C110151   1.101   1.766  11.080  0.0719  0.2034 -0.8131
  683TMC3    C210152   0.974   1.713  11.076  0.5510  0.3417 -0.0372
  683TMC3    C310153   0.909   1.688  10.960  0.2549 -0.0211  0.2025
  683TMC3    C410154   1.168   1.796  10.963 -0.0994 -0.5190 -0.1088
  683TMC3    C510155   1.099   1.780  10.846  0.1974 -1.0983  0.1362
  683TMC3    C610156   0.978   1.718  10.839 -0.0989  0.4761  0.6124
  683TMC3     C10157   1.174   1.742  11.203  0.1336  0.1807  0.0275
  683TMC3     O10158   1.127   1.802  11.303  0.6124  0.0804  0.4566
  683TMC3     H10159   0.934   1.655  11.159 -1.2586  2.6185  0.6630
  683TMC3    H110160   1.266   1.843  10.961 -0.2895 -0.1123  0.0304
  683TMC3    H210161   0.927   1.710  10.744 -0.1612  0.2128  0.6680
  683TMC3    C710162   1.169   1.792  10.718  0.4987 -0.1722  0.3460
  683TMC3    C810163   0.828   1.572  10.959 -0.3653  0.0148  0.3451
  683TMC3    O110164   1.108   1.749  10.622 -0.0290  0.5869 -0.2745
  683TMC3    O210165   0.729   1.571  11.027 -0.0066  0.6918 -0.2131
  684MPD2     C10166   4.171   0.040  16.641 -0.7783 -0.0397 -0.0154
  684MPD2    C110167   4.117   0.136  16.567 -0.5985 -0.2063 -0.3568
  684MPD2    C210168   4.142   0.267  16.608  0.1591  0.8443  0.7046
  684MPD2    C310169   4.212   0.298  16.725  0.6079  0.1165 -0.5936
  684MPD2    C410170   4.262   0.198  16.806 -0.2042 -0.2753 -0.5590
  684MPD2    C510171   4.239   0.071  16.757  0.5368  0.0987  0.0351
  684MPD2     H10172   4.113   0.347  16.542 -0.8102  0.0736  0.2028
  684MPD2    H110173   4.325   0.208  16.893  0.1295  0.4401 -0.8795
  684MPD2    H210174   4.167   4.677  16.612  0.4212 -0.6413  2.0065
  684MPD2    H310175   4.289   4.730  16.809 -0.6732 -0.3213  0.5246
  684MPD2     N10176   4.264   0.427  16.749  0.6012 -0.0352  0.2580
  684MPD2    H510177   4.358   0.435  16.786  0.7719 -1.0216  0.0482
  684MPD2    N110178   4.061   0.115  16.441 -0.3057 -0.5429 -0.4816
  684MPD2    H710179   4.036   0.199  16.390  1.1760  0.2626  0.1200
  685TMC3    C110180   4.058   0.013  16.248  0.0705  0.5066 -0.3674
  685TMC3    C210181   3.995   0.106  16.175 -0.9260  0.4043  0.1189
  685TMC3    C310182   4.040   0.116  16.048  0.1684 -0.3060 -0.0254
  685TMC3    C410183   4.165   4.683  16.193  0.4385 -0.5424 -0.2615
  685TMC3    C510184   4.211   4.704  16.069 -0.0782  1.1052 -0.6387
  685TMC3    C610185   4.150   0.052  15.995  0.3069 -0.8974 -0.5235
  685TMC3     C10186   4.041   4.734  16.385  0.3628  0.4017  0.1409
  685TMC3     O10187   4.063   4.621  16.428 -0.0658  0.0493 -0.2905
  685TMC3     H10188   3.917   0.172  16.212 -1.3098  0.8831 -1.5479
  685TMC3    H110189   4.223   4.622  16.261 -1.8523  0.0788  2.2485
  685TMC3    H210190   4.195   0.084  15.901  1.5000  3.1558  1.4364
  685TMC3    C710191   4.351   4.692  16.059 -1.1392 -0.0506 -0.3848
  685TMC3    C810192   3.984   0.212  15.958  0.3176  0.1854 -0.3483
  685TMC3    O110193   4.390   4.693  15.945  0.7252  0.1529 -0.1112
  685TMC3    O210194   4.004   0.206  15.839  0.4720 -0.3337  0.7282
  686MPD2     C10195   0.634   0.374  15.825 -0.0225 -0.0210 -0.2702
  686MPD2    C110196   0.701   0.267  15.888 -0.5372 -0.4096 -0.1908
  686MPD2    C210197   0.797   0.202  15.809  0.4707  0.2646 -0.2542
  686MPD2    C310198   0.794   0.223  15.674  0.3017 -0.2771  0.4173
  686MPD2    C410199   0.731   0.333  15.618  0.4662 -0.5318  0.0297
  686MPD2    C510200   0.651   0.410  15.694  0.0356 -0.4666  0.0580
  686MPD2     H10201   0.872   0.130  15.841  0.7672  0.5970 -0.2061
  686MPD2    H110202   0.731   0.339  15.510 -2.1503  1.4877  0.1557
  686MPD2    H210203   0.553   0.432  15.868 -1.2351 -4.0501  2.8260
  686MPD2    H310204   0.579   0.478  15.650 -0.5189 -1.1435 -0.0819
  686MPD2     N10205   0.886   0.157  15.585 -0.3219 -0.1677  0.4329
  686MPD2    H510206   0.900   0.194  15.492 -2.3517 -1.2332 -0.2808
  686MPD2    N110207   0.680   0.239  16.023 -0.1289 -0.3466  0.1870
  686MPD2    H710208   0.597   0.280  16.065  0.9953  1.9453  0.0977
  687TMC3    C110209   0.904   4.671  15.687  0.6585 -0.0153 -0.0425
  687TMC3    C210210   0.767   4.655  15.692  0.2008  0.5172 -0.5753
  687TMC3    C310211   0.711   4.605  15.806  0.3717  0.4623 -0.5326
  687TMC3    C410212   0.983   4.647  15.797  0.1739 -0.3679 -0.3198
  687TMC3    C510213   0.918   4.607  15.907 -0.7667 -0.5428  0.4459
  687TMC3    C610214   0.783   4.580  15.915 -0.2490  0.9235 -0.3222
  687TMC3     C10215   0.948   0.032  15.592  0.6242 -0.4034  0.8805
  687TMC3     O10216   1.042   4.731  15.530 -0.0170  0.4087 -0.3864
  687TMC3     H10217   0.717   4.668  15.596  1.5122  2.8113 -0.9278
  687TMC3    H110218   1.090   4.663  15.794  0.0797  1.0368  3.6650
  687TMC3    H210219   0.735   4.586  16.012  1.3449  0.1505  0.5016
  687TMC3    C710220   0.992   4.559  16.018 -0.2128  0.1233 -0.6395
  687TMC3    C810221   0.577   4.650  15.849  0.1579 -0.0679 -0.0303
  687TMC3    O110222   0.951   4.456  16.072 -0.2362  0.5160  0.5809
  687TMC3    O210223   0.521   4.579  15.935 -0.0305  0.0040  0.1314
  688MPD2     C10224   0.025   4.012  17.442  0.1842  0.0770 -0.2456
  688MPD2    C110225   0.076   3.889  17.491  0.1782  0.1151 -0.0411
  688MPD2    C210226   0.164   3.815  17.409  0.0777  0.1600  0.2751
  688MPD2    C310227   0.209   3.867  17.286  0.1674  0.0481 -0.2889
  688MPD2    C410228   0.153   3.987  17.235 -0.4695 -0.5361  0.0769
  688MPD2    C510229   0.054   4.051  17.312  0.0145  0.2945  0.4100
  688MPD2     H10230   0.208   3.726  17.453 -0.6908 -0.7411 -0.7814
  688MPD2    H110231   0.178   4.031  17.139 -0.6451 -1.4089 -0.3731
  688MPD2    H210232   4.700   4.080  17.494  0.6379 -0.8188  1.5190
  688MPD2    H310233   0.012   4.145  17.278  1.6812  1.3084  1.1736
  688MPD2     N10234   0.283   3.785  17.201  0.0116  0.2403  0.7078
  688MPD2    H510235   0.303   3.824  17.110  0.7740  1.1655  1.2722
  688MPD2    N110236   0.033   3.834  17.612  0.4492 -0.3717  0.2961
  688MPD2    H710237   0.064   3.739  17.632  3.5109 -0.2204 -3.7371
  689TMC3    C110238   4.710   3.854   0.083 -0.5469 -0.1489  0.7369
  689TMC3    C210239   4.696   3.938   0.192 -0.2809  0.1076 -0.5524
  689TMC3    C310240   4.652   3.890   0.309 -0.0949  0.2055  0.3364
  689TMC3    C410241   4.679   3.721   0.101  0.2911  0.1011 -0.1238
  689TMC3    C510242   4.639   3.671   0.222 -0.3865  0.2168 -0.7438
  689TMC3    C610243   4.631   3.757   0.329 -0.5550  0.2586 -0.8658
  689TMC3     C10244   4.722   3.915  17.711  0.0797 -0.2074  0.5124
  689TMC3     O10245   4.683   4.032  17.710  0.3547  0.0537 -0.3684
  689TMC3     H10246   4.727   4.041   0.180 -0.4170  0.1027 -0.9799
  689TMC3    H110247   4.699   3.648   0.023  0.5689  0.9332 -0.8298
  689TMC3    H210248   4.608   3.724   0.429  1.7069  0.2705 -0.3269
  689TMC3    C710249   4.654   3.535   0.250 -0.5675  0.3037  0.3757
  689TMC3    C810250   4.655   3.969   0.436 -0.6872 -0.8447  0.2769
  689TMC3    O110251   4.729   3.504   0.344  0.4247 -0.8644 -0.1013
  689TMC3    O210252   4.660   3.912   0.545 -0.0069 -0.1434 -0.0104
  690MPD2     C10253   2.311   1.487  15.667 -0.2825 -0.3657  0.0313
  690MPD2    C110254   2.315   1.385  15.571 -0.0822 -0.4860 -0.3230
  690MPD2    C210255   2.418   1.379  15.481 -0.4692  0.0319  0.7837
  690MPD2    C310256   2.520   1.472  15.488 -0.2696 -0.3458  0.6470
  690MPD2    C410257   2.511   1.572  15.585  0.4630 -0.1561 -0.6433
  690MPD2    C510258   2.410   1.576  15.674  0.3670  0.2627 -0.1443
  690MPD2     H10259   2.419   1.301  15.405  0.5867 -0.8105  1.6706
  690MPD2    H110260   2.589   1.648  15.586  0.6774 -0.3709 -1.3673
  690MPD2    H210261   2.226   1.500  15.733 -1.7417 -0.7768 -1.8000
  690MPD2    H310262   2.400   1.651  15.752  2.1051  0.3049  0.0220
  690MPD2     N10263   2.635   1.450  15.404 -0.0319 -0.6930  0.7700
  690MPD2    H510264   2.629   1.380  15.330 -2.8058  1.4092 -1.0029
  690MPD2    N110265   2.217   1.282  15.562  0.7040 -0.4986 -0.2836
  690MPD2    H710266   2.225   1.218  15.483  0.1547 -0.3593 -0.4574
  691TMC3    C110267   2.050   1.129  15.657  0.7240  0.5799  0.2519
  691TMC3    C210268   1.990   1.112  15.541  0.5233  0.2877  0.4954
  691TMC3    C310269   1.905   1.006  15.528 -0.4941 -0.1266 -0.5473
  691TMC3    C410270   2.052   1.034  15.759  1.3907  0.9103  0.2235
  691TMC3    C510271   1.978   0.920  15.739  0.3569 -0.7154 -0.5480
  691TMC3    C610272   1.902   0.907  15.622 -0.6328 -0.1551  0.0292
  691TMC3     C10273   2.138   1.249  15.675  0.5056  0.5842 -0.3345
  691TMC3     O10274   2.139   1.289  15.790 -0.0400  0.3048 -0.2163
  691TMC3     H10275   2.001   1.178  15.455  2.2495  1.9811  2.0233
  691TMC3    H110276   2.102   1.058  15.852  1.9147 -1.4735  0.5563
  691TMC3    H210277   1.849   0.812  15.616 -1.2579  0.1240  1.2990
  691TMC3    C710278   2.022   0.797  15.800  0.5875 -0.2848 -0.0059
  691TMC3    C810279   1.786   1.032  15.449  0.1204 -0.1851  0.6189
  691TMC3    O110280   2.141   0.786  15.829 -0.2009  0.4225  0.4850
  691TMC3    O210281   1.795   1.099  15.351  0.1295  0.0507 -0.4178
  692TMC3    C110282   4.079   1.865  16.363 -0.4262  0.6193 -0.8296
  692TMC3    C210283   4.216   1.861  16.401 -0.4801  0.5226 -0.0136
  692TMC3    C310284   4.290   1.746  16.410 -0.0994  0.8419 -0.2609
  692TMC3    C410285   4.013   1.748  16.349  0.2886 -0.3983  0.7568
  692TMC3    C510286   4.090   1.633  16.363 -0.0358  0.1683  0.3137
  692TMC3    C610287   4.220   1.628  16.395  0.7235  0.4985  0.4299
  692TMC3     C10288   4.003   1.986  16.382 -0.9015  0.2581  0.0451
  692TMC3     O10289   3.890   1.975  16.346 -0.3903  0.4657 -0.0606
  692TMC3     H10290   4.268   1.950  16.368  0.7456 -0.1282  0.1584
  692TMC3    H110291   3.908   1.742  16.320  0.4732 -1.7201  0.3795
  692TMC3    H210292   4.285   1.542  16.383 -0.3534 -0.6221  2.6495
  692TMC3    C710293   4.026   1.512  16.328 -0.1899  0.5409  0.4697
  692TMC3    C810294   4.369   1.752  16.523  0.0260 -0.4950 -0.4581
  692TMC3    O110295   3.924   1.510  16.264  0.0722 -0.3927 -0.4277
  692TMC3    O210296   4.407   1.647  16.576  0.2507  0.1384 -0.0235
  693MPD2     C10297   3.663   0.404  10.572 -0.5756 -0.3208 -0.0115
  693MPD2    C110298   3.572   0.310  10.598 -0.4442  0.0295  0.3214
  693MPD2    C210299   3.608   0.189  10.657 -0.5438  0.6565 -0.2473
  693MPD2    C310300   3.740   0.172  10.695  0.2357  0.4662  0.3165
  693MPD2    C410301   3.837   0.269  10.663  0.2801 -0.3071 -0.1082
  693MPD2    C510302   3.792   0.386  10.603 -0.4086 -0.4370 -0.1565
  693MPD2     H10303   3.531   0.120  10.690  0.6664 -1.4529 -1.8345
  693MPD2    H110304   3.942   0.253  10.689  0.6625  1.9143 -0.2790
  693MPD2    H210305   3.645   0.508  10.548 -1.0521 -0.6763 -1.1956
  693MPD2    H310306   3.865   0.464  10.585 -1.9694  0.7030 -1.6283
  693MPD2     N10307   3.780   0.065  10.772 -0.0015 -0.3461 -0.4038
  693MPD2    H510308   3.879   0.054  10.794  0.3294  1.8645 -0.8206
  693MPD2    N110309   3.441   0.344  10.582  0.7250  0.6837 -0.0508
  693MPD2    H710310   3.420   0.442  10.562 -1.0504  0.5853  1.3477
  694TMC3    C110311   3.200   0.329  10.581 -0.0412 -0.0213  0.1716
  694TMC3    C210312   3.088   0.258  10.535 -0.6591 -0.2791  0.2393
  694TMC3    C310313   2.977   0.274  10.610  0.2641  0.5572  0.4780
  694TMC3    C410314   3.198   0.406  10.694 -0.0192  0.6246 -0.1005
  694TMC3    C510315   3.080   0.426  10.759  0.8981 -0.3839 -0.2626
  694TMC3    C610316   2.964   0.353  10.718 -0.5921 -0.1501 -0.2618
  694TMC3     C10317   3.327   0.256  10.576 -0.2172 -0.5268 -0.8047
  694TMC3     O10318   3.326   0.135  10.573 -0.9201  0.1482 -0.0032
  694TMC3     H10319   3.105   0.193  10.451  1.9774 -1.2837  1.5328
  694TMC3    H110320   3.283   0.459  10.735 -0.0369 -0.1862  0.9824
  694TMC3    H210321   2.866   0.373  10.760  0.3229 -2.0037  2.7731
  694TMC3    C710322   3.083   0.477  10.895 -0.0478  0.6153 -0.3332
  694TMC3    C810323   2.851   0.208  10.567  0.5380  0.5330 -0.5860
  694TMC3    O110324   3.106   0.598  10.913  0.8071  0.3012 -0.2813
  694TMC3    O210325   2.779   0.175  10.660  0.4137  0.3328 -0.5560
  695MPD2     C10326   3.961   1.807  13.895  0.6198 -0.8014 -0.5031
  695MPD2    C110327   3.907   1.776  14.019  0.6548  0.1886  0.2458
  695MPD2    C210328   3.773   1.771  14.032  0.3455 -0.0825 -0.1872
  695MPD2    C310329   3.695   1.799  13.919 -0.0004 -0.6128 -0.4362
  695MPD2    C410330   3.751   1.818  13.796  0.2035  0.2366 -0.7692
  695MPD2    C510331   3.886   1.837  13.791  0.0897  0.8954  0.5794
  695MPD2     H10332   3.728   1.754  14.130 -1.8341  0.0151 -1.1707
  695MPD2    H110333   3.701   1.841  13.702 -0.0136  0.2798 -0.6442
  695MPD2    H210334   4.067   1.829  13.882  0.1097  1.4082 -0.9223
  695MPD2    H310335   3.929   1.858  13.694 -0.3334  1.1909  0.4576
  695MPD2     N10336   3.561   1.826  13.940  0.2138  1.1148  0.1098
  695MPD2    H510337   3.522   1.801  14.030  1.2146  0.7348  0.4442
  695MPD2    N110338   3.981   1.760  14.139 -0.0584 -0.3875 -0.2776
  695MPD2    H710339   3.925   1.728  14.217  3.4963  0.2788  2.5919
  696TMC3    C110340   3.346   1.903  13.899  0.2997  0.3860  0.1737
  696TMC3    C210341   3.305   1.826  14.006 -1.1352 -0.0328 -0.1272
  696TMC3    C310342   3.198   1.882  14.073  0.5832 -0.6848 -0.5908
  696TMC3    C410343   3.283   2.012  13.848 -0.7433  0.3785  0.4320
  696TMC3    C510344   3.175   2.061  13.919 -0.2647  0.4343  0.4465
  696TMC3    C610345   3.129   1.994  14.032  0.1735  0.0520 -0.2368
  696TMC3     C10346   3.476   1.893  13.851  0.7461 -0.6516 -0.4872
  696TMC3     O10347   3.509   1.956  13.751  0.0140  0.0909 -0.0052
  696TMC3     H10348   3.352   1.732  14.034  1.0873  1.6578  1.7801
  696TMC3    H110349   3.318   2.053  13.754 -2.1823 -0.7795 -0.6020
  696TMC3    H210350   3.049   2.037  14.091  0.9481 -0.5022  1.2230
  696TMC3    C710351   3.136   2.200  13.906  0.2877  0.5611  0.3020
  696TMC3    C810352   3.169   1.841  14.211 -0.4733 -0.0085 -0.1483
  696TMC3    O110353   3.021   2.219  13.875 -0.1666  0.4609  0.2703
  696TMC3    O210354   3.050   1.840  14.233  0.2310 -0.1582 -0.3095
  697MPD2     C10355   3.464   3.871  15.620 -0.1373 -0.1550 -0.3607
  697MPD2    C110356   3.399   3.824  15.507  0.2368  0.5449  0.2646
  697MPD2    C210357   3.376   3.918  15.412 -0.5230  0.0921 -0.0977
  697MPD2    C310358   3.424   4.046  15.422  0.0680  0.8288  0.1005
  697MPD2    C410359   3.492   4.084  15.537  0.7131 -0.0088 -0.2117
  697MPD2    C510360   3.511   3.992  15.637 -0.4522  0.2279  0.4895
  697MPD2     H10361   3.317   3.892  15.324  0.0572  1.4590 -0.8919
  697MPD2    H110362   3.522   4.186  15.557 -0.0151  0.3794 -1.1369
  697MPD2    H210363   3.479   3.793  15.694  1.9007  0.3243 -0.2798
  697MPD2    H310364   3.558   4.021  15.730 -1.0296  0.6384  0.6584
  697MPD2     N10365   3.395   4.129  15.313  0.6731 -0.1779 -0.4897
  697MPD2    H510366   3.340   4.090  15.238 -0.2912  1.8616 -0.8397
  697MPD2    N110367   3.363   3.691  15.478  0.3587 -0.5007 -0.3636
  697MPD2    H710368   3.377   3.621  15.550  2.0234 -0.6029 -0.7821
  698TMC3    C110369   3.437   4.296  15.162  0.4038  0.5715  0.5054
  698TMC3    C210370   3.491   4.423  15.138 -0.6960  0.3587  0.7836
  698TMC3    C310371   3.474   4.467  15.011  0.8204 -0.3512 -0.0925
  698TMC3    C410372   3.383   4.213  15.067  0.8397  0.2444 -0.2219
  698TMC3    C510373   3.369   4.262  14.947  0.0320 -0.3527  0.3676
  698TMC3    C610374   3.419   4.383  14.914 -0.2278 -0.4491  0.6481
  698TMC3     C10375   3.459   4.246  15.297 -0.0889 -0.0372 -0.1813
  698TMC3     O10376   3.537   4.308  15.370  0.5900  0.4246  0.0275
  698TMC3     H10377   3.527   4.484  15.219  0.5747  2.8176 -1.6627
  698TMC3    H110378   3.338   4.116  15.085  1.1419  0.0994 -0.2347
  698TMC3    H210379   3.435   4.406  14.809 -1.4049  3.7933  1.3970
  698TMC3    C710380   3.303   4.198  14.835 -0.6461  0.6597 -0.6232
  698TMC3    C810381   3.505   4.604  14.972  0.5503 -0.2211 -0.6940
  698TMC3    O110382   3.309   4.251  14.729 -0.4835 -0.2922  0.1999
  698TMC3    O210383   3.448   4.626  14.868  0.1060 -0.4426 -0.1322
  699TMC3    C110384   3.519   1.906  13.194  0.6121  0.1997 -0.3569
  699TMC3    C210385   3.594   1.827  13.275  0.6187  0.6805  0.4150
  699TMC3    C310386   3.529   1.760  13.376  0.0472  0.4080 -0.1199
  699TMC3    C410387   3.383   1.921  13.201  0.1766  0.4691  0.0502
  699TMC3    C510388   3.325   1.861  13.305 -0.2010  0.7110 -0.4214
  699TMC3    C610389   3.393   1.769  13.385  0.1004 -0.5732 -0.7673
  699TMC3     C10390   3.584   1.992  13.098  0.4946 -0.2777 -0.7214
  699TMC3     O10391   3.517   2.069  13.032  0.4318 -0.0210 -0.3919
  699TMC3     H10392   3.700   1.846  13.285  0.9472 -0.8140 -0.2073
  699TMC3    H110393   3.334   2.000  13.145  0.3567  1.0095  0.6533
  699TMC3    H210394   3.329   1.714  13.455  0.8246  0.2939  0.5645
  699TMC3    C710395   3.179   1.846  13.317  0.5775 -0.1032 -0.5975
  699TMC3    C810396   3.597   1.683  13.481  1.3750 -0.0648  0.1872
  699TMC3    O110397   3.127   1.789  13.412  0.4876  0.1637  0.3461
  699TMC3    O210398   3.532   1.642  13.577 -0.1026 -0.5290 -0.1775
  700TMC3    C110399   2.736   4.358  17.514  0.0551  0.4714  0.4862
  700TMC3    C210400   2.834   4.277  17.459 -0.1156  0.6734 -0.4004
  700TMC3    C310401   2.961   4.276  17.510 -0.3730 -0.4130 -0.4015
  700TMC3    C410402   2.768   4.429  17.628 -0.3224 -0.3688  0.4066
  700TMC3    C510403   2.895   4.415  17.679  0.9097 -0.6300 -0.1045
  700TMC3    C610404   2.990   4.332  17.632  0.0827  0.6293  0.1567
  700TMC3     C10405   2.655   4.428  17.422 -0.8637 -0.4542 -0.8608
  700TMC3     O10406   2.549   4.379  17.389 -0.1396 -0.5079 -0.4669
  700TMC3     H10407   2.808   4.248  17.358  0.9046  1.9157 -1.0207
  700TMC3    H110408   2.692   4.499  17.662  1.0583  2.0523 -1.5247
  700TMC3    H210409   3.089   4.325  17.676 -0.7012 -0.2420  1.7918
  700TMC3    C710410   2.930   4.527  17.760 -0.1400  0.6349  0.3956
  700TMC3    C810411   3.052   4.174  17.464 -0.0486 -0.0297 -0.4795
  700TMC3    O110412   2.861   4.622  17.738 -0.1662 -0.3856 -0.0633
  700TMC3    O210413   3.174   4.197  17.465 -0.0246 -0.0081  0.4437
  701TMC3    C110414   2.764   3.283  15.603  0.0599 -0.2688 -0.5055
  701TMC3    C210415   2.755   3.244  15.469  0.5128 -0.0781 -0.1816
  701TMC3    C310416   2.837   3.305  15.374  0.9568 -0.0464 -0.8448
  701TMC3    C410417   2.841   3.386  15.642  0.1991  0.3786  0.0280
  701TMC3    C510418   2.922   3.450  15.544 -0.4482 -0.4797 -0.3188
  701TMC3    C610419   2.928   3.407  15.420  0.1390 -0.3080  0.5979
  701TMC3     C10420   2.672   3.225  15.702  0.3057  0.8673  0.3312
  701TMC3     O10421   2.681   3.256  15.820 -0.4185 -0.0099 -0.4432
  701TMC3     H10422   2.703   3.151  15.449  0.7611  0.4003 -2.9690
  701TMC3    H110423   2.831   3.415  15.745 -3.0100  1.8422 -0.7056
  701TMC3    H210424   3.008   3.444  15.357  0.1233  0.4846  1.0367
  701TMC3    C710425   2.995   3.569  15.576  0.0490  0.3330 -0.9403
  701TMC3    C810426   2.803   3.306  15.234  0.8081  0.4244 -0.3915
  701TMC3    O110427   3.017   3.644  15.483 -0.2391 -0.4506 -0.1366
  701TMC3    O210428   2.870   3.376  15.159  0.7125  0.3492 -0.4009
  702MPD2     C10429   2.967   0.883  10.670  0.4176  0.1131 -0.2670
  702MPD2    C110430   2.880   0.992  10.694 -0.4200  0.6154 -0.6027
  702MPD2    C210431   2.904   1.116  10.636 -0.5432 -0.1693 -0.4967
  702MPD2    C310432   3.009   1.135  10.547 -0.2326 -0.9389 -0.1058
  702MPD2    C410433   3.084   1.022  10.516  0.4361 -0.3461 -0.1177
  702MPD2    C510434   3.073   0.901  10.584 -0.0542  0.0249  0.4921
  702MPD2     H10435   2.822   1.186  10.649 -0.7171 -0.2789 -1.0430
  702MPD2    H110436   3.157   1.033  10.437 -1.0364 -1.6825 -1.6608
  702MPD2    H210437   2.946   0.784  10.710 -0.1790  1.3142  2.3323
  702MPD2    H310438   3.129   0.814  10.555 -1.1964 -0.0306 -1.5036
  702MPD2     N10439   3.039   1.257  10.491 -0.0621 -0.8412 -0.2546
  702MPD2    H510440   3.096   1.256  10.408  0.6291 -0.0905  0.2120
  702MPD2    N110441   2.765   0.974  10.779  0.0315  0.0860  0.2405
  702MPD2    H710442   2.719   1.058  10.811  1.0203  1.0148 -0.7431
  703TMC3    C110443   3.022   1.495  10.451 -0.0188 -0.4318  0.2748
  703TMC3    C210444   2.929   1.583  10.421 -0.1943  0.1566  0.0802
  703TMC3    C310445   2.951   1.697  10.349 -0.5731  0.1438  0.1306
  703TMC3    C410446   3.153   1.517  10.417  0.8251 -0.4265  0.3919
  703TMC3    C510447   3.181   1.645  10.363  0.5380 -0.0504  0.2720
  703TMC3    C610448   3.082   1.734  10.329  0.0760 -0.0848 -0.8950
  703TMC3     C10449   2.985   1.380  10.529 -0.6267 -0.4028  0.9958
  703TMC3     O10450   2.912   1.403  10.621 -0.7487 -0.3166 -0.8403
  703TMC3     H10451   2.831   1.558  10.457  0.0766  0.1370  0.7953
  703TMC3    H110452   3.225   1.444  10.452 -0.5561 -1.6254  0.7116
  703TMC3    H210453   3.083   1.832  10.285  0.8111 -0.8761 -2.6060
  703TMC3    C710454   3.315   1.694  10.357 -0.6995  0.4605 -0.1669
  703TMC3    C810455   2.845   1.797  10.338  0.4298  0.0608  0.0295
  703TMC3    O110456   3.334   1.790  10.284  0.1797  0.1334  0.3767
  703TMC3    O210457   2.877   1.906  10.301 -0.2992 -0.0323  0.0144
  704TMC3    C110458   0.278   3.794  13.073 -0.4244 -0.8190  0.2338
  704TMC3    C210459   0.350   3.836  12.967  0.0318  0.1725  1.0898
  704TMC3    C310460   0.451   3.766  12.925 -0.0550 -0.2016 -0.0909
  704TMC3    C410461   0.321   3.693  13.156  0.1085 -0.1225 -0.2665
  704TMC3    C510462   0.433   3.630  13.112 -0.1865  0.9565  0.2469
  704TMC3    C610463   0.504   3.666  12.997  0.2949 -0.1862  0.1073
  704TMC3     C10464   0.136   3.807  13.058  0.0435  0.1830 -0.1068
  704TMC3     O10465   0.077   3.787  13.161  0.1687  0.7772  0.5631
  704TMC3     H10466   0.324   3.918  12.902  0.1244 -0.1429  0.6501
  704TMC3    H110467   0.250   3.655  13.229 -0.3221 -1.9152 -1.6182
  704TMC3    H210468   0.603   3.624  12.981  0.0743 -1.1029  1.1428
  704TMC3    C710469   0.428   3.489  13.150 -0.1837  0.3502 -0.0544
  704TMC3    C810470   0.422   3.731  12.789 -0.0848  0.3312  0.0986
  704TMC3    O110471   0.364   3.457  13.249 -0.3644  0.6871  0.2999
  704TMC3    O210472   0.323   3.788  12.744 -0.1021 -0.8450  0.2908
  705MPD2     C10473   4.431   1.197  16.833  0.6986 -0.1122  0.8540
  705MPD2    C110474   4.450   1.329  16.863 -0.0203  1.0856 -0.5048
  705MPD2    C210475   4.337   1.399  16.913  0.1647  0.3673 -0.5720
  705MPD2    C310476   4.216   1.327  16.939  0.2059 -0.1464  0.3341
  705MPD2    C410477   4.200   1.195  16.898  0.1351  0.5661 -0.8647
  705MPD2    C510478   4.312   1.139  16.844 -0.2529  0.2832 -0.0607
  705MPD2     H10479   4.349   1.505  16.930  0.3876  0.3068 -0.3430
  705MPD2    H110480   4.104   1.146  16.913 -0.2844  1.1227 -1.7145
  705MPD2    H210481   4.519   1.136  16.815 -0.6645 -1.6067 -0.8107
  705MPD2    H310482   4.313   1.031  16.832  0.6672  0.0847  1.8486
  705MPD2     N10483   4.101   1.386  16.999 -0.1889  0.4787 -0.6835
  705MPD2    H510484   4.014   1.336  16.989 -0.8873  1.4475  0.4812
  705MPD2    N110485   4.570   1.401  16.843 -0.6657  0.0288  0.1088
  705MPD2    H710486   4.579   1.497  16.874  0.4182  0.0396 -0.2541
  706TMC3    C110487   0.138   1.463  16.503  0.5285  0.5451 -0.9226
  706TMC3    C210488   0.083   1.585  16.485  0.2386 -0.3107 -0.0572
  706TMC3    C310489   4.734   1.625  16.575  0.4406  0.3961  0.5267
  706TMC3    C410490   0.116   1.386  16.617  0.0826  0.6417  0.3421
  706TMC3    C510491   0.025   1.439  16.712  0.5861 -0.4135 -1.0804
  706TMC3    C610492   4.712   1.565  16.694  0.7447  0.3220 -0.0003
  706TMC3     C10493   0.210   1.408  16.391 -0.3891  0.2021  1.0010
  706TMC3     O10494   0.292   1.321  16.421 -0.0694  0.1620 -0.7210
  706TMC3     H10495   0.104   1.647  16.398  0.1564 -0.8390 -0.4551
  706TMC3    H110496   0.155   1.285  16.614 -1.0523  0.1551  2.1111
  706TMC3    H210497   4.659   1.612  16.776 -0.5027 -2.1566  0.6275
  706TMC3    C710498   4.677   1.342  16.768 -0.5310  0.1757  0.7605
  706TMC3    C810499   4.695   1.762  16.564 -0.0592 -0.1695  0.5011
  706TMC3    O110500   4.692   1.233  16.717  1.0084  0.1854  0.0729
  706TMC3    O210501   4.661   1.795  16.450  0.1472 -0.0809  0.0042
  707TMC3    C110502   1.235   0.577   0.795  0.0229 -0.0446  0.0836
  707TMC3    C210503   1.179   0.464   0.842  0.0841 -0.3062 -0.0265
  707TMC3    C310504   1.062   0.471   0.906  0.0775 -0.6343  0.1835
  707TMC3    C410505   1.183   0.697   0.824  0.0114 -0.4128 -0.0638
  707TMC3    C510506   1.053   0.697   0.874  0.6634  1.0580 -0.0019
  707TMC3    C610507   0.994   0.583   0.932 -0.4790  0.2587  0.3326
  707TMC3     C10508   1.333   0.555   0.690  0.4693 -0.2791  0.2084
  707TMC3     O10509   1.369   0.445   0.660 -0.4076  0.6389  0.6878
  707TMC3     H10510   1.230   0.369   0.831  2.9782  1.1262  0.9424
  707TMC3    H110511   1.221   0.788   0.780  0.2130  0.0966  1.1656
  707TMC3    H210512   0.897   0.584   0.980 -1.3135  3.1272 -1.4811
  707TMC3    C710513   0.986   0.829   0.895 -0.2856  0.2310  0.8226
  707TMC3    C810514   0.987   0.348   0.931 -0.6023  0.7706  0.0380
  707TMC3    O110515   1.058   0.925   0.882  0.1989 -0.7360 -0.3615
  707TMC3    O210516   0.874   0.355   0.984 -0.1516  0.3038 -0.1339
  708MPD2     C10517   2.818   0.672  13.582 -0.4770 -0.1582 -0.2682
  708MPD2    C110518   2.756   0.569  13.655 -0.4646 -0.5556 -0.5883
  708MPD2    C210519   2.806   0.544  13.780 -0.0846 -0.6457  0.3127
  708MPD2    C310520   2.905   0.621  13.834  0.2130  0.1510 -0.1425
  708MPD2    C410521   2.974   0.710  13.756  0.1894  0.3043  0.1199
  708MPD2    C510522   2.932   0.732  13.629  0.9539 -0.0705 -0.1668
  708MPD2     H10523   2.760   0.469  13.844 -0.6985  1.9220  2.8870
  708MPD2    H110524   3.058   0.770  13.787 -1.0579  1.1092  1.9465
  708MPD2    H210525   2.782   0.692  13.482 -1.0001  0.8820  0.1292
  708MPD2    H310526   2.991   0.802  13.570  2.0726 -0.5077  0.4344
  708MPD2     N10527   2.941   0.593  13.971  0.8131  0.0957  0.1784
  708MPD2    H510528   2.883   0.520  14.010  0.6798  0.6483  1.0204
  708MPD2    N110529   2.642   0.503  13.601 -0.0130  0.1560 -0.4561
  708MPD2    H710530   2.589   0.538  13.522  1.8054  0.5128 -1.5268
  709TMC3    C110531   2.452   0.370  13.605 -0.5753  0.4172 -0.2635
  709TMC3    C210532   2.439   0.257  13.538 -0.2940 -0.5566 -0.3519
  709TMC3    C310533   2.331   0.171  13.555  0.3299 -0.1068 -0.0477
  709TMC3    C410534   2.353   0.408  13.691  0.4875 -0.1480 -0.7009
  709TMC3    C510535   2.247   0.322  13.713 -0.0835  0.2997  0.6902
  709TMC3    C610536   2.235   0.200  13.650  0.2360 -0.4435 -0.8004
  709TMC3     C10537   2.585   0.396  13.661  0.1440  0.1452 -0.7299
  709TMC3     O10538   2.631   0.314  13.733  0.6866 -0.0949  0.2828
  709TMC3     H10539   2.523   0.230  13.476  0.6758 -1.5943  1.4276
  709TMC3    H110540   2.356   0.504  13.742 -0.0637 -0.2696 -0.4398
  709TMC3    H210541   2.149   0.135  13.660  0.8361 -1.3358 -1.4616
  709TMC3    C710542   2.217   0.303  13.847  0.4554 -0.4334  0.1412
  709TMC3    C810543   2.279   0.097  13.448  0.3105  0.0144  0.5424
  709TMC3    O110544   2.098   0.296  13.870  0.3649 -0.1083  0.5414
  709TMC3    O210545   2.180   0.028  13.465  0.0570  0.1785  0.1880
  710TMC3    C110546   3.319   1.511   0.295  0.1984  0.2676  0.7573
  710TMC3    C210547   3.369   1.426   0.199  0.1745  0.3754 -0.2196
  710TMC3    C310548   3.476   1.350   0.237 -0.2165  0.6567 -0.4401
  710TMC3    C410549   3.366   1.518   0.424  0.1576 -0.0644 -0.4774
  710TMC3    C510550   3.481   1.442   0.452 -0.9237  0.4443 -0.1231
  710TMC3    C610551   3.542   1.361   0.352  0.0302 -0.2487 -0.0658
  710TMC3     C10552   3.215   1.595   0.243 -0.9469 -0.4000  0.0107
  710TMC3     O10553   3.191   1.582   0.124  0.8630 -0.1227 -0.1437
  710TMC3     H10554   3.331   1.427   0.098  0.1014 -0.5122 -0.2077
  710TMC3    H110555   3.313   1.585   0.492 -2.0252 -0.4090 -1.8223
  710TMC3    H210556   3.637   1.311   0.369  0.1465  0.3673  1.1368
  710TMC3    C710557   3.524   1.428   0.589 -0.3564  0.0157  0.2106
  710TMC3    C810558   3.547   1.291   0.129  1.0730  0.3732 -0.0570
  710TMC3    O110559   3.626   1.357   0.592 -0.3423 -0.1628  0.5380
  710TMC3    O210560   3.474   1.248   0.040  0.2890  0.0844  0.3514
  711TMC3    C110561   3.749   2.455  15.211  0.5057  0.3824 -0.1447
  711TMC3    C210562   3.825   2.550  15.277 -0.0434  0.1969 -0.1748
  711TMC3    C310563   3.911   2.508  15.379  0.4960  0.7731  0.3092
  711TMC3    C410564   3.733   2.326  15.258  0.2094  0.2671 -0.2936
  711TMC3    C510565   3.808   2.293  15.364 -0.0680  0.1281  0.7904
  711TMC3    C610566   3.900   2.380  15.423 -0.3046  0.9548  0.7769
  711TMC3     C10567   3.651   2.506  15.117 -0.2873  0.1947 -0.3796
  711TMC3     O10568   3.579   2.416  15.071  0.4601 -0.1673  0.1106
  711TMC3     H10569   3.843   2.650  15.240  1.4673 -0.0657 -0.1254
  711TMC3    H110570   3.663   2.255  15.215  2.0523 -0.5712 -1.8730
  711TMC3    H210571   3.953   2.345  15.511 -0.8004  0.3645  0.8342
  711TMC3    C710572   3.800   2.154  15.406  0.3097 -0.2877  0.6795
  711TMC3    C810573   3.977   2.610  15.468  0.1091  0.4871  0.3189
  711TMC3    O110574   3.899   2.108  15.458  0.0523  0.2432  0.2185
  711TMC3    O210575   3.943   2.729  15.462  0.2692 -0.0826 -0.6588
  712MPD2     C10576   4.639   3.192  13.927  0.0066  0.0534  0.7056
  712MPD2    C110577   4.528   3.272  13.939  0.4511  0.0080 -0.1009
  712MPD2    C210578   4.546   3.412  13.928  0.0566  0.3981 -0.3643
  712MPD2    C310579   4.670   3.463  13.897  0.1108  0.2792  0.0624
  712MPD2    C410580   0.039   3.384  13.910 -0.0915 -0.7039  0.3958
  712MPD2    C510581   0.027   3.246  13.922 -0.5318  0.1472 -0.2916
  712MPD2     H10582   4.455   3.471  13.932 -1.9427 -2.5958 -1.3583
  712MPD2    H110583   0.142   3.414  13.899 -0.4297  0.8209  1.3857
  712MPD2    H210584   4.635   3.085  13.942 -1.4742  0.5345  3.7587
  712MPD2    H310585   0.119   3.189  13.932 -1.7908 -2.3233 -3.0815
  712MPD2     N10586   4.693   3.599  13.862  0.1798 -0.2309  0.6165
  712MPD2    H510587   0.047   3.634  13.851 -0.7991  2.0595 -0.5603
  712MPD2    N110588   4.396   3.212  13.956  0.1222 -1.0234 -0.5674
  712MPD2    H710589   4.387   3.119  13.917 -1.3968 -0.3989 -1.7109
  713TMC3    C110590   4.642   3.828  13.834 -0.2245 -1.2636  0.1237
  713TMC3    C210591   0.030   3.856  13.822 -0.0125  0.2323  0.6144
  713TMC3    C310592   0.059   3.996  13.812 -0.6275  0.1528 -0.3488
  713TMC3    C410593   4.544   3.932  13.835  0.6463  0.3092 -0.3352
  713TMC3    C510594   4.573   4.063  13.819  0.1499 -0.4105  0.6229
  713TMC3    C610595   4.705   4.095  13.805 -0.4127  0.2655 -0.8731
  713TMC3     C10596   4.593   3.690  13.839 -0.4349 -0.9260  0.2695
  713TMC3     O10597   4.471   3.673  13.833 -0.5876 -0.6812  1.0696
  713TMC3     H10598   0.107   3.781  13.834  1.2400  1.4970  0.5737
  713TMC3    H110599   4.439   3.903  13.839 -0.2941  3.6198 -0.8525
  713TMC3    H210600   4.735   4.198  13.787 -0.9939  0.3977 -1.0808
  713TMC3    C710601   4.466   4.162  13.819  0.1426  0.9293 -0.3209
  713TMC3    C810602   0.188   4.042  13.757  0.3431 -0.0324  0.4257
  713TMC3    O110603   4.356   4.123  13.793 -0.6940  0.0035 -0.2385
  713TMC3    O210604   0.167   4.127  13.671 -0.4255 -0.2134 -0.2341
  714MPD2     C10605   2.505   2.398   1.509  0.3516 -0.0251 -0.1668
  714MPD2    C110606   2.524   2.308   1.407  0.3747 -0.2588  0.0640
  714MPD2    C210607   2.432   2.297   1.305  0.0366  0.8556  0.3894
  714MPD2    C310608   2.320   2.378   1.299 -0.1446 -0.6377 -0.1067
  714MPD2    C410609   2.305   2.468   1.404 -0.5042 -0.1704  0.0732
  714MPD2    C510610   2.395   2.479   1.505  0.0461  0.9346  0.1040
  714MPD2     H10611   2.433   2.220   1.229  1.0446  1.8330 -0.5709
  714MPD2    H110612   2.213   2.524   1.410  0.9759  2.4105 -1.1783
  714MPD2    H210613   2.578   2.414   1.587  0.5961 -0.5801 -0.2749
  714MPD2    H310614   2.381   2.557   1.579 -1.0922 -0.0285  0.9205
  714MPD2     N10615   2.225   2.354   1.194  0.0041 -0.0303  0.0783
  714MPD2    H510616   2.260   2.283   1.131 -0.3055 -1.7144  1.7995
  714MPD2    N110617   2.634   2.221   1.416 -0.0017 -0.1340 -0.0687
  714MPD2    H710618   2.694   2.236   1.497 -0.0474 -0.1696 -0.0282
  715TMC3    C110619   2.756   2.020   1.398  0.2351  0.6707 -0.4008
  715TMC3    C210620   2.739   1.883   1.368 -0.5991 -0.5102  0.1414
  715TMC3    C310621   2.855   1.812   1.369 -0.2914  0.3424 -0.4827
  715TMC3    C410622   2.875   2.084   1.411 -0.1163  0.4818 -0.1220
  715TMC3    C510623   2.983   2.002   1.395  0.4689  0.5558  0.4014
  715TMC3    C610624   2.975   1.867   1.375 -0.5292  0.2902  0.0566
  715TMC3     C10625   2.643   2.104   1.356  0.2047  0.4405 -0.7432
  715TMC3     O10626   2.561   2.051   1.283  0.1523 -0.2183 -0.9581
  715TMC3     H10627   2.641   1.836   1.366 -0.0720 -1.6283  0.4813
  715TMC3    H110628   2.886   2.192   1.408  0.1399  0.4711  0.4088
  715TMC3    H210629   3.068   1.811   1.376  0.6998  2.3663  2.6960
  715TMC3    C710630   3.112   2.058   1.428 -0.3210 -0.4688  0.2629
  715TMC3    C810631   2.851   1.664   1.341  0.2072  0.2089 -0.3753
  715TMC3    O110632   3.211   2.009   1.375 -0.0371  0.4542 -0.0621
  715TMC3    O210633   2.753   1.624   1.281 -0.2003  0.1044 -1.2216
  716MPD2     C10634   1.843   1.159  10.019 -0.6218  0.4423  0.1525
  716MPD2    C110635   1.871   1.171   9.889 -0.0986 -0.2031  0.2154
  716MPD2    C210636   1.858   1.058   9.821  0.0721 -0.5477 -0.7442
  716MPD2    C310637   1.834   0.935   9.872 -0.0946 -0.3044 -0.6262
  716MPD2    C410638   1.804   0.926  10.005  0.1068 -0.0862  0.8217
  716MPD2    C510639   1.814   1.039  10.081  0.0330  0.3771 -0.6963
  716MPD2     H10640   1.868   1.063   9.713 -1.6498  1.1177 -0.8200
  716MPD2    H110641   1.771   0.840  10.063  0.7315 -0.7869  0.1430
  716MPD2    H210642   1.845   1.249  10.079  0.8228 -0.8335  2.0134
  716MPD2    H310643   1.795   1.037  10.188 -1.4514  0.1156 -0.9647
  716MPD2     N10644   1.814   0.826   9.781 -0.7200  0.2165  0.3181
  716MPD2    H510645   1.812   0.840   9.681  1.3473  0.2031  0.2770
  716MPD2    N110646   1.900   1.292   9.824  0.3429  0.5029  0.6241
  716MPD2    H710647   1.890   1.376   9.880  0.1724  1.2695 -0.5682
  717TMC3    C110648   1.818   0.611   9.706 -0.7692  0.2870  0.2832
  717TMC3    C210649   1.779   0.656   9.587 -0.0920 -0.4088  0.4697
  717TMC3    C310650   1.793   0.558   9.474 -0.2807  0.3522  0.5431
  717TMC3    C410651   1.898   0.493   9.715  0.1246 -0.4545  0.5371
  717TMC3    C510652   1.916   0.413   9.602 -0.5458 -0.3163  0.1195
  717TMC3    C610653   1.849   0.435   9.483  0.4105 -0.2370 -0.8812
  717TMC3     C10654   1.818   0.698   9.821 -0.8774 -0.1340  0.3190
  717TMC3     O10655   1.843   0.649   9.928 -0.4483 -0.1260  0.0799
  717TMC3     H10656   1.698   0.727   9.570 -1.1401 -1.5680  0.5640
  717TMC3    H110657   1.951   0.464   9.805 -0.2421 -2.6428  0.0413
  717TMC3    H210658   1.848   0.348   9.418  0.2384 -0.9609  0.0872
  717TMC3    C710659   2.008   0.308   9.621 -0.0253 -0.3856 -0.0439
  717TMC3    C810660   1.724   0.592   9.347  0.0204 -0.0523 -0.2144
  717TMC3    O110661   2.046   0.287   9.738 -0.0488  0.8492  0.1299
  717TMC3    O210662   1.687   0.706   9.337  0.6654 -0.2704  0.1565
  718MPD2     C10663   1.716   3.599  12.782  0.2227  0.3199  0.2851
  718MPD2    C110664   1.626   3.660  12.702 -0.1334 -0.3848 -0.1319
  718MPD2    C210665   1.494   3.642  12.734  0.2924 -0.2945  0.9477
  718MPD2    C310666   1.462   3.570  12.843  0.0391 -0.9102 -0.2254
  718MPD2    C410667   1.547   3.504  12.931  0.5289  0.4584 -0.5887
  718MPD2    C510668   1.679   3.526  12.895 -0.2112  0.1472  0.6738
  718MPD2     H10669   1.416   3.681  12.669  2.3193  0.9193 -0.7478
  718MPD2    H110670   1.513   3.443  13.013  0.5773  0.0852 -0.8428
  718MPD2    H210671   1.822   3.601  12.763  0.4135 -2.6667  0.9562
  718MPD2    H310672   1.757   3.476  12.951  1.9039  1.5523 -1.0044
  718MPD2     N10673   1.325   3.572  12.875 -0.8591  0.6483 -0.1311
  718MPD2    H510674   1.269   3.624  12.808 -0.9576 -1.9410 -2.1040
  718MPD2    N110675   1.677   3.726  12.589 -0.0317  0.2627  0.3425
  718MPD2    H710676   1.777   3.726  12.571 -0.2618 -4.2343 -0.8865
  719TMC3    C110677   1.659   3.900  12.418 -0.1465  1.6517 -0.2149
  719TMC3    C210678   1.562   3.967  12.343  0.0442 -0.8412  0.2728
  719TMC3    C310679   1.557   4.105  12.329 -0.0222  0.4068  0.3542
  719TMC3    C410680   1.755   3.978  12.482  0.3415 -0.4860 -0.2952
  719TMC3    C510681   1.754   4.116  12.468 -0.1674 -0.2607  0.1662
  719TMC3    C610682   1.657   4.181  12.392  0.5196 -0.5238  0.2862
  719TMC3     C10683   1.598   3.796  12.495  0.4264  0.6589  0.5604
  719TMC3     O10684   1.479   3.825  12.509  0.7194 -0.1555 -0.0605
  719TMC3     H10685   1.482   3.906  12.303  0.2730 -0.5503 -0.6306
  719TMC3    H110686   1.833   3.933  12.543  0.9971 -0.3685 -1.0466
  719TMC3    H210687   1.662   4.289  12.389 -1.5516 -0.4153  0.9087
  719TMC3    C710688   1.859   4.185  12.544  0.0295 -0.0236 -0.4330
  719TMC3    C810689   1.431   4.162  12.370  0.0363 -0.4253  0.0719
  719TMC3    O110690   1.893   4.135  12.646 -0.0252 -0.9675 -0.7034
  719TMC3    O210691   1.413   4.283  12.360 -0.3992 -0.2413  0.5205
  720MPD2     C10692   0.289   0.690  14.207 -0.7506 -0.5210 -0.5834
  720MPD2    C110693   0.397   0.741  14.136  0.0078  0.6854  0.2831
  720MPD2    C210694   0.533   0.730  14.178 -0.0061 -0.0370  0.2097
  720MPD2    C310695   0.560   0.680  14.306  0.2036  0.6616  0.1706
  720MPD2    C410696   0.457   0.620  14.374  0.1939  0.3111  0.4556
  720MPD2    C510697   0.329   0.623  14.321 -0.1269  0.0678 -0.2076
  720MPD2     H10698   0.609   0.766  14.111 -1.4150  1.1894 -0.7233
  720MPD2    H110699   0.478   0.577  14.472 -0.7053  0.2230  0.6105
  720MPD2    H210700   0.182   0.693  14.190 -0.7519 -1.3750 -0.7485
  720MPD2    H310701   0.246   0.573  14.371  0.0554  0.8133  0.8537
  720MPD2     N10702   0.687   0.699  14.362  0.3685 -0.0177  0.2675
  720MPD2    H510703   0.758   0.725  14.294  1.2275 -0.8620  0.8397
  720MPD2    N110704   0.371   0.801  14.014 -0.3972 -0.1243 -0.5061
  720MPD2    H710705   0.456   0.822  13.964  0.6817  1.5302  2.0037
  721TMC3    C110706   0.869   0.694  14.522 -0.6219 -0.2789 -0.6893
  721TMC3    C210707   0.895   0.698  14.658 -0.1508  0.3025 -0.4470
  721TMC3    C310708   1.013   0.659  14.703  0.0218  0.3236 -0.9448
  721TMC3    C410709   0.966   0.652  14.433 -0.6594  0.1280 -0.0716
  721TMC3    C510710   1.089   0.622  14.486 -0.8224  0.4875  0.0337
  721TMC3    C610711   1.115   0.628  14.618 -0.2578 -0.1456  0.4570
  721TMC3     C10712   0.724   0.676  14.491 -0.2073  0.3050 -0.0031
  721TMC3     O10713   0.650   0.659  14.586 -0.6687 -0.0529 -0.3513
  721TMC3     H10714   0.815   0.751  14.708 -1.3893  0.6664 -2.8084
  721TMC3    H110715   0.945   0.656  14.327 -1.8148 -1.2040  0.1113
  721TMC3    H210716   1.213   0.595  14.648 -1.4160 -1.6874  2.5231
  721TMC3    C710717   1.195   0.584  14.390  0.2886  0.8344  0.6867
  721TMC3    C810718   1.037   0.638  14.839  0.5296 -0.3335 -0.1922
  721TMC3    O110719   1.205   0.649  14.289 -0.2752 -0.0058 -0.4413
  721TMC3    O210720   1.141   0.580  14.866  0.0800 -0.1979  0.3978
  722MPD2     C10721   3.615   4.396  13.304  0.4252 -0.2936 -0.4556
  722MPD2    C110722   3.542   4.494  13.363  0.2217  0.4917  0.0764
  722MPD2    C210723   3.427   4.539  13.293  0.4085 -0.4271  0.0816
  722MPD2    C310724   3.387   4.468  13.181 -0.5199  0.8106 -0.1787
  722MPD2    C410725   3.467   4.376  13.121 -0.6520  0.7473  0.4513
  722MPD2    C510726   3.582   4.337  13.188  0.5555  0.2219 -0.4245
  722MPD2     H10727   3.374   4.626  13.331  0.1566  0.0816 -1.4324
  722MPD2    H110728   3.445   4.324  13.028 -0.4553 -2.6754  2.3295
  722MPD2    H210729   3.715   4.377  13.342 -0.1188 -0.9928  0.6166
  722MPD2    H310730   3.650   4.273  13.134  0.2528  0.7161 -1.3822
  722MPD2     N10731   3.253   4.496  13.132 -0.5354  0.2568  0.1034
  722MPD2    H510732   3.190   4.558  13.181  0.9543  1.8810 -0.0013
  722MPD2    N110733   3.580   4.559  13.479 -0.2020  0.3873  0.3581
  722MPD2    H710734   3.524   4.638  13.509  0.7226  1.3724 -0.5105
  723TMC3    C110735   3.045   4.466  13.022 -0.1617 -0.3566 -0.2234
  723TMC3    C210736   2.956   4.368  12.995 -0.2470  0.0801  1.2595
  723TMC3    C310737   2.826   4.382  13.034 -0.0649 -0.1387  0.8995
  723TMC3    C410738   2.999   4.582  13.079  0.5274  0.4302 -0.6629
  723TMC3    C510739   2.866   4.591  13.130 -0.1754  0.4924 -0.6263
  723TMC3    C610740   2.784   4.484  13.114  0.0371 -0.0493  0.8159
  723TMC3     C10741   3.188   4.428  13.031  0.2121 -0.3585 -1.1735
  723TMC3     O10742   3.228   4.332  12.964 -0.6299  0.5130 -0.0338
  723TMC3     H10743   2.996   4.275  12.955 -0.1667  0.2527  0.9409
  723TMC3    H110744   3.066   4.667  13.077  1.6385 -0.3817  3.2508
  723TMC3    H210745   2.681   4.498  13.145  0.7663  0.8281  2.8652
  723TMC3    C710746   2.807   4.715  13.175  0.7400 -0.3034 -0.3452
  723TMC3    C810747   2.736   4.272  13.019 -0.6622  0.3189  0.6479
  723TMC3    O110748   2.687   4.717  13.178 -0.6680 -0.3668  0.0716
  723TMC3    O210749   2.642   4.278  13.098  0.0121 -0.1382 -0.0606
  724TMC3    C110750   4.660   3.170  10.797 -0.0695 -0.0990  0.5053
  724TMC3    C210751   0.037   3.140  10.738 -0.0684 -0.1490  0.1202
  724TMC3    C310752   0.146   3.222  10.761 -0.3968  0.2175 -1.2399
  724TMC3    C410753   4.634   3.286  10.858 -0.2291  0.8038  0.4123
  724TMC3    C510754   0.001   3.374  10.868 -0.6796  0.6705 -0.2992
  724TMC3    C610755   0.127   3.341  10.837  0.6121 -0.3578 -0.0738
  724TMC3     C10756   4.548   3.074  10.790  0.0652 -0.1754  0.1931
  724TMC3     O10757   4.463   3.105  10.870 -0.4456  0.2561 -0.4868
  724TMC3     H10758   0.054   3.036  10.715  1.9265  0.3486 -0.7093
  724TMC3    H110759   4.546   3.314  10.914  0.3788 -1.3247  2.4033
  724TMC3    H210760   0.201   3.421  10.831  0.7879 -0.4043  1.5212
  724TMC3    C710761   4.735   3.500  10.936 -0.0743  0.3518 -0.1345
  724TMC3    C810762   0.279   3.176  10.726 -0.2037 -0.6306 -0.8226
  724TMC3    O110763   0.091   3.525  11.004 -0.3181 -0.4010 -0.3652
  724TMC3    O210764   0.295   3.055  10.712  0.0209  0.3882  0.1640
  725TMC3    C110765   1.175   0.996  12.737 -0.6271 -0.2036 -0.5367
  725TMC3    C210766   1.061   1.060  12.706  0.4231  0.8225  0.9041
  725TMC3    C310767   0.995   1.020  12.594  0.0504  0.3450  0.0768
  725TMC3    C410768   1.238   0.902  12.667 -0.3963  0.4655  0.1484
  725TMC3    C510769   1.161   0.865  12.560  0.4905  0.3172 -0.1208
  725TMC3    C610770   1.036   0.907  12.528  0.1775 -0.3830 -0.3521
  725TMC3     C10771   1.240   1.052  12.850 -0.5914  0.4274  0.1811
  725TMC3     O10772   1.350   1.101  12.831 -0.5946  0.2956  0.0633
  725TMC3     H10773   1.020   1.143  12.763  0.9653  1.6078  0.1595
  725TMC3    H110774   1.337   0.867  12.696 -0.3617  0.1587 -0.3480
  725TMC3    H210775   0.999   0.882  12.429  1.5137 -1.9172 -0.4625
  725TMC3    C710776   1.219   0.772  12.462  0.2530 -0.3525  0.2488
  725TMC3    C810777   0.857   1.034  12.588  0.4558  0.5673 -0.2158
  725TMC3    O110778   1.163   0.763  12.354 -0.1307  0.1192 -0.1498
  725TMC3    O210779   0.790   0.934  12.567 -0.3289  0.2415 -0.3024
  726MPD2     C10780   3.680   3.156  10.584 -0.3119 -0.0642  0.3847
  726MPD2    C110781   3.604   3.270  10.581 -0.9667 -0.1860 -0.1089
  726MPD2    C210782   3.465   3.259  10.586  0.0882  0.4707 -0.8143
  726MPD2    C310783   3.403   3.141  10.604  0.1239  0.1071  0.2677
  726MPD2    C410784   3.481   3.035  10.624 -0.0481 -0.3066 -0.1646
  726MPD2    C510785   3.617   3.038  10.618 -0.2490  0.8894 -0.3949
  726MPD2     H10786   3.409   3.351  10.587 -1.2429 -0.3851  1.6585
  726MPD2    H110787   3.435   2.937  10.633  0.1903 -0.2277  1.9867
  726MPD2    H210788   3.788   3.161  10.595 -0.4372  3.1423  0.3393
  726MPD2    H310789   3.673   2.946  10.634  0.7559  1.6459  0.4217
  726MPD2     N10790   3.263   3.126  10.618 -0.1074 -0.7645  0.0408
  726MPD2    H510791   3.237   3.029  10.629  0.0447 -0.5573  2.3365
  726MPD2    N110792   3.659   3.396  10.562 -0.7965  0.3586 -0.3501
  726MPD2    H710793   3.591   3.471  10.553 -0.1419  0.9853 -0.0418
  727TMC3    C110794   3.827   3.550  10.484  0.5662 -0.4603 -0.1712
  727TMC3    C210795   3.955   3.598  10.498  0.2210 -0.6966 -0.2921
  727TMC3    C310796   3.976   3.727  10.458 -0.3268  1.0583 -0.1824
  727TMC3    C410797   3.725   3.625  10.433 -0.4119 -0.3468 -0.5871
  727TMC3    C510798   3.748   3.757  10.404 -0.0215  0.1334 -0.3122
  727TMC3    C610799   3.878   3.800  10.413  1.2121  0.4996 -0.6209
  727TMC3     C10800   3.792   3.418  10.544 -0.9780 -0.3762 -0.2063
  727TMC3     O10801   3.892   3.354  10.575 -0.1226  0.8512 -0.5033
  727TMC3     H10802   4.036   3.535  10.533  0.0879 -1.6834 -1.7321
  727TMC3    H110803   3.634   3.570  10.411  0.3634 -1.5415 -0.8007
  727TMC3    H210804   3.910   3.892  10.366  0.6023  0.7058 -0.6321
  727TMC3    C710805   3.662   3.833  10.314 -0.1913 -0.3402  0.1854
  727TMC3    C810806   4.110   3.786  10.493 -0.6354 -0.2780 -0.1890
  727TMC3    O110807   3.715   3.934  10.267  0.0402  0.1037  0.1296
  727TMC3    O210808   4.204   3.712  10.493 -0.0332  0.2416  0.1635
  728TMC3    C110809   2.862   1.479  15.325 -0.1992 -0.6439  0.3976
  728TMC3    C210810   2.984   1.509  15.366  0.2398  0.1131  0.6041
  728TMC3    C310811   3.080   1.548  15.283  0.1921 -0.1031  0.3623
  728TMC3    C410812   2.832   1.490  15.190  0.4299  0.1654  0.1850
  728TMC3    C510813   2.931   1.510  15.098  0.2361  0.8595  0.4975
  728TMC3    C610814   3.058   1.545  15.148 -0.3298 -0.2541 -0.1077
  728TMC3     C10815   2.757   1.517  15.422  0.0663  0.0291  0.5553
  728TMC3     O10816   2.793   1.600  15.506 -0.5008  0.2516  0.0356
  728TMC3     H10817   3.007   1.514  15.472 -0.4896 -0.4380  0.7874
  728TMC3    H110818   2.732   1.477  15.149 -0.1136 -1.0736  1.9203
  728TMC3    H210819   3.137   1.572  15.079  1.6591 -1.1040  1.8472
  728TMC3    C710820   2.888   1.551  14.968  0.3732  0.3686 -0.2633
  728TMC3    C810821   3.216   1.531  15.331  0.1259  0.3283 -0.0561
  728TMC3    O110822   2.825   1.474  14.897 -0.2113 -0.0227  0.0150
  728TMC3    O210823   3.236   1.573  15.444  0.0961  0.0653  0.3882
  729MPD2     C10824   0.285   1.686  16.821 -0.6680  0.0467  0.2355
  729MPD2    C110825   0.280   1.819  16.839 -0.7779 -0.2065 -0.3360
  729MPD2    C210826   0.263   1.870  16.966 -0.1873 -0.0784 -0.1210
  729MPD2    C310827   0.253   1.786  17.079  0.0271  0.2066 -0.1945
  729MPD2    C410828   0.257   1.649  17.060 -0.0024 -0.9974 -0.2244
  729MPD2    C510829   0.275   1.603  16.930  0.2531  0.7930 -0.5987
  729MPD2     H10830   0.271   1.977  16.984  2.9095 -0.2244 -0.5641
  729MPD2    H110831   0.231   1.574  17.134  0.2437  2.6924  3.5363
  729MPD2    H210832   0.295   1.637  16.724 -1.1895 -0.2006  0.3106
  729MPD2    H310833   0.295   1.499  16.907 -0.0843  0.7276 -0.5960
  729MPD2     N10834   0.239   1.834  17.213 -0.1384  0.3210 -0.3416
  729MPD2    H510835   0.240   1.767  17.289 -1.5610  2.1156  1.2754
  729MPD2    N110836   0.317   1.902  16.730  0.1497  0.2081 -0.2119
  729MPD2    H710837   0.335   1.850  16.645  1.8778 -0.0651  0.3382
  730TMC3    C110838   0.226   2.004  17.369 -0.9235  0.2148  0.4934
  730TMC3    C210839   0.361   2.017  17.400  0.0548 -0.2036  0.5829
  730TMC3    C310840   0.400   2.134  17.466  0.2273  0.3995 -0.9228
  730TMC3    C410841   0.140   2.100  17.414  1.2135  0.5639  0.4584
  730TMC3    C510842   0.181   2.200  17.489  0.0651 -0.1470  0.0720
  730TMC3    C610843   0.314   2.220  17.524  0.2851  0.3925 -0.6465
  730TMC3     C10844   0.183   1.949  17.240 -0.3913 -0.2580 -0.0029
  730TMC3     O10845   0.119   2.024  17.169  0.0089  0.1157 -0.0094
  730TMC3     H10846   0.430   1.944  17.360 -0.2297 -0.1190 -0.0542
  730TMC3    H110847   0.034   2.104  17.388  1.0856 -1.1065  0.7140
  730TMC3    H210848   0.353   2.305  17.580 -1.6516  2.5422 -2.5667
  730TMC3    C710849   0.087   2.311  17.501  0.7771 -0.0718 -0.1651
  730TMC3    C810850   0.506   2.191  17.391  0.1966  0.2678 -0.5822
  730TMC3    O110851   0.000   2.328  17.414 -0.7675  0.3187  0.5560
  730TMC3    O210852   0.586   2.113  17.340  0.1792  0.5329  0.6129
  731MPD2     C10853   0.004   1.049  12.427 -0.3890 -0.5226  0.1720
  731MPD2    C110854   0.138   1.025  12.397  0.3905  0.7586 -0.4110
  731MPD2    C210855   0.221   0.987  12.498  0.0405 -0.1355 -0.7123
  731MPD2    C310856   0.173   0.968  12.629  1.2247 -0.5115 -0.2351
  731MPD2    C410857   0.037   0.976  12.653  1.0289 -0.2589 -0.4360
  731MPD2    C510858   4.692   1.022  12.554 -0.3750  0.6685 -1.0725
  731MPD2     H10859   0.327   0.973  12.477  0.2236 -0.0084  0.1516
  731MPD2    H110860   4.727   0.947  12.745  1.1216 -0.2821 -0.3929
  731MPD2    H210861   4.672   1.079  12.353  1.1337  0.4135 -0.9527
  731MPD2    H310862   4.584   1.019  12.566 -0.3100 -2.5218 -1.3341
  731MPD2     N10863   0.261   0.938  12.734 -0.1162 -0.2510 -0.6348
  731MPD2    H510864   0.360   0.924  12.717 -0.2649  0.8335 -2.3861
  731MPD2    N110865   0.202   1.045  12.271  0.1764 -0.1216 -0.9965
  731MPD2    H710866   0.294   1.003  12.265  1.4271  2.6272 -0.7824
  732TMC3    C110867   0.203   1.075  12.043  0.1020  0.2875  0.2827
  732TMC3    C210868   0.125   1.011  11.953 -0.0166 -0.1115  0.4041
  732TMC3    C310869   0.183   0.922  11.866  0.1368  0.1465  0.3039
  732TMC3    C410870   0.344   1.058  12.038  0.1171 -0.1138 -0.6216
  732TMC3    C510871   0.396   0.974  11.945  0.4094 -0.8351 -0.1332
  732TMC3    C610872   0.316   0.900  11.865  0.8344 -0.3944  0.2282
  732TMC3     C10873   0.133   1.112  12.167 -0.1018 -0.2038  0.4508
  732TMC3     O10874   0.017   1.156  12.167 -0.7745 -0.3164 -0.0598
  732TMC3     H10875   0.017   1.016  11.959 -0.0714 -0.8645  0.1108
  732TMC3    H110876   0.411   1.118  12.098 -0.2773  1.5472 -1.8064
  732TMC3    H210877   0.355   0.837  11.785 -1.1202  0.7800 -1.6450
  732TMC3    C710878   0.534   1.002  11.918 -0.5114  0.0691 -0.0175
  732TMC3    C810879   0.102   0.837  11.792 -0.0635 -0.8083 -0.4020
  732TMC3    O110880   0.572   1.118  11.948 -0.5207 -0.4458  0.3342
  732TMC3    O210881   0.156   0.784  11.695 -0.1804 -0.7045  0.0307
  733TMC3    C110882   0.933   3.610  13.083 -0.4047 -0.7435 -0.1425
  733TMC3    C210883   1.038   3.533  13.067  0.8170  0.5312  0.1093
  733TMC3    C310884   1.136   3.596  13.002  0.2489 -0.5322  0.3361
  733TMC3    C410885   0.912   3.735  13.035  0.4614 -0.1201 -0.6997
  733TMC3    C510886   1.014   3.789  12.969 -0.0236 -0.0621 -0.0111
  733TMC3    C610887   1.131   3.718  12.948  0.2676  0.5694  0.2882
  733TMC3     C10888   0.834   3.562  13.180  0.1806 -0.0115  0.0407
  733TMC3     O10889   0.737   3.637  13.199 -0.8611  0.2129  0.1416
  733TMC3     H10890   1.065   3.448  13.129  2.4715 -0.7377 -2.3560
  733TMC3    H110891   0.816   3.786  13.033 -0.2418 -1.3982  0.4342
  733TMC3    H210892   1.220   3.763  12.905  0.4344  0.9765  1.0516
  733TMC3    C710893   0.996   3.923  12.899  0.0842  0.5987 -0.7853
  733TMC3    C810894   1.258   3.533  12.988 -0.1392 -0.2322 -0.5991
  733TMC3    O110895   0.895   3.986  12.922  0.1253  0.0993  0.5063
  733TMC3    O210896   1.306   3.469  13.082  0.3514  0.0751  0.4025
  734MPD2     C10897   2.927   1.880  12.564  0.7565  0.7399 -0.0670
  734MPD2    C110898   2.914   1.768  12.484 -0.8093  0.2233 -0.2220
  734MPD2    C210899   2.963   1.789  12.355  0.3913 -0.5973 -0.3952
  734MPD2    C310900   3.010   1.907  12.309 -0.0585  0.8206 -0.8509
  734MPD2    C410901   3.040   2.010  12.394  0.0891  0.2780  0.4328
  734MPD2    C510902   2.995   1.995  12.522 -0.5425 -1.2373  0.2460
  734MPD2     H10903   2.956   1.706  12.286 -3.5599 -2.8358  2.6543
  734MPD2    H110904   3.097   2.098  12.366 -0.9375  1.5561  2.3958
  734MPD2    H210905   2.888   1.873  12.665  1.5051 -0.5834  0.1335
  734MPD2    H310906   3.009   2.072  12.596  0.4864 -1.7778  0.6169
  734MPD2     N10907   3.042   1.904  12.170  0.0109  0.4970  0.0668
  734MPD2    H510908   3.037   1.807  12.141  3.6342  0.4629 -0.4145
  734MPD2    N110909   2.853   1.648  12.525  0.2690 -0.0969  0.2415
  734MPD2    H710910   2.833   1.638  12.624  0.6893 -0.9457  0.2376
  735TMC3    C110911   2.795   1.413  12.520  0.8777  0.1263 -0.5712
  735TMC3    C210912   2.732   1.323  12.439  0.4703 -0.8936 -0.5774
  735TMC3    C310913   2.794   1.202  12.409  0.3046  0.1466 -0.4779
  735TMC3    C410914   2.895   1.376  12.602  0.6277 -0.0771 -0.3152
  735TMC3    C510915   2.934   1.241  12.598  0.3831  0.3179  0.8579
  735TMC3    C610916   2.886   1.155  12.498  0.1789 -0.0293  1.0574
  735TMC3     C10917   2.827   1.538  12.448  0.0047 -0.2328 -0.6765
  735TMC3     O10918   2.817   1.527  12.327 -0.1508 -0.6628 -0.4209
  735TMC3     H10919   2.652   1.347  12.369 -0.6071 -3.1804 -0.1047
  735TMC3    H110920   2.946   1.435  12.677 -0.5880  2.1163 -1.2327
  735TMC3    H210921   2.930   1.058  12.474 -2.6273 -1.0415  0.0936
  735TMC3    C710922   3.073   1.217  12.610  0.2869 -0.1428  0.6417
  735TMC3    C810923   2.807   1.172  12.265 -0.6308 -0.4424  0.3074
  735TMC3    O110924   3.151   1.305  12.573 -0.3057  0.0257 -0.2060
  735TMC3    O210925   2.824   1.057  12.221  0.0767 -0.3593 -0.4408
  736MPD2     C10926   3.233   0.889  12.691 -0.0556  0.3663 -0.4434
  736MPD2    C110927   3.232   1.023  12.641  0.0458  0.0007 -0.2373
  736MPD2    C210928   3.341   1.076  12.574 -0.3651 -0.4188 -0.0209
  736MPD2    C310929   3.452   0.991  12.550 -0.2515 -0.4638  0.1841
  736MPD2    C410930   3.451   0.857  12.592 -0.2311  0.7597  0.4542
  736MPD2    C510931   3.340   0.812  12.657 -0.4842  0.3395 -0.2995
  736MPD2     H10932   3.347   1.180  12.544  0.1717 -0.4349  0.0224
  736MPD2    H110933   3.542   0.799  12.584 -0.4304  0.9510 -3.1852
  736MPD2    H210934   3.147   0.852  12.744  1.2553  2.2654  3.0109
  736MPD2    H310935   3.347   0.713  12.700 -2.6651  1.3921  2.4357
  736MPD2     N10936   3.570   1.021  12.482 -0.0664 -0.9052 -0.1395
  736MPD2    H510937   3.650   0.958  12.481 -1.1142 -2.2524  1.5908
  736MPD2    N110938   3.108   1.091  12.655  0.0291  0.3692 -0.4256
  736MPD2    H710939   3.032   1.030  12.683  0.1473  1.0016  1.2497
  737TMC3    C110940   3.713   1.143  12.341  0.2014 -0.6107  0.4075
  737TMC3    C210941   3.752   1.270  12.314  0.1079 -0.5847 -0.0777
  737TMC3    C310942   3.811   1.299  12.194  0.2534 -0.0259 -0.0659
  737TMC3    C410943   3.743   1.042  12.250  0.0724 -0.2509  0.8669
  737TMC3    C510944   3.827   1.067  12.146 -0.2948  0.3809 -0.5553
  737TMC3    C610945   3.849   1.199  12.106 -0.1596 -0.4633 -0.0578
  737TMC3     C10946   3.587   1.141  12.416 -0.2138  0.3695  0.4922
  737TMC3     O10947   3.502   1.215  12.372 -0.2758 -0.0496 -0.0047
  737TMC3     H10948   3.719   1.350  12.378  1.1812 -1.0319  1.0424
  737TMC3    H110949   3.704   0.945  12.277  1.3373 -0.6024  1.4246
  737TMC3    H210950   3.917   1.223  12.026 -1.0493 -0.5743 -0.8444
  737TMC3    C710951   3.830   0.950  12.052  0.4475 -0.1664 -0.4299
  737TMC3    C810952   3.872   1.434  12.173  0.1764  0.7955  0.1971
  737TMC3    O110953   3.756   0.859  12.073  0.5223  0.2190  0.8053
  737TMC3    O210954   3.883   1.487  12.284 -0.5569 -0.1767 -0.3838
  738MPD2     C10955   3.641   0.107  14.887  0.3311 -0.2544  0.1491
  738MPD2    C110956   3.665   0.050  15.013 -0.0330 -0.1626  0.5730
  738MPD2    C210957   3.754   0.113  15.100 -0.2014  0.3998  0.6217
  738MPD2    C310958   3.826   0.225  15.056  0.1952  0.1588 -0.2105
  738MPD2    C410959   3.809   0.276  14.922  0.1398  0.1803 -0.2509
  738MPD2    C510960   3.711   0.218  14.844  0.3820 -0.4190 -0.3090
  738MPD2     H10961   3.779   0.073  15.197  1.9890  1.1928  0.3867
  738MPD2    H110962   3.865   0.360  14.884  0.8037  0.2331  0.8312
  738MPD2    H210963   3.572   0.068  14.813  0.0082  1.7423 -0.5985
  738MPD2    H310964   3.689   0.262  14.747 -0.9426 -0.9020 -0.2188
  738MPD2     N10965   3.929   0.291  15.112 -0.0768  0.3512  0.1914
  738MPD2    H510966   3.978   0.361  15.058  0.4603 -1.2813 -1.4650
  738MPD2    N110967   3.600   4.670  15.053  0.4162 -0.1747 -0.2989
  738MPD2    H710968   3.632   4.626  15.139 -1.8740  1.9715  1.6351
  739TMC3    C110969   4.119   0.318  15.224  0.5887  0.4079 -0.5966
  739TMC3    C210970   4.169   0.327  15.097  0.2474  0.4327 -0.1646
  739TMC3    C310971   4.294   0.377  15.088  0.1179  0.6660 -0.5005
  739TMC3    C410972   4.180   0.370  15.335 -0.2228 -0.2590 -1.0282
  739TMC3    C510973   4.306   0.418  15.320 -0.6043 -0.9971  0.4793
  739TMC3    C610974   4.368   0.416  15.194 -0.8656  0.0203  0.9965
  739TMC3     C10975   3.983   0.264  15.229  0.0145 -0.2237 -0.5823
  739TMC3     O10976   3.938   0.197  15.327  0.3050  0.5425 -0.4376
  739TMC3     H10977   4.138   0.274  15.007  0.5968  2.3700 -1.4326
  739TMC3    H110978   4.125   0.384  15.427  0.6439 -0.4663 -0.4761
  739TMC3    H210979   4.469   0.453  15.180 -0.4348 -1.1774  0.9283
  739TMC3    C710980   4.402   0.447  15.426  0.1495 -0.5728  1.0059
  739TMC3    C810981   4.350   0.382  14.955  0.3288 -0.1363  0.8278
  739TMC3    O110982   4.509   0.511  15.404 -0.1511 -0.5143 -0.3457
  739TMC3    O210983   4.260   0.392  14.868 -0.2762 -0.1760 -0.1596
  740TMC3    C110984   0.058   1.204  14.657 -0.0607  0.3196  0.4340
  740TMC3    C210985   0.066   1.136  14.778 -0.2152 -1.2515  0.4156
  740TMC3    C310986   0.168   1.050  14.804 -0.2718 -0.6592 -0.2492
  740TMC3    C410987   0.152   1.198  14.563  1.3979 -0.3766 -0.1891
  740TMC3    C510988   0.261   1.123  14.606 -0.2647 -0.2089 -0.3625
  740TMC3    C610989   0.268   1.042  14.717 -0.0069 -0.1977 -0.5278
  740TMC3     C10990   4.678   1.286  14.617 -0.3319  0.7443 -0.2013
  740TMC3     O10991   4.687   1.357  14.523 -0.3526 -0.2839 -0.3347
  740TMC3     H10992   4.722   1.145  14.844  1.1471  0.6863  1.8990
  740TMC3    H110993   0.152   1.253  14.470  4.2534 -1.2414 -0.7086
  740TMC3    H210994   0.360   0.992  14.745 -0.2499 -1.1303 -1.3971
  740TMC3    C710995   0.359   1.086  14.509 -0.0981  0.3371  0.4191
  740TMC3    C810996   0.131   0.926  14.881  0.7960 -0.1924 -0.0204
  740TMC3    O110997   0.446   1.011  14.547  0.1537 -0.3081  0.2499
  740TMC3    O210998   0.034   0.937  14.955  0.8246 -0.0069 -0.4670
  741TMC3    C110999   4.416   0.819  14.063 -0.3157 -0.6203  0.0449
  741TMC3    C211000   4.297   0.801  14.136  0.3809 -0.6994 -0.2838
  741TMC3    C311001   4.303   0.702  14.233 -0.1315  0.3327  0.4128
  741TMC3    C411002   4.523   0.742  14.071 -0.2351  0.4143 -0.6859
  741TMC3    C511003   4.529   0.644  14.170  0.3070 -0.1366 -0.7436
  741TMC3    C611004   4.411   0.615  14.238  0.1597 -0.2159  0.1359
  741TMC3     C11005   4.401   0.908  13.953 -0.2902  0.8697 -0.3049
  741TMC3     O11006   4.309   0.988  13.969 -0.3011 -0.2731  0.9422
  741TMC3     H11007   4.206   0.859  14.128  0.0537 -1.0135  1.1678
  741TMC3    H111008   4.609   0.779  14.017 -0.2176  1.0437 -0.2176
  741TMC3    H211009   4.406   0.525  14.298 -0.0217  1.3046  2.3768
  741TMC3    C711010   4.632   0.538  14.158  0.0992  0.0983  0.2625
  741TMC3    C811011   4.181   0.647  14.268  0.4555 -0.1563 -0.0511
  741TMC3    O111012   4.640   0.462  14.254  0.1323  0.0435 -0.0573
  741TMC3    O211013   4.089   0.660  14.186 -0.4248  0.2551 -0.6253
  742TMC3    C111014   3.878   3.338  15.430  0.2013 -0.4512 -0.7557
  742TMC3    C211015   3.840   3.422  15.324  0.2459 -0.0695  0.2569
  742TMC3    C311016   3.938   3.474  15.247  0.8496 -0.9926 -0.3182
  742TMC3    C411017   4.008   3.294  15.446 -0.0912 -0.2941 -0.4374
  742TMC3    C511018   4.099   3.335  15.353  0.1291 -0.3203  0.6180
  742TMC3    C611019   4.069   3.430  15.259 -0.2583 -0.9263 -0.0584
  742TMC3     C11020   3.775   3.295  15.523 -0.3121  0.2421  0.2285
  742TMC3     O11021   3.662   3.346  15.515  0.3175  0.5920 -0.0162
  742TMC3     H11022   3.740   3.464  15.330  0.6302  0.5480  2.3926
  742TMC3    H111023   4.040   3.247  15.538  1.7644 -1.1101 -1.4963
  742TMC3    H211024   4.147   3.469  15.196 -0.4282  1.0435  0.9470
  742TMC3    C711025   4.242   3.334  15.370 -0.0905 -0.2208  0.1563
  742TMC3    C811026   3.911   3.547  15.127 -0.0060  0.0742 -0.3982
  742TMC3    O111027   4.301   3.320  15.263 -0.0329 -0.3782 -0.3047
  742TMC3    O211028   3.980   3.524  15.029  0.3049 -0.1370  0.1050
  743MPD2     C11029   1.489   4.010   1.314  0.3008 -0.2174  0.4617
  743MPD2    C111030   1.559   4.083   1.219 -0.0415 -1.0579  0.0961
  743MPD2    C211031   1.682   4.132   1.253  0.4660 -0.3145 -0.0400
  743MPD2    C311032   1.733   4.119   1.381 -0.6939  0.3336  0.1114
  743MPD2    C411033   1.661   4.043   1.474 -0.2899  0.2711  0.5934
  743MPD2    C511034   1.536   3.991   1.442 -1.0914 -0.3140  0.0183
  743MPD2     H11035   1.737   4.186   1.177 -0.7349 -0.9757 -1.3714
  743MPD2    H111036   1.692   4.032   1.577 -1.1220  0.8280  0.9038
  743MPD2    H211037   1.392   3.972   1.283  1.1244 -0.3964 -1.8819
  743MPD2    H311038   1.475   3.931   1.508 -0.3959  1.8188  2.6035
  743MPD2     N11039   1.855   4.190   1.409  0.1169  0.2579 -0.0645
  743MPD2    H511040   1.888   4.248   1.333  1.1555  0.1321  0.2952
  743MPD2    N111041   1.510   4.115   1.091 -0.0435  0.5739  0.2618
  743MPD2    H711042   1.570   4.179   1.041 -1.3741  2.4544  1.0941
  744TMC3    C111043   1.371   4.169   0.907  0.4066 -0.3414  0.2772
  744TMC3    C211044   1.269   4.261   0.894  0.7032  0.4916 -0.6963
  744TMC3    C311045   1.290   4.350   0.791 -0.0751 -0.0965 -0.6294
  744TMC3    C411046   1.478   4.160   0.831 -0.2880 -0.2940  0.4876
  744TMC3    C511047   1.483   4.238   0.716  0.5591  0.1030 -0.6263
  744TMC3    C611048   1.395   4.346   0.699  0.0691  0.1011  0.2196
  744TMC3     C11049   1.384   4.105   1.043  0.1644  0.1001 -0.6685
  744TMC3     O11050   1.278   4.072   1.098  0.4107 -0.4763 -0.2345
  744TMC3     H11051   1.179   4.249   0.953  0.4323 -0.0931 -1.2337
  744TMC3    H111052   1.554   4.085   0.852  2.2453  1.1725 -3.5044
  744TMC3    H211053   1.414   4.424   0.627  0.5150 -1.7534 -1.6704
  744TMC3    C711054   1.606   4.226   0.632 -0.1144  0.5908 -0.8626
  744TMC3    C811055   1.221   4.480   0.811  0.3804  0.2526  0.2158
  744TMC3    O111056   1.630   4.324   0.563  0.1284  0.1525  0.4191
  744TMC3    O211057   1.251   4.559   0.727 -0.7633 -0.3229 -0.6743
  745TMC3    C111058   4.177   3.254  13.895 -0.0836 -0.3518  0.0583
  745TMC3    C211059   4.054   3.293  13.949 -0.3253  0.5896  0.1860
  745TMC3    C311060   3.969   3.369  13.869 -0.1008  0.3253  0.2190
  745TMC3    C411061   4.218   3.294  13.773 -0.7899 -0.5965 -0.0261
  745TMC3    C511062   4.124   3.352  13.689  0.1896 -0.4848 -0.0039
  745TMC3    C611063   4.002   3.388  13.738  0.0147 -0.3122  0.6899
  745TMC3     C11064   4.285   3.289  13.984  0.3341  0.1625  0.0617
  745TMC3     O11065   4.261   3.388  14.057 -0.5860  0.5232  0.1172
  745TMC3     H11066   4.028   3.280  14.054  2.1803  2.8939  1.0839
  745TMC3    H111067   4.317   3.278  13.731 -1.4869  1.6509 -2.4297
  745TMC3    H211068   3.954   3.469  13.684  0.0075 -1.0415 -0.3941
  745TMC3    C711069   4.175   3.426  13.566 -0.3528  0.5949  1.2044
  745TMC3    C811070   3.927   3.491  13.924  0.4089  0.0938 -0.1347
  745TMC3    O111071   4.088   3.452  13.479  0.3870 -0.2153  0.3408
  745TMC3    O211072   3.833   3.547  13.872 -0.3474  0.4872 -0.1857
  746TMC3    C111073   2.444   1.013  11.011 -0.0848 -0.2690 -0.3595
  746TMC3    C211074   2.564   1.000  10.948 -0.1285 -0.3055  0.4088
  746TMC3    C311075   2.596   0.875  10.902 -0.4151 -0.4962  1.1948
  746TMC3    C411076   2.364   0.906  11.038 -0.0397 -0.1942 -0.6051
  746TMC3    C511077   2.401   0.785  10.986  0.7861 -0.0951 -0.0578
  746TMC3    C611078   2.512   0.766  10.909 -1.3063 -0.2128  0.0088
  746TMC3     C11079   2.402   1.145  11.054 -0.0279 -0.1897  0.3800
  746TMC3     O11080   2.320   1.149  11.145  0.1550  0.0320  0.1110
  746TMC3     H11081   2.640   1.077  10.955  2.0749 -2.2426 -1.7985
  746TMC3    H111082   2.260   0.912  11.068  0.1210  0.5223 -0.1852
  746TMC3    H211083   2.528   0.673  10.857 -0.8919 -0.3415  0.3620
  746TMC3    C711084   2.305   0.677  10.995 -0.5172  0.3590 -0.1076
  746TMC3    C811085   2.717   0.853  10.824 -0.0031 -0.3129 -0.4380
  746TMC3    O111086   2.296   0.599  10.902  0.0515  0.0878  0.4477
  746TMC3    O211087   2.734   0.742  10.783 -0.4155 -0.1595 -0.4612
  747TMC3    C111088   4.535   0.970  11.285 -0.5313  0.5630  0.0403
  747TMC3    C211089   4.433   0.897  11.332 -0.1781  0.5499 -0.2381
  747TMC3    C311090   4.411   0.911  11.465 -0.3996 -0.2967  0.5925
  747TMC3    C411091   4.627   1.026  11.364  0.2614 -0.0048  0.0057
  747TMC3    C511092   4.613   1.018  11.496 -0.1197  0.4152 -0.4123
  747TMC3    C611093   4.502   0.967  11.556 -0.0286  0.3980  0.2940
  747TMC3     C11094   4.560   0.985  11.144 -0.1609  0.3981  0.6230
  747TMC3     O11095   4.640   1.077  11.121  0.4626 -0.7162 -0.7940
  747TMC3     H11096   4.355   0.857  11.268 -1.1148 -0.1650  1.3483
  747TMC3    H111097   4.723   1.045  11.317 -0.0830  1.3690 -0.1500
  747TMC3    H211098   4.478   0.977  11.661 -1.2076 -1.1758  0.1784
  747TMC3    C711099   4.710   1.086  11.585  0.3854  0.1057  0.2613
  747TMC3    C811100   4.311   0.825  11.518  0.1881  0.7594  0.2968
  747TMC3    O111101   4.675   1.152  11.683  0.3999 -0.2115 -0.1007
  747TMC3    O211102   4.259   0.736  11.453  0.4762  0.1959  0.1054
  748MPD2     C11103   2.098   0.406   0.346 -0.7419 -0.1284 -0.8689
  748MPD2    C111104   1.975   0.416   0.409 -0.6297  0.5857  0.2187
  748MPD2    C211105   1.938   0.541   0.448 -0.1442  0.0142 -0.2774
  748MPD2    C311106   2.032   0.640   0.441 -0.1758  0.5379  0.7076
  748MPD2    C411107   2.161   0.621   0.394 -0.5049  0.1740  0.5579
  748MPD2    C511108   2.194   0.503   0.335 -0.2442 -0.2515  0.9943
  748MPD2     H11109   1.845   0.567   0.497 -0.0637  0.2314 -0.2410
  748MPD2    H111110   2.235   0.701   0.398  0.6893 -0.8968 -0.3549
  748MPD2    H211111   2.134   0.315   0.299 -1.2457 -1.0894  0.6045
  748MPD2    H311112   2.291   0.478   0.293  0.1038 -0.7942  2.1232
  748MPD2     N11113   2.001   0.761   0.516 -0.2714  0.4993  0.0757
  748MPD2    H511114   1.922   0.751   0.579 -0.7592  0.5484 -0.5294
  748MPD2    N111115   1.899   0.299   0.421 -0.1237 -0.4288 -0.2355
  748MPD2    H711116   1.942   0.217   0.379 -0.4599 -0.9366  0.4209
  749TMC3    C111117   2.031   0.971   0.623 -0.3854  0.5882  0.0220
  749TMC3    C211118   2.052   0.925   0.748  0.1217 -0.4674  1.0372
  749TMC3    C311119   2.058   1.008   0.855  0.4685  0.1874  1.0308
  749TMC3    C411120   2.040   1.099   0.595  0.1984  0.2957  0.5909
  749TMC3    C511121   2.046   1.186   0.702 -0.1201 -0.0507  0.1949
  749TMC3    C611122   2.041   1.148   0.833  0.5283 -0.4314 -0.9318
  749TMC3     C11123   2.067   0.885   0.509  0.2820  0.2834 -0.1496
  749TMC3     O11124   2.151   0.920   0.425  0.3116 -0.3567 -0.2174
  749TMC3     H11125   2.052   0.818   0.760 -1.7840 -0.4436  1.3286
  749TMC3    H111126   2.046   1.128   0.491 -1.2546  0.2098  0.4733
  749TMC3    H211127   2.059   1.223   0.909  1.6772 -0.6897 -0.9514
  749TMC3    C711128   2.056   1.328   0.674 -0.4995  0.8297  0.2435
  749TMC3    C811129   2.082   0.967   0.990  0.0180 -0.3656  0.0503
  749TMC3    O111130   2.118   1.395   0.756 -0.6805  0.5149  0.3839
  749TMC3    O211131   2.048   1.046   1.077  0.5773  0.5281  0.6025
  750MPD2     C11132   1.802   3.136  11.364  0.4843 -0.0854 -0.0510
  750MPD2    C111133   1.770   3.033  11.455  1.1377 -0.3679  0.1415
  750MPD2    C211134   1.828   2.907  11.436 -0.0885 -0.5881 -0.0426
  750MPD2    C311135   1.917   2.889  11.334 -0.2733 -0.0225  0.2800
  750MPD2    C411136   1.958   2.992  11.254  0.3354  0.2766  0.3508
  750MPD2    C511137   1.900   3.120  11.267  0.3360  0.2276 -0.4431
  750MPD2     H11138   1.817   2.825  11.506 -0.4939 -2.1087 -1.8958
  750MPD2    H111139   2.035   2.989  11.177  0.2192 -0.6697  0.2720
  750MPD2    H211140   1.765   3.236  11.385  0.5768 -0.3759  1.5044
  750MPD2    H311141   1.932   3.196  11.196 -0.4092 -0.9903 -2.0684
  750MPD2     N11142   2.004   2.772  11.324 -0.0773  0.1047  0.4741
  750MPD2    H511143   2.078   2.781  11.255  0.6348  0.0675  1.2281
  750MPD2    N111144   1.708   3.074  11.575  0.4027 -1.0515  0.0497
  750MPD2    H711145   1.698   3.174  11.585 -1.5158 -1.2938  0.4625
  751TMC3    C111146   2.104   2.565  11.393  0.0582 -0.7373  1.5224
  751TMC3    C211147   2.090   2.446  11.453  0.0453 -0.8619 -0.7982
  751TMC3    C311148   2.189   2.356  11.458 -0.6452  0.5772 -0.6589
  751TMC3    C411149   2.213   2.587  11.314  0.4394  0.3036 -0.2179
  751TMC3    C511150   2.304   2.486  11.308 -0.1784 -0.4701 -0.1493
  751TMC3    C611151   2.306   2.381  11.400 -0.0981  0.4670  0.1244
  751TMC3     C11152   1.991   2.661  11.403  0.0626  0.3904 -0.7902
  751TMC3     O11153   1.895   2.620  11.468 -0.6576 -0.6376 -0.8176
  751TMC3     H11154   1.994   2.420  11.497  1.7379 -2.8371  1.7458
  751TMC3    H111155   2.208   2.666  11.240 -1.1944  0.4196  0.0179
  751TMC3    H211156   2.379   2.301  11.400  0.4572  0.9686 -0.2549
  751TMC3    C711157   2.349   2.462  11.174 -0.0961 -0.7704 -1.0052
  751TMC3    C811158   2.144   2.227  11.408  0.6705 -0.4518  0.2455
  751TMC3    O111159   2.395   2.552  11.103  0.2925 -0.6538 -0.3204
  751TMC3    O211160   2.213   2.181  11.319 -0.0368  0.2459 -0.7304
  752TMC3    C111161   1.001   2.177  17.299 -0.4378  0.6181  0.2366
  752TMC3    C211162   0.971   2.054  17.355 -0.1334  0.4475  0.4310
  752TMC3    C311163   0.907   2.057  17.477  0.3761 -0.6818  1.0101
  752TMC3    C411164   0.980   2.296  17.376 -0.3357  0.2578  0.3684
  752TMC3    C511165   0.931   2.288  17.503 -0.3742  0.5533 -0.0904
  752TMC3    C611166   0.889   2.169  17.554  0.7283 -0.3019 -0.6252
  752TMC3     C11167   1.017   2.194  17.160  0.3686  0.2116 -0.5834
  752TMC3     O11168   1.084   2.290  17.119  0.1938  0.3647  0.4534
  752TMC3     H11169   0.977   1.961  17.299  0.3861 -0.3703  1.8401
  752TMC3    H111170   1.022   2.388  17.338 -0.6499  0.1920 -0.1455
  752TMC3    H211171   0.829   2.150  17.643  0.8160 -1.0128 -0.7157
  752TMC3    C711172   0.865   2.414  17.537  0.8379 -0.6085  0.3391
  752TMC3    C811173   0.905   1.930  17.547 -0.0909 -0.1684 -0.4808
  752TMC3    O111174   0.865   2.498  17.447  0.1047 -0.3505  0.1032
  752TMC3    O211175   0.883   1.830  17.484 -0.2104  0.1995  0.5683
  753TMC3    C111176   2.785   3.550  13.092 -0.4416  0.0716 -0.1583
  753TMC3    C211177   2.812   3.511  13.219 -0.6898  0.2661  0.3748
  753TMC3    C311178   2.749   3.402  13.258  0.7143 -0.5014  0.7707
  753TMC3    C411179   2.712   3.474  13.005  0.3670  0.3438  0.8712
  753TMC3    C511180   2.650   3.366  13.058  0.0731 -0.5683 -0.2051
  753TMC3    C611181   2.664   3.326  13.185 -0.5516  0.1760  0.0821
  753TMC3     C11182   2.854   3.664  13.042 -0.2357 -0.7933  0.0024
  753TMC3     O11183   2.903   3.659  12.929 -0.7570 -0.0043 -0.2489
  753TMC3     H11184   2.887   3.570  13.270  0.2194 -0.4804 -0.0955
  753TMC3    H111185   2.694   3.500  12.902  1.0367 -1.1296  0.3763
  753TMC3    H211186   2.622   3.243  13.241 -0.7514 -0.1107 -0.4958
  753TMC3    C711187   2.619   3.267  12.957  0.2960  0.2353 -0.2369
  753TMC3    C811188   2.767   3.352  13.397  1.2401  0.5433 -0.2824
  753TMC3    O111189   2.604   3.303  12.838 -0.4162 -0.3310 -0.4226
  753TMC3    O211190   2.764   3.231  13.419 -0.1953 -0.0232  0.0559
  754MPD2     C11191   1.841   1.998  13.478 -0.9821 -0.0467  0.2060
  754MPD2    C111192   1.811   1.862  13.467 -0.2855 -0.1898 -0.0573
  754MPD2    C211193   1.831   1.806  13.342 -0.1939  0.4230 -0.0069
  754MPD2    C311194   1.894   1.873  13.240  0.3576  0.1230 -0.8185
  754MPD2    C411195   1.930   2.002  13.266 -0.0204 -0.2736  0.5206
  754MPD2    C511196   1.906   2.064  13.386  0.2561 -0.0166 -0.2424
  754MPD2     H11197   1.807   1.702  13.324  0.1435  0.2872  0.3246
  754MPD2    H111198   1.966   2.064  13.184 -0.7246  1.0971  1.2488
  754MPD2    H211199   1.799   2.049  13.564 -0.6466  2.0099 -0.8742
  754MPD2    H311200   1.929   2.168  13.405 -0.7306  0.0696  0.5247
  754MPD2     N11201   1.914   1.820  13.113 -0.1917  0.1587 -0.3265
  754MPD2    H511202   1.991   1.862  13.064  2.2701 -3.4871  0.3879
  754MPD2    N111203   1.736   1.799  13.568  1.2250  0.2434  0.6762
  754MPD2    H711204   1.701   1.856  13.645 -0.2334 -0.3300  0.4228
  755MPD2     C11205   1.275   2.270  13.475  0.2508 -0.7305  0.7340
  755MPD2    C111206   1.194   2.175  13.415  0.6247 -0.3750  0.1665
  755MPD2    C211207   1.251   2.060  13.360 -0.1142  0.2814  0.4986
  755MPD2    C311208   1.389   2.052  13.357  0.8602 -0.9586  0.5329
  755MPD2    C411209   1.461   2.146  13.426  0.0972  0.2117  0.8924
  755MPD2    C511210   1.407   2.252  13.487 -0.2223 -0.1755  0.3069
  755MPD2     H11211   1.188   1.979  13.325 -1.5007  1.5918 -0.0641
  755MPD2    H111212   1.569   2.149  13.434  0.1793 -1.7983  0.4749
  755MPD2    H211213   1.238   2.360  13.522  0.7009  1.0209 -2.2766
  755MPD2    H311214   1.466   2.318  13.550 -0.2972 -3.3901  3.7857
  755MPD2     N11215   1.455   1.946  13.287  0.3178 -0.0534  1.0564
  755MPD2    H511216   1.555   1.957  13.274  0.2618  0.9035  1.3960
  755MPD2    N111217   1.053   2.178  13.429  0.0703  0.5838  0.5654
  755MPD2    H711218   1.002   2.101  13.388  1.5925 -1.3737  2.2954
  756MPD2     C11219   1.781   3.590   9.934 -0.3968 -0.5834 -0.4749
  756MPD2    C111220   1.729   3.646  10.048 -0.2093  1.0792  0.1916
  756MPD2    C211221   1.591   3.654  10.073  0.1978  0.1353  0.1545
  756MPD2    C311222   1.504   3.599   9.977  0.5885 -0.2017  0.1365
  756MPD2    C411223   1.560   3.533   9.867 -0.1539 -0.1344 -0.0792
  756MPD2    C511224   1.694   3.539   9.840  0.0544 -0.0913  0.3415
  756MPD2     H11225   1.541   3.701  10.157  0.1068  2.3111 -1.1208
  756MPD2    H111226   1.496   3.485   9.793 -0.3845 -0.2975  0.2235
  756MPD2    H211227   1.883   3.602   9.899  0.2895 -1.2681  1.2764
  756MPD2    H311228   1.735   3.498   9.749  1.5870  1.5352  0.2797
  756MPD2     N11229   1.363   3.609  10.004 -0.5233  0.1028 -0.1393
  756MPD2    H511230   1.338   3.653  10.092  1.7911 -1.2768  1.2130
  756MPD2    N111231   1.809   3.726  10.135  0.0123  0.1367 -0.2802
  756MPD2    H711232   1.749   3.775  10.201 -1.4879 -0.8598 -0.8881
  757MPD2     C11233   0.791   2.857  10.193 -0.7656 -0.2278  0.0891
  757MPD2    C111234   0.919   2.896  10.223  0.1595  0.0579  0.2110
  757MPD2    C211235   0.961   3.023  10.194  0.0272 -1.0547  0.0471
  757MPD2    C311236   0.875   3.117  10.142 -0.0745 -0.2996  0.2878
  757MPD2    C411237   0.748   3.078  10.112 -0.0904 -0.2512  0.0283
  757MPD2    C511238   0.702   2.953  10.136 -0.5781  0.0577  0.1194
  757MPD2     H11239   1.060   3.062  10.212 -0.0368 -0.7118 -0.3369
  757MPD2    H111240   0.676   3.145  10.068 -0.6557 -0.2754  0.9026
  757MPD2    H211241   0.764   2.753  10.210 -0.3858  0.3727  4.3296
  757MPD2    H311242   0.603   2.923  10.103  0.0036  0.4510 -1.9655
  757MPD2     N11243   0.929   3.246  10.120 -0.3925  0.1590 -0.0411
  757MPD2    H511244   1.030   3.245  10.129 -0.3235 -0.2766 -0.7976
  757MPD2    N111245   0.998   2.793  10.282 -0.3279  0.0220  0.7797
  757MPD2    H711246   0.961   2.698  10.279  0.0559 -0.0615 -1.7407
  758MPD2     C11247   1.843   2.178  15.839 -0.1586 -0.3821  0.2145
  758MPD2    C111248   1.950   2.123  15.912 -0.2611  0.5114 -0.4928
  758MPD2    C211249   1.926   2.088  16.047 -0.0066 -0.2061 -0.2268
  758MPD2    C311250   1.803   2.108  16.105 -0.4441 -0.2006 -0.1078
  758MPD2    C411251   1.696   2.156  16.027 -0.0449 -0.0548 -0.2466
  758MPD2    C511252   1.725   2.196  15.899  0.4483  0.2619 -0.1000
  758MPD2     H11253   2.005   2.050  16.110  0.8551 -1.0130 -1.8183
  758MPD2    H111254   1.602   2.190  16.068  0.0604  1.4511 -1.2766
  758MPD2    H211255   1.855   2.220  15.740  0.9327 -1.4261 -0.1021
  758MPD2    H311256   1.638   2.233  15.846  0.7697  0.0073 -0.8184
  758MPD2     N11257   1.775   2.079  16.242  0.9152  0.1419  0.3699
  758MPD2    H511258   1.691   2.122  16.281 -0.5230 -2.2499 -0.0674
  758MPD2    N111259   2.078   2.112  15.855  0.1299  0.1501 -0.0291
  758MPD2    H711260   2.086   2.132  15.756 -1.3801 -0.5574 -0.3013
  759MPD2     C11261   0.378   1.002  10.314 -0.4954  0.4596  0.3149
  759MPD2    C111262   0.491   0.982  10.392  0.4300 -0.4764  0.2046
  759MPD2    C211263   0.615   1.040  10.354  0.5290 -0.3414  0.1853
  759MPD2    C311264   0.618   1.111  10.241  0.3295  0.6659 -0.4725
  759MPD2    C411265   0.505   1.147  10.169  0.3717  0.0414 -0.1450
  759MPD2    C511266   0.393   1.077  10.203  0.4939  0.2465  0.5548
  759MPD2     H11267   0.707   1.016  10.406  0.8895 -0.9398 -0.7274
  759MPD2    H111268   0.508   1.206  10.078 -0.6393 -0.4800 -0.5092
  759MPD2    H211269   0.285   0.955  10.344  1.8818 -4.2520  0.3228
  759MPD2    H311270   0.310   1.081  10.133  0.1418  0.8792  1.0082
  759MPD2     N11271   0.748   1.154  10.202  0.0016 -0.1553 -0.1052
  759MPD2    H511272   0.822   1.131  10.268  1.3595 -0.3838 -1.7054
  759MPD2    N111273   0.471   0.869  10.482  0.1813  0.2192 -0.4658
  759MPD2    H711274   0.377   0.832  10.474  0.5106 -0.7109  0.0243
  760MPD2     C11275   4.482   2.287  12.329  0.4949 -0.2650 -0.5997
  760MPD2    C111276   4.552   2.265  12.449  0.1213  0.3136 -0.1921
  760MPD2    C211277   4.642   2.155  12.449  0.1021 -0.3743 -1.2838
  760MPD2    C311278   4.672   2.083  12.337  0.2459  0.9722 -0.1689
  760MPD2    C411279   4.617   2.118  12.223  0.5089  0.4524 -0.2016
  760MPD2    C511280   4.524   2.218  12.216 -0.4604  0.1026  0.3212
  760MPD2     H11281   4.699   2.139  12.540  2.2013 -0.2116 -2.5905
  760MPD2    H111282   4.635   2.070  12.128 -1.2441 -0.9942  0.1933
  760MPD2    H211283   4.395   2.351  12.322 -0.4779 -1.4693  0.4413
  760MPD2    H311284   4.472   2.229  12.121 -0.4983  1.5508  0.5149
  760MPD2     N11285   0.038   1.995  12.344 -0.4078 -0.2210  0.5225
  760MPD2    H511286   0.092   1.978  12.260 -0.7547 -1.3169  0.5183
  760MPD2    N111287   4.532   2.352  12.559 -0.1037 -0.4283  0.0525
  760MPD2    H711288   4.470   2.430  12.543  0.8927  0.2952 -0.2631
  761MPD2     C11289   1.801   1.864  11.329  0.0533  0.2125  0.3901
  761MPD2    C111290   1.894   1.900  11.244  1.3638 -0.4767 -0.3595
  761MPD2    C211291   1.974   2.009  11.283 -0.0319 -0.1280 -0.4650
  761MPD2    C311292   1.948   2.082  11.397 -0.2383 -0.5365 -0.3770
  761MPD2    C411293   1.842   2.055  11.469 -0.1942 -0.5192 -0.7770
  761MPD2    C511294   1.767   1.944  11.439 -0.7495 -0.1940  0.0511
  761MPD2     H11295   2.058   2.035  11.219  0.5604 -0.4306  0.1859
  761MPD2    H111296   1.819   2.117  11.555  0.9651 -1.1487 -0.0045
  761MPD2    H211297   1.733   1.783  11.302 -1.3274  1.2730  0.7035
  761MPD2    H311298   1.682   1.931  11.505  0.4667  0.5432  1.7837
  761MPD2     N11299   2.023   2.193  11.448  0.6503 -0.2760  0.3476
  761MPD2    H511300   1.986   2.239  11.531  3.8674  1.3311  0.8872
  761MPD2    N111301   1.920   1.824  11.127  0.4515 -0.1464  0.2269
  761MPD2    H711302   1.890   1.728  11.138 -1.1093  0.3548  0.3366
  762MPD2     C11303   2.407   2.023  10.511 -0.1929  0.1682 -0.0021
  762MPD2    C111304   2.404   1.889  10.546  0.1150  0.7837 -0.1869
  762MPD2    C211305   2.509   1.810  10.511 -0.5114  0.0036 -0.8655
  762MPD2    C311306   2.618   1.849  10.430 -0.4538  0.0177  0.0182
  762MPD2    C411307   2.613   1.982  10.391  0.8477  0.3099  0.2129
  762MPD2    C511308   2.507   2.061  10.426  0.5662  0.4907 -0.6491
  762MPD2     H11309   2.511   1.706  10.544  1.6597 -0.0203 -1.1052
  762MPD2    H111310   2.686   2.036  10.332 -1.3634  0.7299 -2.0787
  762MPD2    H211311   2.335   2.093  10.553 -1.0223 -0.8557  0.2641
  762MPD2    H311312   2.505   2.167  10.404 -0.9506  0.8664  1.3118
  762MPD2     N11313   2.724   1.762  10.402 -0.4946  0.4703  0.3755
  762MPD2    H511314   2.713   1.666  10.432 -1.1989  0.2998 -0.4144
  762MPD2    N111315   2.302   1.845  10.635  0.2553 -0.5045 -0.8421
  762MPD2    H711316   2.240   1.918  10.669  0.4775 -0.9122  0.4290
  763MPD2     C11317   3.879   1.388  16.582 -0.7427 -0.1233  0.1019
  763MPD2    C111318   3.779   1.467  16.548 -0.1914 -0.0451 -0.2023
  763MPD2    C211319   3.757   1.586  16.600 -0.0421 -0.9341  0.2895
  763MPD2    C311320   3.843   1.646  16.692 -0.5917  0.4302 -1.1930
  763MPD2    C411321   3.948   1.566  16.722  0.2960  0.2345 -0.1060
  763MPD2    C511322   3.966   1.435  16.679  0.4190  0.0459 -0.2491
  763MPD2     H11323   3.668   1.643  16.574 -0.3516 -2.4956 -2.1338
  763MPD2    H111324   4.022   1.604  16.792  0.4173  2.3155 -1.3485
  763MPD2    H211325   3.890   1.287  16.542 -1.7121  0.4295 -1.5684
  763MPD2    H311326   4.055   1.378  16.700 -0.6836 -0.9273  1.8409
  763MPD2     N11327   3.829   1.771  16.758  0.2725 -0.0099 -0.3285
  763MPD2    H511328   3.902   1.798  16.822  1.3035  0.0394 -1.5199
  763MPD2    N111329   3.688   1.434  16.444 -0.3123 -0.0585 -0.2895
  763MPD2    H711330   3.628   1.504  16.400 -0.8289 -0.6280 -0.5038
  764MPD2     C11331   1.830   3.343  17.444  0.4256  0.4329 -0.4588
  764MPD2    C111332   1.728   3.265  17.397 -0.0973 -0.0811 -0.2551
  764MPD2    C211333   1.689   3.155  17.468  0.4222  0.1832 -0.0289
  764MPD2    C311334   1.724   3.134  17.595 -0.0109 -0.1807 -0.4163
  764MPD2    C411335   1.829   3.215  17.647 -0.0227  0.0679  0.4192
  764MPD2    C511336   1.885   3.315  17.565  0.5705  0.6560  0.1940
  764MPD2     H11337   1.625   3.081  17.421  2.3899 -1.2315 -0.4876
  764MPD2    H111338   1.872   3.200  17.746 -0.0284  1.6789  0.6797
  764MPD2    H211339   1.874   3.422  17.384  2.5058  0.8124  1.5652
  764MPD2    H311340   1.975   3.369  17.592  1.9243 -1.3637 -0.2532
  764MPD2     N11341   1.646   3.040  17.667  0.2268 -0.0342 -0.9428
  764MPD2    H511342   1.577   2.996  17.606 -1.6147  1.2697  0.2182
  764MPD2    N111343   1.667   3.296  17.276 -0.3320 -0.2710  0.3090
  764MPD2    H711344   1.593   3.233  17.248 -0.6236 -0.0619  0.6152
  765MPD2     C11345   1.271   1.085  15.457  0.6461  0.5409 -0.7307
  765MPD2    C111346   1.320   1.076  15.585  0.0422  0.2774 -0.4433
  765MPD2    C211347   1.459   1.045  15.606 -0.7497  0.7125 -0.2201
  765MPD2    C311348   1.543   1.035  15.502  0.6858  0.5795 -0.1656
  765MPD2    C411349   1.493   1.055  15.374  0.7697 -0.1027  0.0345
  765MPD2    C511350   1.360   1.075  15.354  0.0696 -0.1302 -0.6340
  765MPD2     H11351   1.500   1.029  15.705 -1.1800  3.6825  0.4363
  765MPD2    H111352   1.567   1.050  15.295 -0.0769 -0.4245 -0.7383
  765MPD2    H211353   1.167   1.108  15.437  0.1048 -0.0884  1.4212
  765MPD2    H311354   1.319   1.084  15.255 -0.6088 -2.2704 -0.5477
  765MPD2     N11355   1.682   1.000  15.525  0.8926  0.5025 -0.1837
  765MPD2    H511356   1.697   0.959  15.617  0.2296  1.5238  0.3725
  765MPD2    N111357   1.234   1.117  15.692  0.6955  0.0758 -0.2859
  765MPD2    H711358   1.143   1.151  15.665  1.2859  2.2126  0.4602
  766MPD2     C11359   0.670   1.268  15.576  0.3489 -0.4059 -0.4370
  766MPD2    C111360   0.809   1.275  15.564 -0.0569 -0.0543 -0.6251
  766MPD2    C211361   0.873   1.274  15.443  0.2508 -0.3546 -0.0600
  766MPD2    C311362   0.805   1.258  15.329  0.5777  0.4491  0.1099
  766MPD2    C411363   0.669   1.242  15.339  0.4423  0.3731 -0.7008
  766MPD2    C511364   0.596   1.243  15.461  0.5934 -0.1896 -0.7112
  766MPD2     H11365   0.976   1.307  15.434  0.6964 -1.8651 -0.5008
  766MPD2    H111366   0.620   1.229  15.243 -2.7985  0.2919  0.9726
  766MPD2    H211367   0.624   1.271  15.674 -1.4725  0.3893 -1.3140
  766MPD2    H311368   0.490   1.221  15.465  0.2347  1.2922 -1.8258
  766MPD2     N11369   0.866   1.267  15.197  0.5640 -0.3014 -0.2975
  766MPD2    H511370   0.796   1.256  15.125  0.4771 -1.9127  0.0402
  766MPD2    N111371   0.892   1.303  15.676  0.0329  0.7580  1.4369
  766MPD2    H711372   0.991   1.318  15.659 -0.1089  0.3837  0.3001
  767MPD2     C11373   0.515   1.517  15.282  0.2546 -0.6928  0.0194
  767MPD2    C111374   0.638   1.546  15.219 -0.5476 -0.6069  0.9406
  767MPD2    C211375   0.662   1.528  15.085 -0.0239  0.4096  0.6862
  767MPD2    C311376   0.559   1.482  15.007  0.5103 -0.1737  0.0752
  767MPD2    C411377   0.444   1.447  15.069 -0.5658 -0.4550 -0.1974
  767MPD2    C511378   0.421   1.470  15.207 -0.9475  0.3323 -0.1630
  767MPD2     H11379   0.750   1.572  15.038  0.8565 -0.1916  1.7696
  767MPD2    H111380   0.366   1.397  15.013  0.0909 -1.8300  0.1009
  767MPD2    H211381   0.494   1.526  15.388  0.0407 -2.2160  0.0947
  767MPD2    H311382   0.329   1.443  15.258 -0.9913 -0.1276 -0.4792
  767MPD2     N11383   0.576   1.470  14.869 -0.0356 -0.6662 -0.2460
  767MPD2    H511384   0.668   1.486  14.829 -0.3526 -0.1587 -0.7666
  767MPD2    N111385   0.735   1.600  15.309  0.2874  0.1519  0.3128
  767MPD2    H711386   0.700   1.616  15.403  0.1601  0.7266  0.1666
  768MPD2     C11387   2.126   0.275  10.542  1.1481  0.3492 -0.8481
  768MPD2    C111388   2.055   0.261  10.660  0.2664 -1.3516  0.3451
  768MPD2    C211389   2.126   0.228  10.776 -0.1101 -0.1431  0.4158
  768MPD2    C311390   2.267   0.208  10.773 -0.4486 -0.5656 -0.1269
  768MPD2    C411391   2.334   0.234  10.658 -0.3375 -0.3074 -0.7786
  768MPD2    C511392   2.261   0.264  10.545  0.0472  0.3889  0.1075
  768MPD2     H11393   2.069   0.214  10.867  0.6638 -1.2804  0.7293
  768MPD2    H111394   2.441   0.221  10.647 -0.0042  0.1640  1.9880
  768MPD2    H211395   2.070   0.299  10.452  0.6152  0.2644 -0.5416
  768MPD2    H311396   2.313   0.282  10.451 -1.6409 -0.0093 -0.8894
  768MPD2     N11397   2.341   0.189  10.896 -0.1683  0.7613  0.0128
  768MPD2    H511398   2.437   0.217  10.880  0.8346 -2.2633  0.8766
  768MPD2    N111399   1.909   0.274  10.668 -0.3606  0.3448 -0.5060
  768MPD2    H711400   1.859   0.229  10.744  1.1215  2.6158  1.7870
  769MPD2     C11401   2.625   3.082  14.798  0.0689  0.1661  0.5691
  769MPD2    C111402   2.582   3.011  14.908 -0.1637  0.8030 -0.4593
  769MPD2    C211403   2.611   3.053  15.037 -0.0005 -0.4532  0.1137
  769MPD2    C311404   2.691   3.167  15.056  0.4297  0.7484  0.5153
  769MPD2    C411405   2.724   3.241  14.942 -0.0927 -0.4820 -0.0419
  769MPD2    C511406   2.703   3.197  14.816 -0.5226  0.9372 -1.1446
  769MPD2     H11407   2.564   3.001  15.120 -1.6710  2.8440  1.2108
  769MPD2    H111408   2.786   3.329  14.954  1.0921 -1.7581  3.3241
  769MPD2    H211409   2.608   3.044  14.698 -1.3058 -0.7836  1.1656
  769MPD2    H311410   2.726   3.253  14.727 -0.5373  1.2530 -0.9514
  769MPD2     N11411   2.720   3.200  15.190  0.6354  0.3020 -0.2040
  769MPD2    H511412   2.693   3.133  15.261  0.7960 -0.8992 -1.2885
  769MPD2    N111413   2.497   2.900  14.884  0.2776 -0.1736 -0.1019
  769MPD2    H711414   2.450   2.902  14.793  2.2295  1.1416 -1.0840
  770MPD2     C11415   1.850   2.199  15.406  0.0276 -0.4764 -0.8248
  770MPD2    C111416   1.942   2.139  15.322  0.0765  0.5639  0.1803
  770MPD2    C211417   2.025   2.214  15.242  0.0741 -0.4788 -0.3261
  770MPD2    C311418   2.018   2.349  15.247  0.8000  0.2517 -0.2250
  770MPD2    C411419   1.927   2.417  15.331  1.1742  0.1161 -0.1416
  770MPD2    C511420   1.844   2.336  15.404 -0.2195 -0.9413 -0.7764
  770MPD2     H11421   2.098   2.171  15.176  1.7794  1.0640  0.5448
  770MPD2    H111422   1.920   2.525  15.336 -0.1944 -0.0451  1.1898
  770MPD2    H211423   1.781   2.143  15.467 -0.4247  0.6210 -0.3320
  770MPD2    H311424   1.769   2.384  15.465 -0.6269  0.1300 -2.1137
  770MPD2     N11425   2.088   2.418  15.145  0.3327 -0.4962 -0.4239
  770MPD2    H511426   2.139   2.360  15.079  0.6614 -1.3969  0.6182
  770MPD2    N111427   1.952   1.999  15.333 -0.9031 -0.7213  0.2634
  770MPD2    H711428   1.892   1.961  15.405 -0.4831  0.2843  1.1521
  771MPD2     C11429   3.761   0.702  13.874 -0.0162  0.0078  0.4350
  771MPD2    C111430   3.674   0.813  13.871 -0.3137 -0.5564 -0.1722
  771MPD2    C211431   3.559   0.811  13.791 -0.1575  0.7063  0.0566
  771MPD2    C311432   3.533   0.713  13.694 -0.0599  0.8404  0.2176
  771MPD2    C411433   3.621   0.607  13.694  0.4096 -0.2275  0.2292
  771MPD2    C511434   3.729   0.599  13.788 -0.5478 -0.1818 -0.4228
  771MPD2     H11435   3.499   0.901  13.787 -0.4273  0.5306  0.1570
  771MPD2    H111436   3.609   0.527  13.621 -1.2443 -0.2885  0.5598
  771MPD2    H211437   3.855   0.703  13.928 -0.6699  3.8319  1.5530
  771MPD2    H311438   3.789   0.509  13.778  2.7072  2.1776 -2.0697
  771MPD2     N11439   3.426   0.736  13.604 -0.4570  0.1563 -0.0037
  771MPD2    H511440   3.370   0.821  13.606 -0.0303  0.4079  1.2172
  771MPD2    N111441   3.691   0.938  13.930  0.1609  0.3516 -0.2999
  771MPD2    H711442   3.629   1.012  13.898  0.8605 -0.0575 -2.6566
  772MPD2     C11443   3.282   1.477  14.140 -0.2132 -0.1937  0.2174
  772MPD2    C111444   3.320   1.401  14.027 -0.2456 -0.0746 -0.2215
  772MPD2    C211445   3.219   1.363  13.945  1.0425 -0.3906  0.2002
  772MPD2    C311446   3.088   1.416  13.962 -0.1029  0.2901 -0.9169
  772MPD2    C411447   3.062   1.498  14.064  0.0993 -0.2062  0.2711
  772MPD2    C511448   3.151   1.513  14.163 -0.2561  1.0899 -0.1432
  772MPD2     H11449   3.242   1.298  13.861  2.2138 -1.9250  1.7146
  772MPD2    H111450   2.961   1.535  14.077 -0.5581 -1.6923 -0.7474
  772MPD2    H211451   3.361   1.502  14.210  1.0036 -0.9706 -0.8513
  772MPD2    H311452   3.122   1.576  14.246 -0.4303  0.0794  0.5620
  772MPD2     N11453   2.986   1.373  13.877 -0.1564  0.3432  0.2755
  772MPD2    H511454   2.898   1.422  13.889  0.5525  1.7568 -0.3282
  772MPD2    N111455   3.453   1.356  14.010 -0.1753 -0.3898  0.1693
  772MPD2    H711456   3.473   1.285  13.941 -0.0526 -0.0102 -0.1864
  773MPD2     C11457   2.278   2.230   0.088 -0.2351  0.1109  0.3809
  773MPD2    C111458   2.253   2.101   0.036  0.0972 -0.4571  1.0259
  773MPD2    C211459   2.294   2.000   0.110  0.0370  0.0207  0.5311
  773MPD2    C311460   2.371   2.015   0.222 -0.1481  0.8323 -0.1186
  773MPD2    C411461   2.381   2.136   0.286  0.1387  0.3343 -0.2873
  773MPD2    C511462   2.349   2.248   0.206  0.2718 -0.2879 -0.4629
  773MPD2     H11463   2.277   1.898   0.077  0.5192  1.0795 -2.9492
  773MPD2    H111464   2.428   2.156   0.382  1.1349  1.3083 -0.9780
  773MPD2    H211465   2.230   2.313   0.038 -1.0200 -0.6672 -0.1702
  773MPD2    H311466   2.348   2.343   0.259 -1.5757  0.0205 -1.0611
  773MPD2     N11467   2.436   1.897   0.276 -0.0498  0.0981 -0.1920
  773MPD2    H511468   2.419   1.807   0.232  1.4707  1.4702 -3.5889
  773MPD2    N111469   2.183   2.080  17.673 -0.1514 -0.0665  0.7174
  773MPD2    H711470   2.177   1.983  17.644 -0.2153 -0.1021  0.8480
  774MPD2     C11471   1.343   0.877  13.714 -0.0539 -0.5436 -0.0261
  774MPD2    C111472   1.475   0.916  13.725 -0.4996 -0.0834  0.0775
  774MPD2    C211473   1.502   1.057  13.721 -0.0779  0.3462 -0.0110
  774MPD2    C311474   1.401   1.148  13.719  0.1638  0.0059 -0.8682
  774MPD2    C411475   1.270   1.100  13.717  0.3301  0.4385  0.5751
  774MPD2    C511476   1.246   0.967  13.719  0.2447 -0.4374  0.3693
  774MPD2     H11477   1.605   1.088  13.727  0.2826 -0.9760  0.6001
  774MPD2    H111478   1.185   1.166  13.704  0.8245  0.7974 -0.7762
  774MPD2    H211479   1.324   0.771  13.724  2.1112 -0.9903 -0.6402
  774MPD2    H311480   1.143   0.937  13.704  1.2165 -3.4126 -0.3031
  774MPD2     N11481   1.431   1.285  13.724  0.0465 -0.7177 -0.1164
  774MPD2    H511482   1.530   1.302  13.711 -0.8083  3.3355 -1.4628
  774MPD2    N111483   1.580   0.822  13.741  0.2031  0.0103 -0.6820
  774MPD2    H711484   1.551   0.729  13.769  2.4634  0.2904  2.5991
  775MPD2     C11485   2.927   2.807  15.638 -0.2300  0.4514  0.5743
  775MPD2    C111486   2.966   2.906  15.722 -0.5282 -0.4608 -0.2329
  775MPD2    C211487   3.031   3.019  15.667 -0.5794  0.2400  0.5430
  775MPD2    C311488   3.057   3.024  15.530 -0.4607 -0.0472 -0.0564
  775MPD2    C411489   3.017   2.925  15.445  0.2909  0.3329  0.5568
  775MPD2    C511490   2.964   2.815  15.498 -0.2342 -0.4894 -0.8383
  775MPD2     H11491   3.055   3.098  15.737 -1.7966  0.2379  0.9666
  775MPD2    H111492   3.025   2.928  15.337 -0.2813  0.2699  0.5117
  775MPD2    H211493   2.874   2.720  15.674  0.7363 -1.0322 -1.6670
  775MPD2    H311494   2.938   2.729  15.437  1.2424 -0.0319 -2.1139
  775MPD2     N11495   3.150   3.113  15.473 -0.0539 -0.4922  0.1802
  775MPD2    H511496   3.155   3.103  15.372 -0.4186 -2.3220  0.3353
  775MPD2    N111497   2.944   2.896  15.861 -0.5299 -0.2039  0.3306
  775MPD2    H711498   2.919   2.803  15.891  0.2551 -0.5837 -0.1890
  776MPD2     C11499   2.137   3.367  11.852  0.2047 -0.2633 -0.4256
  776MPD2    C111500   2.015   3.420  11.888 -0.4219  0.3037 -0.3305
  776MPD2    C211501   1.999   3.549  11.862  0.2710 -0.1571  0.2234
  776MPD2    C311502   2.103   3.630  11.821 -0.4441  0.2486  0.1898
  776MPD2    C411503   2.233   3.582  11.799 -0.0577  0.3439  0.5158
  776MPD2    C511504   2.251   3.444  11.827  0.0409  0.4917 -0.1736
  776MPD2     H11505   1.900   3.588  11.885  1.0858  1.8583  0.2697
  776MPD2    H111506   2.311   3.646  11.760 -0.6036  1.8125  1.8082
  776MPD2    H211507   2.150   3.259  11.858  0.5271 -0.2335 -0.5366
  776MPD2    H311508   2.345   3.392  11.818 -0.3557 -0.6093  1.7754
  776MPD2     N11509   2.087   3.764  11.788 -0.6207  0.0018 -0.2145
  776MPD2    H511510   2.172   3.818  11.777  1.1172 -2.1856  2.6006
  776MPD2    N111511   1.907   3.334  11.911 -0.1835  0.0759 -0.3181
  776MPD2    H711512   1.930   3.235  11.906  0.0311  0.2113 -1.9983
  777MPD2     C11513   2.759   0.025   0.581 -0.1347 -0.0630 -0.0333
  777MPD2    C111514   2.638   0.009   0.645  0.3775  0.9434 -0.0284
  777MPD2    C211515   2.541   4.689   0.572  0.0838  0.6737  0.5701
  777MPD2    C311516   2.558   4.637   0.448 -0.2680 -0.8603  0.1350
  777MPD2    C411517   2.685   4.649   0.385  0.7223  0.0259 -0.4032
  777MPD2    C511518   2.779   4.727   0.454  0.3086  0.4610  0.2770
  777MPD2     H11519   2.440   4.675   0.610  0.4659 -0.9529  0.9929
  777MPD2    H111520   2.708   4.605   0.288 -0.8856  0.9208 -1.1812
  777MPD2    H211521   2.837   0.088   0.622  0.0164 -0.6332  0.5492
  777MPD2    H311522   2.879   0.013   0.421  0.7880 -1.0968  0.4752
  777MPD2     N11523   2.445   4.588   0.369  0.0986  0.3352  0.0366
  777MPD2    H511524   2.360   4.574   0.422  0.3294  0.0967  0.3482
  777MPD2    N111525   2.614   0.050   0.780 -0.2277  0.1327  0.3846
  777MPD2    H711526   2.690   0.107   0.817  0.5320  0.7107 -2.0489
  778MPD2     C11527   3.589   1.322  14.545 -0.0274  0.6874  0.3078
  778MPD2    C111528   3.651   1.204  14.544  0.1418 -0.0931  0.2320
  778MPD2    C211529   3.771   1.185  14.475  0.4683  0.0166  0.3779
  778MPD2    C311530   3.834   1.293  14.423  0.4600  0.0023  1.1591
  778MPD2    C411531   3.782   1.418  14.432 -0.4102 -0.2600  0.3344
  778MPD2    C511532   3.661   1.429  14.494 -0.1950 -0.6292 -0.4844
  778MPD2     H11533   3.807   1.083  14.469  0.3637  0.0545 -1.0624
  778MPD2    H111534   3.825   1.507  14.386 -0.1380 -0.6287 -0.1262
  778MPD2    H211535   3.498   1.350  14.598 -3.1059 -1.7389 -3.6836
  778MPD2    H311536   3.618   1.527  14.505 -0.7364 -0.9188 -0.0014
  778MPD2     N11537   3.959   1.257  14.374  0.4179 -0.0891 -0.0524
  778MPD2    H511538   3.979   1.158  14.375  0.6386 -0.0786 -3.1439
  778MPD2    N111539   3.590   1.094  14.604 -0.0492 -0.2361 -0.2288
  778MPD2    H711540   3.618   1.001  14.574  1.8205 -0.0639  0.9785
  779MPD2     C11541   3.107   4.472  13.882 -0.1588 -0.1652 -0.4228
  779MPD2    C111542   3.091   4.455  14.019 -0.3047  0.4898 -0.0678
  779MPD2    C211543   3.161   4.548  14.100 -0.5035  0.0523 -0.6403
  779MPD2    C311544   3.226   4.662  14.048  0.2680 -0.5066  0.4784
  779MPD2    C411545   3.240   4.664  13.916 -1.1514 -0.0447 -0.1011
  779MPD2    C511546   3.181   4.575  13.832  0.4042 -0.2106  0.3203
  779MPD2     H11547   3.157   4.553  14.208  0.0010  0.1733 -0.6295
  779MPD2    H111548   3.307   4.733  13.865  1.3422 -2.1992  0.3049
  779MPD2    H211549   3.071   4.403  13.807 -1.2098 -1.6844  1.4721
  779MPD2    H311550   3.198   4.572  13.725  1.8186  0.9686  0.5255
  779MPD2     N11551   3.288   0.016  14.133  0.4269 -0.4450  0.4620
  779MPD2    H511552   3.298   0.002  14.233 -5.1985  0.8754  1.2350
  779MPD2    N111553   3.029   4.337  14.067 -0.2111  0.0707 -0.1819
  779MPD2    H711554   3.040   4.320  14.166 -1.5500 -4.3567 -0.8231
  780MPD2     C11555   2.674   4.199   1.326  0.5727 -0.3607  0.3885
  780MPD2    C111556   2.624   4.127   1.217 -0.1089 -0.0451  0.6450
  780MPD2    C211557   2.710   4.096   1.113 -0.2145  0.7591 -0.5650
  780MPD2    C311558   2.839   4.137   1.109 -0.1904 -0.2658 -0.5033
  780MPD2    C411559   2.886   4.204   1.224 -0.3840  0.3661 -0.4353
  780MPD2    C511560   2.802   4.235   1.326 -0.1451  0.0818 -0.7502
  780MPD2     H11561   2.668   4.052   1.023 -1.0144  1.1491 -0.3779
  780MPD2    H111562   2.988   4.240   1.235 -0.1509 -0.5109  0.2118
  780MPD2    H211563   2.616   4.219   1.416 -2.2848 -2.4766 -0.9965
  780MPD2    H311564   2.841   4.284   1.414 -1.4242 -1.9542  0.9555
  780MPD2     N11565   2.915   4.102   0.997 -0.4393  0.9282 -0.2129
  780MPD2    H511566   2.867   4.033   0.940  1.3366  0.7278 -1.4617
  780MPD2    N111567   2.492   4.079   1.229  0.3488 -0.7137  0.3647
  780MPD2    H711568   2.447   4.090   1.319 -3.2502 -0.3633 -1.4959
  781MPD2     C11569   4.482   1.648  12.313 -0.2243  0.1746  0.9248
  781MPD2    C111570   4.574   1.568  12.366  0.6641 -0.0723 -0.4347
  781MPD2    C211571   4.696   1.561  12.307  0.4355 -0.0968 -0.9249
  781MPD2    C311572   4.736   1.642  12.208 -0.4076 -0.6893 -0.4456
  781MPD2    C411573   4.641   1.726  12.155  0.1862  0.2749 -0.4986
  781MPD2    C511574   4.517   1.729  12.205 -0.2003 -0.1327  0.7554
  781MPD2     H11575   0.026   1.487  12.343  2.3532  2.0505 -0.3009
  781MPD2    H111576   4.668   1.804  12.085  0.5669  1.1243  0.5887
  781MPD2    H211577   4.381   1.663  12.349 -0.0708  1.4663  0.8437
  781MPD2    H311578   4.445   1.804  12.174 -0.0583 -0.6100 -0.7057
  781MPD2     N11579   0.130   1.648  12.165  0.4294  0.3801  0.2380
  781MPD2    H511580   0.183   1.564  12.185 -1.3365 -0.2249  2.3749
  781MPD2    N111581   4.544   1.488  12.479  0.0990  0.7069 -0.2138
  781MPD2    H711582   4.622   1.433  12.512 -0.4183  0.7198  1.0783
  782MPD2     C11583   2.580   2.714  10.319 -0.2367  0.4378  0.3184
  782MPD2    C111584   2.692   2.699  10.384  0.4592  0.2301  0.3895
  782MPD2    C211585   2.755   2.814  10.428 -0.0815 -0.6110 -0.5476
  782MPD2    C311586   2.696   2.938  10.423  0.2491  0.6782  0.3659
  782MPD2    C411587   2.573   2.947  10.365 -0.2134 -0.1409 -0.5555
  782MPD2    C511588   2.518   2.840  10.295  0.2178  0.1214  0.1731
  782MPD2     H11589   2.850   2.813  10.479 -0.5814 -1.9554  0.3760
  782MPD2    H111590   2.524   3.044  10.363  0.5318  0.3190  2.3905
  782MPD2    H211591   2.523   2.627  10.287 -0.7446  0.5481  0.9548
  782MPD2    H311592   2.422   2.842  10.244 -0.9929 -2.0827  2.3378
  782MPD2     N11593   2.765   3.039  10.493  0.3878 -0.5846  0.3060
  782MPD2    H511594   2.862   3.022  10.519 -0.3968 -0.8021  3.1132
  782MPD2    N111595   2.740   2.569  10.405  0.9004  0.4384 -0.0975
  782MPD2    H711596   2.679   2.495  10.369  0.3583  0.6715  0.3414
  783MPD2     C11597   2.319   2.134  11.027 -0.2173 -0.1796 -1.0199
  783MPD2    C111598   2.368   2.260  11.024  0.4175  0.1622  0.7253
  783MPD2    C211599   2.474   2.292  10.938 -0.0590  0.4921 -0.1239
  783MPD2    C311600   2.519   2.191  10.858  0.3446  0.0211 -0.6586
  783MPD2    C411601   2.464   2.059  10.862  0.0892  0.0222  0.3982
  783MPD2    C511602   2.362   2.036  10.948 -0.1843 -0.0834  0.4125
  783MPD2     H11603   2.514   2.393  10.937  0.7063  0.1916  1.4257
  783MPD2    H111604   2.491   1.987  10.786 -1.3924  0.3006 -0.3851
  783MPD2    H211605   2.228   2.116  11.084  1.1591 -1.8498  0.6403
  783MPD2    H311606   2.319   1.937  10.953 -1.5966  0.5092 -0.2036
  783MPD2     N11607   2.608   2.236  10.753  0.2171  0.7159 -0.4179
  783MPD2    H511608   2.615   2.337  10.749  0.8716  0.7263  0.9922
  783MPD2    N111609   2.320   2.333  11.139  0.2875  0.2488 -0.2064
  783MPD2    H711610   2.261   2.282  11.204 -0.4926  2.8327  1.1233
  784MPD2     C11611   0.654   2.157   0.804 -0.1707 -0.2573  0.7130
  784MPD2    C111612   0.671   2.274   0.880  0.4094  0.3312 -0.1291
  784MPD2    C211613   0.558   2.342   0.919  0.9738 -0.0600 -0.5616
  784MPD2    C311614   0.438   2.301   0.873  0.6813 -0.1121 -0.6476
  784MPD2    C411615   0.432   2.199   0.779  0.7734 -0.5016 -0.3559
  784MPD2    C511616   0.535   2.116   0.753  0.3091  0.6348 -0.0237
  784MPD2     H11617   0.557   2.415   0.999  4.5508 -0.5082 -0.1164
  784MPD2    H111618   0.336   2.173   0.734  1.0854 -1.1403 -0.6578
  784MPD2    H211619   0.736   2.090   0.784 -0.6902 -0.7890  0.3827
  784MPD2    H311620   0.532   2.027   0.691  0.5907  1.6724 -1.5206
  784MPD2     N11621   0.328   2.382   0.909  0.3853  0.0862  0.3369
  784MPD2    H511622   0.350   2.460   0.970  0.0930  1.3838 -1.2121
  784MPD2    N111623   0.794   2.326   0.927  0.2749  0.3423  0.2014
  784MPD2    H711624   0.797   2.425   0.949  0.1856  0.3009  0.4035
  785MPD2     C11625   0.908   1.261  11.199  0.2452 -0.3468  0.8281
  785MPD2    C111626   0.784   1.305  11.246  0.9239  0.2509 -0.6379
  785MPD2    C211627   0.684   1.209  11.227 -0.4097  0.6618  0.2111
  785MPD2    C311628   0.696   1.101  11.141 -0.0904 -0.1593 -0.2320
  785MPD2    C411629   0.817   1.068  11.093  0.3419  0.1303  0.0181
  785MPD2    C511630   0.923   1.148  11.123  0.5504 -0.6442 -0.2694
  785MPD2     H11631   0.583   1.229  11.263 -0.6518 -0.7207  0.2830
  785MPD2    H111632   0.833   0.992  11.017 -3.3222 -0.6463  0.0047
  785MPD2    H211633   0.994   1.326  11.198 -1.1720  1.5135  1.4887
  785MPD2    H311634   1.019   1.119  11.083  0.0255 -1.4630 -0.9310
  785MPD2     N11635   0.575   1.038  11.117  0.1501  0.3241  0.5914
  785MPD2    H511636   0.495   1.085  11.159  1.1364  2.3884  0.1663
  785MPD2    N111637   0.769   1.423  11.317 -0.2964  0.6922 -0.3027
  785MPD2    H711638   0.846   1.485  11.341 -0.4097  1.4051 -1.7906
  786MPD2     C11639   3.558   3.752  14.835 -0.7388  0.0094  0.0007
  786MPD2    C111640   3.655   3.661  14.797 -0.1117 -0.1209 -0.1516
  786MPD2    C211641   3.743   3.620  14.894 -0.2115 -0.3391  0.4052
  786MPD2    C311642   3.715   3.655  15.026 -0.5442  0.4886  0.5116
  786MPD2    C411643   3.616   3.740  15.061  0.2393 -0.1922 -0.4237
  786MPD2    C511644   3.537   3.791  14.959  0.4918 -0.4049 -0.4652
  786MPD2     H11645   3.817   3.547  14.864 -0.0347 -0.8041  1.9983
  786MPD2    H111646   3.603   3.768  15.165 -1.7450 -1.3575 -0.3632
  786MPD2    H211647   3.486   3.794  14.766  0.3388 -0.5799 -1.4763
  786MPD2    H311648   3.457   3.862  14.974  1.6051  0.7645 -0.0808
  786MPD2     N11649   3.790   3.610  15.134  0.0823 -0.2829 -0.1884
  786MPD2    H511650   3.752   3.628  15.227 -0.1466  0.3261 -0.3968
  786MPD2    N111651   3.670   3.609  14.673 -0.0962  0.3432 -0.4828
  786MPD2    H711652   3.751   3.550  14.657 -0.7632 -0.6955 -0.0524
  787MPD2     C11653   4.118   3.203  14.616  0.3065  0.1450 -0.0519
  787MPD2    C111654   4.036   3.186  14.501 -0.1513  0.8293  0.8230
  787MPD2    C211655   4.068   3.083  14.414  0.5739  0.2453  0.6281
  787MPD2    C311656   4.159   2.982  14.453 -1.0635  0.2315  0.0276
  787MPD2    C411657   4.227   2.994  14.574  0.7970 -0.3645 -1.2819
  787MPD2    C511658   4.211   3.109  14.651 -0.0384  0.4129 -0.5163
  787MPD2     H11659   4.036   3.080  14.311 -2.4670 -1.1492  1.6328
  787MPD2    H111660   4.302   2.925  14.611 -1.2338 -1.7411  0.2838
  787MPD2    H211661   4.100   3.286  14.683  1.0853  0.3519 -0.0906
  787MPD2    H311662   4.277   3.118  14.736 -3.1036  0.0601  1.8946
  787MPD2     N11663   4.170   2.872  14.360  0.2201  0.0719 -0.2179
  787MPD2    H511664   4.115   2.877  14.275  0.2206  0.9045 -0.1731
  787MPD2    N111665   3.937   3.287  14.469  0.6580  0.3476 -0.2226
  787MPD2    H711666   3.921   3.368  14.529 -0.4888  0.0842 -0.1666
  788MPD2     C11667   1.523   2.033   1.060  0.2455  0.3244  0.1801
  788MPD2    C111668   1.498   1.945   0.949 -0.1718 -0.5236 -0.4898
  788MPD2    C211669   1.485   2.004   0.828  0.5506 -0.2428  0.1625
  788MPD2    C311670   1.479   2.141   0.812 -0.5730  0.6915  0.1998
  788MPD2    C411671   1.488   2.226   0.925 -0.2391 -0.1630 -0.3675
  788MPD2    C511672   1.526   2.167   1.040  0.0563  0.3186 -0.3809
  788MPD2     H11673   1.470   1.946   0.737 -2.1945 -0.0620  0.4908
  788MPD2    H111674   1.487   2.332   0.904  1.2370 -0.2919 -1.0880
  788MPD2    H211675   1.559   1.997   1.156 -4.4397  3.5277  3.1473
  788MPD2    H311676   1.558   2.220   1.129  2.8867 -2.9731  0.5895
  788MPD2     N11677   1.458   2.209   0.687 -0.8253  0.0193  0.0103
  788MPD2    H511678   1.439   2.308   0.684 -2.5544 -0.4247 -2.8587
  788MPD2    N111679   1.499   1.808   0.969  0.1495 -0.2284 -0.1364
  788MPD2    H711680   1.490   1.750   0.886 -1.4427  0.3734 -0.3836
  789MPD2     C11681   1.416   0.951  16.946  0.0310  0.3375  0.0932
  789MPD2    C111682   1.332   0.993  16.847  0.0368  0.2502 -0.7822
  789MPD2    C211683   1.230   1.082  16.869  0.1927  0.3277  0.4749
  789MPD2    C311684   1.194   1.113  17.003  0.3209 -0.0588  0.2776
  789MPD2    C411685   1.264   1.046  17.099  0.7287  0.1572 -0.5434
  789MPD2    C511686   1.376   0.978  17.074 -0.5510 -0.4537 -0.5971
  789MPD2     H11687   1.181   1.129  16.785  0.9352  0.6867  0.2408
  789MPD2    H111688   1.232   1.053  17.202 -1.3878  0.3941 -1.2189
  789MPD2    H211689   1.495   0.878  16.931  0.3038  0.4826  0.8704
  789MPD2    H311690   1.442   0.928  17.144 -1.8335 -1.3841 -0.0581
  789MPD2     N11691   1.104   1.210  17.044  0.3221  0.1957  0.4732
  789MPD2    H511692   1.101   1.225  17.144 -0.3342  0.4411  0.4137
  789MPD2    N111693   1.352   0.953  16.710  0.3588 -0.0639  0.0881
  789MPD2    H711694   1.278   0.965  16.642  0.8990 -0.5598 -0.5914
  790MPD2     C11695   2.432   3.537  13.566 -0.8121  0.2889 -0.0046
  790MPD2    C111696   2.318   3.461  13.601 -0.0263 -0.4932 -0.2995
  790MPD2    C211697   2.255   3.378  13.511  0.1190 -0.8234  0.9213
  790MPD2    C311698   2.300   3.372  13.381  0.8442  0.7107 -0.5518
  790MPD2    C411699   2.403   3.463  13.345 -0.1761 -0.0046 -0.3557
  790MPD2    C511700   2.468   3.538  13.435  0.4127 -0.0209 -0.6710
  790MPD2     H11701   2.170   3.315  13.537 -0.4924 -0.8420 -1.1462
  790MPD2    H111702   2.432   3.462  13.241  1.6840 -1.2635  0.1814
  790MPD2    H211703   2.488   3.606  13.628  0.2398 -1.1020  0.5805
  790MPD2    H311704   2.547   3.604  13.401 -1.6797  2.4402 -0.7241
  790MPD2     N11705   2.229   3.287  13.293 -0.5191 -0.9250  0.0378
  790MPD2    H511706   2.171   3.213  13.331 -2.0784  1.1207  1.6524
  790MPD2    N111707   2.298   3.457  13.739 -0.4971 -0.0175  0.3132
  790MPD2    H711708   2.375   3.498  13.790 -0.8332 -1.9896  2.4060
  791MPD2     C11709   1.686   2.987  13.415 -0.4564 -0.1000 -0.1231
  791MPD2    C111710   1.735   2.926  13.308 -0.0427 -0.6649  0.4799
  791MPD2    C211711   1.677   2.803  13.269  0.5564 -0.3247 -0.9138
  791MPD2    C311712   1.559   2.758  13.331 -0.2041  0.0730 -0.1092
  791MPD2    C411713   1.515   2.826  13.439 -0.3816 -0.2209 -0.0155
  791MPD2    C511714   1.576   2.937  13.483 -0.3253 -0.4039 -0.3112
  791MPD2     H11715   1.724   2.749  13.188  2.6176  1.2516 -0.7769
  791MPD2    H111716   1.424   2.805  13.495 -1.7914 -0.5969 -2.4241
  791MPD2    H211717   1.732   3.076  13.457  0.9757 -0.2460 -1.3674
  791MPD2    H311718   1.534   2.998  13.562  0.7524  0.9724 -0.7926
  791MPD2     N11719   1.494   2.645  13.269  0.5464  0.1414  0.5182
  791MPD2    H511720   1.531   2.616  13.178  0.2537  2.8568 -0.4729
  791MPD2    N111721   1.835   2.997  13.232  0.0439 -0.6180 -0.4837
  791MPD2    H711722   1.884   3.070  13.283  1.2230 -0.0501 -2.4427
  792MPD2     C11723   2.207   3.483  11.459  0.2150 -0.3424  0.3751
  792MPD2    C111724   2.177   3.609  11.404 -1.1006  0.1995 -0.5206
  792MPD2    C211725   2.038   3.651  11.396 -0.0823  0.9007  0.8572
  792MPD2    C311726   1.934   3.567  11.443 -0.3035  0.3124 -0.0305
  792MPD2    C411727   1.967   3.440  11.483 -0.3832  0.1272 -0.3383
  792MPD2    C511728   2.102   3.397  11.484  0.4339  0.6357 -0.0645
  792MPD2     H11729   2.019   3.746  11.348 -0.5370  0.8139  0.8668
  792MPD2    H111730   1.903   3.366  11.529  1.8916 -1.3886  0.3957
  792MPD2    H211731   2.311   3.453  11.463  0.5875  0.9651  0.6117
  792MPD2    H311732   2.122   3.300  11.530  1.5620  1.0655  0.3494
  792MPD2     N11733   1.797   3.606  11.459  0.3601  0.0139 -0.3877
  792MPD2    H511734   1.732   3.532  11.486 -0.7928  1.3496  0.5268
  792MPD2    N111735   2.284   3.692  11.376 -0.2264  0.8189  0.5243
  792MPD2    H711736   2.373   3.659  11.411  0.2044  0.4192 -0.9503
  793MPD2     C11737   1.543   4.008  10.683 -0.1141 -0.1546 -0.3672
  793MPD2    C111738   1.643   3.938  10.738  0.8604  0.1892 -0.3792
  793MPD2    C211739   1.630   3.897  10.871  0.0220  0.2404 -0.5941
  793MPD2    C311740   1.523   3.937  10.944 -0.6387  0.2621  0.0089
  793MPD2    C411741   1.426   4.019  10.895 -0.0682 -0.9048 -0.9322
  793MPD2    C511742   1.440   4.057  10.761  0.6650  0.4438  0.1131
  793MPD2     H11743   1.698   3.826  10.917  0.2068  0.2448 -0.8587
  793MPD2    H111744   1.338   4.049  10.950  0.8311  0.5449 -0.3051
  793MPD2    H211745   1.536   4.031  10.578  2.9611  0.6286 -0.4112
  793MPD2    H311746   1.362   4.118  10.717  0.3065 -0.8350 -1.0484
  793MPD2     N11747   1.504   3.883  11.074  0.4426 -0.0782 -0.1909
  793MPD2    H511748   1.582   3.826  11.105  1.2451  0.5553 -1.0429
  793MPD2    N111749   1.755   3.895  10.669  0.1950 -0.5201 -0.8086
  793MPD2    H711750   1.815   3.828  10.715 -0.0794  1.0037  1.7531
  794MPD2     C11751   2.255   2.251  16.835  0.2427 -0.1910 -0.0813
  794MPD2    C111752   2.120   2.243  16.871 -0.1290 -0.3487  0.3245
  794MPD2    C211753   2.019   2.291  16.792 -0.5127 -0.4363 -0.6964
  794MPD2    C311754   2.052   2.346  16.668  0.8135  0.5235  0.2186
  794MPD2    C411755   2.182   2.338  16.622  0.8267 -0.2051  0.4210
  794MPD2    C511756   2.283   2.303  16.710 -0.1118 -0.0203  0.0501
  794MPD2     H11757   1.916   2.283  16.825  0.1152 -0.6477  1.1917
  794MPD2    H111758   2.206   2.371  16.522 -1.6517 -0.8136 -0.3945
  794MPD2    H211759   2.336   2.210  16.894  0.9298  1.1924 -0.0592
  794MPD2    H311760   2.384   2.306  16.670 -0.0426 -2.4558  0.0633
  794MPD2     N11761   1.956   2.408  16.585 -0.8872  0.4479  0.2417
  794MPD2    H511762   1.999   2.448  16.503 -0.0456  0.2067  0.5673
  794MPD2    N111763   2.085   2.191  16.997 -0.2162  0.6999 -0.1862
  794MPD2    H711764   1.991   2.159  17.020 -0.6512  0.4944 -2.2401
  795MPD2     C11765   4.310   4.630  13.925  0.2430 -0.4942  0.2899
  795MPD2    C111766   4.251   4.548  13.833  0.3650 -0.6066  0.0989
  795MPD2    C211767   4.315   4.425  13.818  0.2270 -0.1118  0.2052
  795MPD2    C311768   4.440   4.399  13.867  0.0833  1.0049  0.6105
  795MPD2    C411769   4.508   4.501  13.924 -0.0095 -0.0941  0.5480
  795MPD2    C511770   4.438   4.608  13.970 -0.4777 -0.7822 -0.4817
  795MPD2     H11771   4.265   4.348  13.761 -3.9059  0.9358  2.4266
  795MPD2    H111772   4.607   4.482  13.966  0.4485  1.4445  0.1649
  795MPD2    H211773   4.276   4.730  13.951 -0.3008 -0.9653  1.4059
  795MPD2    H311774   4.484   4.682  14.034 -1.5046  0.6226 -1.3622
  795MPD2     N11775   4.508   4.281  13.864  0.3228  0.4033  0.1098
  795MPD2    H511776   4.603   4.284  13.901  0.5399  0.8013 -0.4872
  795MPD2    N111777   4.128   4.588  13.772 -0.4286  0.4551  0.4634
  795MPD2    H711778   4.082   4.521  13.712  0.3532  1.4363 -1.2532
  796MPD2     C11779   4.040   0.997  16.239  0.2464 -0.5392  0.1791
  796MPD2    C111780   4.139   1.031  16.325 -0.3489  0.0565 -0.6878
  796MPD2    C211781   4.160   1.163  16.349 -0.9248  0.5606  0.3232
  796MPD2    C311782   4.078   1.266  16.312  0.5863  0.6680 -0.3547
  796MPD2    C411783   3.983   1.231  16.224 -0.2900  0.5900  0.5279
  796MPD2    C511784   3.965   1.095  16.182  0.2325 -0.3833  0.2557
  796MPD2     H11785   4.244   1.202  16.405  0.1876 -1.3556 -0.0126
  796MPD2    H111786   3.920   1.305  16.176 -0.5102 -0.3031 -0.5540
  796MPD2    H211787   4.009   0.894  16.229  1.2408 -0.9162  0.9639
  796MPD2    H311788   3.894   1.063  16.107  0.9982 -3.9961  1.0899
  796MPD2     N11789   4.102   1.401  16.355 -0.2552  0.5188  0.1108
  796MPD2    H511790   4.169   1.410  16.430 -2.4707  0.5755  2.0718
  796MPD2    N111791   4.203   0.927  16.395 -0.1866 -0.9221  0.5033
  796MPD2    H711792   4.165   0.833  16.386 -1.2549 -0.2420 -2.1261
  797MPD2     C11793   0.316   0.669   0.220  0.4106  0.1472 -0.0449
  797MPD2    C111794   0.433   0.736   0.186 -0.0596 -0.3314  0.4265
  797MPD2    C211795   0.472   0.746   0.054  0.6174 -0.3593  0.3405
  797MPD2    C311796   0.400   0.683  17.720 -0.8598 -0.5496 -0.3698
  797MPD2    C411797   0.289   0.614  17.753  0.7063  0.0296 -0.6247
  797MPD2    C511798   0.244   0.607   0.118  0.4510  0.6568  0.4951
  797MPD2     H11799   0.560   0.803   0.026  1.1004 -0.6576  1.2593
  797MPD2    H111800   0.245   0.555  17.674 -0.0527  1.4083 -1.2389
  797MPD2    H211801   0.284   0.663   0.324 -0.1019  2.2051 -0.0804
  797MPD2    H311802   0.154   0.553   0.144  0.1445  1.0394  0.2288
  797MPD2     N11803   0.454   0.685  17.586 -0.5604 -0.5055 -0.2619
  797MPD2    H511804   0.541   0.735  17.568 -1.1002 -0.1811 -1.9355
  797MPD2    N111805   0.502   0.813   0.282 -0.3146 -0.1866 -0.9132
  797MPD2    H711806   0.594   0.843   0.250  0.8437 -1.7765  0.9110
  798MPD2     C11807   0.801   1.253  17.559  0.9265  0.1939  0.8785
  798MPD2    C111808   0.734   1.136  17.581 -0.7440  1.2565 -0.3301
  798MPD2    C211809   0.721   1.086  17.711  0.0332 -0.0271  0.1126
  798MPD2    C311810   0.760   1.163   0.057 -0.2856  0.1452  0.3086
  798MPD2    C411811   0.832   1.278   0.040 -0.4379 -0.6343  0.5097
  798MPD2    C511812   0.853   1.319  17.669  1.0625 -0.4561 -0.2686
  798MPD2     H11813   0.655   1.002  17.728 -0.8889  0.3284 -1.6691
  798MPD2    H111814   0.877   1.334   0.121 -0.5434  0.2196 -0.0162
  798MPD2    H211815   0.825   1.294  17.462 -1.3286  2.1599  1.1339
  798MPD2    H311816   0.907   1.411  17.652  0.1931  0.6160  2.7447
  798MPD2     N11817   0.740   1.103   0.179 -0.4702  0.2668  0.4294
  798MPD2    H511818   0.707   1.007   0.176  1.0661 -0.2760  0.8252
  798MPD2    N111819   0.707   1.054  17.463  0.1381  1.1572  0.6125
  798MPD2    H711820   0.704   1.113  17.381 -1.3115 -0.4565 -0.5042
  799MPD2     C11821   4.089   2.621  14.930 -0.3851 -0.0129 -0.4758
  799MPD2    C111822   3.988   2.541  14.882  0.8552  0.4784  0.9361
  799MPD2    C211823   3.901   2.588  14.789 -0.7455  0.3374  0.5278
  799MPD2    C311824   3.926   2.712  14.728 -0.5287 -0.5274  0.1437
  799MPD2    C411825   4.038   2.784  14.775  0.0368  0.3323 -0.1246
  799MPD2    C511826   4.113   2.740  14.872  0.0661 -0.9465  0.2808
  799MPD2     H11827   3.824   2.524  14.749 -1.0186  2.1249 -1.7997
  799MPD2    H111828   4.059   2.884  14.738 -4.2603  1.0298 -0.6825
  799MPD2    H211829   4.145   2.606  15.022 -0.7260  0.3268 -0.2082
  799MPD2    H311830   4.197   2.800  14.905 -0.0931 -0.9175  0.6376
  799MPD2     N11831   3.853   2.763  14.619 -0.5779 -0.2413 -0.0564
  799MPD2    H511832   3.888   2.849  14.579 -2.2001 -0.5745 -2.1826
  799MPD2    N111833   3.959   2.412  14.936  0.6125  0.0920  0.3411
  799MPD2    H711834   3.893   2.356  14.883 -0.5990 -0.4633  2.4237
  800MPD2     C11835   4.051   3.882  14.231 -0.3241  0.5487 -0.3222
  800MPD2    C111836   4.162   3.805  14.197  0.0484 -0.4796 -0.1961
  800MPD2    C211837   4.143   3.690  14.131 -0.5927 -0.2113  0.3834
  800MPD2    C311838   4.021   3.653  14.090  0.1336 -0.2341  0.5045
  800MPD2    C411839   3.912   3.720  14.128  0.6052  0.0763  0.4449
  800MPD2    C511840   3.926   3.843  14.189 -0.3259  0.2618 -0.0770
  800MPD2     H11841   4.230   3.635  14.098 -1.1995 -0.6416 -0.4992
  800MPD2    H111842   3.814   3.691  14.092 -0.2110  0.6938  2.1732
  800MPD2    H211843   4.068   3.980  14.275 -0.9183  0.8864 -0.8496
  800MPD2    H311844   3.843   3.910  14.210 -0.1944  0.0966  0.9626
  800MPD2     N11845   4.021   3.529  14.017  0.7380  0.3435 -0.0045
  800MPD2    H511846   4.109   3.478  14.022  0.2205 -0.4185  1.4219
  800MPD2    N111847   4.295   3.853  14.221 -0.2583 -0.5426 -0.2049
  800MPD2    H711848   4.314   3.950  14.248  2.1435 -0.2407 -2.9202
  801MPD2     C11849   4.646   4.473  14.239 -0.3276  0.0484 -0.8417
  801MPD2    C111850   4.549   4.385  14.282 -0.6344  0.1481  0.4512
  801MPD2    C211851   4.456   4.423  14.380  0.2200 -0.2638 -0.0677
  801MPD2    C311852   4.445   4.555  14.419 -0.2413  0.5737  0.3487
  801MPD2    C411853   4.537   4.642  14.369 -0.2801 -0.4878  0.5844
  801MPD2    C511854   4.629   4.604  14.276 -0.9648  0.4292 -0.1157
  801MPD2     H11855   4.386   4.348  14.414  0.9250 -0.4121  1.0679
  801MPD2    H111856   4.551   0.007  14.390  3.3424 -1.1166  1.3717
  801MPD2    H211857   4.725   4.441  14.171  0.0227 -1.4730  0.2761
  801MPD2    H311858   4.694   4.678  14.230 -1.8837  1.3477  0.0739
  801MPD2     N11859   4.348   4.612  14.496  0.4635 -0.0088 -0.9598
  801MPD2    H511860   4.359   4.711  14.516 -1.6140  0.3565 -1.5771
  801MPD2    N111861   4.554   4.250  14.245 -0.0430 -0.8074 -0.1852
  801MPD2    H711862   4.498   4.188  14.304  0.7076 -1.9422 -0.6714
  802MPD2     C11863   3.189   4.424  17.225 -0.0021  0.0174 -1.0037
  802MPD2    C111864   3.289   4.507  17.277 -0.0377  0.5836 -0.5382
  802MPD2    C211865   3.419   4.485  17.244 -0.1012  0.1764 -0.0829
  802MPD2    C311866   3.462   4.377  17.168  0.1457  0.6459  0.8608
  802MPD2    C411867   3.366   4.293  17.120 -0.1896  0.2009  0.6595
  802MPD2    C511868   3.233   4.308  17.162 -0.1651 -0.2633  0.6805
  802MPD2     H11869   3.499   4.551  17.275 -0.3012  0.6025 -0.4794
  802MPD2    H111870   3.379   4.197  17.070  1.6261  1.4126 -1.2113
  802MPD2    H211871   3.082   4.440  17.239  0.2589 -0.9192  2.1516
  802MPD2    H311872   3.164   4.229  17.135  2.7228 -2.3264 -0.6621
  802MPD2     N11873   3.598   4.357  17.144 -0.7197  0.1225 -0.0642
  802MPD2    H511874   3.660   4.432  17.172 -0.8633 -0.7198  2.4730
  802MPD2    N111875   3.247   4.615  17.355  0.2351  0.6317  0.1442
  802MPD2    H711876   3.326   4.667  17.391 -0.3702  1.2338  0.6125
  803MPD2     C11877   4.371   2.769  12.830 -0.0231  0.3094  0.0993
  803MPD2    C111878   4.478   2.847  12.841 -0.6184  0.2567  0.2314
  803MPD2    C211879   4.591   2.807  12.915 -0.2024  1.3234  0.7592
  803MPD2    C311880   4.584   2.698  13.002 -0.0641  0.4031  0.5052
  803MPD2    C411881   4.474   2.620  12.995 -0.3350 -0.4519 -0.1095
  803MPD2    C511882   4.369   2.652  12.908 -0.2779  0.1769  0.6816
  803MPD2     H11883   4.673   2.877  12.918  0.8619  0.1713 -1.2790
  803MPD2    H111884   4.463   2.537  13.064 -2.4597  0.6306  0.8726
  803MPD2    H211885   4.284   2.788  12.768 -0.4068 -2.0770 -0.0866
  803MPD2    H311886   4.277   2.595  12.909  0.1165 -0.4499  0.9085
  803MPD2     N11887   4.680   2.675  13.099  0.3181  0.2736 -0.6569
  803MPD2    H511888   4.661   2.590  13.151 -1.1119 -0.0513 -1.7393
  803MPD2    N111889   4.498   2.962  12.765 -0.1867  0.0940  0.1721
  803MPD2    H711890   4.590   3.003  12.768 -0.5581  0.9249  0.0436
  804MPD2     C11891   4.313   4.101  17.154  0.0320 -0.3214 -0.2726
  804MPD2    C111892   4.376   4.073  17.275  0.3444  0.3585  0.4861
  804MPD2    C211893   4.450   4.176  17.337 -0.1232 -0.4140  0.1328
  804MPD2    C311894   4.464   4.296  17.267  0.2581  0.4164 -0.4331
  804MPD2    C411895   4.405   4.316  17.147  0.3010  0.0608 -0.2788
  804MPD2    C511896   4.328   4.221  17.089 -0.6389  0.1056 -0.2921
  804MPD2     H11897   4.509   4.155  17.426  0.5633 -2.3055 -0.7594
  804MPD2    H111898   4.429   4.405  17.091  0.9417 -0.9983 -1.6724
  804MPD2    H211899   4.255   4.026  17.101 -0.0421 -1.4791  1.4581
  804MPD2    H311900   4.295   4.236  16.987 -0.6975 -3.3173 -0.8046
  804MPD2     N11901   4.538   4.397  17.332 -0.0084 -0.0854  0.5904
  804MPD2    H511902   4.562   4.385  17.430  1.1133  1.3549  0.4778
  804MPD2    N111903   4.364   3.947  17.342 -0.0429 -0.1236  0.8009
  804MPD2    H711904   4.397   3.938  17.437 -0.1762 -0.2051  0.8380
  805MPD2     C11905   4.074   2.740  15.717  0.5087 -0.0740  0.3301
  805MPD2    C111906   4.119   2.615  15.672 -0.8452  0.0631 -0.6822
  805MPD2    C211907   4.222   2.554  15.739  0.5107 -0.1881 -0.8148
  805MPD2    C311908   4.280   2.606  15.855 -0.8200 -0.5689 -0.5497
  805MPD2    C411909   4.228   2.727  15.903 -0.5130 -0.4289 -0.2398
  805MPD2    C511910   4.134   2.793  15.826 -0.2093  0.3926  0.0752
  805MPD2     H11911   4.265   2.468  15.688 -0.6079 -0.0806 -1.9459
  805MPD2    H111912   4.266   2.787  15.985  0.9719 -0.3619 -0.9633
  805MPD2    H211913   3.991   2.795  15.673  0.6706  1.2588  1.6770
  805MPD2    H311914   4.092   2.886  15.863  2.1301  1.0096  1.1791
  805MPD2     N11915   4.388   2.542  15.917  0.3235 -0.4925  0.4272
  805MPD2    H511916   4.422   2.452  15.884 -2.3133 -0.9615 -0.9469
  805MPD2    N111917   4.060   2.545  15.557  0.0386  0.3325 -0.0533
  805MPD2    H711918   4.102   2.456  15.531  0.2349  0.4455 -0.1230
  806MPD2     C11919   4.110   2.037   0.729 -0.1779 -0.1705 -0.4169
  806MPD2    C111920   4.196   2.121   0.796 -0.3184  0.4043 -0.2499
  806MPD2    C211921   4.277   2.196   0.718  0.1790  0.3892  0.2768
  806MPD2    C311922   4.274   2.193   0.577  0.0997  0.2593 -0.0922
  806MPD2    C411923   4.201   2.085   0.516  0.2029  0.7763 -0.3824
  806MPD2    C511924   4.127   2.005   0.596  0.2954  0.0623 -0.1374
  806MPD2     H11925   4.353   2.257   0.765  1.1088  1.2703 -2.3291
  806MPD2    H111926   4.202   2.067   0.409 -0.1326  0.6210 -0.3579
  806MPD2    H211927   4.043   1.967   0.777  1.2351 -1.4303 -0.3012
  806MPD2    H311928   4.058   1.945   0.538 -1.5638  1.2777  0.8076
  806MPD2     N11929   4.337   2.291   0.499 -0.5854  0.5998  0.2168
  806MPD2    H511930   4.398   2.358   0.546  0.0600  2.3527 -3.1219
  806MPD2    N111931   4.202   2.120   0.941  0.1245 -0.2489 -0.1761
  806MPD2    H711932   4.271   2.173   0.993 -0.8728 -0.6816  1.6129
  807MPD2     C11933   3.759   2.105   1.720 -0.0935 -0.3012 -0.7899
  807MPD2    C111934   3.860   2.018   1.691 -0.3198  0.0460  0.0335
  807MPD2    C211935   3.885   1.924   1.794 -0.6651 -0.8803  0.0412
  807MPD2    C311936   3.801   1.905   1.904 -0.5580 -0.7849  0.7592
  807MPD2    C411937   3.700   1.996   1.926  0.5951  0.2266 -0.5282
  807MPD2    C511938   3.678   2.086   1.826 -0.4076  0.3274  0.8320
  807MPD2     H11939   3.960   1.847   1.778  0.6439  0.6342 -1.1184
  807MPD2    H111940   3.636   1.992   2.014  1.7429  3.2742  0.4568
  807MPD2    H211941   3.716   2.163   1.639  0.0210  0.1624 -0.5216
  807MPD2    H311942   3.595   2.153   1.842  1.0225  1.8437  1.8759
  807MPD2     N11943   3.816   1.790   1.987  0.2955  0.2761 -0.0078
  807MPD2    H511944   3.895   1.733   1.959  1.7767  1.8754  0.9635
  807MPD2    N111945   3.945   2.022   1.586  0.4305 -0.1869  0.3872
  807MPD2    H711946   4.029   1.966   1.589  0.0272 -0.8272 -0.4332
  808MPD2     C11947   0.801   4.273  10.783 -0.8240 -0.3979 -0.3871
  808MPD2    C111948   0.813   4.199  10.669 -0.2865 -0.6203 -0.2866
  808MPD2    C211949   0.754   4.242  10.557 -0.6511  0.9074 -0.6745
  808MPD2    C311950   0.669   4.353  10.565  0.7571 -0.5175  0.4219
  808MPD2    C411951   0.657   4.436  10.679 -0.1687 -0.0951  0.1619
  808MPD2    C511952   0.726   4.389  10.789  0.2376 -0.0082 -0.2758
  808MPD2     H11953   0.752   4.178  10.470 -0.6893 -1.1983  0.8913
  808MPD2    H111954   0.589   4.520  10.683  1.6504  1.3262  1.2870
  808MPD2    H211955   0.840   4.248  10.881 -1.2159 -2.3689 -0.7408
  808MPD2    H311956   0.729   4.446  10.882 -0.9282 -1.0531  0.4030
  808MPD2     N11957   0.597   4.397  10.449 -0.3193  0.1056 -0.3778
  808MPD2    H511958   0.553   4.487  10.466  0.2854  0.4667 -0.7075
  808MPD2    N111959   0.876   4.073  10.667  0.0434 -0.1155  0.3503
  808MPD2    H711960   0.860   4.025  10.579  0.9588 -0.8341  0.5678
  809MPD2     C11961   0.640   4.680   9.402  0.0918  0.2140 -0.0200
  809MPD2    C111962   0.697   4.577   9.472 -0.0649  0.3762  0.1571
  809MPD2    C211963   0.656   4.551   9.605 -0.1246  0.7068  0.6729
  809MPD2    C311964   0.548   4.621   9.655 -0.0955  0.2912 -1.4047
  809MPD2    C411965   0.495   4.726   9.582  0.1676 -0.5248  1.0754
  809MPD2    C511966   0.538   0.013   9.453 -0.8164 -0.6157  0.3121
  809MPD2     H11967   0.705   4.474   9.663 -0.3281 -0.6173 -0.8983
  809MPD2    H111968   0.427   0.058   9.625 -2.0922 -0.9759 -1.7170
  809MPD2    H211969   0.664   4.709   9.301 -2.0985  1.0398 -0.2944
  809MPD2    H311970   0.504   0.098   9.395 -1.4170 -1.4343 -0.5490
  809MPD2     N11971   0.498   4.618   9.789 -0.0676  0.2792 -0.0381
  809MPD2    H511972   0.420   4.679   9.808  0.9343  1.8530 -0.9673
  809MPD2    N111973   0.794   4.495   9.411 -0.4608  0.3632  0.3897
  809MPD2    H711974   0.840   4.433   9.477 -0.5463  1.3209  1.3588
  810MPD2     C11975   4.696   3.110  10.373  0.5765 -0.0111 -0.4619
  810MPD2    C111976   4.596   3.206  10.390  1.0100 -0.2703 -0.2684
  810MPD2    C211977   4.634   3.330  10.437 -0.5605  0.3812  0.1614
  810MPD2    C311978   0.025   3.371  10.451 -0.4781 -0.3860 -0.5017
  810MPD2    C411979   0.125   3.275  10.428 -0.1978 -0.5764  0.1235
  810MPD2    C511980   0.085   3.150  10.389  1.0342 -0.1974  0.3317
  810MPD2     H11981   4.553   3.400  10.453 -0.9601  1.0272 -4.5154
  810MPD2    H111982   0.231   3.289  10.446 -0.2278 -0.6354  0.3486
  810MPD2    H211983   4.684   3.006  10.344 -2.6842  0.6125 -1.3974
  810MPD2    H311984   0.156   3.068  10.390 -0.7000 -1.6963 -0.1288
  810MPD2     N11985   0.068   3.498  10.492  0.0310 -0.0662  0.0891
  810MPD2    H511986   0.170   3.506  10.495 -0.0408  1.3010 -1.0394
  810MPD2    N111987   4.461   3.174  10.374  0.2479  0.1139 -0.5693
  810MPD2    H711988   4.392   3.243  10.403  0.0116 -0.4470  0.2007
  811MPD2     C11989   3.654   3.366  10.164  0.1955 -0.5034  0.5648
  811MPD2    C111990   3.791   3.392  10.178 -0.2994 -0.0833  0.0808
  811MPD2    C211991   3.845   3.506  10.125 -0.2199  0.3241 -0.1645
  811MPD2    C311992   3.768   3.600  10.074  0.0883 -0.0695 -0.1664
  811MPD2    C411993   3.629   3.580  10.061 -0.0657 -0.0288  0.5333
  811MPD2    C511994   3.578   3.462  10.116 -0.1141 -0.4363 -0.5063
  811MPD2     H11995   3.953   3.515  10.127 -0.1834 -0.6165  2.9279
  811MPD2    H111996   3.562   3.651  10.015  0.2499  0.5619  0.9651
  811MPD2    H211997   3.603   3.274  10.192 -2.5689  0.2028 -2.1463
  811MPD2    H311998   3.470   3.448  10.110 -0.1008  1.2852 -5.0911
  811MPD2     N11999   3.833   3.722  10.036  0.2515 -0.2258  0.5493
  811MPD2    H512000   3.927   3.744  10.068  1.2817  0.0593 -2.6560
  811MPD2    N112001   3.864   3.281  10.222 -0.1785 -0.5934  0.5969
  811MPD2    H712002   3.818   3.191  10.228 -1.2172 -0.0232  1.2157
  812MPD2     C12003   2.956   3.172  11.798 -0.2612  0.2204  0.1738
  812MPD2    C112004   2.913   3.267  11.884  0.8153  0.1936  0.1262
  812MPD2    C212005   2.868   3.228  12.010  0.3004 -0.2604  0.1380
  812MPD2    C312006   2.871   3.091  12.039  0.1273  0.3609  0.5007
  812MPD2    C412007   2.914   2.994  11.956  0.0647 -0.2123  0.0072
  812MPD2    C512008   2.957   3.037  11.833  0.5816 -0.1235  0.4093
  812MPD2     H12009   2.842   3.305  12.081  1.7257  1.3081 -1.0547
  812MPD2    H112010   2.925   2.891  11.984  0.8930  0.3905  1.8687
  812MPD2    H212011   3.009   3.200  11.707 -2.8304  0.9781 -1.0682
  812MPD2    H312012   2.999   2.961  11.767  2.6854  0.8520  0.6083
  812MPD2     N12013   2.840   3.065  12.175  0.2472  0.6706 -0.1883
  812MPD2    H512014   2.817   3.145  12.233 -0.0013  0.9487 -0.6713
  812MPD2    N112015   2.938   3.403  11.839  0.1583  0.2595  0.2824
  812MPD2    H712016   2.977   3.413  11.745  0.7256 -0.5850  0.4360
  813MPD2     C12017   1.885   0.271  12.640  0.2471  0.3442 -0.0375
  813MPD2    C112018   1.971   0.331  12.729 -0.0012  1.0021  0.6683
  813MPD2    C212019   1.963   0.307  12.867 -0.0134  1.0930 -0.1573
  813MPD2    C312020   1.864   0.230  12.919 -0.5951  0.0818 -0.5833
  813MPD2    C412021   1.762   0.184  12.833  0.4342 -0.4368 -0.3913
  813MPD2    C512022   1.782   0.202  12.698  0.1836 -0.6301  0.1333
  813MPD2     H12023   2.034   0.352  12.935  0.5825  0.6971 -0.5260
  813MPD2    H112024   1.675   0.131  12.869  2.2241 -2.0467  1.6299
  813MPD2    H212025   1.889   0.276  12.532  0.3948 -1.4825 -0.1163
  813MPD2    H312026   1.713   0.166  12.622  1.8558 -1.1955 -1.1311
  813MPD2     N12027   1.859   0.210  13.057  0.3705 -0.3319 -0.1613
  813MPD2    H512028   1.939   0.245  13.109  0.1843  0.1636 -0.2053
  813MPD2    N112029   2.087   0.401  12.686  0.0809  0.4747  0.3984
  813MPD2    H712030   2.150   0.434  12.758  0.8828  0.5517 -0.3346
  814MPD2     C12031   2.513   1.723  12.612  0.4167  0.2619  0.2008
  814MPD2    C112032   2.515   1.748  12.473  0.7251 -0.2050 -0.0758
  814MPD2    C212033   2.553   1.871  12.422 -0.0316  0.4221 -0.2102
  814MPD2    C312034   2.595   1.973  12.509  0.4438  0.2104 -0.6166
  814MPD2    C412035   2.598   1.947  12.646 -0.3751 -0.0200 -0.3009
  814MPD2    C512036   2.548   1.822  12.693 -0.0714  0.8279 -0.0486
  814MPD2     H12037   2.564   1.874  12.315  2.7965  3.0207  0.1413
  814MPD2    H112038   2.620   2.017  12.725 -1.1889 -1.5265  1.2778
  814MPD2    H212039   2.474   1.626  12.644  0.5557 -0.0490 -0.5658
  814MPD2    H312040   2.531   1.800  12.797 -2.5460  1.1603 -0.3779
  814MPD2     N12041   2.668   2.084  12.460  0.3928 -0.3555 -0.5512
  814MPD2    H512042   2.699   2.153  12.528  1.4531 -0.3176 -1.0714
  814MPD2    N112043   2.482   1.647  12.379 -0.5326  0.7365 -0.2724
  814MPD2    H712044   2.472   1.684  12.285 -1.0037 -0.1194 -0.5582
  815MPD2     C12045   3.144   4.561  12.191  0.5387  0.0618  0.0121
  815MPD2    C112046   3.073   4.604  12.081  0.3086  0.3833 -0.0967
  815MPD2    C212047   2.952   4.667  12.090  0.4449 -0.1003  0.4696
  815MPD2    C312048   2.906   4.697  12.215 -0.3625 -0.3201 -0.1320
  815MPD2    C412049   2.981   4.663  12.324  0.3161  0.2474 -0.8747
  815MPD2    C512050   3.100   4.601  12.317  0.2235  0.2374  0.3240
  815MPD2     H12051   2.893   4.694  12.003  0.4005 -0.1052  0.4981
  815MPD2    H112052   2.945   4.682  12.424  0.5151  1.1702 -0.9821
  815MPD2    H212053   3.229   4.494  12.192  1.0634  0.6988 -2.0298
  815MPD2    H312054   3.151   4.577  12.409 -0.1350  0.8767  0.6908
  815MPD2     N12055   2.779   0.025  12.225 -0.2203  0.2567  0.8029
  815MPD2    H512056   2.723   0.025  12.141 -2.6646  1.9333  2.4317
  815MPD2    N112057   3.117   4.545  11.957  0.9378  0.8343 -0.2959
  815MPD2    H712058   3.196   4.482  11.966  1.0559  1.0737  0.3129
  816MPD2     C12059   2.923   3.862  17.334  0.6524 -0.9539  0.5597
  816MPD2    C112060   3.019   3.950  17.376 -1.2375 -0.2683  0.6846
  816MPD2    C212061   3.148   3.923  17.343  0.2806  0.7105 -0.5010
  816MPD2    C312062   3.179   3.801  17.271  0.3247 -0.3914  0.3699
  816MPD2    C412063   3.077   3.716  17.230 -0.4968  0.1892 -0.7273
  816MPD2    C512064   2.949   3.749  17.261 -0.4340  0.7120  1.0658
  816MPD2     H12065   3.221   3.999  17.369  1.7661 -1.1465  0.7572
  816MPD2    H112066   3.090   3.634  17.160  3.0018  1.0358 -1.0637
  816MPD2    H212067   2.819   3.886  17.355  1.6681  1.2632  3.0498
  816MPD2    H312068   2.870   3.687  17.223 -0.0235 -0.8434  2.7435
  816MPD2     N12069   3.312   3.773  17.242 -0.3119 -0.0376  0.0494
  816MPD2    H512070   3.373   3.852  17.263 -0.1025 -0.6247  1.6952
  816MPD2    N112071   2.973   4.063  17.434 -0.1454 -0.2759  0.0276
  816MPD2    H712072   2.872   4.075  17.438 -0.0928  0.0995  0.2681
  817MPD2     C12073   2.630   1.244  10.305  0.0647  0.5351  0.0424
  817MPD2    C112074   2.740   1.171  10.278 -0.1764  0.1882  0.3417
  817MPD2    C212075   2.836   1.238  10.199  0.1525 -1.0314 -0.0819
  817MPD2    C312076   2.828   1.364  10.149 -0.1248 -0.2411 -0.1884
  817MPD2    C412077   2.720   1.436  10.189 -0.0138  0.2732 -0.1811
  817MPD2    C512078   2.615   1.376  10.263 -0.0617  0.4395  0.3008
  817MPD2     H12079   2.926   1.182  10.179 -0.0968 -0.6979 -2.0804
  817MPD2    H112080   2.697   1.535  10.153 -2.8545  0.0277  0.9646
  817MPD2    H212081   2.546   1.218  10.367  0.8129 -1.4564  0.2243
  817MPD2    H312082   2.522   1.421  10.295 -2.0544 -0.6016 -4.1228
  817MPD2     N12083   2.931   1.425  10.077  0.4366 -1.0198  0.2988
  817MPD2    H512084   3.019   1.377  10.063 -0.5893 -3.4158  2.1458
  817MPD2    N112085   2.767   1.042  10.319 -0.1357 -0.2665 -0.2810
  817MPD2    H712086   2.837   0.983  10.275  0.7173  0.4023  0.1949
  818MPD2     C12087   1.572   1.182   9.587 -0.1457 -0.0135 -0.7735
  818MPD2    C112088   1.463   1.153   9.663  0.5658 -0.1518 -0.2421
  818MPD2    C212089   1.382   1.049   9.627 -0.9495 -0.6277 -0.2011
  818MPD2    C312090   1.418   0.973   9.516  0.0865  0.6083  0.6515
  818MPD2    C412091   1.523   1.012   9.439 -0.2501  0.1948 -0.5975
  818MPD2    C512092   1.602   1.112   9.477  0.1031 -0.7690  0.4808
  818MPD2     H12093   1.296   1.022   9.687  0.0015 -0.1229  1.3753
  818MPD2    H112094   1.538   0.971   9.340 -2.9785  0.9242 -1.3062
  818MPD2    H212095   1.639   1.264   9.612 -0.2154  0.0760 -0.8776
  818MPD2    H312096   1.686   1.147   9.418 -0.5652  1.0736  0.5949
  818MPD2     N12097   1.333   0.865   9.473 -0.3778  0.4186 -0.1355
  818MPD2    H512098   1.357   0.828   9.381 -0.3523  1.0271 -0.3689
  818MPD2    N112099   1.445   1.213   9.792 -0.1028  0.3440 -0.3381
  818MPD2    H712100   1.375   1.175   9.854 -0.1349  2.0466  0.6868
  819MPD2     C12101   4.325   2.045  16.115  0.2433 -0.0519 -0.4089
  819MPD2    C112102   4.354   1.918  16.072 -0.2529 -0.5641 -0.6308
  819MPD2    C212103   4.487   1.869  16.059 -0.1739  0.4876 -0.1253
  819MPD2    C312104   4.587   1.953  16.108  0.3030  0.5866  0.0163
  819MPD2    C412105   4.552   2.084  16.144 -0.1622  0.8410 -0.2908
  819MPD2    C512106   4.427   2.127  16.157  0.1548 -0.0342 -0.0851
  819MPD2     H12107   4.510   1.769  16.023  1.3048  0.3954  1.0686
  819MPD2    H112108   4.632   2.156  16.158 -1.0832  2.2922 -2.4921
  819MPD2    H212109   4.227   2.092  16.118 -0.8487 -2.3543  0.1394
  819MPD2    H312110   4.403   2.226  16.193  2.3414  0.0567  1.1413
  819MPD2     N12111   4.716   1.898  16.108  0.0801 -0.8197 -1.3262
  819MPD2    H512112   4.730   1.801  16.080  2.4819 -0.6059 -0.8580
  819MPD2    N112113   4.240   1.846  16.047  0.4151 -0.2649 -0.7610
  819MPD2    H712114   4.153   1.898  16.049  0.8501  0.4818 -1.5496
  820MPD2     C12115   3.504   1.936  15.435  0.6043  0.8746  0.8799
  820MPD2    C112116   3.636   1.971  15.451 -0.8492  0.4914 -0.8856
  820MPD2    C212117   3.713   1.892  15.538  0.4973  0.0932  0.4018
  820MPD2    C312118   3.658   1.796  15.624  0.6426 -0.4686 -0.6316
  820MPD2    C412119   3.523   1.765  15.607 -0.0256 -0.0392 -0.4174
  820MPD2    C512120   3.458   1.827  15.506 -0.1491 -0.6334 -0.0120
  820MPD2     H12121   3.815   1.928  15.551  1.0224 -1.6393  1.0103
  820MPD2    H112122   3.462   1.699  15.668  0.2371 -0.8457 -1.0161
  820MPD2    H212123   3.438   1.992  15.371 -0.5623  0.3813  1.6605
  820MPD2    H312124   3.350   1.812  15.508 -0.2004 -0.5003 -1.3494
  820MPD2     N12125   3.724   1.729  15.727 -0.1471  0.0501  0.0220
  820MPD2    H512126   3.671   1.671  15.791 -0.3490 -0.0923 -0.2723
  820MPD2    N112127   3.676   2.100  15.393 -0.7937 -0.1081 -0.3874
  820MPD2    H712128   3.600   2.162  15.368  1.0952  0.6908 -4.2170
  821MPD2     C12129   4.311   3.564  13.342  0.2716 -0.3408  0.4866
  821MPD2    C112130   4.374   3.514  13.457 -0.1342  0.2518 -0.1787
  821MPD2    C212131   4.505   3.526  13.472 -0.1455 -0.5389 -0.7622
  821MPD2    C312132   4.591   3.590  13.380  0.1425  0.4094  0.7262
  821MPD2    C412133   4.522   3.653  13.280 -0.5552  0.0393  0.4585
  821MPD2    C512134   4.388   3.637  13.257 -0.0105 -0.4918  0.7023
  821MPD2     H12135   4.547   3.497  13.567  0.0208 -0.6129 -0.8595
  821MPD2    H112136   4.571   3.724  13.214 -2.5444  1.5902  0.6609
  821MPD2    H212137   4.203   3.560  13.333  0.2857  2.0163 -0.7727
  821MPD2    H312138   4.331   3.703  13.191 -1.4260 -1.4666  0.9645
  821MPD2     N12139   4.728   3.608  13.393 -0.0698 -0.1834  0.5828
  821MPD2    H512140   0.029   3.660  13.316  0.6652 -0.8689  0.5287
  821MPD2    N112141   4.308   3.450  13.559 -0.5167  0.3773 -0.7294
  821MPD2    H712142   4.365   3.420  13.638 -0.3482  1.4052 -0.4673
  822MPD2     C12143   0.149   3.468  15.957 -0.5123  0.7877 -0.5423
  822MPD2    C112144   0.146   3.416  16.084 -0.1695 -0.3315 -0.4289
  822MPD2    C212145   0.107   3.491  16.190 -0.9062 -0.3933  0.4890
  822MPD2    C312146   0.064   3.623  16.169  0.0480 -0.5611 -0.1561
  822MPD2    C412147   0.049   3.678  16.043  0.5450  0.1122  0.2496
  822MPD2    C512148   0.103   3.598  15.946  0.3916 -0.2121 -0.4302
  822MPD2     H12149   0.101   3.440  16.286 -2.9061 -0.5723  0.2693
  822MPD2    H112150   4.738   3.772  16.028 -2.7005 -1.5356  0.9529
  822MPD2    H212151   0.173   3.406  15.872 -0.9261 -3.1660  2.2221
  822MPD2    H312152   0.097   3.644  15.848 -0.7160 -0.1748 -0.3432
  822MPD2     N12153   0.022   3.695  16.279  0.2252  0.1331  0.2625
  822MPD2    H512154   0.030   3.653  16.371 -2.2310 -3.6135 -1.2301
  822MPD2    N112155   0.200   3.290  16.117  0.1029 -0.0964 -0.2841
  822MPD2    H712156   0.211   3.274  16.217  0.9084  0.8247 -0.2272
  823MPD2     C12157   4.595   3.769  17.085  0.6885  0.7417 -0.0122
  823MPD2    C112158   4.613   3.705  16.970  0.1073  0.4208 -0.5801
  823MPD2    C212159   4.660   3.574  16.969  0.0515  0.5323 -0.2689
  823MPD2    C312160   4.694   3.519  17.093 -0.0788  0.8919 -0.3786
  823MPD2    C412161   4.664   3.586  17.216 -0.0068 -0.0999 -0.4218
  823MPD2    C512162   4.626   3.718  17.205 -0.2880  0.2803  0.7798
  823MPD2     H12163   4.669   3.521  16.875  2.4433 -0.3722  0.4759
  823MPD2    H112164   4.708   3.571  17.314 -2.2002  0.0439  0.5942
  823MPD2    H212165   4.575   3.875  17.096  0.2113  0.4589  1.8601
  823MPD2    H312166   4.619   3.782  17.293  1.2318 -0.0456  1.1302
  823MPD2     N12167   0.004   3.390  17.103  0.2634 -0.1103  0.5269
  823MPD2    H512168   0.019   3.353  17.197  2.6274 -2.4522 -0.7602
  823MPD2    N112169   4.593   3.782  16.853  0.6297  0.0174  0.9285
  823MPD2    H712170   4.607   3.883  16.861  0.3710  0.1267  0.0512
  824MPD2     C12171   0.502   2.489  15.847 -0.1289  0.1315  0.2064
  824MPD2    C112172   0.576   2.597  15.890 -1.0383  0.2112 -0.2371
  824MPD2    C212173   0.710   2.597  15.862 -0.3694  0.5188  0.3738
  824MPD2    C312174   0.771   2.484  15.807 -0.1058 -1.3015  0.1283
  824MPD2    C412175   0.698   2.375  15.774 -0.4487 -0.3220 -0.2989
  824MPD2    C512176   0.562   2.384  15.781  0.3381  0.3373 -0.2169
  824MPD2     H12177   0.769   2.685  15.883  2.0596 -0.9395 -0.4317
  824MPD2    H112178   0.734   2.280  15.737 -0.2424 -1.2552  2.3312
  824MPD2    H212179   0.395   2.488  15.861 -0.0629  3.0029  0.8873
  824MPD2    H312180   0.500   2.303  15.746 -1.9426  1.4555  1.2519
  824MPD2     N12181   0.917   2.481  15.816 -0.1636  0.2510 -0.1180
  824MPD2    H512182   0.961   2.568  15.845  0.3243 -0.6075  1.7080
  824MPD2    N112183   0.522   2.705  15.965 -0.3601  0.0541 -0.1464
  824MPD2    H712184   0.587   2.771  16.008 -1.0697  0.4131  0.3671
  825MPD2     C12185   1.591   2.630  15.389  0.5223  0.1976  0.2019
  825MPD2    C112186   1.508   2.682  15.482  0.7404 -0.0076 -0.3298
  825MPD2    C212187   1.510   2.818  15.504 -0.4463  0.6137  0.4976
  825MPD2    C312188   1.567   2.904  15.403  0.1306  0.0392 -0.0151
  825MPD2    C412189   1.641   2.849  15.302  0.3655 -0.1443  0.5952
  825MPD2    C512190   1.660   2.709  15.306 -0.0970  0.8669 -0.3817
  825MPD2     H12191   1.460   2.863  15.589  1.1217  0.8837  1.2748
  825MPD2    H112192   1.692   2.911  15.229 -0.4769  0.2237  0.3223
  825MPD2    H212193   1.597   2.522  15.377 -0.5181  0.0300  1.1570
  825MPD2    H312194   1.722   2.664  15.229 -0.4852  1.6892 -1.1666
  825MPD2     N12195   1.555   3.045  15.403 -0.1154  0.0768  0.4752
  825MPD2    H512196   1.582   3.092  15.317 -1.2839  0.0787  0.1143
  825MPD2    N112197   1.467   2.590  15.582  0.2320 -0.6101 -0.5186
  825MPD2    H712198   1.489   2.492  15.570  0.1939 -0.6979  0.1110
  826MPD2     C12199   0.996   2.917  13.789  0.2661 -0.0762 -0.2581
  826MPD2    C112200   1.122   2.960  13.759 -0.1455  1.1207 -0.1727
  826MPD2    C212201   1.131   3.090  13.703  0.1494 -0.6211  0.6715
  826MPD2    C312202   1.013   3.158  13.662 -0.5885 -0.2953  0.1312
  826MPD2    C412203   0.889   3.110  13.703 -0.1107 -0.2379  0.2101
  826MPD2    C512204   0.880   2.991  13.759  0.2377  0.2333 -0.1521
  826MPD2     H12205   1.230   3.131  13.686 -0.4592 -0.0282 -1.4580
  826MPD2    H112206   0.800   3.170  13.691 -0.1058 -0.3002 -0.1560
  826MPD2    H212207   0.966   2.817  13.816  0.2483  0.0983  0.3790
  826MPD2    H312208   0.777   2.967  13.782 -0.1470  2.2386  0.1748
  826MPD2     N12209   1.007   3.279  13.600 -0.1163 -0.1726  0.6157
  826MPD2    H512210   0.922   3.334  13.593  0.3007  0.5013  0.8179
  826MPD2    N112211   1.228   2.880  13.807  0.4937 -0.3700  0.0861
  826MPD2    H712212   1.195   2.790  13.841  0.8878  0.1880  1.8997
  827MPD2     C12213   2.076   4.344  10.045  0.4492 -0.0647  0.4066
  827MPD2    C112214   1.994   4.420  10.124 -0.0012  0.7193 -0.5682
  827MPD2    C212215   1.878   4.471  10.071 -0.1652  0.2315 -0.2568
  827MPD2    C312216   1.845   4.456   9.940  0.0264  0.4061 -0.2729
  827MPD2    C412217   1.927   4.390   9.855  0.2580 -0.7678 -0.6235
  827MPD2    C512218   2.039   4.333   9.912  0.2397  0.5735 -0.4208
  827MPD2     H12219   1.797   4.510  10.132  0.7027  2.2297 -0.3658
  827MPD2    H112220   1.920   4.363   9.750 -1.3862 -2.1275 -0.1646
  827MPD2    H212221   2.178   4.321  10.073  0.3085  0.1616  1.1033
  827MPD2    H312222   2.113   4.283   9.851 -1.0391 -1.8226  0.0060
  827MPD2     N12223   1.727   4.523   9.899  0.0898 -0.5992 -0.0121
  827MPD2    H512224   1.656   4.543   9.969  0.8460 -0.4031  0.7055
  827MPD2    N112225   2.042   4.433  10.253 -0.5326  0.5817 -0.0977
  827MPD2    H712226   2.134   4.397  10.279 -0.5468 -0.0571 -0.9706
  828MPD2     C12227   0.477   4.105  12.839  0.0598  0.1781 -0.2046
  828MPD2    C112228   0.400   4.159  12.736  0.6507  0.5612 -0.5045
  828MPD2    C212229   0.447   4.204  12.618 -0.0025 -0.6396 -0.0215
  828MPD2    C312230   0.585   4.191  12.591 -0.1008 -0.1111  0.4708
  828MPD2    C412231   0.663   4.135  12.689  0.1291 -1.0189  0.7626
  828MPD2    C512232   0.615   4.094  12.808  0.3204  0.2176 -0.4487
  828MPD2     H12233   0.384   4.255  12.546  2.2643  0.3135 -1.3492
  828MPD2    H112234   0.756   4.098  12.649  0.8859  0.5960  1.0320
  828MPD2    H212235   0.436   4.069  12.933 -0.1379  0.4554 -0.1853
  828MPD2    H312236   0.671   4.026  12.871 -0.5705  0.3267  0.4685
  828MPD2     N12237   0.648   4.213  12.472 -0.0723 -0.2710  0.0760
  828MPD2    H512238   0.749   4.201  12.474  0.0086  0.5375  0.7850
  828MPD2    N112239   0.258   4.176  12.751 -0.0296  0.3414  0.0208
  828MPD2    H712240   0.206   4.220  12.676 -3.6659 -1.9947  1.1266
  829MPD2     C12241   4.536   4.350  12.084 -0.4628 -0.1591 -0.1408
  829MPD2    C112242   4.436   4.354  12.170 -0.0588  0.1543 -0.0721
  829MPD2    C212243   4.460   4.314  12.307  0.0685 -0.2228  0.0537
  829MPD2    C312244   4.584   4.267  12.343  0.2794 -0.4325 -0.7995
  829MPD2    C412245   4.687   4.273  12.252 -0.0941 -0.2421 -0.3100
  829MPD2    C512246   4.665   4.312  12.122 -0.2197 -0.2554  0.0130
  829MPD2     H12247   4.377   4.312  12.376 -1.4434  0.6650 -1.7397
  829MPD2    H112248   0.045   4.255  12.293 -0.2153  0.6126  0.3741
  829MPD2    H212249   4.528   4.373  11.978 -1.1590 -0.3115 -0.1210
  829MPD2    H312250   0.003   4.324  12.049 -0.4278  0.6584 -0.0532
  829MPD2     N12251   4.620   4.226  12.474  0.1567  0.4977  0.2374
  829MPD2    H512252   4.715   4.216  12.505 -0.1348  0.0610  0.9820
  829MPD2    N112253   4.314   4.393  12.127  0.2172 -0.0613  0.3777
  829MPD2    H712254   4.301   4.409  12.028  0.3063  1.8273  0.6725
  830MPD2     C12255   0.795   1.807  15.959  0.1905  1.1696 -0.0911
  830MPD2    C112256   0.676   1.835  15.894 -0.0490  0.3006 -0.0195
  830MPD2    C212257   0.674   1.925  15.787 -0.7605 -0.7000  0.0337
  830MPD2    C312258   0.795   1.984  15.742 -0.3647  0.1084 -0.9364
  830MPD2    C412259   0.908   1.969  15.822 -0.5708  0.9126  0.1267
  830MPD2    C512260   0.903   1.882  15.926 -0.9342 -0.0599 -0.4891
  830MPD2     H12261   0.582   1.949  15.735  1.1707 -0.2895 -3.2061
  830MPD2    H112262   1.000   2.018  15.793  0.0601  0.1393  0.8522
  830MPD2    H212263   0.794   1.727  16.032 -0.3104  0.9243 -0.3621
  830MPD2    H312264   0.995   1.868  15.983 -0.2062  0.7387 -1.4612
  830MPD2     N12265   0.805   2.074  15.629  0.0172  0.3847 -0.5383
  830MPD2    H512266   0.885   2.135  15.615 -1.3249  2.3028  0.1234
  830MPD2    N112267   0.561   1.773  15.948  0.0246 -0.2213  0.0490
  830MPD2    H712268   0.582   1.696  16.011 -2.1927  0.6926  1.9404
  831MPD2     C12269   0.331   3.723  16.539  0.0333 -0.7004 -0.1042
  831MPD2    C112270   0.369   3.617  16.459  0.0827  0.2601  0.1571
  831MPD2    C212271   0.312   3.490  16.485 -0.2915 -0.4380  0.4901
  831MPD2    C312272   0.216   3.467  16.584 -0.3857 -0.0001 -0.0719
  831MPD2    C412273   0.185   3.573  16.662 -0.4473 -0.1369  0.7201
  831MPD2    C512274   0.250   3.697  16.643  0.3185  0.6987 -0.1095
  831MPD2     H12275   0.339   3.414  16.412 -0.5172  1.2624 -1.3696
  831MPD2    H112276   0.115   3.554  16.742 -2.2878  0.7277 -0.6974
  831MPD2    H212277   0.365   3.826  16.531 -0.9924 -0.3793 -0.2686
  831MPD2    H312278   0.227   3.784  16.704 -2.1056  1.3131 -1.8890
  831MPD2     N12279   0.135   3.348  16.588 -0.5828  0.7322 -0.8523
  831MPD2    H512280   0.052   3.353  16.647  0.1049 -0.1036  0.1847
  831MPD2    N112281   0.466   3.637  16.360 -0.3187  0.0501  0.1164
  831MPD2    H712282   0.481   3.735  16.341  2.6148 -0.3198  0.5176
  832MPD2     C12283   3.618   0.722  17.494  0.1327 -0.9939  0.1888
  832MPD2    C112284   3.592   0.584  17.497 -0.2474 -0.1653 -0.6294
  832MPD2    C212285   3.481   0.536  17.431 -0.3173 -0.4383  0.7292
  832MPD2    C312286   3.394   0.620  17.355 -0.6563 -0.1097 -0.7322
  832MPD2    C412287   3.426   0.756  17.353 -0.2105 -0.5200  0.3355
  832MPD2    C512288   3.528   0.803  17.432 -0.8160  0.4309  0.7195
  832MPD2     H12289   3.459   0.430  17.422 -0.6755 -0.2999  0.0030
  832MPD2    H112290   3.365   0.833  17.307  0.2129 -1.2811 -1.4615
  832MPD2    H212291   3.703   0.760  17.550 -0.0740 -1.1722  0.6260
  832MPD2    H312292   3.540   0.911  17.426  0.5308  0.2688  0.6552
  832MPD2     N12293   3.279   0.566  17.280  0.4304 -0.5502  0.4780
  832MPD2    H512294   3.255   0.471  17.308 -3.7146  0.5150  0.4961
  832MPD2    N112295   3.685   0.506  17.567 -0.3277  0.0519 -0.0955
  832MPD2    H712296   3.768   0.550  17.606  0.5288 -2.3737  0.7794
  833MPD2     C12297   1.363   1.365  12.443 -0.4812 -0.0746 -0.4408
  833MPD2    C112298   1.359   1.500  12.462 -1.0704  0.3120  0.2846
  833MPD2    C212299   1.427   1.579  12.371  0.0140  0.1747 -1.4077
  833MPD2    C312300   1.509   1.515  12.277 -0.4177 -0.6337  0.1152
  833MPD2    C412301   1.521   1.380  12.270  0.5839  0.8472  0.8041
  833MPD2    C512302   1.438   1.303  12.349 -0.0968  0.0732  0.0240
  833MPD2     H12303   1.394   1.679  12.346  2.2405  0.4143 -3.3097
  833MPD2    H112304   1.572   1.326  12.191 -0.4502  2.6699 -1.1259
  833MPD2    H212305   1.303   1.297  12.503 -0.4686  0.2769 -0.0308
  833MPD2    H312306   1.440   1.195  12.336 -0.1088  0.3229 -2.1232
  833MPD2     N12307   1.572   1.588  12.172  0.8946  0.1961 -0.6492
  833MPD2    H512308   1.603   1.538  12.089 -1.1558 -0.3872 -1.0869
  833MPD2    N112309   1.266   1.562  12.551 -0.0307  0.2996 -0.6301
  833MPD2    H712310   1.195   1.507  12.598 -0.6398  0.4471 -1.3710
  834MPD2     C12311   1.430   1.492  11.263 -0.2395  0.2150  0.1783
  834MPD2    C112312   1.357   1.609  11.287 -0.2617 -0.0691 -0.2191
  834MPD2    C212313   1.393   1.680  11.403 -0.2549 -1.0141 -0.1143
  834MPD2    C312314   1.505   1.642  11.485  0.0499 -0.5308  0.5128
  834MPD2    C412315   1.584   1.538  11.449  0.6851 -0.5889 -0.1088
  834MPD2    C512316   1.539   1.460  11.339  0.4496  1.3347  0.2492
  834MPD2     H12317   1.355   1.779  11.424  0.1549 -0.7541 -0.6028
  834MPD2    H112318   1.666   1.500  11.509  1.3731  1.2615  0.1233
  834MPD2    H212319   1.401   1.424  11.184  0.8656 -1.0503  0.8688
  834MPD2    H312320   1.600   1.372  11.324 -0.4328  0.6409  0.7599
  834MPD2     N12321   1.523   1.719  11.603 -0.8424  0.0313  0.1057
  834MPD2    H512322   1.438   1.767  11.628  0.0433  1.3349  0.6323
  834MPD2    N112323   1.269   1.648  11.189 -0.0097 -0.4402 -0.6860
  834MPD2    H712324   1.264   1.593  11.104  0.0137 -1.6901  0.1227
  835MPD2     C12325   1.368   4.666  11.314  0.6573  0.2564  0.1478
  835MPD2    C112326   1.264   4.712  11.395  0.2961 -0.1436 -0.2547
  835MPD2    C212327   1.271   4.698  11.534  0.0661  0.0678  0.1709
  835MPD2    C312328   1.362   4.616  11.592  0.0020  0.1464 -0.4388
  835MPD2    C412329   1.462   4.566  11.515  0.1679  0.5196  0.5529
  835MPD2    C512330   1.462   4.594  11.379  0.4858 -0.3213  0.2553
  835MPD2     H12331   1.186   4.739  11.587 -0.8366 -1.0154 -0.4332
  835MPD2    H112332   1.547   4.511  11.551 -1.7981 -0.2405  4.0626
  835MPD2    H212333   1.371   4.693  11.209  0.5922  0.4349  0.1926
  835MPD2    H312334   1.554   4.561  11.333  1.1866 -0.1473  1.5244
  835MPD2     N12335   1.351   4.576  11.731  0.2269 -0.4113  0.2534
  835MPD2    H512336   1.427   4.519  11.766  0.9301 -0.0230 -0.6506
  835MPD2    N112337   1.158   0.051  11.351 -0.6870 -0.0642 -0.1429
  835MPD2    H712338   1.099   0.104  11.414  1.6331  1.6532  0.5545
  836MPD2     C12339   0.707   4.631  12.163 -0.3163 -0.0946 -0.0136
  836MPD2    C112340   0.797   4.574  12.245 -0.0831  0.0185 -0.2395
  836MPD2    C212341   0.774   4.558  12.383  0.2007  0.2279  0.0730
  836MPD2    C312342   0.655   4.606  12.436 -0.0347 -0.0195 -0.1994
  836MPD2    C412343   0.556   4.659  12.347 -0.2054  0.3023 -0.4745
  836MPD2    C512344   0.588   4.684  12.215 -0.3147 -0.3271 -0.3379
  836MPD2     H12345   0.846   4.505  12.445 -0.3726 -0.0695  0.4728
  836MPD2    H112346   0.462   4.700  12.382 -0.9413 -0.1208 -1.9597
  836MPD2    H212347   0.730   4.640  12.057  2.7350 -1.4637  0.5459
  836MPD2    H312348   0.522   4.730  12.142 -2.1838 -1.4884  0.6497
  836MPD2     N12349   0.615   4.598  12.571 -0.4811  0.0736 -0.3271
  836MPD2    H512350   0.530   4.650  12.591  1.0080  1.3540  2.6619
  836MPD2    N112351   0.911   4.522  12.175 -0.1161 -0.2526 -0.3084
  836MPD2    H712352   0.918   4.538  12.075  0.5261  1.8216  0.0749
  837MPD2     C12353   4.260   4.308  10.308  0.0751 -0.0194 -0.1799
  837MPD2    C112354   4.188   4.354  10.201  0.9012  0.2160  0.5336
  837MPD2    C212355   4.166   4.496  10.181  0.2321 -0.4758 -0.0668
  837MPD2    C312356   4.217   4.586  10.268 -0.3560 -0.3710 -0.4346
  837MPD2    C412357   4.301   4.543  10.369 -0.8982 -0.0633  0.3682
  837MPD2    C512358   4.320   4.404  10.388 -0.0767 -0.8547  0.5543
  837MPD2     H12359   4.119   4.528  10.089  1.2645 -0.0030 -0.4365
  837MPD2    H112360   4.364   4.607  10.430 -1.8350  1.2396 -0.0457
  837MPD2    H212361   4.269   4.203  10.333 -0.1641 -0.2432 -1.0388
  837MPD2    H312362   4.399   4.371  10.454  2.5497 -1.0083 -2.6491
  837MPD2     N12363   4.165   4.715  10.257 -0.5866  0.3853 -0.0939
  837MPD2    H512364   4.109   4.741  10.177  0.4651  0.7237 -0.7280
  837MPD2    N112365   4.128   4.268  10.109  0.3277 -0.4633 -0.0371
  837MPD2    H712366   4.086   4.316  10.029  1.4536  0.2914 -0.1835
  838MPD2     C12367   2.087   2.779  11.778  0.0351  0.8036  0.3035
  838MPD2    C112368   2.152   2.656  11.772  0.9357  0.3075 -0.3590
  838MPD2    C212369   2.085   2.544  11.798 -0.1924 -0.1849  0.1344
  838MPD2    C312370   1.950   2.550  11.824  0.2368  0.4445  0.3707
  838MPD2    C412371   1.889   2.669  11.832  0.0947  0.4156  0.0546
  838MPD2    C512372   1.964   2.778  11.827 -0.1836  0.7620 -0.0707
  838MPD2     H12373   2.138   2.450  11.789  1.5383  1.1255 -3.2971
  838MPD2    H112374   1.781   2.674  11.838  0.1809  1.0936  1.0604
  838MPD2    H212375   2.147   2.869  11.764  0.2334  0.1536 -2.9324
  838MPD2    H312376   1.920   2.876  11.846 -0.0053  0.7721  0.2934
  838MPD2     N12377   1.871   2.434  11.837 -0.4467 -0.4277 -0.1967
  838MPD2    H512378   1.771   2.450  11.852  0.2967  1.3728  2.7877
  838MPD2    N112379   2.286   2.638  11.728  0.1200 -0.7507 -0.6734
  838MPD2    H712380   2.328   2.547  11.746 -1.5520 -1.1153  1.2154
  839MPD2     C12381   2.239   2.041  11.915 -0.1018  0.1018  0.9463
  839MPD2    C112382   2.276   2.056  11.785  0.0621 -0.3076  0.9868
  839MPD2    C212383   2.378   2.144  11.746  0.5207  0.5398 -0.3447
  839MPD2    C312384   2.429   2.239  11.837 -0.7512  0.4846  0.6028
  839MPD2    C412385   2.382   2.232  11.962 -0.4104 -0.2662  0.3726
  839MPD2    C512386   2.295   2.129  12.004 -0.6542 -0.4147  0.3373
  839MPD2     H12387   2.425   2.136  11.649 -1.1032 -1.1651 -0.9872
  839MPD2    H112388   2.417   2.293  12.045 -1.3168 -0.5874  1.0008
  839MPD2    H212389   2.167   1.968  11.952 -1.1987 -0.2158 -1.8114
  839MPD2    H312390   2.249   2.126  12.102 -0.7364 -0.6698  0.2919
  839MPD2     N12391   2.520   2.338  11.794  0.2967  0.0490  0.0556
  839MPD2    H512392   2.561   2.393  11.869  1.3581 -2.8604  1.6187
  839MPD2    N112393   2.217   1.973  11.687  0.3609 -0.4884  0.3281
  839MPD2    H712394   2.254   1.979  11.592  0.0400  0.3788  0.2677
  840MPD2     C12395   2.520   0.060  10.212 -0.6681 -0.1335 -0.5624
  840MPD2    C112396   2.506   0.050  10.350 -0.0325 -0.2206  0.3655
  840MPD2    C212397   2.612   0.097  10.421  0.2221 -0.7696 -0.4387
  840MPD2    C312398   2.722   0.149  10.358 -0.5546 -0.6144  0.8161
  840MPD2    C412399   2.730   0.169  10.224 -0.6452 -0.1761  0.5429
  840MPD2    C512400   2.627   0.121  10.147 -0.2086  0.8964 -0.2762
  840MPD2     H12401   2.606   0.085  10.529 -0.1722  0.6317 -0.3125
  840MPD2    H112402   2.819   0.214  10.182  0.6070 -2.8532  0.3816
  840MPD2    H212403   2.437   0.031  10.149 -0.6091  0.3243 -0.8508
  840MPD2    H312404   2.638   0.127  10.039 -1.6110  2.4493 -0.3276
  840MPD2     N12405   2.832   0.208  10.431  0.0149  0.4605 -0.8001
  840MPD2    H512406   2.900   0.265  10.382 -0.5239  0.8346 -1.1140
  840MPD2    N112407   2.385   0.003  10.401  1.0029  0.3460  0.4095
  840MPD2    H712408   2.304   4.733  10.341  1.3032 -1.1628  0.2560
  841MPD2     C12409   1.829   4.731  14.355  0.5881 -0.8415  0.1602
  841MPD2    C112410   1.904   4.618  14.333  0.3558  0.2174  0.7736
  841MPD2    C212411   2.036   4.618  14.379  0.0622  0.0863 -0.7560
  841MPD2    C312412   2.102   4.728  14.427 -0.1102 -0.0336  0.1030
  841MPD2    C412413   2.023   0.099  14.456 -0.3659  0.1049  0.1059
  841MPD2    C512414   1.895   0.097  14.417 -0.1587  0.1737  0.1411
  841MPD2     H12415   2.090   4.529  14.346 -1.1560 -1.0137  0.2252
  841MPD2    H112416   2.065   0.185  14.506 -2.5130  1.4375 -0.3538
  841MPD2    H212417   1.726   4.738  14.324  0.3435 -3.3240  0.3908
  841MPD2    H312418   1.834   0.180  14.448 -4.7383 -3.1330  0.0157
  841MPD2     N12419   2.238   4.722  14.445 -0.8640 -0.1310 -0.1370
  841MPD2    H512420   2.289   4.637  14.422 -1.5665 -0.6943  0.3707
  841MPD2    N112421   1.847   4.503  14.287 -0.5687 -0.4505  0.5200
  841MPD2    H712422   1.912   4.433  14.255  1.6183  2.0538 -0.5502
  842MPD2     C12423   2.938   0.971  17.012 -0.1307  0.3155  0.0373
  842MPD2    C112424   2.829   0.888  16.994 -0.0621 -0.0486  0.0904
  842MPD2    C212425   2.797   0.805  17.093  0.6516 -0.3891  0.1029
  842MPD2    C312426   2.869   0.800  17.209  0.2966  0.3296  0.6351
  842MPD2    C412427   2.978   0.884  17.226  0.0311  0.0209 -0.5419
  842MPD2    C512428   3.017   0.973  17.126  0.4287 -0.5705  0.7121
  842MPD2     H12429   2.717   0.731  17.088 -1.5262  1.7926  3.4711
  842MPD2    H112430   3.029   0.888  17.322 -1.2642  0.3113  0.1357
  842MPD2    H212431   2.958   1.025  16.920  1.8952 -3.1665 -1.5999
  842MPD2    H312432   3.101   1.041  17.132  0.6594 -0.5463 -2.6582
  842MPD2     N12433   2.841   0.715  17.316  0.4761  0.6476  0.0610
  842MPD2    H512434   2.920   0.699  17.377  1.0251 -0.2401 -0.8624
  842MPD2    N112435   2.757   0.901  16.872  0.4574 -0.1199 -0.0927
  842MPD2    H712436   2.789   0.973  16.808 -1.7599  0.3764 -0.6481
  843MPD2     C12437   0.379   1.225  17.759  0.0994  1.0855  0.2632
  843MPD2    C112438   0.339   1.212   0.129  0.1953  0.5805  0.5156
  843MPD2    C212439   0.387   1.303   0.219 -0.1805 -0.4241  0.6457
  843MPD2    C312440   0.468   1.412   0.179 -0.2871  0.3440  0.1043
  843MPD2    C412441   0.504   1.419   0.045 -0.5280  0.2401 -0.6471
  843MPD2    C512442   0.470   1.321  17.720 -0.4902  0.0378  0.4659
  843MPD2     H12443   0.361   1.298   0.324  0.6609 -0.2432  0.8676
  843MPD2    H112444   0.571   1.494   0.004  0.6489 -0.8734 -0.7661
  843MPD2    H212445   0.336   1.156  17.687  0.3295  1.6110 -0.3878
  843MPD2    H312446   0.511   1.331  17.620  3.1301 -0.7330  1.8788
  843MPD2     N12447   0.522   1.499   0.272 -0.5713  0.2903 -0.2234
  843MPD2    H512448   0.581   1.576   0.244  0.7815 -0.2420  1.1599
  843MPD2    N112449   0.261   1.101   0.164  0.5606 -0.4385 -0.1781
  843MPD2    H712450   0.220   1.045   0.090 -0.8826 -2.3034  2.0433
  844MPD2     C12451   3.152   0.185  16.681  0.0162  0.2991  0.0847
  844MPD2    C112452   3.256   0.098  16.715  0.1931 -0.4685  0.0406
  844MPD2    C212453   3.353   0.158  16.791 -0.0900  0.4212 -0.1598
  844MPD2    C312454   3.344   0.288  16.835 -0.4237 -0.1707  0.4987
  844MPD2    C412455   3.240   0.372  16.792  0.4992  0.5162 -0.3914
  844MPD2    C512456   3.148   0.317  16.714 -0.1364 -0.2173  0.3698
  844MPD2     H12457   3.435   0.090  16.812  0.2566  0.7090 -0.5756
  844MPD2    H112458   3.222   0.473  16.825 -1.0727 -0.2359  1.0932
  844MPD2    H212459   3.070   0.150  16.620  0.5442 -0.1737 -0.3531
  844MPD2    H312460   3.069   0.375  16.667 -0.9903 -2.1314 -0.5781
  844MPD2     N12461   3.446   0.330  16.916  0.2641  0.4831 -0.0531
  844MPD2    H512462   3.503   0.257  16.957  0.1991  0.6961  0.4147
  844MPD2    N112463   3.276   4.710  16.672  0.3066  0.8665 -0.1940
  844MPD2    H712464   3.354   4.664  16.715  1.4084  1.0988 -1.9183
  845MPD2     C12465   3.690   1.261  17.240  0.2811  0.1150 -0.4345
  845MPD2    C112466   3.573   1.195  17.218 -0.2335 -0.1512 -0.0767
  845MPD2    C212467   3.574   1.060  17.186 -0.2624  0.1932 -1.0145
  845MPD2    C312468   3.688   0.987  17.186 -0.0381  0.3929  0.4179
  845MPD2    C412469   3.806   1.048  17.212 -0.5085  0.3932 -0.4132
  845MPD2    C512470   3.809   1.183  17.243  0.5383  0.6530 -0.8908
  845MPD2     H12471   3.483   1.011  17.155  0.8274 -1.0672 -2.2267
  845MPD2    H112472   3.892   0.982  17.206 -1.3359 -0.8244  1.1722
  845MPD2    H212473   3.698   1.368  17.257  2.3029 -0.0952 -0.0404
  845MPD2    H312474   3.903   1.236  17.254  0.2385  0.8038  0.9127
  845MPD2     N12475   3.674   0.849  17.161  0.6302  0.0042 -0.9386
  845MPD2    H512476   3.589   0.816  17.117  0.3802 -1.1023  0.3971
  845MPD2    N112477   3.454   1.270  17.234 -0.5970 -0.0397  1.0212
  845MPD2    H712478   3.466   1.370  17.243  1.7586 -0.1264 -1.3699
  846MPD2     C12479   0.557   1.118  14.052  0.2318  0.1935  0.1650
  846MPD2    C112480   0.436   1.173  14.038 -0.3893 -0.0431 -0.3167
  846MPD2    C212481   0.359   1.176  14.153  0.1498 -0.0661 -0.3642
  846MPD2    C312482   0.400   1.109  14.264 -0.8226 -0.7118 -0.2255
  846MPD2    C412483   0.520   1.037  14.269 -0.8305  0.2389 -0.3313
  846MPD2    C512484   0.600   1.050  14.160 -0.2229 -0.2474  0.6245
  846MPD2     H12485   0.282   1.252  14.158 -0.4704 -0.5939 -1.8944
  846MPD2    H112486   0.544   0.981  14.358 -2.1068 -0.3919 -0.3776
  846MPD2    H212487   0.633   1.124  13.975  1.4220  0.0121  1.3329
  846MPD2    H312488   0.698   1.003  14.158  0.4297  1.1942 -0.8688
  846MPD2     N12489   0.326   1.128  14.382  0.2428  0.3144 -0.1657
  846MPD2    H512490   0.236   1.174  14.380  0.4548  0.6831 -1.3688
  846MPD2    N112491   0.397   1.237  13.920 -0.1241  0.1070 -0.4296
  846MPD2    H712492   0.304   1.275  13.910  0.3162  1.3879  0.3923
  847MPD2     C12493   0.172   2.101  14.617  0.5760  0.2465  0.5566
  847MPD2    C112494   0.271   2.198  14.631  0.1209 -0.7214 -1.1248
  847MPD2    C212495   0.405   2.157  14.624 -0.5229  0.2355  0.5144
  847MPD2    C312496   0.442   2.027  14.604 -0.0234 -0.0919 -0.1653
  847MPD2    C412497   0.346   1.934  14.582  0.4676 -0.0448 -0.7485
  847MPD2    C512498   0.214   1.971  14.583  0.6308 -0.0613  0.4432
  847MPD2     H12499   0.487   2.224  14.646 -1.0825  1.2109 -0.3511
  847MPD2    H112500   0.372   1.829  14.576 -0.6940 -0.4299  0.8640
  847MPD2    H212501   0.065   2.115  14.616  0.6127  0.2909 -2.1992
  847MPD2    H312502   0.138   1.895  14.570  1.6927 -1.2663  1.3829
  847MPD2     N12503   0.578   1.993  14.630 -0.2851 -0.1515  0.9943
  847MPD2    H512504   0.646   2.068  14.631  0.1047 -0.4667 -2.1153
  847MPD2    N112505   0.254   2.338  14.659  0.1017 -0.5236  0.0942
  847MPD2    H712506   0.341   2.390  14.658  0.4594 -1.1196  0.2293
  848MPD2     C12507   2.845   0.643  16.563 -0.2831  0.1986 -0.4415
  848MPD2    C112508   2.974   0.655  16.613  0.2315 -0.0045  0.2935
  848MPD2    C212509   3.072   0.711  16.537 -0.2309  0.4455 -0.0343
  848MPD2    C312510   3.047   0.752  16.405  0.3497 -0.4447  0.3819
  848MPD2    C412511   2.915   0.748  16.364  0.5181 -0.0569  0.7811
  848MPD2    C512512   2.817   0.698  16.438  0.6776  0.1705 -0.3570
  848MPD2     H12513   3.172   0.724  16.578  1.7119 -2.0979 -3.9900
  848MPD2    H112514   2.893   0.792  16.267  0.9800 -2.6385 -0.4907
  848MPD2    H212515   2.761   0.613  16.626 -0.2064  2.8133  0.9037
  848MPD2    H312516   2.713   0.704  16.407  0.6847  1.1585 -0.2111
  848MPD2     N12517   3.135   0.827  16.327 -0.2030  0.9330  0.8675
  848MPD2    H512518   3.094   0.862  16.241 -0.7404  0.1849  0.8196
  848MPD2    N112519   2.993   0.621  16.750  1.0688  0.0498 -0.9412
  848MPD2    H712520   3.090   0.638  16.776  0.2568  1.0111  1.4756
  849MPD2     C12521   2.241   0.348  14.138 -0.0685  0.0829  0.2999
  849MPD2    C112522   2.346   0.328  14.056  0.1994  0.1111 -0.0538
  849MPD2    C212523   2.478   0.342  14.101  0.2929  0.8373  0.2777
  849MPD2    C312524   2.496   0.386  14.232  0.0621 -0.5325 -1.1884
  849MPD2    C412525   2.388   0.417  14.313  0.4989  0.2648 -0.1851
  849MPD2    C512526   2.263   0.391  14.263 -0.5568  0.1721 -0.1492
  849MPD2     H12527   2.561   0.329  14.033 -0.4096  0.3899 -0.5067
  849MPD2    H112528   2.391   0.481  14.401 -1.5430  0.4040 -0.2302
  849MPD2    H212529   2.142   0.329  14.098  1.7126 -1.3193 -3.4440
  849MPD2    H312530   2.177   0.417  14.324 -0.5106  3.1342 -1.3763
  849MPD2     N12531   2.628   0.415  14.284  0.6213  0.6465  0.0856
  849MPD2    H512532   2.641   0.430  14.383  1.3501 -0.2862  0.1261
  849MPD2    N112533   2.337   0.316  13.917  0.0233 -0.1918  0.7937
  849MPD2    H712534   2.419   0.309  13.857 -0.1505 -0.7506  0.6246
  850MPD2     C12535   0.325   3.096  14.705  0.1533 -0.4279  0.6514
  850MPD2    C112536   0.296   3.164  14.819  1.1550  0.4091 -0.4957
  850MPD2    C212537   0.405   3.232  14.876  0.3774 -0.3848  0.5184
  850MPD2    C312538   0.531   3.237  14.813 -0.6334  0.0307 -0.0760
  850MPD2    C412539   0.546   3.181  14.690 -0.3770  0.3414  0.2456
  850MPD2    C512540   0.443   3.108  14.636  1.2761 -0.2827 -0.1430
  850MPD2     H12541   0.375   3.300  14.955  2.6145  0.2465  0.8242
  850MPD2    H112542   0.642   3.183  14.641  0.0457 -1.6745  0.9959
  850MPD2    H212543   0.248   3.039  14.655 -1.1051 -1.1886  3.4914
  850MPD2    H312544   0.453   3.047  14.546 -1.6711 -0.2826 -0.4722
  850MPD2     N12545   0.642   3.289  14.871  0.2663  0.3705 -0.4373
  850MPD2    H512546   0.729   3.292  14.820 -0.3196 -0.5461 -1.4730
  850MPD2    N112547   0.167   3.156  14.873 -0.3173 -0.1738  0.0613
  850MPD2    H712548   0.093   3.115  14.817 -0.3407  0.8670 -0.6757
  851MPD2     C12549   0.785   3.030  15.495  0.0816 -0.4231  0.7853
  851MPD2    C112550   0.672   2.973  15.437 -0.1347  0.3971 -0.3037
  851MPD2    C212551   0.680   2.837  15.413 -0.1038  1.0207  0.8139
  851MPD2    C312552   0.781   2.758  15.457 -0.5531  0.5162 -0.3703
  851MPD2    C412553   0.898   2.818  15.506  0.0730 -0.2569 -0.0219
  851MPD2    C512554   0.898   2.948  15.527  0.5239 -0.2352  1.2506
  851MPD2     H12555   0.599   2.789  15.358  2.6749 -3.3414  0.5747
  851MPD2    H112556   0.982   2.756  15.535 -0.5892 -1.3038 -0.3189
  851MPD2    H212557   0.790   3.136  15.519 -1.1211  0.2541 -1.9146
  851MPD2    H312558   0.983   3.002  15.567  3.1502 -3.5032  0.1206
  851MPD2     N12559   0.766   2.622  15.429  0.3707 -0.3802 -0.5385
  851MPD2    H512560   0.677   2.585  15.398  0.4772 -0.4489 -0.7657
  851MPD2    N112561   0.572   3.056  15.384 -0.3986 -0.3307  0.3155
  851MPD2    H712562   0.577   3.153  15.416 -1.1214 -0.1329 -0.1695
  852MPD2     C12563   0.137   1.191  10.498 -0.3994  0.0998 -0.4816
  852MPD2    C112564   0.206   1.250  10.602  0.7011  0.2722  0.2162
  852MPD2    C212565   0.254   1.373  10.604  0.0127  0.6961  1.1045
  852MPD2    C312566   0.242   1.449  10.490  0.8388 -0.2714 -0.4445
  852MPD2    C412567   0.168   1.397  10.387 -0.2725 -0.2898 -0.0810
  852MPD2    C512568   0.117   1.270  10.388  0.4545  0.8672  0.5893
  852MPD2     H12569   0.303   1.405  10.696  1.7349  1.1073  0.0356
  852MPD2    H112570   0.141   1.464  10.306  0.1402 -0.5409 -0.4248
  852MPD2    H212571   0.095   1.092  10.508 -0.1408  0.1230  0.8903
  852MPD2    H312572   0.074   1.229  10.297 -0.5687 -0.2896  1.6078
  852MPD2     N12573   0.313   1.571  10.482  0.6297  0.2073 -0.5561
  852MPD2    H512574   0.369   1.596  10.562 -2.4567 -1.0654  1.9852
  852MPD2    N112575   0.220   1.172  10.719  0.2555 -0.5468 -0.1164
  852MPD2    H712576   0.234   1.227  10.803 -0.4277 -0.5031 -0.0284
  853MPD2     C12577   1.740   0.638  12.280 -0.2739 -0.3183  0.3431
  853MPD2    C112578   1.730   0.777  12.265 -0.1418  0.0910  0.3044
  853MPD2    C212579   1.741   0.836  12.139  0.2345  0.0662 -1.1051
  853MPD2    C312580   1.786   0.763  12.032 -0.4988  0.2556 -0.0279
  853MPD2    C412581   1.808   0.627  12.051 -0.1565  0.1711 -0.0937
  853MPD2    C512582   1.776   0.564  12.171  0.3167 -0.0740  0.0745
  853MPD2     H12583   1.718   0.941  12.126 -2.1491 -0.5513 -1.8093
  853MPD2    H112584   1.838   0.572  11.962 -2.1855  2.5488 -2.2585
  853MPD2    H212585   1.720   0.594  12.377 -3.2960 -1.8504 -0.9500
  853MPD2    H312586   1.800   0.459  12.170 -1.1389 -0.4105  1.1323
  853MPD2     N12587   1.817   0.815  11.901  0.1388  0.6792 -0.2340
  853MPD2    H512588   1.868   0.753  11.839 -1.3073 -0.8714  0.1273
  853MPD2    N112589   1.712   0.849  12.384  0.2121 -0.1965  0.2795
  853MPD2    H712590   1.706   0.792  12.467  1.5096 -0.4296  0.2115
  854MPD2     C12591   3.705   0.980  13.430 -0.3593 -1.1045 -0.0709
  854MPD2    C112592   3.716   0.966  13.290 -0.4210  0.2758  0.6176
  854MPD2    C212593   3.803   0.867  13.241 -0.0244  0.3950  0.2690
  854MPD2    C312594   3.869   0.783  13.328  0.4858 -0.7373  0.6359
  854MPD2    C412595   3.854   0.803  13.458 -0.6660  0.1091  1.0511
  854MPD2    C512596   3.786   0.906  13.513  0.3667 -0.2981 -0.0224
  854MPD2     H12597   3.811   0.845  13.135 -0.3503  0.6288  0.1959
  854MPD2    H112598   3.900   0.731  13.525 -0.6244  0.0701  0.9816
  854MPD2    H212599   3.645   1.053  13.482  2.1781  0.0505  1.2677
  854MPD2    H312600   3.787   0.929  13.619 -1.2529 -2.2365  0.4120
  854MPD2     N12601   3.942   0.674  13.282 -0.4847 -0.2462  0.7966
  854MPD2    H512602   3.986   0.622  13.358 -2.5111 -0.0449  2.1254
  854MPD2    N112603   3.628   1.031  13.201  0.0696 -0.0659 -0.1059
  854MPD2    H712604   3.563   1.092  13.250  1.2717  0.6531  0.5964
  855MPD2     C12605   4.543   0.268  13.693  0.3568  0.1605 -0.1868
  855MPD2    C112606   4.406   0.257  13.728 -0.8914  0.3119  0.2165
  855MPD2    C212607   4.314   0.245  13.622  0.3231  0.2054 -0.0800
  855MPD2    C312608   4.353   0.266  13.486  0.2126  0.4450  0.4721
  855MPD2    C412609   4.483   0.284  13.467  0.1292  0.4981  0.5673
  855MPD2    C512610   4.577   0.276  13.563  0.0614 -0.1137  0.4405
  855MPD2     H12611   4.208   0.235  13.642  0.7720 -2.0761  1.1827
  855MPD2    H112612   4.521   0.323  13.373 -0.0511  1.2493  0.8088
  855MPD2    H212613   4.633   0.269  13.754  0.8570  1.6973 -0.9387
  855MPD2    H312614   4.679   0.291  13.530 -1.4379  3.6477 -2.5116
  855MPD2     N12615   4.264   0.281  13.377 -0.2735 -1.0299 -0.2026
  855MPD2    H512616   4.294   0.324  13.289 -2.8075 -1.9959 -1.5268
  855MPD2    N112617   4.356   0.254  13.857 -0.0144 -0.0912  0.8286
  855MPD2    H712618   4.257   0.229  13.859  0.5898 -2.5308  0.6781
  856MPD2     C12619   0.889   1.763  14.090 -0.0957  0.3670  0.3687
  856MPD2    C112620   0.951   1.877  14.058 -0.1024 -0.3286 -0.2297
  856MPD2    C212621   0.874   1.981  14.016  0.1594  0.4560  0.0763
  856MPD2    C312622   0.734   1.966  14.005 -0.6718  0.3998  0.3281
  856MPD2    C412623   0.677   1.842  14.027 -0.1552  0.1649  0.4989
  856MPD2    C512624   0.756   1.743  14.073  0.9651  0.4747 -0.1704
  856MPD2     H12625   0.915   2.078  13.988 -0.6924  0.6509 -0.5199
  856MPD2    H112626   0.569   1.828  14.022 -0.2128  0.9696 -0.5840
  856MPD2    H212627   0.941   1.681  14.139  0.5538  0.6839  0.2009
  856MPD2    H312628   0.714   1.646  14.096 -0.0102  1.0448  0.4578
  856MPD2     N12629   0.651   2.066  13.969  0.1032 -1.0532  0.6434
  856MPD2    H512630   0.553   2.041  13.959 -0.4906 -0.1105  3.9915
  856MPD2    N112631   1.089   1.893  14.069  0.2364  0.1179  0.3913
  856MPD2    H712632   1.123   1.987  14.053  1.4001 -0.9212 -3.3033
  857MPD2     C12633   2.548   3.851  12.794  0.2629  0.2326 -0.3206
  857MPD2    C112634   2.675   3.878  12.745 -0.9955 -0.0245  0.0772
  857MPD2    C212635   2.749   3.985  12.787 -0.0677 -0.3914  0.0138
  857MPD2    C312636   2.691   4.068  12.880  0.5698 -0.5361  0.5599
  857MPD2    C412637   2.569   4.046  12.935 -0.4752 -0.4390 -0.6779
  857MPD2    C512638   2.493   3.946  12.884 -0.2360 -0.7370  0.6553
  857MPD2     H12639   2.842   4.009  12.738  0.8712  0.5739  2.2477
  857MPD2    H112640   2.522   4.117  13.003 -0.1579 -0.3009 -0.6017
  857MPD2    H212641   2.487   3.770  12.754  0.4976 -0.6530  1.1525
  857MPD2    H312642   2.388   3.936  12.911  0.1355 -2.3755  1.4446
  857MPD2     N12643   2.769   4.182  12.922  0.5053 -0.0443 -0.4253
  857MPD2    H512644   2.861   4.192  12.880 -0.2077  3.1204 -1.2658
  857MPD2    N112645   2.725   3.788  12.645  0.0413 -0.9504  0.2527
  857MPD2    H712646   2.678   3.698  12.642 -1.0296 -0.4130  1.2308
  858MPD2     C12647   3.246   2.288  16.926 -0.1354 -0.0309 -0.0488
  858MPD2    C112648   3.374   2.350  16.919 -0.9872  0.6697  0.1147
  858MPD2    C212649   3.387   2.481  16.962 -0.0136 -0.1972  1.1099
  858MPD2    C312650   3.279   2.551  17.019  0.4033 -0.4414  0.0225
  858MPD2    C412651   3.160   2.482  17.030 -0.2172 -0.3541 -0.5847
  858MPD2    C512652   3.143   2.362  16.978  0.5319  0.6611  0.3987
  858MPD2     H12653   3.483   2.531  16.959  0.2206 -0.6720  0.7152
  858MPD2    H112654   3.075   2.534  17.073 -0.8368 -2.2160  0.4139
  858MPD2    H212655   3.229   2.188  16.888  2.1705  0.0968 -1.3838
  858MPD2    H312656   3.042   2.323  16.976  1.6558 -2.2580  1.5552
  858MPD2     N12657   3.287   2.683  17.078  0.1194 -0.1981 -1.0146
  858MPD2    H512658   3.217   2.711  17.145  1.1657  0.9661 -0.4200
  858MPD2    N112659   3.481   2.267  16.874 -0.3911  0.3848 -0.2868
  858MPD2    H712660   3.455   2.171  16.851 -1.6800  0.2973  1.5171
  859MPD2     C12661   2.110   0.085  15.110 -0.5465  0.5529 -0.1579
  859MPD2    C112662   2.211   0.145  15.189  0.1862 -0.0096  0.4954
  859MPD2    C212663   2.277   0.065  15.279 -0.2299  0.7767 -0.2583
  859MPD2    C312664   2.253   4.672  15.284 -0.8232 -0.5107 -0.3160
  859MPD2    C412665   2.158   4.612  15.199  0.3844  0.8513 -0.0186
  859MPD2    C512666   2.099   4.690  15.104 -0.5887 -0.1231 -0.0802
  859MPD2     H12667   2.357   0.115  15.334 -1.0476  0.4529  1.2330
  859MPD2    H112668   2.136   4.506  15.194 -0.5341  1.0568 -0.4414
  859MPD2    H212669   2.054   0.140  15.035 -2.6116 -2.1476 -0.5892
  859MPD2    H312670   2.020   4.647  15.044 -0.9516 -0.7386  0.8371
  859MPD2     N12671   2.322   4.586  15.371  0.1356 -0.1861  0.2679
  859MPD2    H512672   2.297   4.488  15.366 -0.6996  0.0695 -0.5480
  859MPD2    N112673   2.257   0.278  15.176  0.0127  0.6064 -0.2753
  859MPD2    H712674   2.325   0.309  15.244  1.1859  0.5825 -1.4306
  860MPD2     C12675   4.634   0.652  11.675 -0.9190  0.1078  0.1258
  860MPD2    C112676   4.622   0.728  11.789 -0.0324 -0.4863  0.3279
  860MPD2    C212677   4.508   0.706  11.869 -0.3284  0.8621 -0.4563
  860MPD2    C312678   4.417   0.602  11.843 -0.0736 -0.3787  0.3575
  860MPD2    C412679   4.435   0.521  11.733  0.1592  0.2062 -0.6203
  860MPD2    C512680   4.539   0.553  11.648 -0.4868  1.3159  0.9804
  860MPD2     H12681   4.503   0.761  11.962  0.0578 -1.5250  0.9835
  860MPD2    H112682   4.366   0.439  11.719  0.0855  0.1244  0.2681
  860MPD2    H212683   4.711   0.668  11.600  0.3276 -2.0845  0.9453
  860MPD2    H312684   4.546   0.493  11.558 -1.8028  1.3168  0.8701
  860MPD2     N12685   4.313   0.577  11.940  0.5695 -0.1906  0.2967
  860MPD2    H512686   4.313   0.629  12.028 -3.3434 -1.1872  0.8861
  860MPD2    N112687   4.716   0.820  11.843 -0.6725 -0.4294  0.3555
  860MPD2    H712688   4.690   0.862  11.931 -0.8640 -1.8746  0.9950
  861MPD2     C12689   3.943   3.748  10.991  0.6235  0.2025  0.2972
  861MPD2    C112690   3.815   3.705  11.023  0.3287 -0.4054  0.1086
  861MPD2    C212691   3.711   3.738  10.936 -0.7285  0.3318 -0.5403
  861MPD2    C312692   3.731   3.813  10.828 -0.3986 -0.0341 -0.5068
  861MPD2    C412693   3.861   3.849  10.791  0.5147 -0.1178 -0.1229
  861MPD2    C512694   3.967   3.821  10.872  0.2453 -0.0068  0.1811
  861MPD2     H12695   3.614   3.701  10.968 -0.0370 -0.0071  1.1422
  861MPD2    H112696   3.874   3.908  10.700 -1.4191  1.5882  0.6903
  861MPD2    H212697   4.027   3.732  11.057 -0.1435  0.7163  1.3920
  861MPD2    H312698   4.064   3.866  10.854  0.5227 -1.0405 -0.8694
  861MPD2     N12699   3.628   3.862  10.747  0.5060  0.4558  0.8249
  861MPD2    H512700   3.649   3.935  10.679  1.5917  1.8118  2.6060
  861MPD2    N112701   3.787   3.641  11.148  0.4632 -0.6092  0.2929
  861MPD2    H712702   3.690   3.625  11.171 -0.0302  1.8026 -0.1301
  862MPD2     C12703   3.033   4.125  10.264  0.2084  0.5975  0.1897
  862MPD2    C112704   3.139   4.090  10.345 -0.2878 -0.3565 -0.1712
  862MPD2    C212705   3.121   3.973  10.415 -0.3326 -0.0778  0.4285
  862MPD2    C312706   3.001   3.914  10.433  0.3448  0.5877  0.1093
  862MPD2    C412707   2.889   3.971  10.374  0.2055  0.3561 -0.3133
  862MPD2    C512708   2.906   4.064  10.270  0.6873 -0.5456  0.4259
  862MPD2     H12709   3.201   3.930  10.475  0.7990 -1.4977 -2.0906
  862MPD2    H112710   2.790   3.930  10.391  0.1043  0.1056 -1.4969
  862MPD2    H212711   3.038   4.217  10.205 -0.4658  0.5714  0.0900
  862MPD2    H312712   2.824   4.106  10.214  1.7161 -0.9406 -1.3591
  862MPD2     N12713   2.986   3.797  10.519  0.2498 -0.7394  0.5236
  862MPD2    H512714   2.893   3.781  10.556  0.1523  0.6651  0.8882
  862MPD2    N112715   3.263   4.166  10.345 -0.0503  0.3329 -0.1134
  862MPD2    H712716   3.281   4.227  10.266  0.4481 -1.8347 -1.6777
  863MPD2     C12717   2.326   1.940  16.608  0.0543 -0.1517 -0.4587
  863MPD2    C112718   2.236   1.874  16.690 -0.4316  0.0472 -0.3477
  863MPD2    C212719   2.278   1.795  16.800 -0.0591 -0.9656 -0.0804
  863MPD2    C312720   2.416   1.777  16.821  0.5948 -0.0536 -0.1551
  863MPD2    C412721   2.503   1.858  16.755 -0.1341  0.9031 -0.5899
  863MPD2    C512722   2.457   1.935  16.648 -0.6584  0.4350 -0.0411
  863MPD2     H12723   2.205   1.740  16.858 -0.0889  0.4705  1.2525
  863MPD2    H112724   2.610   1.870  16.767 -0.2429  2.0749 -0.8267
  863MPD2    H212725   2.302   2.010  16.530  1.4500  0.1747 -0.6056
  863MPD2    H312726   2.524   2.000  16.594  0.5918  0.4212  1.4780
  863MPD2     N12727   2.475   1.685  16.912  0.5143 -0.8687  0.4898
  863MPD2    H512728   2.572   1.703  16.933 -0.2977  3.5972  0.4186
  863MPD2    N112729   2.100   1.907  16.662 -0.3275  0.3703  0.1196
  863MPD2    H712730   2.089   1.956  16.574  0.2823 -0.9073 -0.6493
  864MPD2     C12731   2.502   2.799  17.354 -0.4037 -0.2012  0.6948
  864MPD2    C112732   2.617   2.758  17.295 -0.1336 -0.1237 -0.5177
  864MPD2    C212733   2.709   2.851  17.256 -0.1499 -0.7047 -0.0015
  864MPD2    C312734   2.687   2.984  17.276 -0.1047  0.0639  0.6822
  864MPD2    C412735   2.571   3.026  17.336 -0.4079  0.6476 -0.5351
  864MPD2    C512736   2.480   2.937  17.376  0.0007 -0.5772  0.0676
  864MPD2     H12737   2.800   2.824  17.203 -0.6045 -0.2434 -1.0180
  864MPD2    H112738   2.553   3.132  17.344 -2.4296  0.2670 -0.1561
  864MPD2    H212739   2.431   2.726  17.392 -0.3668 -0.3540  0.4696
  864MPD2    H312740   2.390   2.968  17.427  0.8485 -0.4089  1.4524
  864MPD2     N12741   2.775   3.088  17.242 -0.4387 -0.1521  0.1898
  864MPD2    H512742   2.753   3.180  17.279  1.8710  0.0904  0.9133
  864MPD2    N112743   2.632   2.620  17.284  0.3569 -0.4633 -0.1808
  864MPD2    H712744   2.553   2.565  17.317  1.7952 -1.2790  1.8776
  865MPD2     C12745   2.791   3.497  16.366  0.3180 -0.3860  0.8316
  865MPD2    C112746   2.804   3.375  16.426  0.1632  0.4851  0.2274
  865MPD2    C212747   2.821   3.364  16.560 -0.3080  0.2123  0.6936
  865MPD2    C312748   2.829   3.478  16.643  0.1827  0.1977  0.4056
  865MPD2    C412749   2.834   3.604  16.578  0.2599 -0.2618 -0.3257
  865MPD2    C512750   2.813   3.612  16.441  0.5234  0.4512  0.2732
  865MPD2     H12751   2.815   3.268  16.611  1.5835 -0.9262 -1.2584
  865MPD2    H112752   2.846   3.694  16.637  0.4432 -0.4913 -0.0165
  865MPD2    H212753   2.755   3.517  16.265  2.1933 -1.0079  0.0472
  865MPD2    H312754   2.812   3.711  16.397 -1.4340 -0.4139 -1.6203
  865MPD2     N12755   2.861   3.479  16.782 -0.4105  0.0386  0.0207
  865MPD2    H512756   2.908   3.560  16.821 -0.8843  0.7927 -0.9715
  865MPD2    N112757   2.804   3.261  16.339  0.1381 -0.4039 -0.2382
  865MPD2    H712758   2.783   3.279  16.241 -2.7668 -1.5868  0.1599
  866MPD2     C12759   4.071   3.845  11.731 -0.0356  0.3540  0.5969
  866MPD2    C112760   4.115   3.844  11.597 -0.9415  0.0014 -0.3887
  866MPD2    C212761   4.033   3.892  11.495  0.7601  0.5292  0.1836
  866MPD2    C312762   3.906   3.925  11.529  0.2431 -0.2587  0.3314
  866MPD2    C412763   3.866   3.937  11.658 -1.0228  0.3172 -0.6292
  866MPD2    C512764   3.949   3.895  11.759  0.6679  0.0109  0.1545
  866MPD2     H12765   4.060   3.871  11.393 -1.9312  2.1682 -0.8886
  866MPD2    H112766   3.766   3.962  11.692 -0.5058 -0.4389  1.4546
  866MPD2    H212767   4.144   3.815  11.805 -1.0190  0.6087  1.6688
  866MPD2    H312768   3.913   3.889  11.861  1.5637  1.3658  0.5459
  866MPD2     N12769   3.803   3.973  11.435  0.0687  0.8058  0.3340
  866MPD2    H512770   3.710   3.990  11.471  0.6367  0.0848  2.1570
  866MPD2    N112771   4.248   3.790  11.572  0.1841 -0.1637  0.4765
  866MPD2    H712772   4.293   3.750  11.653  0.8990  2.5610  1.4363
  867MPD2     C12773   1.234   2.967  16.430 -0.5060  0.3675  0.3873
  867MPD2    C112774   1.357   2.950  16.500  0.8113 -0.5976  0.0022
  867MPD2    C212775   1.395   3.043  16.597  0.1788 -0.2346 -0.0063
  867MPD2    C312776   1.313   3.147  16.630 -0.3672  0.4009 -0.2194
  867MPD2    C412777   1.196   3.171  16.558  0.1670  0.7970 -0.5081
  867MPD2    C512778   1.163   3.086  16.453 -0.5673 -0.6580  0.0906
  867MPD2     H12779   1.490   3.040  16.649  0.4937 -2.3075 -0.7045
  867MPD2    H112780   1.130   3.252  16.585 -0.9389  0.0100 -0.8631
  867MPD2    H212781   1.214   2.904  16.344 -1.3097  1.5764 -0.3212
  867MPD2    H312782   1.070   3.105  16.402 -0.3953  0.4361  0.1888
  867MPD2     N12783   1.332   3.231  16.743 -0.6063  0.0159 -0.4686
  867MPD2    H512784   1.257   3.297  16.761  1.4628  3.0011 -2.7417
  867MPD2    N112785   1.426   2.829  16.475  0.4747  0.3817 -0.0525
  867MPD2    H712786   1.383   2.771  16.403 -0.4712 -0.4431  1.1949
  868MPD2     C12787   2.941   1.975  13.075  0.3231  0.4738  0.1670
  868MPD2    C112788   2.981   1.921  13.196 -0.0744 -0.3807  0.2105
  868MPD2    C212789   2.879   1.877  13.285 -1.0328 -0.0973 -0.1307
  868MPD2    C312790   2.746   1.877  13.244  0.1129  0.1126 -0.8004
  868MPD2    C412791   2.716   1.923  13.119 -0.1207  0.4172  0.1027
  868MPD2    C512792   2.808   1.973  13.039  0.0364  0.7469  0.3423
  868MPD2     H12793   2.905   1.841  13.384  0.7903 -2.5899 -1.4934
  868MPD2    H112794   2.611   1.927  13.094 -0.3078 -2.0226  0.5619
  868MPD2    H212795   3.012   2.028  13.012  1.4545  0.8193  1.7459
  868MPD2    H312796   2.784   1.999  12.936 -0.4659  1.8774  0.7319
  868MPD2     N12797   2.654   1.830  13.335  0.0166 -0.4536 -0.1842
  868MPD2    H512798   2.689   1.811  13.428 -2.3775  0.8832  0.9892
  868MPD2    N112799   3.121   1.907  13.215  0.3927  0.3098  0.6497
  868MPD2    H712800   3.184   1.943  13.144 -0.3447  0.5210  0.0949
  869MPD2     C12801   4.252   4.296   0.493 -0.1938 -0.1857  0.0026
  869MPD2    C112802   4.177   4.399   0.447  0.3030 -0.6966  0.0484
  869MPD2    C212803   4.191   4.525   0.508 -0.1338  0.1879  0.4308
  869MPD2    C312804   4.274   4.538   0.616  0.4574  0.2117 -0.0045
  869MPD2    C412805   4.341   4.424   0.665 -0.3996  0.6081 -0.3525
  869MPD2    C512806   4.331   4.308   0.599  0.4990 -0.0044  0.2652
  869MPD2     H12807   4.147   4.614   0.464  0.3316  0.0430 -0.3365
  869MPD2    H112808   4.404   4.418   0.753  2.2576 -0.3502 -2.3060
  869MPD2    H212809   4.245   4.202   0.441 -0.3369  0.3096 -0.8743
  869MPD2    H312810   4.379   4.219   0.639  3.5507  1.2064 -0.6820
  869MPD2     N12811   4.287   4.652   0.694 -0.0870 -0.1487 -0.3709
  869MPD2    H512812   4.368   4.650   0.755  0.0451  0.2833 -0.5353
  869MPD2    N112813   4.112   4.379   0.319 -0.1369  0.9168 -0.0625
  869MPD2    H712814   4.110   4.282   0.291 -0.4748  0.1551  2.6087
  870MPD2     C12815   0.007   2.792   1.705  0.2482 -0.6427  0.0146
  870MPD2    C112816   4.632   2.737   1.656  0.2846  0.7583  1.0179
  870MPD2    C212817   4.516   2.819   1.654  0.4686 -0.3566  0.7366
  870MPD2    C312818   4.520   2.947   1.698  0.6631  0.1557 -0.0649
  870MPD2    C412819   4.638   2.996   1.754 -0.0382 -0.5346 -0.1725
  870MPD2    C512820   0.010   2.925   1.751 -0.7288  0.8668  0.0611
  870MPD2     H12821   4.423   2.781   1.614  0.9064 -1.3426  0.6429
  870MPD2    H112822   4.645   3.096   1.797 -0.6985  0.2409 -1.8673
  870MPD2    H212823   0.104   2.744   1.708  0.3792 -0.4194 -0.6507
  870MPD2    H312824   0.096   2.975   1.795 -0.8577  0.0253  1.2642
  870MPD2     N12825   4.401   3.021   1.687 -0.0731 -0.3557  0.7635
  870MPD2    H512826   4.326   2.966   1.647 -1.7655  2.8489 -0.3924
  870MPD2    N112827   4.637   2.608   1.607 -0.2256  0.0190 -0.4381
  870MPD2    H712828   4.732   2.581   1.582 -0.1051 -0.4652  0.5196
  871MPD2     C12829   0.225   2.895  16.553 -0.1975 -0.3146 -0.8770
  871MPD2    C112830   0.218   2.824  16.676 -0.1953  0.2665  0.4116
  871MPD2    C212831   0.246   2.686  16.669 -0.1384  0.1281  0.0586
  871MPD2    C312832   0.275   2.624  16.552 -0.7440 -0.0377  0.4215
  871MPD2    C412833   0.251   2.693  16.432 -0.4758 -0.5129  0.4281
  871MPD2    C512834   0.219   2.827  16.434 -0.5865 -0.3694 -0.5301
  871MPD2     H12835   0.258   2.637  16.764 -1.5675  1.7624  1.0976
  871MPD2    H112836   0.236   2.645  16.335  0.6147 -1.2484  0.6258
  871MPD2    H212837   0.224   3.003  16.541  0.6221 -0.4113 -1.8175
  871MPD2    H312838   0.204   2.870  16.336 -0.5107 -0.2424 -0.4854
  871MPD2     N12839   0.308   2.490  16.552 -0.2709  0.4425 -0.4134
  871MPD2    H512840   0.305   2.439  16.640  0.9864  1.1951  0.0648
  871MPD2    N112841   0.198   2.900  16.792 -0.0143 -0.5277  0.3635
  871MPD2    H712842   0.182   2.999  16.777 -0.7299 -0.8808 -1.2600
  872MPD2     C12843   1.634   0.318  14.265  0.2541 -0.6024 -0.1641
  872MPD2    C112844   1.581   0.442  14.218  0.1145  0.3570  0.0969
  872MPD2    C212845   1.463   0.500  14.268 -1.2254 -0.4454  0.1571
  872MPD2    C312846   1.396   0.440  14.374  0.5004 -0.1762 -0.3338
  872MPD2    C412847   1.443   0.318  14.414  0.3825  0.1715  0.5757
  872MPD2    C512848   1.550   0.252  14.354  0.4601  0.2658 -0.0763
  872MPD2     H12849   1.420   0.593  14.232 -0.5220 -0.5001 -0.8249
  872MPD2    H112850   1.386   0.271  14.494 -0.8112 -0.0085 -0.3732
  872MPD2    H212851   1.722   0.267  14.230  0.5238 -0.8447  0.8695
  872MPD2    H312852   1.584   0.157  14.394  2.1647  1.0157  0.2437
  872MPD2     N12853   1.289   0.501  14.445 -0.3368 -0.2295 -0.5524
  872MPD2    H512854   1.254   0.459  14.530  0.7072  0.4600  0.2145
  872MPD2    N112855   1.651   0.519  14.114  0.3074 -0.1531  0.5627
  872MPD2    H712856   1.603   0.604  14.090  0.0039 -0.3319  0.5313
  873MPD2     C12857   3.205   0.265   0.939 -0.2292 -0.7840  0.0950
  873MPD2    C112858   3.070   0.253   0.935  0.7735 -1.0079  0.0846
  873MPD2    C212859   3.027   0.132   0.881 -0.9724  0.2975  0.3209
  873MPD2    C312860   3.109   0.033   0.836 -1.2172  0.2735 -0.0049
  873MPD2    C412861   3.246   0.053   0.833 -0.8861  0.0869 -1.2610
  873MPD2    C512862   3.293   0.166   0.898 -0.1979 -0.7552  0.0636
  873MPD2     H12863   2.922   0.107   0.873 -0.9953  0.9289 -1.4234
  873MPD2    H112864   3.318   4.723   0.795 -0.8315  0.3058 -1.5679
  873MPD2    H212865   3.251   0.357   0.974 -2.2586 -0.6718  2.4398
  873MPD2    H312866   3.401   0.180   0.897 -0.4000  0.7727 -0.3498
  873MPD2     N12867   3.062   4.653   0.778 -0.4079 -0.0619  0.6223
  873MPD2    H512868   3.122   4.592   0.724 -2.5305 -1.0576 -0.6101
  873MPD2    N112869   2.982   0.354   0.987  0.5085 -0.4772 -0.5014
  873MPD2    H712870   3.027   0.430   1.037  1.4525 -0.5922 -1.1752
  874MPD2     C12871   2.607   1.250  16.105 -0.6461 -1.3580 -0.9114
  874MPD2    C112872   2.683   1.170  16.190 -0.0962  0.0061 -0.3460
  874MPD2    C212873   2.817   1.158  16.162 -0.1743 -0.3346 -0.2093
  874MPD2    C312874   2.864   1.207  16.043  0.1728  0.2533  0.5797
  874MPD2    C412875   2.786   1.282  15.955  0.4433 -0.5449  0.3426
  874MPD2    C512876   2.657   1.293  15.987  0.1015 -0.0754  0.1581
  874MPD2     H12877   2.882   1.103  16.229 -1.3656 -2.5933 -0.8986
  874MPD2    H112878   2.838   1.335  15.876 -1.6994  2.1248  0.7168
  874MPD2    H212879   2.505   1.272  16.134 -0.7212 -2.3624 -0.4443
  874MPD2    H312880   2.593   1.358  15.930  0.0266 -0.2109  0.0872
  874MPD2     N12881   3.000   1.188  16.009  0.0472 -0.1693  0.1518
  874MPD2    H512882   3.045   1.259  15.952  1.9267  0.2008  2.0888
  874MPD2    N112883   2.622   1.105  16.308 -0.1737 -0.0771 -0.4780
  874MPD2    H712884   2.521   1.101  16.316 -0.1794  0.5164 -0.2364
  875MPD2     C12885   3.023   3.816  14.630 -0.4136 -0.1145  0.4559
  875MPD2    C112886   3.095   3.914  14.563  0.2357 -0.8999 -0.0638
  875MPD2    C212887   3.162   4.010  14.633 -0.1543  0.2864  0.4057
  875MPD2    C312888   3.166   3.995  14.775 -0.0784  0.5037 -1.2198
  875MPD2    C412889   3.099   3.894  14.840 -0.2884 -0.6552  0.2844
  875MPD2    C512890   3.038   3.795  14.767 -0.8689  0.3102 -0.4389
  875MPD2     H12891   3.209   4.092  14.581 -0.6887 -0.6710 -1.5844
  875MPD2    H112892   3.112   3.882  14.947  1.0950  0.3503  0.2286
  875MPD2    H212893   2.962   3.743  14.580  0.6963 -0.5089 -0.3106
  875MPD2    H312894   2.985   3.710  14.809  1.4650 -1.0926 -0.3140
  875MPD2     N12895   3.236   4.081  14.867 -0.0636  0.1675 -0.2047
  875MPD2    H512896   3.219   4.059  14.965  0.4493  2.1210  0.3190
  875MPD2    N112897   3.087   3.938  14.424  0.1521 -0.1961 -0.0656
  875MPD2    H712898   3.156   4.000  14.383  0.6073 -0.4709  0.2829
  876MPD2     C12899   2.362   0.611  16.206 -0.3629  0.1947 -0.5695
  876MPD2    C112900   2.498   0.607  16.184  0.2272  0.9669 -0.0781
  876MPD2    C212901   2.566   0.501  16.238  0.0287  0.6673 -0.2392
  876MPD2    C312902   2.503   0.417  16.327  0.0798  0.0351  0.0051
  876MPD2    C412903   2.371   0.433  16.349 -0.1173 -0.3373  0.5949
  876MPD2    C512904   2.298   0.525  16.293  0.9166 -0.4340  0.1279
  876MPD2     H12905   2.674   0.494  16.233 -0.4552 -3.8546 -3.3639
  876MPD2    H112906   2.320   0.367  16.418 -1.1398  0.6974  0.8251
  876MPD2    H212907   2.301   0.689  16.159 -0.4175  0.3649 -0.2188
  876MPD2    H312908   2.192   0.526  16.314  0.7163 -2.9136 -0.7840
  876MPD2     N12909   2.579   0.306  16.368  0.1384  0.6000 -0.0971
  876MPD2    H512910   2.678   0.318  16.347  0.2534 -3.2239 -1.7202
  876MPD2    N112911   2.551   0.700  16.103  0.3375  0.1696 -0.2283
  876MPD2    H712912   2.487   0.768  16.065 -1.5080 -1.8919 -0.8251
  877MPD2     C12913   2.325   0.945  15.531  0.3198 -0.0062  0.5310
  877MPD2    C112914   2.448   1.008  15.514 -0.6780  0.2478  0.2175
  877MPD2    C212915   2.476   1.055  15.391 -0.1662  0.7748  0.5091
  877MPD2    C312916   2.384   1.042  15.283  0.1318 -0.0865 -0.5027
  877MPD2    C412917   2.265   0.975  15.299  0.0761  0.7943  0.3687
  877MPD2    C512918   2.242   0.925  15.423  0.0692  0.3922  0.9286
  877MPD2     H12919   2.577   1.089  15.368 -0.8872  2.1916 -0.5214
  877MPD2    H112920   2.181   0.970  15.231 -0.9101  2.3499  1.4793
  877MPD2    H212921   2.288   0.910  15.626 -2.7515 -1.3694 -1.1725
  877MPD2    H312922   2.149   0.869  15.431 -0.5249  1.0483 -1.3753
  877MPD2     N12923   2.401   1.092  15.156 -0.1089  0.7754  0.0995
  877MPD2    H512924   2.327   1.072  15.090 -0.1816  1.1112  0.0816
  877MPD2    N112925   2.538   1.033  15.619 -0.0488  0.0471  0.5245
  877MPD2    H712926   2.637   1.038  15.596  0.2149 -1.0717  1.4464
  878MPD2     C12927   2.194   0.058  12.936 -0.0746  0.8345  0.0030
  878MPD2    C112928   2.289   0.163  12.962 -0.1955 -0.1608  0.7948
  878MPD2    C212929   2.334   0.192  13.093 -0.1015 -0.0196 -0.2632
  878MPD2    C312930   2.285   0.118  13.200  0.1044  0.2613  0.4335
  878MPD2    C412931   2.193   0.018  13.172 -0.0746  0.3516 -0.2131
  878MPD2    C512932   2.168   4.719  13.038  0.3970  0.1183 -0.0761
  878MPD2     H12933   2.400   0.276  13.116 -0.3475  0.3110 -0.7772
  878MPD2    H112934   2.158   4.693  13.251 -2.5297  3.4123  1.2115
  878MPD2    H212935   2.152   0.034  12.839 -0.9179 -0.8225  0.7793
  878MPD2    H312936   2.087   4.647  13.027 -0.0913  0.8244 -1.0816
  878MPD2     N12937   2.318   0.157  13.331 -0.9129  0.5027 -0.0546
  878MPD2    H512938   2.379   0.238  13.339  0.8948 -0.5747 -2.7522
  878MPD2    N112939   2.337   0.235  12.852  0.1949 -0.2543  0.0760
  878MPD2    H712940   2.293   0.213  12.763  1.5811 -0.6400 -0.4989
  879MPD2     C12941   3.078   1.894  16.954  0.6259  0.1180  0.0556
  879MPD2    C112942   3.019   1.790  17.021 -0.7162  0.1554  0.2721
  879MPD2    C212943   2.923   1.713  16.953 -0.3281 -0.4678 -0.1736
  879MPD2    C312944   2.890   1.742  16.821  0.3464  0.0425 -0.4518
  879MPD2    C412945   2.947   1.846  16.756 -0.2246 -0.9932 -0.3539
  879MPD2    C512946   3.040   1.917  16.826 -0.4389 -0.4201  0.1873
  879MPD2     H12947   2.872   1.632  17.005  0.0284 -0.4453  0.2102
  879MPD2    H112948   2.919   1.866  16.653 -1.5229 -0.7451  0.0493
  879MPD2    H212949   3.139   1.972  16.999 -0.3827  2.2480 -2.2673
  879MPD2    H312950   3.083   2.003  16.776  1.6497 -2.3880 -1.3986
  879MPD2     N12951   2.798   1.666  16.746  0.3154 -0.0569  0.1520
  879MPD2    H512952   2.781   1.703  16.653 -0.2823 -2.7637 -0.8141
  879MPD2    N112953   3.051   1.759  17.155 -0.3571  0.4245  0.1148
  879MPD2    H712954   2.974   1.710  17.199 -0.1856 -0.2985 -0.3999
  880MPD2     C12955   4.112   2.827   0.556  0.0191  0.3904  0.0835
  880MPD2    C112956   4.188   2.904   0.642 -0.5019 -0.1999  0.2332
  880MPD2    C212957   4.307   2.857   0.688  0.1841  0.5216 -0.1252
  880MPD2    C312958   4.344   2.723   0.665  0.6105 -0.1723 -0.7628
  880MPD2    C412959   4.245   2.643   0.613 -0.5365 -0.1471  0.2137
  880MPD2    C512960   4.135   2.693   0.544 -0.0835  0.7456  0.1549
  880MPD2     H12961   4.366   2.919   0.755  1.4132 -1.3224  0.4936
  880MPD2    H112962   4.267   2.537   0.621  0.9429 -0.1191 -3.3062
  880MPD2    H212963   4.020   2.858   0.508  1.5835  0.9866 -2.5213
  880MPD2    H312964   4.058   2.625   0.509 -2.2899  3.2239  0.2212
  880MPD2     N12965   4.461   2.681   0.733  0.2881  0.1765 -0.2059
  880MPD2    H512966   4.515   2.751   0.784  0.2719 -0.0116  0.0691
  880MPD2    N112967   4.155   3.040   0.673 -0.3921 -0.1647  0.6196
  880MPD2    H712968   4.226   3.083   0.732 -1.2145  0.6065  1.0480
  881MPD2     C12969   4.336   3.922   0.185  0.2566  0.2417  0.5832
  881MPD2    C112970   4.325   3.787   0.159 -0.2766  0.0123  0.5061
  881MPD2    C212971   4.268   3.704   0.250 -0.4386  0.4601 -0.3708
  881MPD2    C312972   4.260   3.750   0.380  0.3031 -0.4116 -0.5943
  881MPD2    C412973   4.295   3.871   0.413 -0.2266 -0.0814 -0.1002
  881MPD2    C512974   4.343   3.956   0.320 -0.6830  0.5605  0.2605
  881MPD2     H12975   4.225   3.609   0.217 -0.3566 -0.1190  1.2091
  881MPD2    H112976   4.297   3.900   0.517  1.7504  1.2750 -0.5236
  881MPD2    H212977   4.366   3.992   0.107  0.5131 -0.8699 -0.3146
  881MPD2    H312978   4.377   4.050   0.360 -1.6225  1.2137 -0.4765
  881MPD2     N12979   4.208   3.662   0.483  0.5967  0.5384  0.1366
  881MPD2    H512980   4.245   3.679   0.576 -1.0570 -1.0737  1.0850
  881MPD2    N112981   4.330   3.751   0.022 -0.3601 -0.2750  0.0289
  881MPD2    H712982   4.351   3.827  17.720  0.6231  0.0197  0.7002
  882MPD2     C12983   2.431   0.898  14.508  0.0593  0.2674  0.6932
  882MPD2    C112984   2.337   0.975  14.575 -0.5111 -0.5642 -0.6319
  882MPD2    C212985   2.208   0.930  14.577 -0.1654  0.0141 -0.2077
  882MPD2    C312986   2.168   0.806  14.531  0.7631 -0.8946  0.0232
  882MPD2    C412987   2.267   0.734  14.462 -0.2892 -0.4150  0.2746
  882MPD2    C512988   2.395   0.782  14.451  0.1794  0.3639  0.2467
  882MPD2     H12989   2.138   0.987  14.637  1.3031  0.0118  1.5283
  882MPD2    H112990   2.243   0.632  14.434  0.8959 -0.6386  0.0969
  882MPD2    H212991   2.529   0.945  14.498 -0.5262  1.5336  0.8990
  882MPD2    H312992   2.460   0.724  14.386 -1.0327  2.4918 -2.8775
  882MPD2     N12993   2.041   0.757  14.570 -0.2029 -0.1160 -0.1292
  882MPD2    H512994   1.978   0.832  14.598 -2.0801 -2.2242  1.2773
  882MPD2    N112995   2.376   1.094  14.641 -0.3419 -0.1167 -0.6653
  882MPD2    H712996   2.478   1.096  14.646 -0.4652 -1.3804  2.3310
  883MPD2     C12997   4.395   0.365  16.373 -0.2802 -0.0351 -0.8637
  883MPD2    C112998   4.451   0.475  16.318 -0.6937  0.5592  0.7831
  883MPD2    C212999   4.567   0.523  16.372  0.0400  0.0468  0.2738
  883MPD2    C313000   4.641   0.462  16.467 -0.2602  0.0716  0.0575
  883MPD2    C413001   4.587   0.344  16.518  0.0044  0.4614  0.4355
  883MPD2    C513002   4.466   0.298  16.469  0.1426 -0.3988 -0.4760
  883MPD2     H13003   4.615   0.611  16.329  0.3917 -0.6997 -0.8323
  883MPD2    H113004   4.643   0.289  16.592  0.2651 -0.8615 -0.7497
  883MPD2    H213005   4.294   0.333  16.350 -0.1369 -0.1804 -1.2839
  883MPD2    H313006   4.417   0.213  16.513 -0.3053  1.2376  2.1644
  883MPD2     N13007   0.032   0.507  16.506 -0.2242 -0.8079  0.6787
  883MPD2    H513008   0.075   0.585  16.458 -0.7545 -0.4205  0.8319
  883MPD2    N113009   4.404   0.546  16.214 -0.1277  0.0978  0.0053
  883MPD2    H713010   4.459   0.628  16.190 -2.0124  0.9627 -1.2861
  884MPD2     C13011   1.643   1.433  15.655  0.2991  0.0088  0.7176
  884MPD2    C113012   1.640   1.551  15.579  0.5446  0.6586 -0.4621
  884MPD2    C213013   1.528   1.621  15.567 -0.3493 -0.3344 -0.2279
  884MPD2    C313014   1.406   1.571  15.612 -0.8857 -0.8045 -0.0658
  884MPD2    C413015   1.403   1.452  15.685  0.0823 -0.1166 -0.2734
  884MPD2    C513016   1.524   1.387  15.713  0.6861  0.9481  0.2449
  884MPD2     H13017   1.538   1.711  15.506 -0.7607  0.8634  1.4901
  884MPD2    H113018   1.310   1.400  15.703  0.2046 -0.7597 -1.5665
  884MPD2    H213019   1.728   1.366  15.656 -1.5602 -2.3707 -0.1860
  884MPD2    H313020   1.537   1.292  15.763 -0.4180  1.1035  0.8360
  884MPD2     N13021   1.290   1.648  15.582 -0.5803  0.0369  0.3328
  884MPD2    H513022   1.310   1.735  15.534  1.5941  0.5720  2.2203
  884MPD2    N113023   1.747   1.584  15.491 -1.0981  0.1649  0.0124
  884MPD2    H713024   1.731   1.675  15.450  2.0206  0.1177 -1.3019
  885MPD2     C13025   0.060   2.078   0.585  0.2651  0.1841  0.0816
  885MPD2    C113026   0.147   1.975   0.555 -0.4286 -0.1472 -0.1093
  885MPD2    C213027   0.159   1.926   0.426 -0.4582  0.1615  0.6867
  885MPD2    C313028   0.091   1.980   0.322  0.3656  0.1551  0.1241
  885MPD2    C413029   0.015   2.094   0.347 -0.4404  0.1023  0.6095
  885MPD2    C513030   4.734   2.132   0.476  0.2764  0.1328  0.6498
  885MPD2     H13031   0.209   1.832   0.403  0.7311  1.1688 -0.8477
  885MPD2    H113032   4.712   2.156   0.270  0.4090 -0.8615 -0.6643
  885MPD2    H213033   0.031   2.109   0.684 -0.8764  1.8605 -0.7701
  885MPD2    H313034   4.672   2.221   0.484  0.9520  0.7052 -0.6145
  885MPD2     N13035   0.089   1.927   0.189  0.4303  0.0594 -0.7640
  885MPD2    H513036   0.129   1.836   0.172  1.5886  0.4549 -0.2084
  885MPD2    N113037   0.193   1.911   0.670  0.0592  0.0855 -0.0969
  885MPD2    H713038   0.165   1.950   0.759  2.6523  0.5983  0.4938
  886MPD2     C13039   1.090   0.415  15.754 -0.0070 -0.3523  0.1025
  886MPD2    C113040   1.204   0.379  15.685  0.2949  0.2194 -0.3941
  886MPD2    C213041   1.234   0.450  15.576  0.3061 -0.6837 -0.2249
  886MPD2    C313042   1.166   0.566  15.537 -0.0397 -0.9980  0.3070
  886MPD2    C413043   1.054   0.599  15.609 -0.1882 -0.5086 -0.4608
  886MPD2    C513044   1.013   0.517  15.712  0.0776 -0.0372 -0.5051
  886MPD2     H13045   1.313   0.419  15.508 -0.0275  0.6499 -1.2189
  886MPD2    H113046   0.994   0.684  15.577  0.5791  0.5396  0.8818
  886MPD2    H213047   1.043   0.358  15.833  2.4446 -2.0708  0.3155
  886MPD2    H313048   0.916   0.532  15.758  0.5999  2.2503 -0.1417
  886MPD2     N13049   1.215   0.647  15.429  0.0828  0.8397  0.0748
  886MPD2    H513050   1.299   0.612  15.384 -0.6083  0.6876 -1.0851
  886MPD2    N113051   1.286   0.272  15.720 -0.5271 -0.1899  0.1761
  886MPD2    H713052   1.364   0.253  15.658 -1.1492 -1.5986 -0.1783
  887MPD2     C13053   1.941   0.340  16.023 -0.1898  0.1157 -0.3802
  887MPD2    C113054   1.824   0.387  15.982  0.1037 -0.2957  0.8131
  887MPD2    C213055   1.817   0.503  15.919 -0.1774  0.0559 -0.0191
  887MPD2    C313056   1.933   0.581  15.891 -0.3019 -0.4159 -0.0555
  887MPD2    C413057   2.056   0.536  15.948 -0.0530 -1.2415  0.0205
  887MPD2    C513058   2.058   0.413  16.007  0.0760 -0.2498  0.8352
  887MPD2     H13059   1.718   0.533  15.887  0.0674 -0.6157 -1.4348
  887MPD2    H113060   2.153   0.582  15.931 -2.1129  2.9611 -0.2221
  887MPD2    H213061   1.953   0.241  16.064 -1.0676 -1.0176 -2.8371
  887MPD2    H313062   2.155   0.375  16.039 -0.2245 -0.5779  1.3647
  887MPD2     N13063   1.920   0.708  15.830 -0.1767 -0.0879 -0.0695
  887MPD2    H513064   1.824   0.734  15.811 -0.2337  0.1105  0.5040
  887MPD2    N113065   1.706   0.310  15.971 -0.2305 -0.5641 -0.2454
  887MPD2    H713066   1.640   0.343  15.902 -1.1800 -2.5700 -0.3038
  888MPD2     C13067   3.555   0.487  14.722 -0.2970 -0.0557  0.3795
  888MPD2    C113068   3.517   0.502  14.857 -0.3331 -0.7466  0.1946
  888MPD2    C213069   3.574   0.610  14.925  0.3953 -0.2651  0.1470
  888MPD2    C313070   3.661   0.699  14.859 -0.4534 -0.0413  0.2811
  888MPD2    C413071   3.699   0.663  14.735 -0.0073 -0.4643  0.2310
  888MPD2    C513072   3.662   0.557  14.668 -0.1139 -0.3054  0.0898
  888MPD2     H13073   3.555   0.621  15.032  2.0042  1.8693  0.2124
  888MPD2    H113074   3.770   0.727  14.684 -0.2889  0.8705  1.4929
  888MPD2    H213075   3.523   0.392  14.681  0.6194 -0.8198  1.4404
  888MPD2    H313076   3.708   0.545  14.571  0.5006 -1.6800  0.5444
  888MPD2     N13077   3.704   0.820  14.923 -0.0746  0.1958 -0.3194
  888MPD2    H513078   3.665   0.843  15.014  0.5250 -0.0629  0.0023
  888MPD2    N113079   3.440   0.415  14.934  0.2634 -0.9494 -0.2094
  888MPD2    H713080   3.429   0.434  15.034 -0.3800  0.5314 -0.5514
  889MPD2     C13081   2.729   0.249  13.225  0.7347  0.4728  0.8542
  889MPD2    C113082   2.860   0.212  13.220  0.6691 -0.5264 -0.2391
  889MPD2    C213083   2.948   0.315  13.190  0.5776  0.1990 -0.4733
  889MPD2    C313084   2.917   0.450  13.217 -1.6415 -0.2837  0.1113
  889MPD2    C413085   2.783   0.481  13.234  0.2093 -0.7748  0.1204
  889MPD2    C513086   2.692   0.379  13.238 -0.0039  0.0256 -0.6224
  889MPD2     H13087   3.054   0.294  13.176  0.7078  0.1570  0.6233
  889MPD2    H113088   2.745   0.581  13.250 -3.0905 -2.0532  0.3088
  889MPD2    H213089   2.637   0.191  13.228  1.0734 -0.2626 -3.4140
  889MPD2    H313090   2.588   0.403  13.255  0.5215 -0.2976  3.0344
  889MPD2     N13091   3.019   0.550  13.222  0.3845  0.4125 -0.0214
  889MPD2    H513092   3.115   0.517  13.219  0.2312 -0.0804  0.5527
  889MPD2    N113093   2.898   0.075  13.189 -0.0368  0.1143  0.1554
  889MPD2    H713094   2.995   0.045  13.190 -0.1086 -0.1456 -0.7020
  890MPD2     C13095   2.916   1.866  14.565 -0.9575 -0.8404  0.0013
  890MPD2    C113096   2.935   1.939  14.681 -0.1757  0.3761  0.6709
  890MPD2    C213097   2.949   1.878  14.809  0.8200 -0.3104  0.5467
  890MPD2    C313098   2.928   1.742  14.812  0.5327 -0.2689  0.1107
  890MPD2    C413099   2.915   1.670  14.698  0.2099  0.0433  0.3748
  890MPD2    C513100   2.913   1.730  14.577 -0.4632  0.8079  0.2585
  890MPD2     H13101   2.972   1.939  14.896  1.7077  0.5750 -0.3026
  890MPD2    H113102   2.902   1.563  14.704  2.9285 -0.4269 -1.9476
  890MPD2    H213103   2.892   1.907  14.467  0.6341 -1.1872 -0.5469
  890MPD2    H313104   2.894   1.671  14.488  0.6337 -0.8640  1.1255
  890MPD2     N13105   2.933   1.680  14.940 -0.2952 -0.4435  0.0096
  890MPD2    H513106   2.960   1.735  15.021  0.1414 -0.8513  0.1405
  890MPD2    N113107   2.944   2.078  14.665  0.4576  0.0529  0.3050
  890MPD2    H713108   2.938   2.116  14.571 -1.0132  0.2856  0.4988
  891MPD2     C13109   0.525   4.318  16.950 -0.1109  0.3555 -0.6052
  891MPD2    C113110   0.517   4.452  16.993 -0.3744  0.5424  0.8654
  891MPD2    C213111   0.611   4.508  17.077  0.4300 -0.5590 -1.2239
  891MPD2    C313112   0.691   4.426  17.138  0.2394  0.0102 -0.6982
  891MPD2    C413113   0.697   4.291  17.109 -0.0850  0.4471 -0.7157
  891MPD2    C513114   0.617   4.239  17.010 -0.1220 -0.0499 -0.6182
  891MPD2     H13115   0.613   4.612  17.109 -1.5507 -0.0735 -2.6975
  891MPD2    H113116   0.762   4.215  17.152 -0.0502  1.3119  0.7458
  891MPD2    H213117   0.446   4.276  16.889 -1.3130  1.3960  0.2249
  891MPD2    H313118   0.618   4.132  16.992  2.7387 -0.3921  1.6290
  891MPD2     N13119   0.762   4.486  17.243 -0.0184 -0.1057  0.4504
  891MPD2    H513120   0.738   4.579  17.273 -0.9203 -0.2174  0.0750
  891MPD2    N113121   0.419   4.535  16.929  0.3031 -0.5626 -0.0761
  891MPD2    H713122   0.365   4.498  16.851  0.9345  0.4555 -1.0050
  892MPD2     C13123   1.511   1.294  14.529 -0.3167 -0.0073 -0.2339
  892MPD2    C113124   1.470   1.221  14.637  0.0205 -0.2720 -0.3479
  892MPD2    C213125   1.502   1.082  14.649 -0.2577 -0.0894 -0.2264
  892MPD2    C313126   1.566   1.025  14.537  0.3395  0.5030  0.1829
  892MPD2    C413127   1.608   1.107  14.431 -0.7417  0.1064  0.0655
  892MPD2    C513128   1.578   1.236  14.426  0.5578 -0.1904 -0.1121
  892MPD2     H13129   1.479   1.026  14.739 -3.0746 -0.0734 -0.9511
  892MPD2    H113130   1.667   1.072  14.347 -1.8707 -0.7377 -0.3768
  892MPD2    H213131   1.490   1.400  14.529 -0.9854 -0.1365  0.4231
  892MPD2    H313132   1.615   1.290  14.339 -0.8277 -1.1951 -1.3395
  892MPD2     N13133   1.602   0.890  14.530 -0.5323  0.0271 -0.5985
  892MPD2    H513134   1.675   0.870  14.462  1.6269  1.7743  1.2203
  892MPD2    N113135   1.381   1.284  14.723 -0.5797 -0.6454  0.3819
  892MPD2    H713136   1.332   1.368  14.696  0.7239 -0.5283 -1.6672
  893MPD2     C13137   3.093   3.735   0.987  0.3984  0.2628 -0.4845
  893MPD2    C113138   3.167   3.812   1.071  0.0024  0.2236 -0.1864
  893MPD2    C213139   3.099   3.858   1.184 -0.3347 -0.2625 -0.0491
  893MPD2    C313140   2.971   3.819   1.216  0.3513 -0.4125 -0.1310
  893MPD2    C413141   2.901   3.746   1.120 -0.3050  0.3654 -0.6340
  893MPD2    C513142   2.964   3.704   1.009  0.3710 -0.0243 -0.7651
  893MPD2     H13143   3.147   3.932   1.247 -1.0241 -0.7760  1.0799
  893MPD2    H113144   2.793   3.739   1.122 -0.1279 -1.9050  0.6968
  893MPD2    H213145   3.129   3.692   0.895 -2.3072 -2.4545 -0.2493
  893MPD2    H313146   2.900   3.655   0.935  2.0239 -1.6313 -1.1356
  893MPD2     N13147   2.913   3.858   1.336  0.3639  0.8624  0.6280
  893MPD2    H513148   2.963   3.930   1.387  0.8141  1.3902 -0.5525
  893MPD2    N113149   3.300   3.848   1.036  0.2619 -0.2547 -0.2311
  893MPD2    H713150   3.327   3.803   0.949  0.3397 -2.5786  1.0031
  894MPD2     C13151   1.876   1.601   0.982  0.1908  0.1318  0.0287
  894MPD2    C113152   1.874   1.679   1.095  0.3379  0.5865 -0.2447
  894MPD2    C213153   1.887   1.814   1.085  0.3734  0.6596 -0.4067
  894MPD2    C313154   1.907   1.879   0.964 -0.0511  0.0443 -0.0797
  894MPD2    C413155   1.915   1.800   0.849 -0.0916 -0.2071  0.1967
  894MPD2    C513156   1.900   1.664   0.860  0.9719 -0.7659  0.4045
  894MPD2     H13157   1.895   1.874   1.175  1.2208 -0.6284  0.4004
  894MPD2    H113158   1.951   1.849   0.759 -0.9487  1.2995  0.6790
  894MPD2    H213159   1.851   1.497   0.972 -0.1440  0.2166 -0.0226
  894MPD2    H313160   1.910   1.602   0.771 -1.8374  0.1238 -0.5440
  894MPD2     N13161   1.924   2.018   0.966  0.1151 -0.4225  0.1331
  894MPD2    H513162   1.912   2.068   1.054 -0.1676 -1.2284  0.5490
  894MPD2    N113163   1.838   1.628   1.220  0.2126  0.0868 -0.5081
  894MPD2    H713164   1.824   1.699   1.290 -1.6312  1.0434 -1.8330
  895MPD2     C13165   1.380   0.079  13.335  0.5207 -0.1117 -0.8559
  895MPD2    C113166   1.267   0.145  13.297  0.7305  0.5290  0.1421
  895MPD2    C213167   1.157   0.069  13.271 -0.0508 -0.3082  0.3292
  895MPD2    C313168   1.131   4.686  13.327  0.1137 -0.7573  0.0067
  895MPD2    C413169   1.240   4.630  13.380 -0.0042 -0.1960  0.6169
  895MPD2    C513170   1.366   4.692  13.368  0.1558  0.1229  0.2805
  895MPD2     H13171   1.070   0.122  13.235  1.4472  1.4040 -0.7842
  895MPD2    H113172   1.230   4.529  13.418 -1.7487 -1.2552 -2.6197
  895MPD2    H213173   1.478   0.122  13.352  0.0054 -0.0095  1.8328
  895MPD2    H313174   1.455   4.645  13.409 -0.0175 -1.2816 -0.9695
  895MPD2     N13175   1.015   4.613  13.326 -0.0337 -0.4631 -0.0237
  895MPD2    H513176   1.003   4.531  13.385  1.0324 -0.4980  0.1448
  895MPD2    N113177   1.259   0.284  13.252 -0.2587  0.3868 -0.1828
  895MPD2    H713178   1.174   0.326  13.215  0.0226  1.0983 -0.0164
  896MPD2     C13179   3.568   2.829   1.606  0.9048 -0.1777 -0.5909
  896MPD2    C113180   3.533   2.847   1.470  0.2190 -0.6053 -0.5310
  896MPD2    C213181   3.416   2.790   1.419 -0.7923  0.6097 -0.1587
  896MPD2    C313182   3.332   2.729   1.508 -0.5784 -0.3429  0.3888
  896MPD2    C413183   3.370   2.697   1.635 -0.7083 -0.1343 -0.0002
  896MPD2    C513184   3.491   2.741   1.681 -0.7967  0.3198 -0.4648
  896MPD2     H13185   3.383   2.814   1.318 -0.5408 -0.4884 -0.4972
  896MPD2    H113186   3.309   2.640   1.704 -1.2990  0.0449 -0.3806
  896MPD2    H213187   3.652   2.884   1.647 -1.0440  2.3625 -0.0188
  896MPD2    H313188   3.527   2.720   1.781 -0.3645  1.0711 -0.4658
  896MPD2     N13189   3.210   2.690   1.454  0.8389  0.7239 -0.0979
  896MPD2    H513190   3.193   2.699   1.354  0.3502  1.4578  0.0534
  896MPD2    N113191   3.610   2.936   1.396  0.1037 -0.4312  0.1399
  896MPD2    H713192   3.707   2.949   1.422 -0.1776 -0.1803  1.0452
  897MPD2     C13193   4.575   4.525  10.771 -0.3565 -0.1342  0.1324
  897MPD2    C113194   4.513   4.644  10.753 -0.5102  0.1347  0.4717
  897MPD2    C213195   4.387   4.663  10.813 -0.5399 -0.6476 -0.2322
  897MPD2    C313196   4.325   4.559  10.882 -0.4228 -0.1196 -0.3289
  897MPD2    C413197   4.396   4.441  10.903  0.0006  0.0774  0.3380
  897MPD2    C513198   4.521   4.425  10.846 -0.0991  0.3754 -0.0033
  897MPD2     H13199   4.319   0.002  10.785  0.1683  0.1587  0.3271
  897MPD2    H113200   4.352   4.357  10.956  0.1920  0.5086  1.1754
  897MPD2    H213201   4.676   4.509  10.733 -0.1326  0.7572  0.3491
  897MPD2    H313202   4.577   4.336  10.873 -1.4265 -0.4789 -0.0541
  897MPD2     N13203   4.193   4.582  10.925  0.7121  0.0758 -0.1611
  897MPD2    H513204   4.156   4.675  10.912 -0.8044 -0.2847  1.5134
  897MPD2    N113205   4.572   0.004  10.674 -0.1280 -0.2999 -0.1044
  897MPD2    H713206   4.648   4.724  10.610 -0.7237  2.7177 -1.7897
  898MPD2     C13207   0.625   0.318   0.346 -0.7087  0.3868  0.2160
  898MPD2    C113208   0.723   0.276   0.257 -0.2695 -0.1719  0.1374
  898MPD2    C213209   0.807   0.373   0.196 -0.7770  0.1536  0.2938
  898MPD2    C313210   0.790   0.506   0.212  0.0151 -0.1478  0.9884
  898MPD2    C413211   0.688   0.545   0.298 -0.1862  0.2899 -0.2269
  898MPD2    C513212   0.610   0.456   0.366  0.6722  0.1256  0.2801
  898MPD2     H13213   0.881   0.344   0.123 -3.2686  0.3069 -2.2996
  898MPD2    H113214   0.683   0.649   0.328 -1.7893  0.6446 -1.7228
  898MPD2    H213215   0.589   0.250   0.422 -1.1166  0.2428 -0.1005
  898MPD2    H313216   0.549   0.496   0.446  0.9620  2.0950 -0.4725
  898MPD2     N13217   0.880   0.591   0.143 -0.1040  0.2913 -0.0456
  898MPD2    H513218   0.962   0.550   0.100  0.2914  0.1208  0.8756
  898MPD2    N113219   0.761   0.144   0.233 -0.0917  0.0394 -0.1707
  898MPD2    H713220   0.811   0.129   0.146  1.7507  2.0395  0.5315
  899MPD2     C13221   2.119   1.050  17.274 -0.1102 -0.1935  0.1216
  899MPD2    C113222   2.213   1.116  17.352  0.4321 -0.4957  0.2767
  899MPD2    C213223   2.222   1.075  17.485 -0.0895  0.5090  0.1031
  899MPD2    C313224   2.131   0.985  17.542 -0.3406  0.4342  0.3254
  899MPD2    C413225   2.030   0.938  17.462 -0.4716 -0.3842  0.3234
  899MPD2    C513226   2.022   0.969  17.328  0.7514 -0.2851  0.3638
  899MPD2     H13227   2.312   1.095  17.542 -1.8759  1.2804  2.6294
  899MPD2    H113228   1.952   0.873  17.501 -0.0983 -2.7327 -2.9002
  899MPD2    H213229   2.117   1.072  17.168  0.8210 -0.5219  0.0372
  899MPD2    H313230   1.944   0.918  17.272 -0.0499  1.6103 -0.2376
  899MPD2     N13231   2.129   0.951  17.674 -0.4154 -0.2594 -0.2918
  899MPD2    H513232   2.045   0.903  17.704  1.0858 -2.4264  0.4344
  899MPD2    N113233   2.298   1.210  17.292  0.3958 -0.2361 -0.1525
  899MPD2    H713234   2.283   1.228  17.193 -0.1172 -1.3026 -0.2703
  900MPD2     C13235   1.489   2.815  12.976 -0.6073  0.3392  0.4543
  900MPD2    C113236   1.546   2.730  12.887 -0.7818 -0.6571 -0.0485
  900MPD2    C213237   1.470   2.647  12.804  0.4253 -0.0452  0.0704
  900MPD2    C313238   1.336   2.627  12.836  0.2894  0.3859 -0.8744
  900MPD2    C413239   1.276   2.714  12.934  0.3685 -1.0175  0.2581
  900MPD2    C513240   1.356   2.806  13.004 -0.5020  0.2001 -0.9621
  900MPD2     H13241   1.508   2.583  12.725  0.7734  1.3860 -0.9107
  900MPD2    H113242   1.170   2.706  12.958  0.3712 -1.9388 -0.0510
  900MPD2    H213243   1.550   2.878  13.040 -0.6920  1.5851 -0.6734
  900MPD2    H313244   1.311   2.866  13.082 -0.3830 -1.4148  0.3510
  900MPD2     N13245   1.260   2.527  12.769  0.0798 -0.1085  0.1173
  900MPD2    H513246   1.309   2.473  12.699 -0.4303  0.4693 -0.6811
  900MPD2    N113247   1.688   2.737  12.871 -0.2159 -0.1326 -0.3720
  900MPD2    H713248   1.735   2.786  12.947 -0.4189 -0.3124 -0.1332
  901MPD2     C13249   2.272   2.069  13.232 -0.2215 -0.0289 -0.1036
  901MPD2    C113250   2.255   2.050  13.093 -0.0673  0.9266  0.1352
  901MPD2    C213251   2.215   2.165  13.025  0.0211  0.2303  0.2889
  901MPD2    C313252   2.188   2.290  13.084  0.0098 -0.0224  0.0115
  901MPD2    C413253   2.209   2.300  13.223  0.1509 -0.2300  0.3472
  901MPD2    C513254   2.249   2.192  13.293  0.4758 -0.4429 -0.5542
  901MPD2     H13255   2.190   2.159  12.920  2.7035  1.7890 -0.4273
  901MPD2    H113256   2.201   2.396  13.274 -2.2088 -1.5475  2.4690
  901MPD2    H213257   2.309   1.985  13.289 -0.2968 -1.3140 -1.9611
  901MPD2    H313258   2.268   2.209  13.399  0.4842  1.0759 -0.7997
  901MPD2     N13259   2.138   2.394  13.013  0.1894 -0.4419 -0.1122
  901MPD2    H513260   2.123   2.369  12.915 -1.7119  1.5896 -0.3393
  901MPD2    N113261   2.266   1.920  13.043  0.8313 -0.8371 -0.1145
  901MPD2    H713262   2.324   1.852  13.092  2.4974  0.4709 -0.2625
  902MPD2     C13263   1.465   0.492  12.495  0.0157 -0.5058  0.3358
  902MPD2    C113264   1.384   0.588  12.431 -1.1760 -0.0591 -0.3598
  902MPD2    C213265   1.353   0.560  12.295 -0.0033  0.1424 -0.1251
  902MPD2    C313266   1.394   0.447  12.225  0.1638  0.0816 -0.7102
  902MPD2    C413267   1.481   0.359  12.286 -0.8924  0.2782 -0.7623
  902MPD2    C513268   1.503   0.381  12.423  0.0055  0.1541  0.0180
  902MPD2     H13269   1.294   0.631  12.238 -1.4934 -0.7008  0.3810
  902MPD2    H113270   1.506   0.266  12.235  2.0634  0.8960 -0.4681
  902MPD2    H213271   1.502   0.496  12.596 -0.6671  0.2242  0.5574
  902MPD2    H313272   1.567   0.316  12.483  1.3983  1.6226  0.1344
  902MPD2     N13273   1.340   0.434  12.095  0.4366 -0.2778 -0.4621
  902MPD2    H513274   1.274   0.504  12.062 -0.1312 -0.3460  0.5231
  902MPD2    N113275   1.326   0.699  12.500 -0.3953 -0.4078 -0.0328
  902MPD2    H713276   1.350   0.698  12.599 -1.0582  3.0016  0.1640
  903MPD2     C13277   0.955   0.883  11.640 -0.0345  0.2682  0.1038
  903MPD2    C113278   0.912   0.771  11.715  0.0743 -0.1987  0.1708
  903MPD2    C213279   0.801   0.782  11.787  0.2876  0.6349  0.0653
  903MPD2    C313280   0.721   0.896  11.787 -0.2819 -0.1008  1.0835
  903MPD2    C413281   0.773   1.012  11.731  0.9025  0.7466  0.0995
  903MPD2    C513282   0.885   1.001  11.653 -0.1248 -0.2228 -0.2451
  903MPD2     H13283   0.764   0.697  11.842  0.8494 -0.0415 -0.6079
  903MPD2    H113284   0.724   1.108  11.739  1.4445  1.0697 -0.4718
  903MPD2    H213285   1.045   0.881  11.579  0.3178  1.3129  0.5851
  903MPD2    H313286   0.914   1.087  11.595  0.2374  2.0858  3.3582
  903MPD2     N13287   0.598   0.894  11.861  0.0860 -0.1786 -0.4995
  903MPD2    H513288   0.552   0.809  11.890 -2.2879  1.3684  0.3275
  903MPD2    N113289   0.994   0.657  11.710 -0.3462 -0.7674 -0.2720
  903MPD2    H713290   1.060   0.650  11.634 -0.8754  0.7780 -0.8778
  904MPD2     C13291   0.556   4.055  14.289  0.2939 -0.0077 -0.2449
  904MPD2    C113292   0.558   4.145  14.189  1.2515 -0.6986  0.8213
  904MPD2    C213293   0.675   4.166  14.114  0.2910 -0.1597 -0.3657
  904MPD2    C313294   0.784   4.089  14.139  0.6943 -0.7253 -0.1295
  904MPD2    C413295   0.785   3.994  14.242 -0.0848  0.2992  0.6144
  904MPD2    C513296   0.670   3.986  14.314 -0.1271 -0.7215 -1.0352
  904MPD2     H13297   0.672   4.241  14.036  0.4373  0.8139  0.5693
  904MPD2    H113298   0.875   3.938  14.262 -1.1106 -1.2959  0.7472
  904MPD2    H213299   0.467   4.026  14.344  1.0602  0.1975  1.0899
  904MPD2    H313300   0.664   3.918  14.398 -0.8974  0.4924 -0.1043
  904MPD2     N13301   0.892   4.111  14.050  0.2313 -0.1155  0.0465
  904MPD2    H513302   0.879   4.178  13.975 -2.9176  1.2886  1.8795
  904MPD2    N113303   0.443   4.227  14.166  0.2512 -0.0737 -0.1109
  904MPD2    H713304   0.452   4.292  14.089  1.8760  0.3113  0.4117
  905MPD2     C13305   0.140   0.095  13.709 -0.1816 -0.1759  0.1186
  905MPD2    C113306   0.192   4.709  13.733  0.2639 -0.4430 -0.7690
  905MPD2    C213307   0.264   4.650  13.634  0.2554 -0.4984 -0.3707
  905MPD2    C313308   0.297   4.712  13.518  0.3767  0.3443  0.4960
  905MPD2    C413309   0.248   0.097  13.492  0.0584 -0.1013  0.7972
  905MPD2    C513310   0.173   0.155  13.594 -0.1802  0.3669 -0.6215
  905MPD2     H13311   0.313   4.555  13.649  2.8809  0.8539 -0.2867
  905MPD2    H113312   0.268   0.146  13.398  2.4016 -1.4472  0.5985
  905MPD2    H213313   0.079   0.142  13.786 -1.7185 -1.1984 -0.4817
  905MPD2    H313314   0.136   0.256  13.577 -0.0762  0.2810 -1.3476
  905MPD2     N13315   0.374   4.638  13.433 -0.5268 -0.1699  0.4954
  905MPD2    H513316   0.385   4.543  13.465  1.0844 -0.2112 -0.2133
  905MPD2    N113317   0.173   4.648  13.854 -0.8021 -0.1528 -0.2661
  905MPD2    H713318   0.142   4.714  13.925 -0.6065 -0.6126  0.2469
  906MPD2     C13319   2.967   0.525  11.165 -0.0191  0.3748  0.8160
  906MPD2    C113320   2.980   0.405  11.103 -0.5344  0.6874 -0.0262
  906MPD2    C213321   2.935   0.287  11.165  0.2904 -0.0431 -0.6834
  906MPD2    C313322   2.882   0.295  11.300  0.3045 -0.3305 -0.0342
  906MPD2    C413323   2.875   0.418  11.361  0.0184  0.4286 -0.0974
  906MPD2    C513324   2.912   0.530  11.293 -0.4317 -0.4939  0.2319
  906MPD2     H13325   2.944   0.192  11.114 -0.1535 -0.3661 -0.1591
  906MPD2    H113326   2.838   0.430  11.463  1.2755 -4.8840  0.9777
  906MPD2    H213327   3.007   0.611  11.114 -1.3408  0.1009 -0.6672
  906MPD2    H313328   2.916   0.626  11.344 -1.9376 -0.0713 -0.4592
  906MPD2     N13329   2.831   0.186  11.367 -0.6510  1.0634 -0.3502
  906MPD2    H513330   2.792   0.196  11.460  0.5451  1.6000  0.0948
  906MPD2    N113331   3.041   0.382  10.976 -0.3101 -0.2434 -0.2309
  906MPD2    H713332   3.033   0.287  10.942  0.0233 -0.2822 -0.2008
  907MPD2     C13333   1.667   3.755  15.849 -0.1152 -0.1546 -0.0205
  907MPD2    C113334   1.731   3.645  15.797  0.0702 -0.1221 -0.2049
  907MPD2    C213335   1.864   3.635  15.807 -0.0224  0.2324 -0.0503
  907MPD2    C313336   1.932   3.730  15.876  0.3295  0.2831  0.1362
  907MPD2    C413337   1.871   3.836  15.943  0.3021  0.1916 -0.6496
  907MPD2    C513338   1.732   3.848  15.924  0.0386 -0.4203 -0.3264
  907MPD2     H13339   1.913   3.552  15.758 -0.0894 -0.4965  1.1003
  907MPD2    H113340   1.930   3.906  16.001  1.3308 -1.9712  0.9250
  907MPD2    H213341   1.560   3.769  15.844 -0.5419 -3.5459 -0.5036
  907MPD2    H313342   1.682   3.929  15.976  0.1518 -0.1973 -0.5658
  907MPD2     N13343   2.069   3.710  15.882 -0.4349 -0.3181 -0.6167
  907MPD2    H513344   2.100   3.643  15.812  0.8507 -0.8227  0.4251
  907MPD2    N113345   1.662   3.551  15.711  0.6377  0.1163  0.2312
  907MPD2    H713346   1.714   3.471  15.678  0.7214 -0.0775  0.8285
  908MPD2     C13347   4.467   4.577   9.868 -0.3252  0.1822 -0.0504
  908MPD2    C113348   4.527   4.525   9.978  0.0151  0.0710 -0.9540
  908MPD2    C213349   4.560   4.614  10.081 -0.2075  0.4120 -0.2151
  908MPD2    C313350   4.532   0.008  10.080  0.3392  0.1597 -0.3018
  908MPD2    C413351   4.476   0.065   9.963 -0.3341  0.1176 -0.1360
  908MPD2    C513352   4.454   4.713   9.858 -0.0614 -0.5249 -0.2639
  908MPD2     H13353   4.623   4.583  10.164 -0.5338 -0.8259 -0.4320
  908MPD2    H113354   4.469   0.169   9.935 -1.4651  0.7040  2.3403
  908MPD2    H213355   4.435   4.513   9.786 -0.4705  1.2586 -0.8389
  908MPD2    H313356   4.403   0.007   9.770  1.3710  0.4602 -0.7066
  908MPD2     N13357   4.574   0.085  10.186  0.3962 -0.2113 -0.0929
  908MPD2    H513358   4.638   0.045  10.254 -0.3357  0.7167  1.1426
  908MPD2    N113359   4.529   4.384   9.986  0.0733  0.5461  0.0188
  908MPD2    H713360   4.495   4.330   9.907  2.4684  0.3675 -0.8977
  909MPD2     C13361   0.107   2.583  12.110  0.5111  0.5306 -0.7530
  909MPD2    C113362   0.084   2.717  12.082 -0.0763  0.2577  0.2671
  909MPD2    C213363   4.718   2.777  12.143 -0.2102  0.1116  0.3524
  909MPD2    C313364   4.636   2.703  12.233  0.5028  0.3779 -0.1430
  909MPD2    C413365   4.662   2.569  12.255  0.0939  0.2062 -0.3199
  909MPD2    C513366   0.029   2.512  12.196 -0.4441 -0.0254  1.0973
  909MPD2     H13367   4.702   2.883  12.125  3.2363  0.5950  0.0877
  909MPD2    H113368   4.589   2.510  12.310 -0.7602 -0.3268 -2.0112
  909MPD2    H213369   0.180   2.519  12.063 -1.6894 -1.5157 -1.3877
  909MPD2    H313370   0.041   2.405  12.206 -0.2741 -0.2328 -1.2884
  909MPD2     N13371   4.530   2.779  12.299 -0.1469  0.2574 -0.0194
  909MPD2    H513372   4.540   2.879  12.284 -2.1426  0.6918  1.6244
  909MPD2    N113373   0.157   2.779  11.984 -0.0154 -0.0910  0.1409
  909MPD2    H713374   0.134   2.878  11.980 -1.6025 -0.5220 -1.5494
  910MPD2     C13375   1.177   4.235  16.620 -0.3584  1.3192 -0.3722
  910MPD2    C113376   1.183   4.135  16.517 -0.4986  0.2702 -0.0282
  910MPD2    C213377   1.090   4.140  16.410  0.0951  0.0237  0.1627
  910MPD2    C313378   0.998   4.237  16.398 -0.4741  0.5956  0.0268
  910MPD2    C413379   0.994   4.325  16.502 -0.4773 -0.0060  0.6695
  910MPD2    C513380   1.081   4.327  16.612  0.6510 -0.7438 -0.3792
  910MPD2     H13381   1.097   4.060  16.337  1.4211  3.0548 -3.0446
  910MPD2    H113382   0.930   4.413  16.495 -0.1889 -0.0584 -2.8836
  910MPD2    H213383   1.252   4.236  16.698  0.6495 -1.6105 -1.3086
  910MPD2    H313384   1.085   4.407  16.685  1.9224 -0.9664 -0.2102
  910MPD2     N13385   0.902   4.251  16.292 -0.2142 -0.5331  0.2009
  910MPD2    H513386   0.843   4.332  16.302 -0.8630 -0.9922  0.0978
  910MPD2    N113387   1.280   4.035  16.515  0.7039 -0.3872  0.0542
  910MPD2    H713388   1.275   3.969  16.439 -0.2357  0.5266 -0.6799
  911MPD2     C13389   3.657   4.741  16.573  0.4674  0.3741 -0.0470
  911MPD2    C113390   3.714   0.080  16.669  0.2415  0.0607  0.1644
  911MPD2    C213391   3.689   0.217  16.659  0.2227 -0.0725  1.1080
  911MPD2    C313392   3.604   0.266  16.559  0.2075 -0.6271 -0.8022
  911MPD2    C413393   3.561   0.180  16.460 -0.2389 -0.3452 -0.5826
  911MPD2    C513394   3.596   0.047  16.463  0.3234 -0.2226  0.2892
  911MPD2     H13395   3.734   0.279  16.736  2.9217  0.7655 -1.1617
  911MPD2    H113396   3.504   0.225  16.380  1.6125  3.7477  0.4137
  911MPD2    H213397   3.682   4.635  16.574 -3.8161 -0.6540 -0.4949
  911MPD2    H313398   3.559   4.723  16.384 -2.3026 -0.0478  1.3659
  911MPD2     N13399   3.560   0.396  16.533  0.1199  0.1069  0.2668
  911MPD2    H513400   3.498   0.405  16.453 -1.7522  0.6710  1.8016
  911MPD2    N113401   3.799   0.019  16.757 -0.5252  0.2163 -0.3364
  911MPD2    H713402   3.794   4.658  16.752  2.3813  0.2053 -3.4551
  912MPD2     C13403   3.533   0.306  15.975  0.6013  0.0740 -0.4053
  912MPD2    C113404   3.447   0.317  16.082  0.3634  0.0828  0.4688
  912MPD2    C213405   3.399   0.200  16.140  1.1877 -0.6110  0.5454
  912MPD2    C313406   3.431   0.076  16.087  0.2426 -0.2952  0.2805
  912MPD2    C413407   3.500   0.065  15.970 -0.1442 -0.7825 -0.0113
  912MPD2    C513408   3.555   0.177  15.922 -1.0582  0.2986 -0.4777
  912MPD2     H13409   3.320   0.204  16.214  0.3748  2.0319 -0.4846
  912MPD2    H113410   3.528   4.709  15.931 -0.5347 -0.2688 -1.5589
  912MPD2    H213411   3.575   0.398  15.936  0.0843  1.0430  1.3321
  912MPD2    H313412   3.631   0.176  15.845 -2.2808  0.0800 -1.6787
  912MPD2     N13413   3.374   4.712  16.163 -1.1107 -0.3940 -0.0228
  912MPD2    H513414   3.321   0.003  16.243 -0.1514  0.2788  0.3392
  912MPD2    N113415   3.427   0.450  16.136  0.6459 -0.0596  0.3127
  912MPD2    H713416   3.466   0.528  16.085  0.1682  0.0603  0.1326
  913MPD2     C13417   4.070   1.761  10.375  0.4495 -0.4841 -0.1480
  913MPD2    C113418   4.172   1.750  10.463  0.5105  0.2653 -0.2398
  913MPD2    C213419   4.277   1.845  10.459 -0.3169 -0.0348 -0.1877
  913MPD2    C313420   4.266   1.959  10.379  0.6102  0.2755 -0.1021
  913MPD2    C413421   4.149   1.976  10.302  0.0297 -0.0397  0.6151
  913MPD2    C513422   4.060   1.879  10.301  1.3122 -0.3378 -0.0591
  913MPD2     H13423   4.375   1.819  10.500  0.1346  0.7566 -0.7657
  913MPD2    H113424   4.122   2.073  10.263  0.2319  0.1053  0.8348
  913MPD2    H213425   3.994   1.684  10.369  0.2100 -0.1108 -2.1675
  913MPD2    H313426   3.969   1.898  10.247  0.1798  1.4611  2.4601
  913MPD2     N13427   4.371   2.061  10.370  0.1313 -0.8450  0.4619
  913MPD2    H513428   4.353   2.133  10.301 -1.3903 -1.6288  0.0448
  913MPD2    N113429   4.186   1.626  10.535  0.3445 -0.4885  0.1763
  913MPD2    H713430   4.127   1.549  10.505 -1.4858  1.3723 -0.9331
  914MPD2     C13431   1.990   1.688  12.089  0.1255  0.1030 -0.0548
  914MPD2    C113432   1.968   1.801  12.165  0.0039 -0.0220  0.0304
  914MPD2    C213433   2.004   1.805  12.297 -0.6160  0.5130  0.1868
  914MPD2    C313434   2.065   1.693  12.358 -0.5138  0.2047  0.6875
  914MPD2    C413435   2.087   1.583  12.284  0.6000  0.5714 -0.2255
  914MPD2    C513436   2.044   1.578  12.151 -0.8215 -0.4745  0.2221
  914MPD2     H13437   1.986   1.888  12.364 -0.7429  0.3470  0.3566
  914MPD2    H113438   2.123   1.493  12.332  0.5537  0.8566  0.3396
  914MPD2    H213439   1.958   1.677  11.987 -1.2172  2.0904  0.1533
  914MPD2    H313440   2.063   1.486  12.098 -0.9235 -1.4600  1.9253
  914MPD2     N13441   2.103   1.698  12.497 -0.3916 -0.0916 -0.3176
  914MPD2    H513442   2.102   1.789  12.541 -2.7983 -0.4958  0.4922
  914MPD2    N113443   1.920   1.918  12.100  0.8768 -0.1390 -0.1743
  914MPD2    H713444   1.932   1.925  11.999 -0.9960 -2.0280 -0.5174
  915MPD2     C13445   0.323   1.299  15.908  0.1647 -0.6577  0.2345
  915MPD2    C113446   0.233   1.404  15.902 -0.2560  0.1648  0.6181
  915MPD2    C213447   0.190   1.462  16.024  0.8866  0.3689  1.1566
  915MPD2    C313448   0.236   1.413  16.145 -0.4838  0.0425  0.1266
  915MPD2    C413449   0.327   1.304  16.143 -0.1063 -0.1238  0.6215
  915MPD2    C513450   0.368   1.249  16.027 -0.2105 -0.4148 -0.5983
  915MPD2     H13451   0.109   1.534  16.031  0.7247  0.4808 -1.8494
  915MPD2    H113452   0.383   1.277  16.232 -0.1699 -0.8332  0.4392
  915MPD2    H213453   0.360   1.257  15.816 -2.0285 -1.2026 -0.3985
  915MPD2    H313454   0.426   1.158  16.032 -0.2199 -0.2492  2.7447
  915MPD2     N13455   0.174   1.458  16.268 -0.5995 -0.1015 -0.3449
  915MPD2    H513456   0.100   1.527  16.263 -2.1690 -1.8405 -0.7972
  915MPD2    N113457   0.164   1.426  15.778 -0.1086 -0.7749 -0.1888
  915MPD2    H713458   0.198   1.371  15.700  1.1850 -0.6427  0.2882
  916MPD2     C13459   3.073   0.212  16.055 -0.2687  0.0902  0.4449
  916MPD2    C113460   3.024   0.081  16.075 -0.2871 -0.9801  0.0002
  916MPD2    C213461   3.044   4.730  15.978  0.6327 -0.4706 -0.2470
  916MPD2    C313462   3.106   0.014  15.856 -0.2816 -0.3411  0.2447
  916MPD2    C413463   3.162   0.140  15.836  0.3568  0.4511 -0.4999
  916MPD2    C513464   3.144   0.236  15.940  0.1384  0.6888 -0.4240
  916MPD2     H13465   2.990   4.636  15.989 -1.0178  0.6363  1.2095
  916MPD2    H113466   3.216   0.161  15.744 -1.4355  0.0727 -1.6609
  916MPD2    H213467   3.071   0.283  16.136  1.0291  0.9850 -0.3138
  916MPD2    H313468   3.192   0.333  15.941  1.2806  0.1195 -0.3777
  916MPD2     N13469   3.123   4.641  15.774 -0.3140  0.3135  0.0004
  916MPD2    H513470   3.067   4.562  15.802 -1.9355  0.2989 -3.3073
  916MPD2    N113471   2.954   0.060  16.196  0.4545 -0.3447 -0.0142
  916MPD2    H713472   2.935   0.147  16.245  1.9344 -0.4682  0.7803
  917MPD2     C13473   3.067   2.049  11.159 -0.5624 -0.5369 -0.0126
  917MPD2    C113474   3.092   2.152  11.243 -0.1646 -0.4038 -0.3186
  917MPD2    C213475   3.151   2.266  11.183 -0.2416 -0.0974  0.1966
  917MPD2    C313476   3.186   2.271  11.050  0.4082 -0.4073  0.9542
  917MPD2    C413477   3.155   2.159  10.977 -0.3305 -0.1098 -0.5494
  917MPD2    C513478   3.094   2.051  11.031  0.4019 -0.1422  0.0326
  917MPD2     H13479   3.176   2.345  11.253  1.9655  0.2651 -0.9763
  917MPD2    H113480   3.179   2.158  10.871  3.8769  1.2088  0.4084
  917MPD2    H213481   3.026   1.959  11.202  0.8030 -2.0304 -1.8137
  917MPD2    H313482   3.051   1.975  10.966  0.7155 -0.5343  0.2880
  917MPD2     N13483   3.252   2.376  10.978 -0.7454 -0.2076  0.0596
  917MPD2    H513484   3.273   2.361  10.880 -1.0559 -1.8631  0.2444
  917MPD2    N113485   3.063   2.138  11.381 -0.2303  0.0310 -0.1132
  917MPD2    H713486   3.011   2.053  11.400  0.9389 -0.2938  1.6449
  918MPD2     C13487   3.260   2.732  12.215  0.2112 -0.1529  0.4598
  918MPD2    C113488   3.335   2.627  12.178  0.1245  0.8944 -0.9957
  918MPD2    C213489   3.298   2.538  12.075  0.3074 -0.6887 -0.2310
  918MPD2    C313490   3.170   2.551  12.019  0.1261  0.2838  0.4219
  918MPD2    C413491   3.094   2.658  12.055  0.1441  0.4684  0.2041
  918MPD2    C513492   3.138   2.740  12.156 -0.5925 -0.7767 -0.6802
  918MPD2     H13493   3.353   2.451  12.039  1.6330 -0.9862  2.4930
  918MPD2    H113494   2.992   2.676  12.024 -0.3316 -0.1375  1.4364
  918MPD2    H213495   3.279   2.795  12.300  0.9808 -0.0138  0.1805
  918MPD2    H313496   3.056   2.805  12.188  0.5217 -0.4401  1.5178
  918MPD2     N13497   3.123   2.446  11.939  0.1011  0.2415 -0.2714
  918MPD2    H513498   3.188   2.375  11.908  1.2635  1.5830 -0.9414
  918MPD2    N113499   3.447   2.589  12.254 -0.0672 -0.3336  0.3836
  918MPD2    H713500   3.503   2.517  12.208 -1.6896 -1.3458 -0.0155
  919MPD2     C13501   4.062   1.641  12.071  0.6616 -0.3687 -0.2438
  919MPD2    C113502   3.979   1.571  11.990 -0.0052 -0.5792  0.0380
  919MPD2    C213503   3.979   1.590  11.854  0.6871  0.1831 -0.5325
  919MPD2    C313504   4.075   1.680  11.801 -0.2741  0.2102 -0.3192
  919MPD2    C413505   4.153   1.760  11.886 -0.5857  0.5247 -0.5701
  919MPD2    C513506   4.140   1.745  12.025  0.1234  0.1171  0.3550
  919MPD2     H13507   3.906   1.538  11.794 -0.0572 -0.0882  0.6090
  919MPD2    H113508   4.222   1.830  11.842  0.3530  0.3768  0.6976
  919MPD2    H213509   4.065   1.627  12.179  0.8951  1.0420 -0.0686
  919MPD2    H313510   4.196   1.806  12.095  1.1150 -0.6614  0.2435
  919MPD2     N13511   4.089   1.703  11.660  0.4742  0.4012  0.5161
  919MPD2    H513512   4.167   1.763  11.634 -0.9385  1.7271 -0.6530
  919MPD2    N113513   3.899   1.463  12.040 -0.8484 -0.0964 -0.3847
  919MPD2    H713514   3.851   1.399  11.976 -0.5642  1.7350 -2.4390
  920MPD2     C13515   4.082   2.404  10.930  0.0491 -0.1948 -0.1421
  920MPD2    C113516   4.048   2.291  10.862 -0.7974  0.2458 -0.4701
  920MPD2    C213517   4.057   2.163  10.917 -0.3904 -0.3397 -0.3481
  920MPD2    C313518   4.095   2.153  11.052  1.0864 -0.2080 -0.9519
  920MPD2    C413519   4.123   2.264  11.122 -0.7132 -0.0564  0.7099
  920MPD2    C513520   4.113   2.389  11.062 -0.7610 -0.0008  0.3659
  920MPD2     H13521   4.037   2.069  10.868 -1.0292 -1.4974  2.1082
  920MPD2    H113522   4.146   2.256  11.227 -3.5362  1.8333  1.4797
  920MPD2    H213523   4.074   2.503  10.887 -0.8350 -1.8469 -3.7949
  920MPD2    H313524   4.128   2.476  11.125  0.3172  1.2033 -1.5520
  920MPD2     N13525   4.097   2.026  11.112  0.7267 -0.4067 -0.0797
  920MPD2    H513526   4.099   1.952  11.042 -0.1784 -1.0182  0.5275
  920MPD2    N113527   4.008   2.286  10.728  1.0508  0.0009  0.5507
  920MPD2    H713528   3.993   2.193  10.689  1.5989  0.6778 -1.2785
  921MPD2     C13529   4.634   0.284  17.237 -0.1996  0.5248  0.4874
  921MPD2    C113530   4.627   0.193  17.129  0.0192  0.0342 -0.4753
  921MPD2    C213531   4.513   0.122  17.122  0.1441 -0.4714 -0.3151
  921MPD2    C313532   4.400   0.141  17.211 -0.5675 -0.9197  0.3213
  921MPD2    C413533   4.420   0.225  17.313 -0.4139 -0.6878 -0.4301
  921MPD2    C513534   4.531   0.304  17.324 -0.2510 -0.2080 -0.4082
  921MPD2     H13535   4.501   0.046  17.045 -0.3347 -0.6634 -0.0451
  921MPD2    H113536   4.337   0.257  17.375  0.8853  0.4207  0.7453
  921MPD2    H213537   4.724   0.343  17.246  0.0141  0.5276 -1.6369
  921MPD2    H313538   4.533   0.384  17.396  1.2655 -1.3522  0.8088
  921MPD2     N13539   4.271   0.077  17.199 -0.3673  0.0340  0.2957
  921MPD2    H513540   4.198   0.111  17.260 -0.3525  0.9152 -0.1657
  921MPD2    N113541   4.734   0.183  17.030  0.2639  0.6076  0.0731
  921MPD2    H713542   0.086   0.216  17.053  0.0251  1.5493 -0.3332
  922MPD2     C13543   0.754   2.586  17.147  0.2193  0.1170 -0.2850
  922MPD2    C113544   0.665   2.635  17.239  0.5867  0.8937  0.0060
  922MPD2    C213545   0.584   2.549  17.313 -0.1222  0.0587  0.7045
  922MPD2    C313546   0.593   2.410  17.307 -0.3609 -0.5987 -0.1273
  922MPD2    C413547   0.691   2.364  17.226 -0.2637 -0.0713 -0.3442
  922MPD2    C513548   0.765   2.450  17.150  0.8859  0.3548 -0.2119
  922MPD2     H13549   0.498   2.595  17.361 -1.5252 -0.1492 -1.6392
  922MPD2    H113550   0.699   2.259  17.200 -3.0004 -0.3634  0.0727
  922MPD2    H213551   0.809   2.644  17.074 -0.8411  0.5393 -0.7558
  922MPD2    H313552   0.840   2.407  17.085 -0.9189 -2.2064 -0.5842
  922MPD2     N13553   0.503   2.329  17.382  0.0822  0.4431  0.3597
  922MPD2    H513554   0.432   2.366  17.443 -0.3909 -2.9764  1.9011
  922MPD2    N113555   0.665   2.771  17.263 -0.1824  0.8830 -0.2662
  922MPD2    H713556   0.595   2.800  17.331 -0.7855 -0.4294 -0.3301
  923MPD2     C13557   1.402   0.421   8.985 -0.5642  0.4096  0.4652
  923MPD2    C113558   1.395   0.532   9.063  0.0546 -0.8563  0.3517
  923MPD2    C213559   1.500   0.559   9.147  0.4422 -0.0691  0.7619
  923MPD2    C313560   1.611   0.475   9.158  0.4083 -0.4611  0.4656
  923MPD2    C413561   1.615   0.358   9.080 -0.0614  0.3547 -0.3903
  923MPD2    C513562   1.512   0.338   8.989 -0.3445  0.1600  0.0385
  923MPD2     H13563   1.491   0.637   9.222  0.2657  2.0276 -1.4411
  923MPD2    H113564   1.685   0.277   9.096  0.8036  1.2908  0.5090
  923MPD2    H213565   1.325   0.399   8.912 -0.1686  2.8293 -0.6857
  923MPD2    H313566   1.501   0.243   8.937 -1.1714  0.6191 -0.6186
  923MPD2     N13567   1.708   0.484   9.262  0.3221  0.1324  0.0863
  923MPD2    H513568   1.761   0.400   9.281  0.2463 -0.5469 -2.6180
  923MPD2    N113569   1.279   0.617   9.053 -0.2838  0.0139  0.6726
  923MPD2    H713570   1.210   0.588   8.984 -0.6484 -1.5260  1.6819
  924MPD2     C13571   2.023   3.083  15.640 -0.3591  0.0873 -0.2340
  924MPD2    C113572   2.065   3.078  15.773  0.4341 -0.6921 -0.3021
  924MPD2    C213573   2.163   3.167  15.816 -0.3383 -0.6826  0.4850
  924MPD2    C313574   2.217   3.268  15.732  0.3242  0.1915  0.3904
  924MPD2    C413575   2.185   3.262  15.607  0.1896 -0.1902 -0.4800
  924MPD2    C513576   2.089   3.177  15.560 -0.1000  0.1451 -0.1624
  924MPD2     H13577   2.189   3.165  15.921  2.8589 -1.9150 -0.3162
  924MPD2    H113578   2.232   3.328  15.534  0.3047  0.9199  0.5899
  924MPD2    H213579   1.950   3.021  15.590 -0.5540  0.3003 -0.2116
  924MPD2    H313580   2.047   3.172  15.460 -1.7988 -0.6456  0.5852
  924MPD2     N13581   2.300   3.367  15.773 -0.6708  0.4445 -0.4496
  924MPD2    H513582   2.308   3.437  15.700 -1.8258 -0.2232 -1.2216
  924MPD2    N113583   2.006   2.987  15.862  0.5276  0.2471 -0.3055
  924MPD2    H713584   2.047   2.984  15.954  0.0586  0.6917 -0.0793
  925MPD2     C13585   0.994   0.541  15.113 -0.3504  0.1297 -0.1668
  925MPD2    C113586   0.902   0.620  15.040 -0.6208  0.0550 -0.0859
  925MPD2    C213587   0.772   0.643  15.088 -0.2727 -0.0368 -0.5468
  925MPD2    C313588   0.734   0.587  15.210 -0.5939 -1.2814 -0.2485
  925MPD2    C413589   0.830   0.527  15.286 -0.5729  0.0312 -0.4215
  925MPD2    C513590   0.957   0.498  15.237  0.0160  0.0176  0.1035
  925MPD2     H13591   0.703   0.703  15.029  1.1691 -0.0547 -2.2532
  925MPD2    H113592   0.810   0.485  15.384 -0.0656 -0.0964 -0.3729
  925MPD2    H213593   1.087   0.503  15.073 -0.7613 -1.7013  0.5961
  925MPD2    H313594   1.023   0.427  15.286  0.5850  2.2836  2.6644
  925MPD2     N13595   0.603   0.594  15.262 -0.1445 -0.2238 -0.2286
  925MPD2    H513596   0.577   0.530  15.336  5.0760 -0.0256  1.7684
  925MPD2    N113597   0.922   0.652  14.908  0.0534  0.0120  0.2576
  925MPD2    H713598   0.839   0.690  14.864  0.2229  1.2726  1.0253
  926MPD2     C13599   3.478   3.903  13.550 -0.8078 -0.0412 -0.4828
  926MPD2    C113600   3.556   4.004  13.593  0.2800  0.0521 -0.5636
  926MPD2    C213601   3.655   4.044  13.508  0.1874  0.0195 -0.7811
  926MPD2    C313602   3.673   3.994  13.379  0.8313  0.4030  1.3407
  926MPD2    C413603   3.578   3.915  13.331 -0.4930  0.6929 -0.0783
  926MPD2    C513604   3.483   3.869  13.419  0.0455 -1.2933  0.3315
  926MPD2     H13605   3.722   4.121  13.547  0.9431 -1.6273  1.1446
  926MPD2    H113606   3.582   3.870  13.233  0.2429 -1.3714  0.8938
  926MPD2    H213607   3.409   3.855  13.618 -0.5826  2.3936  1.4874
  926MPD2    H313608   3.415   3.794  13.379  0.8042 -1.6384 -0.3139
  926MPD2     N13609   3.783   4.031  13.300  0.3634  0.2787 -0.6058
  926MPD2    H513610   3.785   3.983  13.210 -1.0284  0.7972 -0.9121
  926MPD2    N113611   3.535   4.071  13.718 -0.2664 -0.7119 -0.3068
  926MPD2    H713612   3.591   4.151  13.746 -0.6278 -0.1511 -1.1936
  927MPD2     C13613   3.745   1.207  17.688  0.8020 -0.0376  0.1266
  927MPD2    C113614   3.781   1.265   0.047 -0.0825  0.3092  0.6223
  927MPD2    C213615   3.913   1.265   0.080  0.1527  0.5115 -0.1201
  927MPD2    C313616   4.010   1.219  17.754  0.8682 -0.0223  0.2756
  927MPD2    C413617   3.968   1.164  17.638 -0.7663 -0.5762 -0.1065
  927MPD2    C513618   3.839   1.153  17.608 -0.0870 -0.8881  0.2761
  927MPD2     H13619   3.946   1.304   0.176 -0.0921  0.3967  0.0110
  927MPD2    H113620   4.034   1.112  17.569  0.7622  1.1512  0.0579
  927MPD2    H213621   3.646   1.195  17.646  0.1150  0.4351  1.6100
  927MPD2    H313622   3.807   1.096  17.521  1.1407  0.7497 -1.2494
  927MPD2     N13623   4.153   1.232   0.027 -0.5846  0.3497  0.5993
  927MPD2    H513624   4.181   1.256   0.121  0.5089 -2.1408  0.9273
  927MPD2    N113625   3.686   1.298   0.146 -0.0847 -0.1026  0.6734
  927MPD2    H713626   3.717   1.348   0.229 -0.8164 -0.1413  0.9770
  928MPD2     C13627   1.890   3.984   0.625  0.8736 -0.0807  0.2953
  928MPD2    C113628   1.825   4.102   0.594  1.1025  0.6515  0.0431
  928MPD2    C213629   1.884   4.185   0.500 -0.0589 -0.1177  0.7313
  928MPD2    C313630   2.011   4.169   0.451 -0.2305  0.5453 -0.5793
  928MPD2    C413631   2.077   4.061   0.503 -0.6670 -0.5521 -0.4125
  928MPD2    C513632   2.021   3.969   0.585 -0.1595  0.3296  0.0987
  928MPD2     H13633   1.835   4.280   0.478 -1.0879 -0.7049  0.4902
  928MPD2    H113634   2.181   4.042   0.480 -0.0103  0.7116  1.5175
  928MPD2    H213635   1.856   3.907   0.693 -0.8122  2.4227  2.2650
  928MPD2    H313636   2.066   3.872   0.604 -2.3086 -1.0458 -1.8519
  928MPD2     N13637   2.077   4.256   0.363  0.2259 -0.0177 -0.7723
  928MPD2    H513638   2.178   4.253   0.371  0.2112  1.0790 -0.0689
  928MPD2    N113639   1.693   4.111   0.652 -0.1533  0.3332  0.1742
  928MPD2    H713640   1.660   4.031   0.705 -0.0456 -0.6235 -1.1822
  929MPD2     C13641   1.763   0.051   9.482 -0.3063  0.4459  0.1618
  929MPD2    C113642   1.707   0.122   9.588 -0.2593 -0.5416  1.2034
  929MPD2    C213643   1.608   0.207   9.551 -0.4926  0.2883 -0.4664
  929MPD2    C313644   1.541   0.207   9.431 -0.4049 -0.6332  0.1230
  929MPD2    C413645   1.584   0.121   9.335  0.0056 -0.2297 -0.1677
  929MPD2    C513646   1.698   0.046   9.367  0.3103  0.9699  0.3226
  929MPD2     H13647   1.564   0.275   9.623  1.3847 -0.7722  1.6773
  929MPD2    H113648   1.534   0.116   9.238 -0.8808  0.9052  0.2313
  929MPD2    H213649   1.853   4.732   9.483  0.2527  1.3118  1.5282
  929MPD2    H313650   1.738   4.726   9.287 -0.3472  0.9061  0.0423
  929MPD2     N13651   1.434   0.289   9.399  0.7454  0.1984  0.1086
  929MPD2    H513652   1.383   0.282   9.312  1.8922 -1.0142 -0.4549
  929MPD2    N113653   1.763   0.115   9.720  0.9358  0.5180  0.0331
  929MPD2    H713654   1.841   0.051   9.731  0.4697  0.0530  0.6387
  930MPD2     C13655   3.662   1.910  14.343  0.0726 -0.2572 -0.3137
  930MPD2    C113656   3.574   1.994  14.269 -0.8122 -0.8309 -0.4636
  930MPD2    C213657   3.443   1.955  14.247 -0.3194 -0.1656 -0.5433
  930MPD2    C313658   3.402   1.834  14.302 -0.5513 -0.2181 -0.1077
  930MPD2    C413659   3.483   1.749  14.370  0.5654 -0.1038 -0.7428
  930MPD2    C513660   3.609   1.789  14.390 -0.7077 -0.8939 -0.0915
  930MPD2     H13661   3.373   2.031  14.215  1.9759  2.2970  0.3800
  930MPD2    H113662   3.447   1.657  14.415 -0.9158  1.2888  0.9484
  930MPD2    H213663   3.767   1.934  14.352 -0.1055  0.3394  0.2264
  930MPD2    H313664   3.676   1.718  14.436 -0.0094 -0.7422 -0.8680
  930MPD2     N13665   3.270   1.791  14.294 -0.6503 -0.8082 -0.1104
  930MPD2    H513666   3.238   1.729  14.368  1.8490 -1.8205  0.1240
  930MPD2    N113667   3.625   2.116  14.218 -0.0861 -0.2151 -0.1857
  930MPD2    H713668   3.720   2.136  14.246  0.1240 -1.1684 -0.2254
  931MPD2     C13669   3.477   1.653   0.882  0.6115 -0.9839 -0.1393
  931MPD2    C113670   3.510   1.534   0.819  0.1116  0.6302  0.4489
  931MPD2    C213671   3.571   1.431   0.884  0.3541  0.8941 -0.1504
  931MPD2    C313672   3.586   1.443   1.027 -0.0156 -0.0108  0.0461
  931MPD2    C413673   3.553   1.566   1.084 -0.5074  0.6835  0.0716
  931MPD2    C513674   3.506   1.673   1.013 -0.1329 -0.2196 -0.2995
  931MPD2     H13675   3.592   1.347   0.819  0.8627  0.4050  0.6485
  931MPD2    H113676   3.565   1.579   1.191  1.5146  0.5168 -0.1176
  931MPD2    H213677   3.425   1.730   0.827  1.2538  0.6621  1.5719
  931MPD2    H313678   3.504   1.777   1.043 -1.1577 -0.7698  1.5108
  931MPD2     N13679   3.621   1.335   1.106  0.0160 -0.3335  0.3009
  931MPD2    H513680   3.610   1.348   1.206 -0.0873 -3.8929  0.7584
  931MPD2    N113681   3.476   1.526   0.679 -0.0418 -0.1935 -0.3272
  931MPD2    H713682   3.428   1.608   0.642 -0.2335 -0.5059 -0.7666
  932MPD2     C13683   0.674   1.345  10.832 -0.2307 -0.4663 -0.1241
  932MPD2    C113684   0.818   1.351  10.846 -0.1648 -0.4405 -0.3082
  932MPD2    C213685   0.890   1.245  10.795  0.3697  0.7254 -0.4019
  932MPD2    C313686   0.830   1.136  10.738  0.5151 -0.8763 -0.3663
  932MPD2    C413687   0.694   1.133  10.729 -0.0667 -0.0357  0.2235
  932MPD2    C513688   0.615   1.234  10.775  0.5130  0.6767 -0.1290
  932MPD2     H13689   0.999   1.246  10.796  0.3301  1.5656  2.7850
  932MPD2    H113690   0.635   1.053  10.685  0.0583  0.3188 -0.5846
  932MPD2    H213691   0.615   1.434  10.851  2.6212  1.3607  0.1914
  932MPD2    H313692   0.507   1.231  10.764  0.4313  1.8119  0.3683
  932MPD2     N13693   0.901   1.014  10.696  0.1256 -0.5460 -0.0198
  932MPD2    H513694   0.846   0.934  10.666 -1.4945  1.1507 -1.5779
  932MPD2    N113695   0.886   1.470  10.881 -0.1950 -0.1635  0.0026
  932MPD2    H713696   0.976   1.479  10.834  0.2636 -0.0583  0.8939
  933MPD2     C13697   0.958   4.595   1.041  0.0615  0.4566  0.1038
  933MPD2    C113698   1.066   4.614   0.948  0.5767 -0.6512  0.1956
  933MPD2    C213699   1.096   4.737   0.900 -0.5499 -0.0726  0.2456
  933MPD2    C313700   1.020   0.099   0.940  0.0997 -0.5740 -0.0111
  933MPD2    C413701   0.906   0.077   1.014 -0.9262 -0.9591 -0.2582
  933MPD2    C513702   0.879   4.693   1.068 -1.0920  0.5417 -0.1920
  933MPD2     H13703   1.180   0.008   0.832 -0.4869 -0.8444  0.1791
  933MPD2    H113704   0.837   0.152   1.050  0.9140  0.4483  0.3209
  933MPD2    H213705   0.930   4.502   1.088  0.4695 -0.7487 -2.0475
  933MPD2    H313706   0.796   4.677   1.136  1.0339 -0.5828  2.1392
  933MPD2     N13707   1.056   0.228   0.895  0.8179  0.3577 -0.1165
  933MPD2    H513708   1.146   0.227   0.849  0.9973 -1.4643  0.2717
  933MPD2    N113709   1.128   4.488   0.910  0.2174  0.1855  0.4218
  933MPD2    H713710   1.103   4.410   0.970  1.1366 -1.3024 -1.1313
  934MPD2     C13711   3.388   2.353   1.735  0.4056  0.0769  0.2658
  934MPD2    C113712   3.406   2.320   1.602 -0.4650  0.7192  0.6566
  934MPD2    C213713   3.318   2.234   1.540 -0.6678 -0.9685  0.1103
  934MPD2    C313714   3.205   2.185   1.609 -0.0229 -0.9137  1.0603
  934MPD2    C413715   3.190   2.216   1.738  0.6609  0.0854  0.2917
  934MPD2    C513716   3.281   2.301   1.801  0.2089 -1.0722  0.2064
  934MPD2     H13717   3.323   2.205   1.435  0.2922 -1.8601  0.3981
  934MPD2    H113718   3.101   2.189   1.794  0.4017 -1.4945 -0.9071
  934MPD2    H213719   3.453   2.414   1.796 -2.3831  1.9935  1.3139
  934MPD2    H313720   3.263   2.316   1.907  2.1816  1.4592  0.1841
  934MPD2     N13721   3.102   2.112   1.552 -0.1440 -0.0308 -1.1418
  934MPD2    H513722   3.012   2.112   1.599 -0.1498 -0.6349 -1.1596
  934MPD2    N113723   3.519   2.354   1.519 -0.5541 -0.2429  0.1322
  934MPD2    H713724   3.494   2.341   1.421 -0.9976 -0.1089  0.2253
  935MPD2     C13725   3.074   1.206   1.313 -0.1581 -0.4200 -0.6184
  935MPD2    C113726   2.990   1.266   1.226  0.1556  0.2654  0.5193
  935MPD2    C213727   2.949   1.391   1.251  0.9627  0.0768  0.7515
  935MPD2    C313728   2.990   1.461   1.362 -1.0693  0.1035  0.5718
  935MPD2    C413729   3.067   1.392   1.456  0.6322  0.3560 -0.1901
  935MPD2    C513730   3.112   1.269   1.421  0.8479  0.2575  0.1262
  935MPD2     H13731   2.881   1.433   1.178 -1.3691 -0.6815  2.4642
  935MPD2    H113732   3.086   1.438   1.552  0.8420 -1.3850  0.5996
  935MPD2    H213733   3.119   1.110   1.293  0.4995  0.0303 -1.2940
  935MPD2    H313734   3.199   1.225   1.469  0.4854  0.7344  1.2075
  935MPD2     N13735   2.957   1.594   1.397 -0.7135  0.2340 -0.1288
  935MPD2    H513736   3.002   1.634   1.479  1.0723 -1.3471 -0.3349
  935MPD2    N113737   2.945   1.215   1.107 -0.4140  0.1588  0.2777
  935MPD2    H713738   2.868   1.263   1.061 -0.2702  2.5525  2.5262
  936MPD2     C13739   1.033   4.138  12.681  0.1118 -0.2742 -0.2547
  936MPD2    C113740   1.106   4.020  12.694 -0.3468 -0.0653  0.4486
  936MPD2    C213741   1.199   3.992  12.597 -0.1032 -1.2412  0.4299
  936MPD2    C313742   1.235   4.093  12.508 -0.1355 -0.5951  0.1947
  936MPD2    C413743   1.169   4.209  12.502 -0.7273  1.3217 -0.5555
  936MPD2    C513744   1.066   4.232  12.584 -0.8249 -0.1037  0.2120
  936MPD2     H13745   1.243   3.893  12.603  1.1659 -0.5924  1.8717
  936MPD2    H113746   1.192   4.279  12.423 -0.6231  0.5421 -1.2186
  936MPD2    H213747   0.954   4.162  12.752  0.9839  1.2140  0.2054
  936MPD2    H313748   1.028   4.334  12.585  1.0390  0.6001  0.0214
  936MPD2     N13749   1.349   4.068  12.430 -0.1786 -0.4223  0.2333
  936MPD2    H513750   1.389   3.975  12.445  2.7033  0.3623 -2.5736
  936MPD2    N113751   1.083   3.923  12.795  0.0849  0.2702 -0.3549
  936MPD2    H713752   1.146   3.843  12.798 -1.1164 -0.6940 -0.6249
  937MPD2     C13753   3.923   0.749  11.856 -1.1310  0.1225  0.7844
  937MPD2    C113754   3.970   0.879  11.860  0.2385  0.2610 -0.0687
  937MPD2    C213755   4.079   0.921  11.792  0.8341 -0.6047 -0.1059
  937MPD2    C313756   4.137   0.835  11.702  0.0609  0.1086  0.8938
  937MPD2    C413757   4.086   0.708  11.688  0.6196  0.1819  0.1439
  937MPD2    C513758   3.982   0.669  11.768 -0.5175  0.1360 -0.2290
  937MPD2     H13759   4.119   1.021  11.806  0.6879 -0.8546  2.0779
  937MPD2    H113760   4.125   0.633  11.621  0.5578 -0.4731  0.8426
  937MPD2    H213761   3.831   0.726  11.908 -0.3952 -1.3083  1.4377
  937MPD2    H313762   3.947   0.567  11.771  1.4369 -0.5595 -0.8984
  937MPD2     N13763   4.252   0.880  11.630  0.4240  0.0693 -0.1565
  937MPD2    H513764   4.291   0.971  11.650 -1.3006  0.9766 -0.9322
  937MPD2    N113765   3.924   0.972  11.960  0.2493  0.3113 -0.2396
  937MPD2    H713766   3.972   1.061  11.958  3.1632 -1.2541 -0.3273
  938MPD2     C13767   1.986   1.723   0.352 -0.3937 -0.3629  0.1088
  938MPD2    C113768   2.053   1.718   0.481  0.3211  0.5232 -0.3517
  938MPD2    C213769   2.043   1.598   0.551 -0.1143  0.1701  0.0199
  938MPD2    C313770   1.977   1.489   0.503 -0.0777  0.5765 -0.2146
  938MPD2    C413771   1.896   1.506   0.388  0.2515  1.0635  0.0769
  938MPD2    C513772   1.907   1.618   0.313  0.2756 -0.2018  0.2285
  938MPD2     H13773   2.110   1.586   0.635 -0.2698 -2.8026 -0.2757
  938MPD2    H113774   1.829   1.425   0.361  2.1799 -1.3475  2.4947
  938MPD2    H213775   1.991   1.806   0.283 -0.5132  0.0375  0.5886
  938MPD2    H313776   1.862   1.618   0.214  0.0443  3.4662  0.3017
  938MPD2     N13777   1.974   1.364   0.571 -0.4347  0.1628  0.2231
  938MPD2    H513778   1.919   1.292   0.526 -0.3004  0.2659 -0.1108
  938MPD2    N113779   2.128   1.834   0.540  0.4075  0.3106 -0.2396
  938MPD2    H713780   2.174   1.815   0.628 -0.5532  0.3090  0.2596
  939MPD2     C13781   3.677   3.506   1.122  0.4582 -0.1204 -0.5097
  939MPD2    C113782   3.556   3.491   1.058 -0.0170 -0.1542  0.2494
  939MPD2    C213783   3.542   3.502   0.923  0.9418  0.0855 -0.0648
  939MPD2    C313784   3.655   3.511   0.846  0.7955  0.6629  0.8857
  939MPD2    C413785   3.777   3.516   0.905 -0.2859  0.0330 -1.0573
  939MPD2    C513786   3.786   3.512   1.043 -0.0875 -0.1740 -0.6124
  939MPD2     H13787   3.446   3.495   0.872  0.8321  1.3841 -0.0330
  939MPD2    H113788   3.869   3.519   0.849  0.0802  3.1171 -0.2695
  939MPD2    H213789   3.694   3.516   1.229  0.2771 -1.4962 -0.3519
  939MPD2    H313790   3.887   3.518   1.083 -0.1525  2.0274 -0.7625
  939MPD2     N13791   3.634   3.513   0.702  0.1034  0.5058  0.3586
  939MPD2    H513792   3.540   3.501   0.668 -0.3614 -2.3668  2.6231
  939MPD2    N113793   3.446   3.481   1.147  0.3189  0.0751  0.1217
  939MPD2    H713794   3.461   3.473   1.247 -0.8820  3.3746  0.5511
  940MPD2     C13795   2.587   4.707  12.871 -0.2131  0.2385  0.3320
  940MPD2    C113796   2.529   4.582  12.866 -0.6744  0.3109  0.3300
  940MPD2    C213797   2.581   4.484  12.783  0.4448 -0.6582 -0.4160
  940MPD2    C313798   2.682   4.511  12.695  0.0938 -0.8658 -0.4257
  940MPD2    C413799   2.726   4.642  12.684  0.3894  0.2470  0.0613
  940MPD2    C513800   2.684   4.732  12.782  0.4932 -0.0531  0.0270
  940MPD2     H13801   2.556   4.379  12.787 -2.4814  0.1052  1.2506
  940MPD2    H113802   2.797   4.676  12.610  1.0334 -0.2705  0.4339
  940MPD2    H213803   2.565   0.036  12.952  1.5900  1.5180 -0.2846
  940MPD2    H313804   2.726   0.091  12.785  1.5103 -0.4858  0.0082
  940MPD2     N13805   2.728   4.400  12.616  0.0393  0.1574  0.5560
  940MPD2    H513806   2.671   4.318  12.601  1.5766 -0.3968 -2.2291
  940MPD2    N113807   2.447   4.548  12.973 -0.0528 -0.1917  0.1695
  940MPD2    H713808   2.447   4.623  13.041 -0.8702  0.2886 -0.3676
  941MPD2     C13809   0.848   3.919  10.380  0.3280  0.1336  0.7531
  941MPD2    C113810   0.958   3.839  10.381 -0.2009  0.0358  0.4133
  941MPD2    C213811   0.944   3.702  10.399 -0.3794 -0.1688 -0.1572
  941MPD2    C313812   0.818   3.654  10.429  0.8984 -0.4584  0.5068
  941MPD2    C413813   0.711   3.736  10.442 -0.1327 -0.0109 -0.4635
  941MPD2    C513814   0.723   3.866  10.415 -0.1200  0.0989 -0.4590
  941MPD2     H13815   1.033   3.639  10.396 -2.2705 -2.7114 -2.4140
  941MPD2    H113816   0.615   3.696  10.470  0.4437 -1.4426 -0.5670
  941MPD2    H213817   0.840   4.016  10.332 -0.9448 -0.3089  0.0779
  941MPD2    H313818   0.635   3.928  10.408 -0.8984 -0.9433  0.2341
  941MPD2     N13819   0.786   3.521  10.451 -0.1643 -0.4918 -0.1162
  941MPD2    H513820   0.688   3.500  10.467  0.0342 -0.6118  0.9887
  941MPD2    N113821   1.081   3.895  10.345 -0.3214 -0.7581 -0.8018
  941MPD2    H713822   1.156   3.827  10.339 -0.8452 -1.2663 -1.5427
  942MPD2     C13823   1.046   4.045   9.289  0.1715  0.1755 -0.3881
  942MPD2    C113824   0.989   4.067   9.169 -0.0976  0.2337  0.4387
  942MPD2    C213825   1.064   4.044   9.053  0.3422 -0.6210  0.3677
  942MPD2    C313826   1.197   4.002   9.054 -0.0202 -0.1878  0.2915
  942MPD2    C413827   1.246   3.980   9.182  0.5255 -0.4782 -0.2776
  942MPD2    C513828   1.172   3.988   9.295  0.6369 -0.1821 -0.5625
  942MPD2     H13829   1.018   4.071   8.959  0.8860 -0.2587  0.2091
  942MPD2    H113830   1.347   3.943   9.198  0.8085 -0.1707 -1.3834
  942MPD2    H213831   0.989   4.079   9.375  2.0985  0.4196  0.7958
  942MPD2    H313832   1.213   3.955   9.390 -0.5734  0.0325  0.0240
  942MPD2     N13833   1.291   4.013   8.946  0.3381 -0.5181 -1.1283
  942MPD2    H513834   1.391   4.010   8.966  0.1783 -0.7350 -0.3588
  942MPD2    N113835   0.862   4.125   9.161  0.3115 -0.8983  0.7025
  942MPD2    H713836   0.830   4.149   9.068 -0.0808 -2.0359  0.5449
  943MPD2     C13837   0.591   3.374  11.082 -0.0421  0.5015 -0.2606
  943MPD2    C113838   0.464   3.426  11.083  0.3444 -0.9383 -0.3086
  943MPD2    C213839   0.447   3.565  11.070  0.1881 -0.2507  0.1253
  943MPD2    C313840   0.551   3.648  11.076 -0.3909 -0.5362  0.4093
  943MPD2    C413841   0.677   3.602  11.092  0.4277  1.2430  0.0029
  943MPD2    C513842   0.703   3.463  11.089 -0.2689 -0.4448 -0.5551
  943MPD2     H13843   0.343   3.597  11.067  1.0802  2.6118 -0.0426
  943MPD2    H113844   0.760   3.671  11.102  0.9783  0.4433  0.9503
  943MPD2    H213845   0.612   3.268  11.091 -2.0646  0.2914  2.0452
  943MPD2    H313846   0.806   3.431  11.098 -0.5336 -1.4770 -1.1894
  943MPD2     N13847   0.535   3.789  11.071  1.2183 -0.1801  0.7177
  943MPD2    H513848   0.620   3.844  11.062  1.8051 -1.0699  0.7721
  943MPD2    N113849   0.343   3.342  11.091  0.3270 -0.8006 -0.0771
  943MPD2    H713850   0.254   3.391  11.079  1.0695  0.4188 -0.6526
  944MPD2     C13851   4.524   2.199  11.132 -1.0047 -0.1419 -0.0227
  944MPD2    C113852   4.623   2.288  11.181  0.1333 -0.4222  0.1749
  944MPD2    C213853   4.635   2.292  11.320 -0.1040 -0.5919 -0.6973
  944MPD2    C313854   4.550   2.224  11.407 -0.2275 -0.0878  0.0417
  944MPD2    C413855   4.450   2.145  11.353 -0.1140  0.2078 -0.2754
  944MPD2    C513856   4.443   2.136  11.220  0.6730 -0.0758 -0.3849
  944MPD2     H13857   4.706   2.360  11.368  0.8902 -0.4671 -2.3625
  944MPD2    H113858   4.385   2.087  11.417 -0.4278  0.9733  0.0969
  944MPD2    H213859   4.515   2.174  11.027 -0.0007 -2.6243  0.4686
  944MPD2    H313860   4.365   2.074  11.177  0.1335  0.1278  0.2806
  944MPD2     N13861   4.565   2.258  11.546 -0.1319 -0.4379 -0.5904
  944MPD2    H513862   4.627   2.336  11.568 -0.1992 -0.9767  1.4830
  944MPD2    N113863   4.707   2.347  11.087 -0.2673 -0.1590 -0.6728
  944MPD2    H713864   4.689   2.307  10.996  1.6381 -0.9730 -0.6841
    1TMC1    C113865   3.115   2.631  14.365 -0.0971  0.8430 -0.1168
    1TMC1    C213866   3.032   2.687  14.263 -0.4209 -0.3375 -0.1074
    1TMC1    C313867   2.960   2.597  14.184  0.1389 -0.2481  0.0559
    1TMC1    C413868   3.130   2.493  14.388  0.0767  0.2505  0.6837
    1TMC1    C513869   3.076   2.420  14.292  0.5224  0.3867  0.0077
    1TMC1    C613870   2.987   2.465  14.198 -1.0902  0.6260  0.0806
    1TMC1     C13871   3.164   2.723  14.457  0.1137 -0.4298 -0.0655
    1TMC1     O13872   3.234   2.676  14.539  0.0217  0.5549  0.1638
    1TMC1     H13873   3.022   2.793  14.241 -0.1424 -0.2220  0.3325
    1TMC1    H113874   3.198   2.459  14.465  2.3654 -1.2256 -1.9943
    1TMC1    H213875   2.936   2.388  14.141  0.8366 -1.1634  0.7870
    1TMC1    C713876   3.050   2.284  14.328  0.8910 -0.3816  0.0207
    1TMC1    C813877   2.871   2.629  14.076  0.8289 -0.1801  0.5861
    1TMC1    O113878   2.935   2.255  14.346  0.6037 -0.3717  0.6990
    1TMC1    O213879   2.845   2.556  13.984 -0.0770 -0.1137  0.4266
    1TMC1    O313880   3.154   2.228  14.393 -0.3003 -0.1970  0.1799
    1TMC1    H313881   3.243   2.268  14.388 -0.8673  0.5451 -3.8131
    1TMC1    O513882   2.781   2.705  14.147 -0.4530 -0.0477  0.1087
    1TMC1    H513883   2.820   2.739  14.230  0.1039  2.6062 -1.2311
    2MPD2     C13884   3.172   3.174  14.682 -0.3396  0.1006  0.3132
    2MPD2    C113885   3.068   3.174  14.593 -0.1910  0.3228  0.0288
    2MPD2    C213886   3.049   3.058  14.523 -0.2008 -0.5285 -0.3667
    2MPD2    C313887   3.124   2.943  14.539  0.0657 -0.5238  0.3846
    2MPD2    C413888   3.232   2.950  14.626 -0.0570 -0.0325  0.9840
    2MPD2    C513889   3.255   3.064  14.692  0.0674 -0.2472 -0.1018
    2MPD2     H13890   2.966   3.049  14.453 -1.7633  1.1326  1.2774
    2MPD2    H113891   3.306   2.872  14.639 -0.6038 -0.2022  3.0541
    2MPD2    H213892   3.202   3.263  14.735 -1.5258  0.5309  0.2457
    2MPD2    H313893   3.334   3.073  14.765  0.0984  1.6085 -0.3659
    2MPD2     N13894   3.103   2.843  14.446  0.7322  0.3982 -0.0703
    2MPD2    H513895   3.031   2.866  14.378  2.6528  0.9428 -1.9055
    2MPD2    N113896   2.995   3.294  14.580 -0.3685 -0.8517  0.7978
    2MPD2    H713897   2.997   3.366  14.652 -2.7097 -1.5646  1.5920
    3TMC2    C113898   2.833   3.441  14.473 -0.2350  0.3515  0.2942
    3TMC2    C213899   2.793   3.504  14.592 -0.2450  0.8193  0.0314
    3TMC2    C313900   2.715   3.615  14.586  0.1383  0.2950  0.0378
    3TMC2    C413901   2.780   3.483  14.357 -0.5419  0.0378 -0.3348
    3TMC2    C513902   2.699   3.586  14.357  0.9811 -0.3688 -0.7594
    3TMC2    C613903   2.660   3.654  14.468  0.1996  0.1759  1.0514
    3TMC2     C13904   2.908   3.316  14.474  0.1539  0.2303  0.6402
    3TMC2     O13905   2.897   3.250  14.370 -0.3751  0.1270  0.1829
    3TMC2     H13906   2.837   3.466  14.683 -0.4272  0.6421  0.0464
    3TMC2    H113907   2.816   3.430  14.269 -1.4581 -1.6333  0.2920
    3TMC2    H213908   2.584   3.730  14.458 -0.1893 -0.2933  0.4082
    3TMC2    C713909   2.658   3.640  14.233 -0.0540  0.0769 -0.1883
    3TMC2    C813910   2.672   3.676  14.711  0.2006 -0.6824 -0.4677
    3TMC2    O113911   2.647   3.566  14.139  0.2689 -0.3119 -0.4783
    3TMC2    O213912   2.669   3.620  14.819 -0.8359  0.3239  0.1091
    3TMC2    O513913   2.608   3.789  14.681  0.1234 -0.1554  0.4688
    3TMC2    H513914   2.653   3.828  14.603 -1.0481  0.5353  0.1266
    4TMC2    C113915   2.530   4.626  14.106  0.1324  0.6736 -1.4434
    4TMC2    C213916   2.623   4.708  14.166 -0.1381  0.2478 -0.8833
    4TMC2    C313917   2.743   4.646  14.199 -0.8094 -0.2397  0.1553
    4TMC2    C413918   2.537   4.493  14.124  0.2195 -0.0324 -0.1665
    4TMC2    C513919   2.645   4.433  14.186  1.1772  0.0050 -0.2551
    4TMC2    C613920   2.751   4.510  14.216  0.0074 -0.1201 -0.0338
    4TMC2     C13921   2.391   4.675  14.111  0.3507  0.1050 -0.1607
    4TMC2     O13922   2.373   0.021  14.197  0.3840 -0.0526 -0.0282
    4TMC2     H13923   2.596   0.072  14.170 -0.2608  0.1695  0.6553
    4TMC2    H113924   2.454   4.424  14.113  2.1412 -2.3677 -0.0113
    4TMC2    H213925   2.847   4.469  14.244 -0.4434 -1.6925 -0.8265
    4TMC2    C713926   2.671   4.293  14.185  0.0734 -0.3004  0.6277
    4TMC2    C813927   2.862   4.718  14.236 -0.5944  0.8016 -0.3989
    4TMC2    O113928   2.750   4.251  14.264  0.1890 -0.1222 -0.3927
    4TMC2    O213929   2.908   4.696  14.346  0.6887 -0.2639  0.2951
    4TMC2    O513930   2.846   0.092  14.170 -0.1754  0.1377 -0.1590
    4TMC2    H513931   2.792   0.087  14.088 -0.0579  0.6144 -0.2638
    5MPD2     C13932   1.922   4.716  13.923 -0.3363  0.0578 -0.2490
    5MPD2    C113933   1.993   4.634  13.843  0.0849 -0.1760  0.1890
    5MPD2    C213934   2.127   4.614  13.872  0.0336  0.9195  0.1915
    5MPD2    C313935   2.180   4.659  13.988  0.3256 -0.0363  0.5068
    5MPD2    C413936   2.113   0.004  14.064 -0.0357 -0.2947  0.2069
    5MPD2    C513937   1.985   0.037  14.032  0.0595 -0.3176  0.6086
    5MPD2     H13938   2.187   4.547  13.811  1.6966  1.5401  1.1257
    5MPD2    H113939   2.158   0.056  14.148 -0.1433 -0.0572  0.1183
    5MPD2    H213940   1.816   4.734  13.907 -0.1497 -0.0101 -1.5204
    5MPD2    H313941   1.935   0.117  14.087  0.9688 -0.7899  2.1261
    5MPD2     N13942   2.312   4.616  14.016  0.2494  0.0646  0.5234
    5MPD2    H513943   2.348   4.541  13.957  0.2222  0.1217  0.4343
    5MPD2    N113944   1.926   4.577  13.735 -0.3077 -0.0555 -0.2044
    5MPD2    H713945   1.826   4.591  13.725 -0.1100  0.7953 -0.9628
    6MPD1     C13946   0.530   0.289  12.806 -0.5727  0.2236  0.2563
    6MPD1    C113947   0.611   0.258  12.695  0.0586  0.1414  0.6460
    6MPD1    C213948   0.719   0.169  12.720 -0.3834  0.2272  0.3745
    6MPD1    C313949   0.760   0.128  12.840 -0.2935 -0.4436 -0.2932
    6MPD1    C413950   0.683   0.174  12.945  0.0735 -0.0328 -0.2960
    6MPD1    C513951   0.566   0.246  12.929  0.2514 -0.7785 -0.4012
    6MPD1     H13952   0.758   0.131  12.626 -0.1012 -0.7907  0.8993
    6MPD1    H113953   0.708   0.160  13.050 -0.9765 -1.2296 -0.1894
    6MPD1    H213954   0.434   0.340  12.797 -1.4362 -1.1663  1.6625
    6MPD1    H313955   0.508   0.276  13.016  1.3272  0.4644 -0.1091
    6MPD1     N13956   0.871   0.047  12.864 -0.4746  0.8048  0.0802
    6MPD1    H513957   0.898   0.019  12.957 -0.6693 -0.0045 -0.1100
    6MPD1    N113958   0.559   0.287  12.570  0.1915 -0.2322  0.0760
    6MPD1    H613959   0.512   0.378  12.567  0.2718 -0.2225 -0.8248
    6MPD1    H713960   0.626   0.278  12.495  0.8495 -0.6230  0.7132
    7MPD2     C13961   1.108   4.257  13.296  0.2058  0.2457 -0.4945
    7MPD2    C113962   1.195   4.298  13.197  0.3494  0.7711  0.5247
    7MPD2    C213963   1.325   4.324  13.235 -0.3199 -0.2012  0.5791
    7MPD2    C313964   1.370   4.313  13.363  0.1063 -0.8088  0.0790
    7MPD2    C413965   1.283   4.270  13.464  0.0112  0.2921 -0.4088
    7MPD2    C513966   1.148   4.250  13.430  0.3181  0.3156  0.6385
    7MPD2     H13967   1.403   4.347  13.163 -2.2864 -1.7888 -2.0736
    7MPD2    H113968   1.317   4.253  13.566 -0.7384 -0.4112 -0.2750
    7MPD2    H213969   1.006   4.231  13.268 -0.8224  1.7413  1.8216
    7MPD2    H313970   1.083   4.209  13.506 -0.4435  0.7345  0.2100
    7MPD2     N13971   1.502   4.335  13.389  0.2702  0.2503  0.3497
    7MPD2    H513972   1.550   4.365  13.305 -1.1184  0.7055 -0.2917
    7MPD2    N113973   1.155   4.329  13.071  0.4357  0.2694  0.0288
    7MPD2    H713974   1.233   4.347  13.008  1.4458  3.6023  2.2487
    8TMC3    C113975   1.716   4.342  13.482  0.2725  0.1762 -0.3452
    8TMC3    C213976   1.793   4.399  13.573  0.3130 -0.9741  0.2874
    8TMC3    C313977   1.907   4.463  13.532  0.7014  0.3227 -0.3991
    8TMC3    C413978   1.762   4.321  13.354  0.0979 -0.7205  0.0098
    8TMC3    C513979   1.884   4.374  13.313 -0.6516  0.2766  0.0417
    8TMC3    C613980   1.957   4.443  13.406 -0.5595 -0.4635  0.5918
    8TMC3     C13981   1.572   4.348  13.508  0.1333  0.0985  0.3826
    8TMC3     O13982   1.521   4.356  13.618  0.1243  0.1684 -0.0325
    8TMC3     H13983   1.757   4.404  13.676  0.4597  2.5879  0.1677
    8TMC3    H113984   1.718   4.244  13.293  1.1410 -0.8943 -0.5268
    8TMC3    H213985   2.041   4.503  13.374 -1.5188 -0.5611 -2.1391
    8TMC3    C713986   1.905   4.406  13.176  0.3281  0.4201 -0.1652
    8TMC3    C813987   1.996   4.511  13.636  1.0422  0.0220  0.1089
    8TMC3    O113988   2.002   4.476  13.155 -0.3555 -0.9749  0.5445
    8TMC3    O213989   2.118   4.484  13.625  0.3143  0.0441 -0.1449
    9TMC3    C113990   1.028   4.625  12.822 -0.2257 -0.5336 -0.6500
    9TMC3    C213991   1.136   4.606  12.746 -0.3231 -0.6174  0.8915
    9TMC3    C313992   1.206   4.488  12.749 -0.3099 -0.0539 -0.3275
    9TMC3    C413993   0.976   4.530  12.900  0.1151  0.2778 -0.3295
    9TMC3    C513994   1.047   4.413  12.902  0.0576 -0.1568 -0.0724
    9TMC3    C613995   1.169   4.395  12.842  0.4380  0.3267 -0.5564
    9TMC3     C13996   0.940   4.721  12.768 -0.0745  0.0153  0.4228
    9TMC3     O13997   0.958   0.009  12.650 -0.8542 -0.0337 -0.1667
    9TMC3     H13998   1.167   4.676  12.669  0.0747 -0.5819  1.0850
    9TMC3    H113999   0.873   4.537  12.932 -0.1374  0.7632 -1.2497
    9TMC3    H214000   1.222   4.301  12.830  1.2228  0.8958 -1.5448
    9TMC3    C714001   1.035   4.336  13.015 -0.2545 -0.1364  0.1453
    9TMC3    C814002   1.348   4.504  12.705 -0.2754  0.1567 -0.2391
    9TMC3    O114003   0.923   4.316  13.061  0.2575  0.0892  0.5365
    9TMC3    O214004   1.370   4.602  12.641 -0.3123 -0.2982 -0.2271
   10MPD2     C14005   1.815   4.536  12.919 -0.3379 -0.1527  0.1131
   10MPD2    C114006   1.755   4.422  12.972 -0.0009 -0.5906 -0.1903
   10MPD2    C214007   1.627   4.386  12.914 -0.3055 -0.8563 -0.1581
   10MPD2    C314008   1.568   4.464  12.811  0.2769 -0.1956 -0.2822
   10MPD2    C414009   1.635   4.570  12.762  0.4773  0.4594  0.1536
   10MPD2    C514010   1.757   4.602  12.816 -0.0012 -0.0321  0.4411
   10MPD2     H14011   1.564   4.307  12.954 -1.7398  0.2481 -0.2473
   10MPD2    H114012   1.595   4.628  12.679 -2.0583 -0.3612  0.7843
   10MPD2    H214013   1.914   4.559  12.956 -0.1679 -0.1626 -0.3411
   10MPD2    H314014   1.811   4.688  12.776  1.7089 -0.4923  1.7205
   10MPD2     N14015   1.433   4.431  12.785 -0.5130 -0.0866  0.7763
   10MPD2    H514016   1.388   4.361  12.844 -2.3619  1.0273  0.7124
   10MPD2    N114017   1.808   4.357  13.092  0.1490 -0.2491 -0.1423
   10MPD2    H714018   1.755   4.276  13.125  1.5836 -0.6702  1.1282
   11MPD2     C14019   2.598   3.827  14.000 -0.1437 -0.4458  0.0659
   11MPD2    C114020   2.626   3.871  14.135 -0.6840  0.5868 -0.5938
   11MPD2    C214021   2.626   4.007  14.159  0.0609  0.1111 -0.1866
   11MPD2    C314022   2.599   4.094  14.056 -0.0745 -0.0021  0.1275
   11MPD2    C414023   2.561   4.058  13.931  0.3026 -0.2085 -0.3059
   11MPD2    C514024   2.568   3.923  13.908  0.4260  0.0264  0.2034
   11MPD2     H14025   2.655   4.044  14.257  1.2402  2.5782 -1.4678
   11MPD2    H114026   2.535   4.119  13.845  1.4843  0.1326 -0.4276
   11MPD2    H214027   2.591   3.727  13.959  0.4714  0.1818 -1.5448
   11MPD2    H314028   2.546   3.877  13.813 -1.7641  0.4531  0.5139
   11MPD2     N14029   2.616   4.231  14.074 -0.2893 -0.3998 -0.1810
   11MPD2    H514030   2.575   4.294  14.006  2.0196 -1.2482 -2.3530
   11MPD2    N114031   2.648   3.782  14.242  0.6634  0.7049 -0.0755
   11MPD2    H714032   2.677   3.821  14.331 -0.5743  1.9311 -0.2050
    1MPD1     C14033   0.840   0.043  17.062  0.0322 -0.1303 -0.1328
    1MPD1    C114034   0.899   0.028  16.943 -0.0343 -0.0643  0.3060
    1MPD1    C214035   1.035   0.020  16.944  0.0118  0.5913  0.2529
    1MPD1    C314036   1.113   0.052  17.054 -0.3732  0.3710 -0.2467
    1MPD1    C414037   1.057   0.094  17.173 -0.1188  1.0732 -0.1297
    1MPD1    C514038   0.917   0.087  17.174  0.3347  0.1393  0.3660
    1MPD1     H14039   1.079   4.717  16.855  2.1937  2.9018  0.1829
    1MPD1    H114040   1.118   0.125  17.257  1.0444  0.0327 -0.5910
    1MPD1    H214041   0.732   0.049  17.070  0.0338 -0.6210  0.2748
    1MPD1    H314042   0.866   0.123  17.262 -0.9735 -1.5168  0.2809
    1MPD1     N14043   1.256   0.050  17.043 -0.3035 -0.4363  0.1330
    1MPD1    H514044   1.312   0.101  17.111 -0.5937  0.4691 -0.3130
    1MPD1    N114045   0.829   4.725  16.827 -0.3880 -0.0720 -0.1327
    1MPD1    H614046   0.885   4.730  16.742 -0.2102 -0.7593 -0.0593
    1MPD1    H714047   0.745   0.041  16.819 -0.2834  0.0369 -0.4664
    2MPD1     C14048   1.779   0.493  17.514  0.1290 -0.0816  0.2865
    2MPD1    C114049   1.867   0.488  17.405  0.7987 -0.6817 -0.5954
    2MPD1    C214050   1.832   0.412  17.293 -0.2363  0.0793 -0.3190
    2MPD1    C314051   1.721   0.324  17.299  0.3063  0.7379 -0.0145
    2MPD1    C414052   1.647   0.318  17.413 -0.1481  0.4404 -0.0432
    2MPD1    C514053   1.663   0.411  17.517  0.0818 -0.3135  0.3985
    2MPD1     H14054   1.885   0.429  17.200  1.1564  0.8316  0.6258
    2MPD1    H114055   1.562   0.251  17.420 -0.9425  1.6666  2.1906
    2MPD1    H214056   1.805   0.556  17.598 -0.4549  1.5208 -0.7315
    2MPD1    H314057   1.589   0.402  17.596 -1.0482  1.6087 -0.4549
    2MPD1     N14058   1.680   0.243  17.186 -0.4132  0.2302  0.2564
    2MPD1    H514059   1.594   0.192  17.204 -0.5263 -0.2301 -1.6093
    2MPD1    N114060   1.978   0.576  17.392 -0.1221 -0.0542  0.5646
    2MPD1    H614061   2.047   0.538  17.328  1.5391  0.8164  1.8560
    2MPD1    H714062   2.027   0.595  17.478  0.3328  1.5431 -0.0484
    3TMC3    C114063   1.664   0.139  16.969 -0.1486 -0.3727  0.5362
    3TMC3    C214064   1.739   0.081  16.870  0.5205  0.3398  0.1200
    3TMC3    C314065   1.663   4.736  16.789 -0.5026  0.1265  0.1401
    3TMC3    C414066   1.533   0.102  17.000 -0.1324  0.2952  0.0475
    3TMC3    C514067   1.468   0.005  16.932  0.9911 -0.1866  0.2057
    3TMC3    C614068   1.536   4.697  16.822  0.8833  0.7058 -0.4609
    3TMC3     C14069   1.732   0.241  17.053  0.8676  0.1902 -0.2496
    3TMC3     O14070   1.843   0.285  17.020 -0.7592 -0.2023 -0.0250
    3TMC3     H14071   1.840   0.115  16.851  0.8684 -0.2044  0.9997
    3TMC3    H114072   1.475   0.161  17.070  0.6583 -1.0003  1.7754
    3TMC3    H214073   1.476   4.639  16.752 -0.2826  1.3659  0.0008
    3TMC3    C714074   1.323   4.726  16.944 -0.2955 -0.3034 -0.3354
    3TMC3    C814075   1.725   4.651  16.689 -0.0198  0.4640  0.6159
    3TMC3    O114076   1.286   4.633  16.874  0.4062 -1.0943 -0.1809
    3TMC3    O214077   1.663   4.555  16.649  0.5797 -0.8760 -0.2280
    4MPD1     C14078   2.135   4.486  16.468  0.2390 -0.2256  0.7864
    4MPD1    C114079   2.174   4.609  16.517  0.6416 -0.2543  0.3096
    4MPD1    C214080   2.070   4.682  16.580 -0.2058  0.1937  0.1978
    4MPD1    C314081   1.948   4.620  16.601  0.1472 -0.7018 -0.2949
    4MPD1    C414082   1.915   4.502  16.539 -1.5147 -0.8012  0.9090
    4MPD1    C514083   2.006   4.433  16.470  0.4755  0.4376 -0.0850
    4MPD1     H14084   2.084   0.039  16.623  0.8146 -0.2733  0.9391
    4MPD1    H114085   1.820   4.451  16.546 -0.4610 -2.7914  0.4878
    4MPD1    H214086   2.212   4.420  16.432 -0.2526 -0.0329 -0.6051
    4MPD1    H314087   1.981   4.335  16.431 -1.7165  1.3388 -0.9168
    4MPD1     N14088   1.850   4.691  16.673 -0.4236 -0.1117 -1.3415
    4MPD1    H514089   1.860   0.048  16.695 -1.5101 -0.3917  0.3973
    4MPD1    N114090   2.309   4.646  16.522 -0.3945  0.4765  0.3961
    4MPD1    H614091   2.326   0.005  16.508  0.8228  0.3620  1.0365
    4MPD1    H714092   2.362   4.589  16.457 -2.1279 -1.7756  0.9713
    1TCq1    O114093   2.438   0.347  11.756  0.0303 -0.0571  0.1578
    1TCq1    C114094   2.340   0.414  11.695 -0.3488  0.7235 -0.7370
    1TCq1    O214095   2.346   0.464  11.582  0.6805  0.4477  0.1343
    1TCq1    C214096   2.214   0.377  11.746  0.1116  0.3167  0.2446
    1TCq1    C314097   2.110   0.366  11.658 -0.5057  0.2747 -0.3888
    1TCq1    C414098   1.997   0.308  11.713 -0.1182  0.0414 -0.0867
    1TCq1    C514099   1.965   0.316  11.849  0.4649 -0.1968 -0.1858
    1TCq1    C614100   2.068   0.356  11.930 -0.0116 -0.7710 -0.1308
    1TCq1    C714101   2.198   0.384  11.881 -0.5283 -0.5251  0.2322
    1TCq1    C814102   2.067   0.289  12.058  0.4484 -0.3323  0.0016
    1TCq1    O414103   2.153   0.302  12.141 -0.3740  0.7069 -0.0527
    1TCq1    C914104   1.876   0.320  11.633  0.0701 -0.1031 -0.9181
    1TCq1    O514105   1.780   0.249  11.664  0.8394  0.1963  0.4758
    1TCq1    O614106   1.882   0.413  11.546  0.4773  0.3313  0.2198
    1TCq1    H114107   2.414   0.297  11.837 -2.3356  2.4489  1.0047
    1TCq1    H214108   2.138   0.370  11.553 -0.9314  0.0637 -0.5114
    1TCq1    H314109   1.861   0.313  11.881  0.4635 -0.0029 -0.1741
    1TCq1    H414110   2.279   0.414  11.947  0.1734 -0.4259 -0.6663
    2MPD1     C14111   1.801   4.703  12.370 -0.4206  0.1671  0.1533
    2MPD1    C114112   1.740   4.713  12.243  0.1411 -0.0333  0.2301
    2MPD1    C214113   1.800   0.049  12.144 -0.1721  0.1126 -0.6244
    2MPD1    C314114   1.911   0.125  12.172  0.2076  0.4298  0.7560
    2MPD1    C414115   1.967   0.111  12.300  0.8363  0.1494 -0.0644
    2MPD1    C514116   1.912   0.041  12.397 -0.8063 -0.8863 -0.6360
    2MPD1     H14117   1.769   0.043  12.040 -0.1425  1.5009 -0.7166
    2MPD1    H114118   2.053   0.175  12.315 -0.8199  1.6100  3.0039
    2MPD1    H214119   1.767   4.633  12.445  0.5838  0.0197  0.4744
    2MPD1    H314120   1.962   0.023  12.491 -1.7389 -1.8767 -0.3221
    2MPD1     N14121   1.955   0.205  12.064 -0.4734 -0.0597 -1.1528
    2MPD1    H514122   1.908   0.193  11.975  0.8902 -1.0067 -1.7513
    2MPD1    N114123   1.656   4.616  12.199  0.0929  0.1814 -0.0467
    2MPD1    H614124   1.593   4.586  12.273 -1.4700  2.6432 -0.3677
    2MPD1    H714125   1.603   4.648  12.118 -0.8335  1.7847  1.1912
    1TMC1    C114126   2.014   0.182   0.853 -0.4867  0.6057 -0.0908
    1TMC1    C214127   2.010   0.297   0.925  0.7784 -0.1449 -0.1181
    1TMC1    C314128   1.930   0.288   1.035 -0.7599 -0.8613  0.3750
    1TMC1    C414129   1.954   0.071   0.893 -0.3334 -0.1861 -0.2988
    1TMC1    C514130   1.881   0.063   1.008 -0.0359 -0.0950 -0.0290
    1TMC1    C614131   1.861   0.177   1.078 -0.2188 -0.2449  0.5681
    1TMC1     C14132   2.103   0.179   0.735 -0.0826  0.2181 -0.7363
    1TMC1     O14133   2.076   0.096   0.649  0.7988 -0.1937  0.4836
    1TMC1     H14134   2.057   0.386   0.887 -2.0154  0.2980 -2.5669
    1TMC1    H114135   1.978   4.730   0.826  1.5992 -0.6259  0.9247
    1TMC1    H214136   1.799   0.178   1.167  0.1256 -2.2922  0.8236
    1TMC1    C714137   1.833   4.683   1.066  0.2479  0.0391  0.6274
    1TMC1    C814138   1.952   0.403   1.130 -0.0096 -0.3082  0.6533
    1TMC1    O114139   1.770   4.681   1.175  0.1060  0.0726 -1.3333
    1TMC1    O214140   1.952   0.390   1.252  0.0944 -0.4990  0.1744
    1TMC1    O314141   1.919   4.585   1.029 -0.3566 -1.0613 -0.0148
    1TMC1    H314142   1.975   4.604   0.950 -0.9741 -1.7340 -0.6151
    1TMC1    O514143   1.904   0.512   1.070 -0.6055  0.5704 -0.0712
    1TMC1    H514144   1.872   0.493   0.980 -1.3371 -2.1044  0.7643
    2MPD1     C14145   2.473   0.352   0.436  0.1478 -0.1508  0.2003
    2MPD1    C114146   2.472   0.435   0.548  0.4824 -0.3131  0.8464
    2MPD1    C214147   2.385   0.397   0.651  0.2900  0.0750 -0.0920
    2MPD1    C314148   2.302   0.295   0.632 -0.5026  0.0146 -0.2951
    2MPD1    C414149   2.306   0.225   0.520  0.3481 -0.7524  0.4698
    2MPD1    C514150   2.392   0.243   0.423 -0.3407 -0.4169  0.5150
    2MPD1     H14151   2.380   0.448   0.747  0.4002  0.4882 -0.3082
    2MPD1    H114152   2.233   0.145   0.513  0.9657 -1.4405  1.8749
    2MPD1    H214153   2.529   0.372   0.345 -1.2747  1.8181 -0.2320
    2MPD1    H314154   2.407   0.181   0.336 -0.0834  0.4580 -0.0724
    2MPD1     N14155   2.204   0.273   0.737  0.1611 -0.1841 -0.4090
    2MPD1    H514156   2.219   0.328   0.821 -0.1648  1.9253 -1.7454
    2MPD1    N114157   2.554   0.547   0.567 -0.3797  0.2880 -0.1302
    2MPD1    H614158   2.533   0.592   0.656 -0.8594 -0.2058  0.0111
    2MPD1    H714159   2.536   0.620   0.500  1.8718  0.5161 -0.4800
    1MPD1     C14160   2.191   0.718  12.035  0.1067  0.5987  0.1005
    1MPD1    C114161   2.201   0.643  12.147  0.1718 -0.2452  0.4708
    1MPD1    C214162   2.328   0.593  12.181  0.9890  0.1076  0.2665
    1MPD1    C314163   2.439   0.614  12.097 -0.3445  0.6735  0.1649
    1MPD1    C414164   2.424   0.673  11.976 -0.0488  0.3420 -0.0084
    1MPD1    C514165   2.299   0.724  11.954  0.2683  0.4644  0.4956
    1MPD1     H14166   2.343   0.537  12.273  1.2674 -0.6079 -0.2185
    1MPD1    H114167   2.500   0.700  11.904  1.4974  1.1718  1.9252
    1MPD1    H214168   2.110   0.781  12.000 -1.4065 -1.8047 -0.7100
    1MPD1    H314169   2.274   0.780  11.865 -0.1640 -1.2257 -0.4490
    1MPD1     N14170   2.553   0.543  12.124  0.3836  0.0347  0.4410
    1MPD1    H514171   2.560   0.504  12.218  1.1526 -0.3161  0.2387
    1MPD1    N114172   2.094   0.642  12.249 -0.5185 -0.5121  0.6567
    1MPD1    H614173   2.000   0.623  12.214  0.4790 -3.6517 -0.2492
    1MPD1    H714174   2.100   0.567  12.317 -0.4251 -0.7565  0.3776
    2MPD1     C14175   2.669   1.777  11.164 -0.0294 -0.5089  0.0451
    2MPD1    C114176   2.745   1.834  11.068 -0.7492 -0.0153  0.4240
    2MPD1    C214177   2.867   1.769  11.046 -1.0239  0.0534 -0.4384
    2MPD1    C314178   2.895   1.643  11.091  0.0079  0.3377 -0.7227
    2MPD1    C414179   2.811   1.588  11.180 -0.0712  0.1115  0.5815
    2MPD1    C514180   2.701   1.656  11.217 -0.9388 -0.2284  0.1528
    2MPD1     H14181   2.939   1.816  10.980 -0.1778  0.4016  0.7403
    2MPD1    H114182   2.830   1.494  11.230  1.5347  1.0187  1.6995
    2MPD1    H214183   2.585   1.828  11.208  0.4029  0.0615  0.2051
    2MPD1    H314184   2.635   1.608  11.288  2.5739 -3.5959  1.1426
    2MPD1     N14185   3.008   1.566  11.058  0.9087  0.5615 -0.5081
    2MPD1    H514186   3.018   1.484  11.118  0.5562  1.0947  0.2776
    2MPD1    N114187   2.727   1.962  11.021 -0.4104 -0.5949  0.2625
    2MPD1    H614188   2.629   1.985  11.007  0.0491  1.3520  0.1448
    2MPD1    H714189   2.782   1.974  10.936  0.7716  0.8040  1.2031
    3MPD1     C14190   3.589   0.973  10.393  0.9881 -0.6765  0.2510
    3MPD1    C114191   3.598   0.916  10.518 -0.5485 -0.3607  0.1045
    3MPD1    C214192   3.540   0.982  10.618 -0.3415 -0.3607 -0.2047
    3MPD1    C314193   3.489   1.116  10.605 -0.1818 -0.2670 -0.2571
    3MPD1    C414194   3.480   1.167  10.477  0.0462  0.2478 -0.4109
    3MPD1    C514195   3.530   1.091  10.366  0.2200 -0.6542  0.5163
    3MPD1     H14196   3.550   0.933  10.714  0.6357  1.5900  0.6890
    3MPD1    H114197   3.415   1.250  10.453  0.0106  1.0340  2.3528
    3MPD1    H214198   3.638   0.922  10.311  3.5960 -0.2943  1.5649
    3MPD1    H314199   3.520   1.129  10.265 -1.0511 -2.4124 -0.0212
    3MPD1     N14200   3.434   1.190  10.718  0.6384 -0.2785 -0.9637
    3MPD1    H514201   3.450   1.151  10.810  0.5716  0.0611 -0.8088
    3MPD1    N114202   3.652   0.785  10.538  0.1526  0.3636  0.0909
    3MPD1    H614203   3.745   0.779  10.499  1.0486 -0.9669  2.4237
    3MPD1    H714204   3.659   0.766  10.638 -1.8087 -1.9380 -0.2060
    4MPD2     C14205   3.224   0.757  12.283 -1.2091 -0.7826 -0.3772
    4MPD2    C114206   3.234   0.632  12.231  0.5394  0.5135 -0.4724
    4MPD2    C214207   3.330   0.611  12.133  0.4677  0.1459  1.1040
    4MPD2    C314208   3.418   0.712  12.093 -0.5712  0.0430 -0.1292
    4MPD2    C414209   3.410   0.833  12.158 -0.1076  0.4802 -0.5387
    4MPD2    C514210   3.322   0.856  12.260 -0.5132 -0.2299  0.0205
    4MPD2     H14211   3.342   0.513  12.087  0.0716  0.8079 -0.4072
    4MPD2    H114212   3.490   0.904  12.139  0.2620  0.0502 -0.6052
    4MPD2    H214213   3.155   0.771  12.366  0.4151  0.8865  0.6771
    4MPD2    H314214   3.324   0.948  12.317  0.5697 -1.1163  1.4185
    4MPD2     N14215   3.517   0.698  11.989 -0.4199 -0.1551  0.0459
    4MPD2    H514216   3.589   0.769  11.985  1.8733 -2.5434 -0.9239
    4MPD2    N114217   3.140   0.529  12.248  0.1176 -0.6397 -0.4415
    4MPD2    H714218   3.153   0.447  12.190  1.1768 -2.0449  1.7911
    5TMC3    C114219   2.934   0.441  12.255  0.2089  0.2045  0.1178
    5TMC3    C214220   2.805   0.480  12.224  0.8478 -0.1327 -0.4312
    5TMC3    C314221   2.757   0.442  12.105  0.4266  0.0451 -1.0681
    5TMC3    C414222   2.992   0.339  12.190  0.0156  0.5632 -0.0470
    5TMC3    C514223   2.944   0.297  12.073 -0.5425 -0.3321  0.8122
    5TMC3    C614224   2.833   0.359  12.017 -0.2966  0.5840  0.1863
    5TMC3     C14225   3.019   0.549  12.300  0.2600  0.6000 -0.1032
    5TMC3     O14226   2.980   0.636  12.377 -0.3908 -0.1883 -0.4084
    5TMC3     H14227   2.754   0.557  12.281  1.8835  0.7806 -0.7375
    5TMC3    H114228   3.081   0.292  12.231  0.1162 -0.3915 -1.3671
    5TMC3    H214229   2.793   0.344  11.918  0.5434 -0.5186  0.0140
    5TMC3    C714230   3.056   0.283  11.987 -0.7630 -0.4903  0.2187
    5TMC3    C814231   2.661   0.535  12.042  0.0293 -0.5778 -0.2528
    5TMC3    O114232   3.168   0.304  12.036 -0.8142  0.0429 -0.1328
    5TMC3    O214233   2.682   0.563  11.930  0.1569 -0.0557 -0.1141
    6TMC3    C114234   3.208   1.514  10.961  0.3273 -0.3864 -0.4733
    6TMC3    C214235   3.264   1.483  10.844 -0.4885 -0.0535 -0.0292
    6TMC3    C314236   3.346   1.375  10.844 -0.4036  0.3271 -0.1207
    6TMC3    C414237   3.236   1.450  11.081  0.4496 -0.0032 -0.0834
    6TMC3    C514238   3.338   1.356  11.074 -0.1317 -0.2947  0.1136
    6TMC3    C614239   3.397   1.316  10.956 -0.1866  0.7873 -0.4244
    6TMC3     C14240   3.097   1.600  10.954 -0.0800  0.3592 -0.6932
    6TMC3     O14241   3.085   1.685  10.865  0.0890  0.5014 -0.5978
    6TMC3     H14242   3.224   1.532  10.756  1.9671  1.1277 -0.4820
    6TMC3    H114243   3.211   1.478  11.183 -0.6007 -0.7340 -0.1440
    6TMC3    H214244   3.468   1.235  10.965 -1.1386  0.1073  0.9737
    6TMC3    C714245   3.372   1.273  11.193  0.2012  0.0048 -0.2242
    6TMC3    C814246   3.372   1.316  10.712 -0.3164  0.7485 -0.5197
    6TMC3    O114247   3.474   1.203  11.197  0.1773 -0.1432  0.0947
    6TMC3    O214248   3.344   1.392  10.621  0.0240  0.6010 -0.0464
    7MPD2     C14249   3.265   0.263  11.530  0.8150 -0.2210  0.3613
    7MPD2    C114250   3.309   0.318  11.645  0.5025 -0.5661 -0.2580
    7MPD2    C214251   3.238   0.301  11.761 -0.6977 -0.5814 -0.2468
    7MPD2    C314252   3.116   0.243  11.755  0.7031 -0.3079 -0.1409
    7MPD2    C414253   3.070   0.185  11.641  0.0307  0.3456  0.0433
    7MPD2    C514254   3.153   0.185  11.535  0.1244 -0.0370 -0.0010
    7MPD2     H14255   3.272   0.353  11.850  1.6924 -0.4870 -1.2057
    7MPD2    H114256   2.971   0.143  11.627  0.9587 -0.9259 -2.5869
    7MPD2    H214257   3.314   0.272  11.433  0.0235  1.2978  0.1042
    7MPD2    H314258   3.110   0.138  11.447  0.0710  0.8912 -0.4703
    7MPD2     N14259   3.022   0.245  11.861 -0.3315 -0.3965  0.1906
    7MPD2    H514260   2.924   0.219  11.855 -0.6578  1.1255 -1.1145
    7MPD2    N114261   3.430   0.389  11.655 -0.0250 -0.1409 -0.9220
    7MPD2    H714262   3.448   0.442  11.740  2.6605 -1.2320 -0.8181
    8TMC3    C114263   3.618   0.511  11.590 -0.2755 -0.3096 -0.2655
    8TMC3    C214264   3.604   0.631  11.528 -0.4628 -0.7499  0.6998
    8TMC3    C314265   3.587   0.747  11.600 -0.8611 -0.3438  0.3869
    8TMC3    C414266   3.632   0.511  11.721  0.3365  0.3184 -0.2696
    8TMC3    C514267   3.612   0.631  11.790 -0.2288 -0.5262  0.5637
    8TMC3    C614268   3.598   0.754  11.733 -0.1059 -0.1775 -0.1118
    8TMC3     C14269   3.516   0.412  11.550  0.1594  0.4729 -0.3241
    8TMC3     O14270   3.521   0.374  11.433  0.1250 -0.0230 -0.1094
    8TMC3     H14271   3.579   0.628  11.423 -0.7022 -1.8363  0.7871
    8TMC3    H114272   3.655   0.423  11.780 -0.3934  1.0428  1.1185
    8TMC3    H214273   3.566   0.843  11.787 -0.2249 -0.3132  0.0395
    8TMC3    C714274   3.521   0.597  11.901  0.2970 -0.2904 -0.0443
    8TMC3    C814275   3.523   0.853  11.529  0.4951 -0.1954 -0.0827
    8TMC3    O114276   3.467   0.486  11.902 -0.3899  0.2909  0.6800
    8TMC3    O214277   3.571   0.863  11.416  0.3875  0.6328  0.9318
    9MPD2     C14278   3.234   1.059  11.638  0.4723  0.1668 -0.2963
    9MPD2    C114279   3.347   1.027  11.561 -0.0224 -0.3510 -0.2402
    9MPD2    C214280   3.373   1.100  11.445  0.3070  0.1008  0.2532
    9MPD2    C314281   3.279   1.202  11.416  0.1005  0.2224  0.1238
    9MPD2    C414282   3.182   1.245  11.500 -0.8229  0.0317  0.4555
    9MPD2    C514283   3.158   1.173  11.615  0.5079 -0.2169  0.5039
    9MPD2     H14284   3.441   1.064  11.369  1.1027  1.5175  0.2945
    9MPD2    H114285   3.105   1.312  11.463 -0.0968 -0.2449 -1.5740
    9MPD2    H214286   3.215   1.021  11.738 -2.9540 -1.4497 -1.5693
    9MPD2    H314287   3.074   1.199  11.677 -1.4079 -0.0684 -2.1458
    9MPD2     N14288   3.277   1.270  11.297 -0.0656 -0.0467 -0.1795
    9MPD2    H514289   3.192   1.323  11.281 -0.3476  0.1879  2.1213
    9MPD2    N114290   3.419   0.910  11.595 -0.3071  0.2543 -0.1354
    9MPD2    H714291   3.381   0.855  11.671 -1.0023  0.3147 -0.4457
    1MPD1     C14292   2.289   0.334  16.748  0.0938 -0.4198  0.0689
    1MPD1    C114293   2.422   0.358  16.721  0.0538  0.0228  0.1861
    1MPD1    C214294   2.516   0.263  16.771 -0.1741  0.2847 -0.6633
    1MPD1    C314295   2.478   0.136  16.816  0.1228  0.3164 -0.0205
    1MPD1    C414296   2.348   0.114  16.828 -0.3371 -0.2718  0.5491
    1MPD1    C514297   2.257   0.214  16.797  0.2408  0.4941  0.7132
    1MPD1     H14298   2.621   0.290  16.781 -0.4183  0.7503  0.7274
    1MPD1    H114299   2.316   0.012  16.851  1.2515 -0.5453  1.5539
    1MPD1    H214300   2.219   0.404  16.704  0.2169 -0.1440  0.3170
    1MPD1    H314301   2.156   0.176  16.809  0.0958  0.7231  0.1853
    1MPD1     N14302   2.565   0.038  16.870  0.1598 -0.4763  0.0244
    1MPD1    H514303   2.526   4.690  16.900  1.1040 -0.1318  2.2195
    1MPD1    N114304   2.461   0.482  16.677  0.2925  0.1440  0.0139
    1MPD1    H614305   2.543   0.479  16.617  0.1153 -0.7278 -0.1825
    1MPD1    H714306   2.387   0.536  16.633 -0.8708 -1.4714 -0.0269
    2TMC2    C114307   2.769   4.452  16.978 -0.0730 -0.3070  0.6521
    2TMC2    C214308   2.897   4.439  16.930 -0.0865  0.4747 -0.1981
    2TMC2    C314309   2.955   4.546  16.878  0.1396  0.2856 -0.3105
    2TMC2    C414310   2.701   4.564  16.967 -0.2030 -0.3705 -0.4708
    2TMC2    C514311   2.774   4.678  16.933  0.2760  0.3142  0.7829
    2TMC2    C614312   2.906   4.671  16.886 -0.1766  0.4141  0.1394
    2TMC2     C14313   2.725   4.340  17.061  0.2343 -0.2980  0.2275
    2TMC2     O14314   2.810   4.273  17.117 -0.2130  0.0141  0.1330
    2TMC2     H14315   2.937   4.339  16.916  2.5517  1.7780 -1.8962
    2TMC2    H114316   2.616   4.581  17.031 -0.9622 -3.9797 -0.5321
    2TMC2    H214317   2.947   0.018  16.839  4.5986 -1.7209  0.3136
    2TMC2    C714318   2.702   0.057  16.885 -0.4938 -0.1096 -0.4108
    2TMC2    C814319   3.095   4.528  16.847  0.3163 -0.0994 -0.3044
    2TMC2    O114320   2.775   0.143  16.838 -0.7355 -0.3947 -0.0350
    2TMC2    O214321   3.140   4.428  16.792 -0.5138 -0.4054 -0.7044
    2TMC2    O514322   3.165   4.605  16.938  0.0553 -0.2967  0.2497
    2TMC2    H514323   3.128   4.691  16.966  0.1065 -0.7125  1.6019
    3MPD1     C14324   2.361   4.004  17.236 -0.1623 -0.0620  0.2103
    3MPD1    C114325   2.295   4.102  17.157 -0.4358  1.0172 -0.6225
    3MPD1    C214326   2.379   4.214  17.124 -0.1986  0.1630  0.1877
    3MPD1    C314327   2.516   4.218  17.130  0.0252 -0.0641 -0.0408
    3MPD1    C414328   2.575   4.110  17.189  0.3768  0.3841  0.1478
    3MPD1    C514329   2.498   4.015  17.248  0.0365  0.2622 -0.0708
    3MPD1     H14330   2.331   4.290  17.063 -1.5249 -2.1232 -1.6529
    3MPD1    H114331   2.682   4.106  17.203  0.3454 -0.4939  0.1613
    3MPD1    H214332   2.311   3.920  17.283 -2.5052  0.3096 -1.6048
    3MPD1    H314333   2.554   3.934  17.292 -1.2058  0.0737  1.1872
    3MPD1     N14334   2.589   4.324  17.060 -0.0548  0.1903 -0.0780
    3MPD1    H514335   2.527   4.383  17.005 -2.1761 -1.8077  0.1705
    3MPD1    N114336   2.156   4.115  17.138 -0.3135 -0.0465 -0.4852
    3MPD1    H614337   2.119   4.176  17.066 -0.4912 -3.7807 -3.6033
    3MPD1    H714338   2.099   4.030  17.144  1.4356 -1.3530 -2.1348
    1TMC1    C114339   1.330   3.142  12.898  0.2200  0.5724  0.2266
    1TMC1    C214340   1.339   3.054  12.787 -0.4941 -0.0692  0.1049
    1TMC1    C314341   1.221   3.029  12.725 -0.2518 -0.0461  0.0757
    1TMC1    C414342   1.213   3.197  12.938 -0.6906  0.0176  0.0963
    1TMC1    C514343   1.099   3.158  12.875 -0.0851 -0.2638 -0.3452
    1TMC1    C614344   1.097   3.063  12.780 -0.2381 -0.5227  0.0902
    1TMC1     C14345   1.449   3.158  12.980  1.0175 -0.1757  0.1280
    1TMC1     O14346   1.556   3.141  12.925 -0.5293 -0.1147 -0.5691
    1TMC1     H14347   1.433   3.012  12.753  0.4071  1.3390  0.8686
    1TMC1    H114348   1.209   3.267  13.021  0.2020 -1.1145  1.0934
    1TMC1    H214349   1.005   3.038  12.730 -0.2961 -2.7721  1.3463
    1TMC1    C714350   0.971   3.222  12.900 -0.1308  0.2332  0.4180
    1TMC1    C814351   1.226   3.003  12.586  0.6626  0.1205 -0.4760
    1TMC1    O114352   0.933   3.322  12.843  0.1490 -0.2811 -0.0782
    1TMC1    O214353   1.199   2.895  12.534  0.5489  0.1766 -0.0764
    1TMC1    O314354   0.961   3.217  13.034 -0.0176 -0.1652 -0.0301
    1TMC1    H314355   0.992   3.128  13.060  2.0639  0.4184 -0.5444
    1TMC1    O514356   1.333   3.066  12.528 -0.6766 -0.1061  0.2855
    1TMC1    H514357   1.369   3.145  12.573 -1.1626 -0.0274  0.5373
    2MPD2     C14358   1.646   3.276  13.172 -0.9303  0.2626  0.2662
    2MPD2    C114359   1.518   3.239  13.208 -0.2936  0.0401  0.1602
    2MPD2    C214360   1.490   3.269  13.340 -0.1324  0.5594 -0.2088
    2MPD2    C314361   1.576   3.325  13.430 -0.4715  0.0829 -0.6177
    2MPD2    C414362   1.700   3.359  13.382 -0.7337  0.3720  0.5250
    2MPD2    C514363   1.735   3.341  13.254  0.2208  0.6889  0.5947
    2MPD2     H14364   1.391   3.237  13.370  0.6091 -2.5815 -1.0772
    2MPD2    H114365   1.774   3.409  13.443 -0.2142 -2.3309  2.1041
    2MPD2    H214366   1.687   3.249  13.075 -0.5848  0.8540  0.2473
    2MPD2    H314367   1.833   3.368  13.215  0.3519 -0.9688 -0.2560
    2MPD2     N14368   1.534   3.333  13.562 -0.2745  0.0036  0.7147
    2MPD2    H514369   1.446   3.290  13.590  0.3360  0.4545  3.3459
    2MPD2    N114370   1.422   3.188  13.112 -0.7524  0.0753 -0.1057
    2MPD2    H714371   1.325   3.194  13.141  0.2934 -2.3567  3.9495
    3TCq1    O114372   1.185   3.395  13.926  0.0008 -0.1047  0.0600
    3TCq1    C114373   1.251   3.299  13.997  0.0480 -0.3928  0.9612
    3TCq1    O214374   1.222   3.263  14.109 -0.2387  0.4306  0.6361
    3TCq1    C214375   1.390   3.290  13.954  0.2697 -0.6018 -0.1549
    3TCq1    C314376   1.483   3.277  14.052 -0.8340 -0.6800 -0.1739
    3TCq1    C414377   1.611   3.289  14.021 -0.4873 -0.0995 -0.2651
    3TCq1    C514378   1.657   3.330  13.903  0.3312  0.7980  0.2321
    3TCq1    C614379   1.560   3.340  13.800  0.1112 -0.0560 -0.5090
    3TCq1    C714380   1.431   3.319  13.823  0.0032  0.0558 -0.0532
    3TCq1    C814381   1.611   3.385  13.668 -0.3269  0.8374  0.9033
    3TCq1    O414382   1.730   3.418  13.659 -0.4951 -0.2765  0.2173
    3TCq1    C914383   1.706   3.282  14.129  0.2864 -0.1570  0.0036
    3TCq1    O514384   1.663   3.251  14.238 -0.5864 -0.1516  0.0134
    3TCq1    O614385   1.828   3.285  14.099  0.4119 -0.1145 -0.2179
    3TCq1    H114386   1.238   3.433  13.853 -0.6757  1.7375  0.5146
    3TCq1    H214387   1.463   3.266  14.158 -1.2344 -1.0443 -0.2874
    3TCq1    H314388   1.761   3.345  13.874  0.3352 -1.0846 -0.7396
    3TCq1    H414389   1.353   3.331  13.749 -0.1684  1.3793  0.3415
    1MPD2     C14390   0.053   4.157  15.436 -1.1737  0.0939  0.2249
    1MPD2    C114391   0.042   4.029  15.393  0.4446  0.3802 -0.0219
    1MPD2    C214392   0.144   3.960  15.334  0.1816  0.2476  0.7030
    1MPD2    C314393   0.263   4.020  15.321 -0.0715  0.5715  0.4028
    1MPD2    C414394   0.284   4.148  15.362 -0.0626 -1.2560  0.1401
    1MPD2    C514395   0.178   4.220  15.420 -0.1097 -1.0539  0.4674
    1MPD2     H14396   0.134   3.862  15.290  1.5641  1.0430 -1.3600
    1MPD2    H114397   0.376   4.204  15.352 -1.1073  0.5598  0.7010
    1MPD2    H214398   4.713   4.198  15.495  0.3376  1.2638  1.4553
    1MPD2    H314399   0.197   4.320  15.456  0.3075 -0.3807 -1.6585
    1MPD2     N14400   0.363   3.945  15.252 -0.3500  0.4145 -0.0400
    1MPD2    H514401   0.332   3.855  15.216 -0.4185  0.8291 -1.0059
    1MPD2    N114402   4.656   3.980  15.402 -0.5648 -0.1639  0.0416
    1MPD2    H714403   4.592   4.050  15.438  0.2507 -0.2115  1.5755
    2TMC3    C114404   4.471   3.831  15.394  0.5062 -0.4487 -0.0742
    2TMC3    C214405   4.442   3.700  15.382 -0.6138  0.9386 -0.0156
    2TMC3    C314406   4.362   3.668  15.277  0.4211  0.1915 -0.0666
    2TMC3    C414407   4.406   3.929  15.327  0.5437 -0.1725  0.1253
    2TMC3    C514408   4.296   3.882  15.260  0.3069  0.4626 -0.5973
    2TMC3    C614409   4.270   3.757  15.232  0.3852  0.0549  0.3545
    2TMC3     C14410   4.615   3.850  15.392 -0.2618  0.4256 -0.3598
    2TMC3     O14411   4.688   3.752  15.368  0.2874 -0.0175  0.3310
    2TMC3     H14412   4.487   3.622  15.443  0.5304  0.4618 -1.4853
    2TMC3    H114413   4.411   4.034  15.352  0.4680 -0.0011 -0.5915
    2TMC3    H214414   4.200   3.727  15.154 -0.6481  1.6492  0.6716
    2TMC3    C714415   4.231   3.970  15.161  0.0408 -0.1376  0.1647
    2TMC3    C814416   4.422   3.594  15.173  0.8953  0.0766 -0.0459
    2TMC3    O114417   4.116   3.947  15.126  0.0567  0.4262  0.4106
    2TMC3    O214418   4.361   3.587  15.066 -0.3962  0.2907  0.3064
    3TCq1    O114419   0.282   4.689  14.967  0.2370  0.4378 -0.3738
    3TCq1    C114420   0.206   0.011  14.874  0.4238  1.0212 -0.7342
    3TCq1    O214421   0.130   0.101  14.898 -0.4301 -0.6236  0.4507
    3TCq1    C214422   0.170   4.647  14.781  0.6077 -0.2251  0.5766
    3TCq1    C314423   0.249   4.541  14.774  0.3872 -0.3337  0.1160
    3TCq1    C414424   0.199   4.419  14.741 -0.0246  0.0895  0.1292
    3TCq1    C514425   0.065   4.397  14.736 -0.2237 -0.1173  0.5812
    3TCq1    C614426   4.726   4.505  14.741 -0.0037  0.1286 -0.3770
    3TCq1    C714427   0.033   4.636  14.761 -0.8965 -0.1032  0.2234
    3TCq1    C814428   4.582   4.487  14.771 -0.6803 -0.2074 -1.1262
    3TCq1    O414429   4.499   4.578  14.766 -0.3614 -0.0136  0.6187
    3TCq1    C914430   0.287   4.301  14.734  0.0867 -1.2617 -0.1975
    3TCq1    O514431   0.411   4.322  14.724  0.4750 -0.2126  0.1761
    3TCq1    O614432   0.235   4.192  14.706  0.4283  0.1181 -0.5783
    3TCq1    H114433   0.311   4.595  14.957  0.2746  0.3117  0.9022
    3TCq1    H214434   0.355   4.563  14.773  0.7836 -2.3050 -0.5579
    3TCq1    H314435   0.028   4.297  14.717  2.1773 -1.2916  2.1644
    3TCq1    H414436   4.712   4.719  14.793 -1.3174 -0.1653 -0.4204
    4MPD2     C14437   4.317   4.314  14.797  0.3345  0.7195 -1.0711
    4MPD2    C114438   4.440   4.291  14.857  0.6471  0.4370  0.2222
    4MPD2    C214439   4.435   4.192  14.950 -0.1076 -0.6200  0.1960
    4MPD2    C314440   4.312   4.133  14.987  0.6213 -0.0938  0.3537
    4MPD2    C414441   4.191   4.162  14.921 -0.6904 -0.0086 -0.2035
    4MPD2    C514442   4.198   4.249  14.818 -0.3524  0.6466 -0.2536
    4MPD2     H14443   4.521   4.175  15.015  0.3578 -1.8734 -0.7420
    4MPD2    H114444   4.098   4.110  14.943 -0.2474 -0.3201  0.9125
    4MPD2    H214445   4.313   4.394  14.724 -0.1745  0.7434 -1.0112
    4MPD2    H314446   4.109   4.273  14.761  0.2544  0.5139 -1.2659
    4MPD2     N14447   4.319   4.048  15.104  0.1135  0.3218 -0.5628
    4MPD2    H514448   4.415   4.033  15.133 -0.4465  2.6034  2.3887
    4MPD2    N114449   4.558   4.356  14.820  0.2025  0.2262  0.0977
    4MPD2    H714450   4.650   4.323  14.848  0.0133 -0.7335 -0.4215
    5TMC2    C114451   0.461   3.676  15.117 -0.2995 -1.0697  0.3801
    5TMC2    C214452   0.550   3.624  15.206  0.2102 -0.9763 -0.8551
    5TMC2    C314453   0.650   3.702  15.256  0.3930 -0.2365  0.2472
    5TMC2    C414454   0.460   3.808  15.096 -0.3371 -0.0317  0.2771
    5TMC2    C514455   0.562   3.887  15.155 -0.0357 -0.2164  0.0435
    5TMC2    C614456   0.666   3.833  15.228 -0.0257 -0.4244 -0.5538
    5TMC2     C14457   0.329   3.616  15.136 -0.6396  0.2943 -0.0610
    5TMC2     O14458   0.296   3.589  15.251  0.2383 -0.0563  0.1639
    5TMC2     H14459   0.531   3.522  15.237 -0.6753 -0.7197 -0.5721
    5TMC2    H114460   0.396   3.856  15.023  1.6357 -0.5521 -1.7896
    5TMC2    H214461   0.733   3.901  15.279  0.4993 -0.2682 -1.4438
    5TMC2    C714462   0.491   3.990  15.232 -0.1478 -0.9823  0.3821
    5TMC2    C814463   0.732   3.652  15.363  0.4375  0.2081 -0.2307
    5TMC2    O114464   0.556   4.090  15.265  0.1668  0.2588 -0.1826
    5TMC2    O214465   0.714   3.541  15.406  0.2539 -0.1377 -0.2405
    5TMC2    O514466   0.858   3.686  15.318  0.1022  0.1892 -0.1760
    5TMC2    H514467   0.851   3.746  15.240 -1.4587 -0.2891 -0.4049
    6MPD2     C14468   4.603   3.508  14.960  0.2868 -0.6442  0.0502
    6MPD2    C114469   4.641   3.536  15.090 -0.3529  0.2666  0.0486
    6MPD2    C214470   0.031   3.568  15.111 -0.2832 -0.3256  0.7869
    6MPD2    C314471   0.123   3.577  15.008  0.1223  0.4366  0.0726
    6MPD2    C414472   0.089   3.537  14.884 -0.3636  0.0332 -0.3197
    6MPD2    C514473   4.698   3.510  14.858 -0.5688 -0.6929  0.1511
    6MPD2     H14474   0.066   3.612  15.204  0.1557 -1.2690  1.0693
    6MPD2    H114475   0.159   3.534  14.801 -1.8770 -0.1648 -1.6083
    6MPD2    H214476   4.499   3.491  14.931 -0.0667  3.8344 -1.2212
    6MPD2    H314477   4.665   3.490  14.757 -0.8581 -0.3033  0.1718
    6MPD2     N14478   0.261   3.613  15.024  0.2359  0.3083 -0.2429
    6MPD2    H514479   0.320   3.631  14.944 -3.2216  2.5640 -2.3128
    6MPD2    N114480   4.553   3.570  15.189 -0.0886  0.0429  0.1256
    6MPD2    H714481   4.587   3.606  15.278 -2.1197  0.8131  0.5823
  945NH4     N114482   2.133   1.527  16.464 -0.1848  0.0274 -0.4283
  945NH4     H214483   2.130   1.495  16.562 -0.2859  0.1257 -0.3986
  945NH4     H314484   2.206   1.600  16.453 -0.5023  0.4951  0.5281
  945NH4     H414485   2.042   1.568  16.432  0.2716  2.0962  0.8949
  945NH4     H514486   2.160   1.450  16.400 -2.5706  0.3922 -1.9007
  946SOD     NA14487   1.817   3.165  12.598  0.4297 -0.1288 -0.2910
  947SOD     NA14488   0.182   4.086  14.530 -0.2822 -0.3230  0.3459
  948SOD     NA14489   3.109   0.208  13.576 -0.4025 -0.0024 -0.1453
  949SOD     NA14490   0.511   0.257   2.447  0.1294 -0.2482  0.4240
  950SOD     NA14491   4.408   0.757  13.273  0.1368 -0.7314 -0.1137
  951SOD     NA14492   3.743   0.095  12.004  0.7935 -0.1166 -0.2334
  952SOD     NA14493   1.177   0.023  14.353 -0.2885 -0.5415  0.2128
  953SOL     OW14494   2.579   3.700   7.454  0.1847  0.0270  0.0335
  953SOL    HW114495   2.484   3.698   7.464  0.1860  1.4155  0.3278
  953SOL    HW214496   2.620   3.701   7.540  1.3095  0.2558 -0.5134
  954SOL     OW14497   1.124   0.674   2.908 -0.2718  0.1789  0.1409
  954SOL    HW114498   1.059   0.734   2.944 -0.5957  1.4321 -2.5457
  954SOL    HW214499   1.183   0.739   2.870  0.8335 -1.0274 -0.2226
  955SOL     OW14500   0.172   2.603   5.972  0.2641  0.2951 -0.3975
  955SOL    HW114501   0.095   2.655   5.993 -0.8567 -1.6272  0.2089
  955SOL    HW214502   0.244   2.667   5.977 -0.8278  1.6622 -2.4782
  956SOL     OW14503   2.728   1.827  16.416  0.3479 -0.5219 -0.2397
  956SOL    HW114504   2.659   1.876  16.372 -0.1414 -0.0637  1.0279
  956SOL    HW214505   2.763   1.896  16.471 -0.6048 -2.1509  2.4398
  957SOL     OW14506   3.967   1.339   2.809 -0.0003  0.5328  0.3373
  957SOL    HW114507   4.005   1.371   2.728 -1.0183  2.7031  0.7264
  957SOL    HW214508   3.881   1.383   2.811 -0.0070  0.5565 -0.7498
  958SOL     OW14509   4.300   4.656   9.556 -0.2517  0.3033 -0.0169
  958SOL    HW114510   4.395   4.648   9.560 -0.3822 -0.9381  0.5289
  958SOL    HW214511   4.280   4.568   9.522  1.7478 -0.2333  0.1873
  959SOL     OW14512   0.031   0.471   4.086  0.7987 -0.2572  0.0563
  959SOL    HW114513   4.704   0.528   4.122  1.2588  0.9719 -1.0201
  959SOL    HW214514   0.033   0.507   3.997 -0.4074  0.2629  0.2318
  960SOL     OW14515   0.147   4.503   2.308  0.4806 -0.6447  0.0889
  960SOL    HW114516   0.173   4.588   2.272  0.9809 -0.3248  1.2250
  960SOL    HW214517   0.115   4.459   2.229  0.4123  0.6772 -0.6267
  961SOL     OW14518   0.226   2.885   9.694 -0.0931  1.0567 -0.2771
  961SOL    HW114519   0.236   2.792   9.673  0.5960  0.6681  1.7700
  961SOL    HW214520   0.186   2.877   9.781 -0.1552  2.2859 -0.1989
  962SOL     OW14521   0.527   0.396   5.921  0.3695 -0.4502  0.0375
  962SOL    HW114522   0.590   0.345   5.869  0.9214 -1.8614  2.1084
  962SOL    HW214523   0.569   0.481   5.908  0.7336 -0.5934  0.2666
  963SOL     OW14524   0.451   1.567   5.313  0.5432 -0.1846 -0.3338
  963SOL    HW114525   0.415   1.577   5.225 -0.0416  2.7559  0.2440
  963SOL    HW214526   0.438   1.654   5.350 -1.7121  0.1009 -1.7356
  964SOL     OW14527   0.667   2.174   7.006 -0.7717  0.3891 -0.0900
  964SOL    HW114528   0.690   2.121   6.929  1.1097 -0.8813  1.3714
  964SOL    HW214529   0.615   2.107   7.052 -0.3310 -1.0588 -1.6957
  965SOL     OW14530   4.589   1.536   4.412 -0.0194 -0.3553 -0.0325
  965SOL    HW114531   4.531   1.521   4.487  0.4842 -0.4338  0.3420
  965SOL    HW214532   4.676   1.512   4.443 -0.5007 -1.0071  0.8308
  966SOL     OW14533   3.176   0.144   8.859 -0.4459  0.3536  0.3609
  966SOL    HW114534   3.123   0.189   8.926 -0.6106 -0.2285  0.6158
  966SOL    HW214535   3.241   0.101   8.914 -0.5332  0.7887  0.8042
  967SOL     OW14536   4.154   4.335  12.599  0.8933 -0.5610 -0.3729
  967SOL    HW114537   4.226   4.272  12.589  0.0156 -1.4775 -0.9296
  967SOL    HW214538   4.122   4.361  12.512 -0.4121  0.2929  0.3818
  968SOL     OW14539   2.728   0.578  14.678 -0.3841 -0.6025 -0.1419
  968SOL    HW114540   2.729   0.497  14.627  0.6706 -1.2319  0.8856
  968SOL    HW214541   2.636   0.591  14.704 -0.0003 -0.6703  1.2424
  969SOL     OW14542   0.848   0.250   7.977 -0.7771 -0.1855  0.0816
  969SOL    HW114543   0.778   0.300   7.935 -0.0216 -0.3772 -1.3759
  969SOL    HW214544   0.817   0.237   8.067 -0.4459 -0.7463  0.1171
  970SOL     OW14545   3.844   0.717   5.785 -0.1563 -0.3670  0.1358
  970SOL    HW114546   3.863   0.655   5.715  1.4431 -0.3247  0.5422
  970SOL    HW214547   3.782   0.775   5.741  0.7551  0.4196 -0.1192
  971SOL     OW14548   1.796   0.164   4.710 -0.2338  0.1655  0.8366
  971SOL    HW114549   1.722   0.205   4.755  0.8558  0.3049  2.5137
  971SOL    HW214550   1.778   0.077   4.675  3.1040  0.9228 -2.7419
  972SOL     OW14551   4.467   2.898  11.586 -0.0859  0.2665 -0.2891
  972SOL    HW114552   4.463   2.984  11.545  0.0342  0.6489  0.5118
  972SOL    HW214553   4.388   2.860  11.547  0.0142  0.2946 -0.5204
  973SOL     OW14554   2.182   1.005   3.270  0.4660 -0.3329  0.1418
  973SOL    HW114555   2.243   1.060   3.221 -0.7488  1.2414  0.4149
  973SOL    HW214556   2.127   1.074   3.305  1.6161  0.7229 -0.1503
  974SOL     OW14557   2.620   2.976  16.930 -0.0625 -0.2340  0.1086
  974SOL    HW114558   2.531   2.942  16.942 -0.0736  0.2060  1.1891
  974SOL    HW214559   2.620   3.071  16.944 -2.0849 -0.1554 -0.4197
  975SOL     OW14560   4.635   0.819   5.070  0.1273  0.2489  0.0970
  975SOL    HW114561   4.585   0.844   5.148 -0.4918  0.1078 -0.2641
  975SOL    HW214562   4.662   0.729   5.085 -2.1377 -0.5268 -0.4932
  976SOL     OW14563   2.398   3.386  10.151 -0.3155  0.0491  0.3530
  976SOL    HW114564   2.393   3.298  10.112 -0.1364 -0.8684  2.4111
  976SOL    HW214565   2.356   3.447  10.090  1.5853  1.3504  0.3267
  977SOL     OW14566   4.657   3.962   4.427 -0.5754  0.0170 -0.1241
  977SOL    HW114567   4.628   4.023   4.495  1.4677 -0.6486  1.3419
  977SOL    HW214568   4.571   3.926   4.408 -1.5113  0.8173  2.5953
  978SOL     OW14569   4.069   2.543   2.933  0.8563  0.2327  0.2804
  978SOL    HW114570   4.157   2.578   2.945  1.8575 -1.7662 -1.2590
  978SOL    HW214571   4.094   2.463   2.886 -1.2591  0.1365 -0.7062
  979SOL     OW14572   4.180   2.887   1.463  0.0911 -0.3162 -0.1588
  979SOL    HW114573   4.127   2.918   1.390 -0.0295  2.6600  1.1731
  979SOL    HW214574   4.232   2.816   1.426  0.5217 -0.1183  0.0512
  980SOL     OW14575   3.190   3.993   4.118 -0.1920 -0.4726 -0.1096
  980SOL    HW114576   3.115   3.935   4.099  1.0909 -1.2898 -2.7228
  980SOL    HW214577   3.149   4.069   4.159 -1.7095 -1.6166  0.5165
  981SOL     OW14578   4.433   0.979   6.039  0.6876 -0.4625 -0.3743
  981SOL    HW114579   4.440   1.072   6.018 -0.0570 -0.2097  0.5098
  981SOL    HW214580   4.338   0.988   6.050  0.7254  1.0010 -1.2873
  982SOL     OW14581   2.461   2.163   3.676 -0.3743 -0.2376  0.1596
  982SOL    HW114582   2.416   2.200   3.600 -0.7373 -1.9448 -0.4576
  982SOL    HW214583   2.530   2.229   3.688 -2.0741  1.3548  1.0700
  983SOL     OW14584   4.403   4.679   1.839  0.2080 -0.0413  0.5124
  983SOL    HW114585   4.453   0.018   1.855 -2.8620  1.4818  2.4739
  983SOL    HW214586   4.461   4.604   1.851 -0.5550 -0.7707 -0.3856
  984SOL     OW14587   3.081   4.293   8.524 -0.0033 -0.3134  0.1253
  984SOL    HW114588   3.031   4.355   8.471  1.4432 -1.9478 -3.1110
  984SOL    HW214589   3.139   4.261   8.455  1.2420 -1.1019  1.5416
  985SOL     OW14590   1.855   3.498   6.859 -0.3615  0.6110 -0.5366
  985SOL    HW114591   1.863   3.466   6.769  3.2844  1.5047 -0.5250
  985SOL    HW214592   1.760   3.503   6.865 -0.5380 -1.6120 -1.1834
  986SOL     OW14593   3.169   4.520   5.000 -0.1148  0.1586 -0.3666
  986SOL    HW114594   3.106   4.454   4.971 -0.0414  0.1143 -0.4238
  986SOL    HW214595   3.149   4.517   5.094 -0.6447  1.6635 -0.4324
  987SOL     OW14596   1.535   3.602   5.058  0.1605 -0.7724 -0.0318
  987SOL    HW114597   1.550   3.692   5.028 -0.4208 -1.3152 -1.9070
  987SOL    HW214598   1.499   3.563   4.979 -2.6079 -1.4795  1.6053
  988SOL     OW14599   2.232   1.343  10.349  0.8393  0.7308  0.5405
  988SOL    HW114600   2.289   1.270  10.324  0.6727  1.0786 -0.8504
  988SOL    HW214601   2.164   1.308  10.407 -2.5884  2.9076 -2.1901
  989SOL     OW14602   3.013   2.875   6.538 -0.0641 -0.4399 -0.4189
  989SOL    HW114603   2.943   2.866   6.473  0.1209  5.5983 -1.5370
  989SOL    HW214604   3.040   2.784   6.549  1.0102  0.0402  0.9145
  990SOL     OW14605   2.421   0.322   5.533 -0.2873  0.0368 -0.0652
  990SOL    HW114606   2.364   0.306   5.458 -0.2438  1.1394 -0.3313
  990SOL    HW214607   2.433   0.414   5.511  2.3151 -0.0412  1.0206
  991SOL     OW14608   4.417   1.204   4.925  0.1402 -0.0382  0.2910
  991SOL    HW114609   4.443   1.211   5.017 -0.8446  0.5825  0.5226
  991SOL    HW214610   4.394   1.294   4.902  0.9363  1.1551  4.2257
  992SOL     OW14611   3.080   2.359   6.808  0.1401  0.1364  0.1717
  992SOL    HW114612   3.043   2.420   6.871  0.3787 -0.1563  0.5927
  992SOL    HW214613   3.136   2.421   6.762 -0.2988  0.6869  0.3745
  993SOL     OW14614   1.972   3.914  16.499 -0.2619  0.0558 -0.4051
  993SOL    HW114615   1.905   3.972  16.536  0.1799  0.0688  0.3819
  993SOL    HW214616   1.982   3.844  16.564  2.2332 -0.5459 -1.4606
  994SOL     OW14617   3.543   0.660   3.231  0.8070 -0.5287 -0.2214
  994SOL    HW114618   3.504   0.645   3.317 -0.5242 -2.2228 -1.1325
  994SOL    HW214619   3.464   0.640   3.181  1.2764  0.6710 -1.4534
  995SOL     OW14620   0.448   2.381   5.335  0.7392 -0.2432 -0.4411
  995SOL    HW114621   0.437   2.472   5.363  1.4994 -0.6058  1.0199
  995SOL    HW214622   0.533   2.368   5.377  1.7606  0.1872 -2.4171
  996SOL     OW14623   2.797   0.693   3.821 -0.7753 -0.1578 -0.3451
  996SOL    HW114624   2.709   0.685   3.859 -0.1443 -2.8515  0.5317
  996SOL    HW214625   2.776   0.767   3.764 -1.3776  0.2288  0.3807
  997SOL     OW14626   3.160   3.486   2.641  0.5208 -0.4594 -0.4232
  997SOL    HW114627   3.125   3.456   2.557  1.7242  3.6030 -2.4065
  997SOL    HW214628   3.081   3.527   2.675 -0.6300 -1.9247 -1.3717
  998SOL     OW14629   3.932   2.720   8.338  0.1067  0.3689 -0.8338
  998SOL    HW114630   3.992   2.769   8.282  1.1753  1.2797  1.0870
  998SOL    HW214631   3.937   2.770   8.420 -0.3426  0.1090 -0.6527
  999SOL     OW14632   3.710   0.900   6.006  0.4246  0.6271  0.3908
  999SOL    HW114633   3.704   0.961   6.079 -0.7980  0.6731  0.2514
  999SOL    HW214634   3.639   0.932   5.949  0.2727 -1.9499 -0.8738
 1000SOL     OW14635   3.001   2.202   6.561 -0.4902 -0.0419  0.2772
 1000SOL    HW114636   3.008   2.252   6.642  0.8741 -1.2613  0.9207
 1000SOL    HW214637   2.909   2.178   6.563 -0.5428  0.0215 -1.0160
 1001SOL     OW14638   1.824   2.820   5.455  0.2993  0.1189  0.5325
 1001SOL    HW114639   1.806   2.751   5.520  2.4933  1.0332  2.1324
 1001SOL    HW214640   1.912   2.799   5.422 -1.0109 -1.1968 -2.0615
 1002SOL     OW14641   4.573   1.949  11.910 -0.2809  0.0196 -0.3257
 1002SOL    HW114642   4.536   1.878  11.857  0.8739 -1.4502  0.8077
 1002SOL    HW214643   4.489   1.985  11.938 -0.1653  1.4436 -1.8707
 1003SOL     OW14644   3.676   2.880   2.434  0.7070  0.6261 -1.3372
 1003SOL    HW114645   3.615   2.865   2.507  0.6571  1.4934 -1.1942
 1003SOL    HW214646   3.624   2.931   2.372  0.6326 -0.6789 -2.3403
 1004SOL     OW14647   0.138   4.591   4.470 -0.3446  0.2107 -0.1189
 1004SOL    HW114648   0.150   4.593   4.375  0.8390  1.6035  0.0643
 1004SOL    HW214649   0.054   4.546   4.479 -1.4995  1.7720 -3.0336
 1005SOL     OW14650   3.103   3.843  16.603  0.0518  0.1696  0.0025
 1005SOL    HW114651   3.127   3.931  16.575  1.3578 -0.8107 -1.9489
 1005SOL    HW214652   3.024   3.861  16.655 -0.0398  0.5644 -0.2748
 1006SOL     OW14653   4.655   4.722  12.631  0.1347  0.2845  0.1860
 1006SOL    HW114654   4.603   4.692  12.557  1.7986  0.6734 -1.1297
 1006SOL    HW214655   4.646   4.651  12.694  1.7927 -1.0215 -1.0847
 1007SOL     OW14656   2.879   0.027   6.350  0.6937 -0.3083 -0.2070
 1007SOL    HW114657   2.861   0.121   6.341  1.9473 -0.2514 -2.0852
 1007SOL    HW214658   2.820   4.741   6.420 -1.1113 -2.3582 -2.5172
 1008SOL     OW14659   1.806   2.043   0.491 -0.1451  0.3790  0.5824
 1008SOL    HW114660   1.895   2.009   0.481 -0.4760 -0.6789  1.2153
 1008SOL    HW214661   1.827   2.115   0.551 -2.6106 -0.4968  2.5217
 1009SOL     OW14662   3.714   1.093   6.192  0.1322  0.6940  0.4792
 1009SOL    HW114663   3.672   1.178   6.202 -1.7513  0.0708 -2.2251
 1009SOL    HW214664   3.719   1.070   6.285 -2.9378  1.5349  0.8560
 1010SOL     OW14665   1.984   0.340  11.323  0.1005  0.2472  0.0193
 1010SOL    HW114666   1.994   0.430  11.293 -1.7446  0.2930 -0.5113
 1010SOL    HW214667   1.944   0.353  11.409 -2.7683  0.7927 -1.3591
 1011SOL     OW14668   0.347   0.056   3.245 -0.3303  0.0818 -0.0761
 1011SOL    HW114669   0.332   0.136   3.195 -0.5760  0.7642  1.0910
 1011SOL    HW214670   0.266   0.009   3.224  0.4149 -1.7568  1.1208
 1012SOL     OW14671   2.596   2.791   2.418 -0.0317 -0.5000 -0.0407
 1012SOL    HW114672   2.580   2.736   2.341  3.3976  1.9634 -2.5060
 1012SOL    HW214673   2.608   2.727   2.489 -0.9606 -1.2203 -0.5386
 1013SOL     OW14674   0.222   0.676   1.691 -0.4853 -0.0101  0.3838
 1013SOL    HW114675   0.296   0.697   1.633 -2.7201 -0.7865 -2.7176
 1013SOL    HW214676   0.156   0.730   1.648 -1.0563  0.5437  1.9599
 1014SOL     OW14677   2.295   4.001   1.764 -0.1254 -0.1830 -0.0272
 1014SOL    HW114678   2.212   3.991   1.810 -1.4005  1.9817 -1.8976
 1014SOL    HW214679   2.359   4.035   1.828 -0.5050  1.5948 -0.5977
 1015SOL     OW14680   3.464   1.636   9.425 -0.4426 -0.3688 -0.3380
 1015SOL    HW114681   3.553   1.606   9.441 -0.8081 -0.3126  1.7808
 1015SOL    HW214682   3.460   1.585   9.344  0.2228  0.9604 -1.2108
 1016SOL     OW14683   4.120   2.066   4.854  0.1579 -0.1551  0.0056
 1016SOL    HW114684   4.074   1.983   4.866  1.1046 -0.4359  1.6370
 1016SOL    HW214685   4.065   2.122   4.908  2.5051  2.2596 -0.0803
 1017SOL     OW14686   3.071   0.637   4.486  0.2985 -0.3257 -0.5505
 1017SOL    HW114687   3.151   0.595   4.452  1.1188  0.2673  0.6518
 1017SOL    HW214688   3.044   0.555   4.527  2.7247 -1.5224 -1.3185
 1018SOL     OW14689   3.747   4.493   8.152 -0.9363 -0.1436  0.3935
 1018SOL    HW114690   3.759   4.569   8.208  0.4926  1.4541 -2.0846
 1018SOL    HW214691   3.761   4.534   8.066 -1.1109 -0.0993  0.3860
 1019SOL     OW14692   1.676   3.372   7.086  0.1952 -0.2621  0.1862
 1019SOL    HW114693   1.716   3.451   7.121  1.7699 -0.8793 -0.2255
 1019SOL    HW214694   1.582   3.389   7.076  0.4705  0.9037 -0.5017
 1020SOL     OW14695   1.755   1.465   5.454  0.5934  0.3175  0.2451
 1020SOL    HW114696   1.850   1.453   5.455  0.6462  0.8976  3.3666
 1020SOL    HW214697   1.725   1.383   5.415  0.0221 -0.3657  2.1039
 1021SOL     OW14698   2.050   4.347   7.547 -0.4257  0.4793 -0.6418
 1021SOL    HW114699   2.140   4.350   7.580 -0.3220  2.1822 -1.0883
 1021SOL    HW214700   2.020   4.437   7.560  0.6265  0.6530  0.5838
 1022SOL     OW14701   4.255   0.469   6.054 -0.2224 -0.6319  0.1825
 1022SOL    HW114702   4.233   0.378   6.074 -2.2126 -0.0837  0.4752
 1022SOL    HW214703   4.343   0.459   6.018 -0.4126 -1.7077  0.0122
 1023SOL     OW14704   3.935   3.948   9.266 -0.0419 -0.2931  0.0223
 1023SOL    HW114705   3.848   3.982   9.243 -0.2162 -0.8187 -0.0810
 1023SOL    HW214706   3.957   3.891   9.193 -0.9599 -1.0059  0.3055
 1024SOL     OW14707   0.156   4.188   4.985 -0.2665  0.4639  0.8956
 1024SOL    HW114708   0.239   4.185   4.938 -0.4755 -0.2233  0.5662
 1024SOL    HW214709   0.109   4.104   4.985  1.5044 -0.5225 -0.0872
 1025SOL     OW14710   1.894   2.782  15.486 -0.3679 -0.3171  0.4675
 1025SOL    HW114711   1.867   2.820  15.569  0.6405  0.9925  0.1922
 1025SOL    HW214712   1.808   2.758  15.452 -0.5900  0.6612  0.3528
 1026SOL     OW14713   3.374   2.125   8.143  0.1329  0.1496 -0.2161
 1026SOL    HW114714   3.305   2.062   8.163  0.5158 -0.2721 -0.2237
 1026SOL    HW214715   3.399   2.108   8.052 -0.6229 -0.1512 -0.3701
 1027SOL     OW14716   4.152   4.114   2.802 -0.5150  0.2361 -0.6021
 1027SOL    HW114717   4.245   4.092   2.797  0.0200  2.1286  0.6501
 1027SOL    HW214718   4.153   4.167   2.882  1.0733 -0.0972 -0.3896
 1028SOL     OW14719   2.231   1.635   3.640  0.4056  0.2879  0.4181
 1028SOL    HW114720   2.153   1.678   3.674  0.0158 -0.1175  0.0309
 1028SOL    HW214721   2.291   1.650   3.712 -0.9410  0.2373  1.5445
 1029SOL     OW14722   2.960   2.421   1.714  0.5399  0.9916  0.1351
 1029SOL    HW114723   2.983   2.397   1.804 -1.1209 -1.1845 -0.0132
 1029SOL    HW214724   3.030   2.478   1.683  0.5168  1.1254  0.3231
 1030SOL     OW14725   2.438   2.282   7.827  0.1319 -0.1368  0.0449
 1030SOL    HW114726   2.411   2.325   7.746  0.7734 -0.5182 -0.3712
 1030SOL    HW214727   2.372   2.213   7.835 -0.1789  0.3269  1.4911
 1031SOL     OW14728   0.499   2.457  14.621  0.2606 -0.3274 -0.2002
 1031SOL    HW114729   0.568   2.391  14.616 -0.0597 -0.7309  0.7780
 1031SOL    HW214730   0.495   2.502  14.537  0.7610  0.5242  0.2418
 1032SOL     OW14731   0.018   1.912  14.826 -0.4025 -0.0515  0.1714
 1032SOL    HW114732   0.106   1.949  14.827  0.8792 -3.0704 -0.6187
 1032SOL    HW214733   0.020   1.846  14.895 -2.8555 -1.6981 -1.3222
 1033SOL     OW14734   3.066   2.434   9.599  0.2575 -0.1368  0.0679
 1033SOL    HW114735   3.150   2.461   9.562 -1.0320 -0.4395 -3.0962
 1033SOL    HW214736   3.072   2.342   9.574  1.0251 -0.1054  0.1391
 1034SOL     OW14737   0.563   3.204   5.481  0.2029  0.0903  0.5003
 1034SOL    HW114738   0.502   3.248   5.540 -1.0953 -1.6399  0.4362
 1034SOL    HW214739   0.506   3.174   5.411  0.9064  1.8752 -0.8237
 1035SOL     OW14740   1.149   4.065   3.215 -0.1990  0.0195  0.1711
 1035SOL    HW114741   1.201   4.142   3.189  1.1464 -1.4650 -1.6043
 1035SOL    HW214742   1.094   4.094   3.287  2.7091 -0.2069  2.4654
 1036SOL     OW14743   2.603   0.839  14.890  0.2230  0.5057  0.0823
 1036SOL    HW114744   2.551   0.763  14.861  1.9907 -1.4781  2.0794
 1036SOL    HW214745   2.666   0.850  14.818  0.4208 -0.8809  0.0319
 1037SOL     OW14746   3.243   1.005   6.205  0.2362 -0.6604 -0.1859
 1037SOL    HW114747   3.267   0.918   6.175  2.4602  0.8268 -2.6989
 1037SOL    HW214748   3.191   0.976   6.280 -0.4140  0.3806 -0.2334
 1038SOL     OW14749   1.521   4.194   2.601  0.4876  0.3245  0.2842
 1038SOL    HW114750   1.606   4.213   2.561  0.9910 -0.7690  0.8084
 1038SOL    HW214751   1.536   4.224   2.691  0.2304  0.4374  0.2893
 1039SOL     OW14752   2.030   0.075  11.304 -0.0553 -0.0520 -0.0858
 1039SOL    HW114753   2.059   0.056  11.215 -2.5467  1.8996 -1.2941
 1039SOL    HW214754   2.009   0.168  11.299 -0.7736 -0.0404  3.2410
 1040SOL     OW14755   1.674   1.266   2.518  0.1866  0.0950  0.5394
 1040SOL    HW114756   1.655   1.186   2.470 -0.2075 -0.7011  2.0390
 1040SOL    HW214757   1.762   1.244   2.549 -0.1419 -0.3906  1.1002
 1041SOL     OW14758   2.115   2.217  15.589 -0.0993  0.0589 -0.6248
 1041SOL    HW114759   2.090   2.308  15.579 -1.4294 -0.1920  0.3880
 1041SOL    HW214760   2.194   2.218  15.535  0.3643 -1.6907 -0.0114
 1042SOL     OW14761   2.527   1.508   5.535  0.2692  0.4896  0.1930
 1042SOL    HW114762   2.477   1.533   5.457  1.5363 -0.1835 -0.8360
 1042SOL    HW214763   2.612   1.486   5.496  1.3548  2.0025  1.7165
 1043SOL     OW14764   1.922   1.518  15.802  0.3264  0.1364  0.0196
 1043SOL    HW114765   1.933   1.467  15.722 -1.0350  0.7526 -0.5518
 1043SOL    HW214766   1.971   1.598  15.784 -1.0236  0.8602 -0.3755
 1044SOL     OW14767   1.539   0.720   6.149 -0.3807 -0.4748 -0.2013
 1044SOL    HW114768   1.596   0.664   6.201 -0.2997  0.9155  1.2100
 1044SOL    HW214769   1.496   0.769   6.219 -1.3318 -1.9068  0.2214
 1045SOL     OW14770   2.917   1.733   7.798  0.0596 -0.2718  0.3948
 1045SOL    HW114771   2.909   1.821   7.760  2.0824 -0.1049  0.3656
 1045SOL    HW214772   2.847   1.688   7.750 -0.9107 -0.8263  2.3134
 1046SOL     OW14773   3.781   4.370  15.459  0.1661 -0.0444  0.5751
 1046SOL    HW114774   3.796   4.314  15.536  0.4383 -0.1701  0.4274
 1046SOL    HW214775   3.695   4.339  15.431  0.5729 -2.7770  2.3195
 1047SOL     OW14776   1.544   2.657  11.536 -0.0371 -0.1128 -0.1814
 1047SOL    HW114777   1.577   2.729  11.590  1.2864 -0.1153 -0.9996
 1047SOL    HW214778   1.574   2.682  11.449 -2.8815 -0.8220 -1.3535
 1048SOL     OW14779   4.481   2.971   1.009 -0.2592 -0.4546 -0.2555
 1048SOL    HW114780   4.433   3.034   0.954  1.2421  1.0776  0.1878
 1048SOL    HW214781   4.455   2.989   1.100  3.6845  0.2788  0.7174
 1049SOL     OW14782   2.654   3.294   4.110  0.4651  0.4752 -0.0045
 1049SOL    HW114783   2.600   3.254   4.042  1.3643 -0.3983 -0.2126
 1049SOL    HW214784   2.585   3.307   4.174 -0.2390 -0.2815 -0.6130
 1050SOL     OW14785   0.619   4.017   1.991 -0.0387 -0.1572  0.3562
 1050SOL    HW114786   0.558   3.988   1.923 -0.4645  3.5738 -0.8005
 1050SOL    HW214787   0.598   3.970   2.073  0.9032  0.7857  1.1390
 1051SOL     OW14788   0.287   2.313   3.759  0.2765  0.3328 -0.1393
 1051SOL    HW114789   0.382   2.325   3.763  0.3348 -0.4978  0.6964
 1051SOL    HW214790   0.290   2.229   3.714 -1.3351  0.2017  0.0229
 1052SOL     OW14791   1.896   2.592   8.629  0.3422  0.3042  0.0432
 1052SOL    HW114792   1.918   2.539   8.552  1.9291 -1.2317  1.5529
 1052SOL    HW214793   1.898   2.533   8.704  0.5319  0.1074 -0.1162
 1053SOL     OW14794   3.919   3.149   9.248 -0.0404  0.7253  0.2699
 1053SOL    HW114795   4.013   3.161   9.261 -0.1005 -0.0912  1.4433
 1053SOL    HW214796   3.880   3.194   9.324  0.9315  0.0245  1.1840
 1054SOL     OW14797   2.912   3.081  16.799  0.5078  0.2716  0.2041
 1054SOL    HW114798   2.892   2.989  16.818  1.1745  0.0867  0.0045
 1054SOL    HW214799   2.828   3.122  16.820  0.9111  0.9674  0.4636
 1055SOL     OW14800   3.571   2.572   6.094  0.1680 -0.3736 -0.0934
 1055SOL    HW114801   3.615   2.490   6.116  1.1273  0.0097 -0.6118
 1055SOL    HW214802   3.510   2.538   6.028  0.9295  0.7085 -1.3684
 1056SOL     OW14803   0.796   3.118  15.926  0.0960 -0.3113 -0.3643
 1056SOL    HW114804   0.756   3.187  15.979 -2.8328 -0.7792 -1.9980
 1056SOL    HW214805   0.728   3.105  15.861  1.8222 -1.3233 -1.9644
 1057SOL     OW14806   3.651   1.188   6.912  0.0480  0.0778  0.3882
 1057SOL    HW114807   3.745   1.172   6.918 -0.6565 -3.8570  1.2218
 1057SOL    HW214808   3.628   1.214   7.001 -0.1683 -1.8408  0.8935
 1058SOL     OW14809   3.421   1.580   1.577 -0.2588 -0.2498 -0.4058
 1058SOL    HW114810   3.431   1.593   1.671  0.0138  0.7144 -0.5706
 1058SOL    HW214811   3.451   1.489   1.576  0.6659  0.0751 -1.9176
 1059SOL     OW14812   3.235   3.986   7.291 -0.3168 -0.7077 -0.2293
 1059SOL    HW114813   3.249   3.986   7.196  2.0475 -0.8509  0.1156
 1059SOL    HW214814   3.320   3.988   7.335 -1.6711 -0.9772  2.3796
 1060SOL     OW14815   0.686   2.682   8.474 -0.0822  0.6105 -0.4365
 1060SOL    HW114816   0.672   2.587   8.472 -0.7924  0.7542 -2.3705
 1060SOL    HW214817   0.624   2.704   8.544 -0.9754  0.0792 -1.0531
 1061SOL     OW14818   1.172   2.065  16.082 -0.0385  0.2742 -0.0913
 1061SOL    HW114819   1.204   1.998  16.142 -0.6717 -0.7859 -0.9377
 1061SOL    HW214820   1.114   2.121  16.133 -0.3559  0.1809 -0.3524
 1062SOL     OW14821   2.977   0.080   5.159 -0.0087  0.2039  0.6696
 1062SOL    HW114822   2.955   0.038   5.242 -3.2944  0.4565 -0.0717
 1062SOL    HW214823   2.889   0.063   5.124  0.1763 -0.2550  0.4232
 1063SOL     OW14824   4.063   2.008   9.288  0.3814  0.0647 -0.2294
 1063SOL    HW114825   4.029   2.096   9.304 -2.7917 -0.6718 -2.9078
 1063SOL    HW214826   4.142   1.995   9.340 -0.6202 -2.4626  0.6326
 1064SOL     OW14827   0.385   4.021  12.214 -0.0546 -0.6489 -0.5148
 1064SOL    HW114828   0.409   4.060  12.299  0.4663 -0.9855 -0.5110
 1064SOL    HW214829   0.424   3.934  12.214 -0.2618 -0.7406 -0.5626
 1065SOL     OW14830   1.144   2.674  14.016  0.1713  0.0947 -0.6210
 1065SOL    HW114831   1.139   2.755  14.067  1.9066 -0.7673  0.9167
 1065SOL    HW214832   1.099   2.615  14.077 -0.8563  0.8473 -0.6500
 1066SOL     OW14833   3.664   0.757  10.853 -0.5726  0.3445 -0.0945
 1066SOL    HW114834   3.589   0.786  10.905 -0.9872 -0.6271 -0.1513
 1066SOL    HW214835   3.657   0.663  10.870 -1.5848  0.6357  1.0645
 1067SOL     OW14836   1.050   1.076   4.750  0.0250  0.1308 -0.2328
 1067SOL    HW114837   0.979   1.039   4.802  0.0097  0.5297  0.0333
 1067SOL    HW214838   1.051   1.170   4.771  0.3472  0.0523  0.0980
 1068SOL     OW14839   3.856   1.385   8.867 -0.0848 -0.4558  0.3521
 1068SOL    HW114840   3.931   1.335   8.898  0.0336 -0.2513  0.3970
 1068SOL    HW214841   3.894   1.465   8.831 -0.1310 -0.5306  0.1404
 1069SOL     OW14842   1.868   4.379   5.203  0.1117  0.8504 -0.4924
 1069SOL    HW114843   1.852   4.413   5.115  0.3058  1.7785 -0.1666
 1069SOL    HW214844   1.792   4.322   5.198  1.4405 -0.6417 -3.9578
 1070SOL     OW14845   1.461   0.065   4.859 -0.5070  0.5659  0.2528
 1070SOL    HW114846   1.405   0.098   4.930  0.1068  0.9781  0.5548
 1070SOL    HW214847   1.515   0.143   4.842 -1.4952  1.3669  0.7733
 1071SOL     OW14848   1.054   2.487   6.238  0.1794 -0.0113 -0.0796
 1071SOL    HW114849   1.086   2.571   6.273  0.9961 -0.2318 -0.2836
 1071SOL    HW214850   0.961   2.498   6.258  0.4109  1.1276  0.4310
 1072SOL     OW14851   0.970   0.540  16.788 -0.3674 -1.0737  0.2754
 1072SOL    HW114852   0.907   0.536  16.861 -2.3672  1.6138 -1.2952
 1072SOL    HW214853   1.033   0.607  16.813 -0.2219 -0.7788 -0.8779
 1073SOL     OW14854   0.220   3.520   2.648  0.3904  0.0831 -0.2469
 1073SOL    HW114855   0.148   3.511   2.586  0.1085  3.1113 -0.3612
 1073SOL    HW214856   0.179   3.526   2.734  1.4711  1.0444  0.2077
 1074SOL     OW14857   2.092   1.170   4.439  0.0395  0.1343 -0.3167
 1074SOL    HW114858   2.064   1.258   4.463 -0.5347  0.3302 -1.7215
 1074SOL    HW214859   2.154   1.199   4.373  2.2241  1.6129  2.3649
 1075SOL     OW14860   0.288   0.794   7.190  0.3952  0.3184  0.0229
 1075SOL    HW114861   0.282   0.744   7.109  2.2030  0.5018 -0.2340
 1075SOL    HW214862   0.197   0.783   7.218  0.3701  1.5884  0.4826
 1076SOL     OW14863   4.706   2.012  12.909  0.0183 -0.2370  0.2251
 1076SOL    HW114864   0.040   2.021  12.968 -0.4527 -0.8370  0.9179
 1076SOL    HW214865   4.702   2.086  12.849  0.3433  0.2938  0.8609
 1077SOL     OW14866   0.670   4.487   4.253 -0.1603  0.6641  0.2337
 1077SOL    HW114867   0.685   4.498   4.159  0.3001 -0.5530  0.1633
 1077SOL    HW214868   0.588   4.439   4.262 -0.3867  1.0433  0.1889
 1078SOL     OW14869   3.512   0.476   0.937 -0.1700 -0.0416  0.0918
 1078SOL    HW114870   3.548   0.394   0.970 -0.9563  0.1205  1.3657
 1078SOL    HW214871   3.587   0.521   0.898 -1.7237  0.7304 -1.9694
 1079SOL     OW14872   3.066   0.132   1.798  0.6012  0.7881 -0.0920
 1079SOL    HW114873   2.975   0.159   1.791  0.1710 -0.5525  0.4548
 1079SOL    HW214874   3.058   0.048   1.843  1.8245  0.0923 -1.1718
 1080SOL     OW14875   3.410   4.600   4.070  0.6933  0.3331  1.0222
 1080SOL    HW114876   3.484   4.540   4.074  0.4366 -0.0650 -0.1310
 1080SOL    HW214877   3.391   4.590   3.977 -0.0301  2.5766  0.9220
 1081SOL     OW14878   0.925   2.826  14.469  0.1408 -0.1425 -0.4383
 1081SOL    HW114879   0.908   2.904  14.417 -2.0846 -0.6618 -0.4929
 1081SOL    HW214880   0.992   2.847  14.534  0.4176  0.7229 -1.0134
 1082SOL     OW14881   1.363   0.176   7.690 -0.0269 -0.4083  0.2307
 1082SOL    HW114882   1.283   0.124   7.701 -0.7036  0.1176 -2.3134
 1082SOL    HW214883   1.423   0.125   7.745 -0.2031 -0.3984  0.4292
 1083SOL     OW14884   1.732   4.470   3.914  0.4859 -0.2387  0.0714
 1083SOL    HW114885   1.808   4.441   3.964 -0.5433 -0.7279  1.3543
 1083SOL    HW214886   1.667   4.418   3.961 -1.1996  0.9925 -0.8980
 1084SOL     OW14887   4.042   3.500  16.187  0.4740 -0.2213 -0.3085
 1084SOL    HW114888   3.964   3.524  16.237 -0.8068 -2.7248 -1.1226
 1084SOL    HW214889   4.061   3.417  16.231  0.0809 -0.6126 -0.8808
 1085SOL     OW14890   2.614   1.682   8.911  0.0771  0.1860  0.4430
 1085SOL    HW114891   2.706   1.664   8.890  0.2603 -0.4794  1.8659
 1085SOL    HW214892   2.599   1.615   8.977 -0.4265  0.0031  0.1411
 1086SOL     OW14893   4.420   0.958  13.141  0.1529  0.2157 -0.1862
 1086SOL    HW114894   4.456   0.958  13.052 -1.2503  1.2620 -0.7632
 1086SOL    HW214895   4.394   1.050  13.148  0.6121  0.1386  2.3095
 1087SOL     OW14896   3.694   3.049  10.191  0.2040 -0.4738 -0.2641
 1087SOL    HW114897   3.713   2.989  10.263  1.5726 -0.1510 -0.3628
 1087SOL    HW214898   3.612   3.082  10.228 -0.4507 -0.7253 -1.5090
 1088SOL     OW14899   4.233   2.643   4.552  0.2181  0.0392 -0.7326
 1088SOL    HW114900   4.246   2.551   4.531 -1.7479  0.1596 -2.4750
 1088SOL    HW214901   4.251   2.685   4.468 -0.2374  0.2142 -0.7425
 1089SOL     OW14902   0.551   3.526   9.519  0.3634  0.2375 -0.0584
 1089SOL    HW114903   0.482   3.548   9.581 -0.9604 -1.1496 -1.0494
 1089SOL    HW214904   0.609   3.463   9.561  0.4606 -0.0726 -0.6568
 1090SOL     OW14905   1.124   0.191   1.864  0.3891  0.3471 -0.3670
 1090SOL    HW114906   1.093   0.190   1.773  2.5089 -0.7858 -1.0576
 1090SOL    HW214907   1.077   0.260   1.911 -0.0111 -0.7368  0.8345
 1091SOL     OW14908   1.680   3.316   5.194  0.2291  0.2992 -0.6322
 1091SOL    HW114909   1.758   3.319   5.139 -0.3083  0.3244 -1.3943
 1091SOL    HW214910   1.646   3.229   5.170  3.1944 -0.6425 -1.4638
 1092SOL     OW14911   1.990   3.094   0.209 -0.8045  0.1731  0.2884
 1092SOL    HW114912   1.912   3.067   0.161  0.3415 -0.3161 -1.3227
 1092SOL    HW214913   1.966   3.076   0.300  0.0802  0.5788  0.6030
 1093SOL     OW14914   3.798   4.706   7.262 -0.7839  0.8986  0.1511
 1093SOL    HW114915   3.783   0.017   7.341 -1.7328 -0.0191  0.5770
 1093SOL    HW214916   3.766   0.022   7.192  0.0011 -0.7330 -1.5164
 1094SOL     OW14917   3.608   2.173  13.445  0.1937  0.1362  0.1514
 1094SOL    HW114918   3.557   2.170  13.527  2.0079 -2.2045  1.1929
 1094SOL    HW214919   3.544   2.217  13.389  1.0552  0.5979 -0.4830
 1095SOL     OW14920   0.172   0.111   9.457  0.4434  0.4808  0.0380
 1095SOL    HW114921   0.145   0.054   9.529 -3.0900  0.0476 -1.6818
 1095SOL    HW214922   0.207   0.042   9.401  0.0168  0.0332  0.3238
 1096SOL     OW14923   1.694   1.904  15.497 -0.2342 -0.4316  0.3773
 1096SOL    HW114924   1.673   1.888  15.405  0.4535 -1.7963  0.4513
 1096SOL    HW214925   1.612   1.870  15.535 -1.0497  1.7603  0.5599
 1097SOL     OW14926   4.467   4.083   7.874 -0.6905 -0.2776  0.1855
 1097SOL    HW114927   4.556   4.054   7.856 -0.7072 -0.9958  1.2167
 1097SOL    HW214928   4.473   4.174   7.847 -0.1038  0.5057  2.9341
 1098SOL     OW14929   1.515   3.694   0.570  0.2638 -0.2896 -0.6395
 1098SOL    HW114930   1.452   3.761   0.544  0.3447  0.1261  0.2173
 1098SOL    HW214931   1.577   3.697   0.498  0.7507  0.9620 -0.1688
 1099SOL     OW14932   1.044   1.385  12.481  0.1370 -0.7562 -0.2455
 1099SOL    HW114933   1.075   1.320  12.418  1.1025 -0.7644  0.2384
 1099SOL    HW214934   0.953   1.384  12.450  0.0764  0.1016 -0.0852
 1100SOL     OW14935   2.009   3.948   1.788  0.3917 -0.3021 -0.6413
 1100SOL    HW114936   1.960   4.025   1.759  0.1978 -0.8934 -1.8901
 1100SOL    HW214937   1.947   3.919   1.855  1.4668 -1.6115 -0.1997
 1101SOL     OW14938   2.764   0.512   6.705  0.1563 -0.1163 -0.1798
 1101SOL    HW114939   2.709   0.535   6.780  0.9220 -1.6750  0.8538
 1101SOL    HW214940   2.829   0.449   6.736  1.7555  1.8653  0.4873
 1102SOL     OW14941   1.846   3.879   1.983  0.9054 -0.5160  0.2425
 1102SOL    HW114942   1.828   3.972   1.993 -0.3459 -0.6012 -1.2006
 1102SOL    HW214943   1.844   3.844   2.072  2.2225 -3.4514 -0.8733
 1103SOL     OW14944   3.338   2.939   6.482 -0.2527 -0.7545  0.1489
 1103SOL    HW114945   3.247   2.937   6.453 -0.5288 -2.2373  1.1140
 1103SOL    HW214946   3.382   2.982   6.408  0.2958 -0.2637  0.7611
 1104SOL     OW14947   2.038   2.718  10.153  0.0961 -0.3656 -0.2784
 1104SOL    HW114948   2.084   2.727  10.236 -1.1204  1.0315  0.2306
 1104SOL    HW214949   2.008   2.809  10.152  2.0314  0.2314 -4.3346
 1105SOL     OW14950   3.684   0.442   1.615  0.3477  0.5399 -0.2238
 1105SOL    HW114951   3.611   0.505   1.614 -1.2980 -1.3837 -0.9064
 1105SOL    HW214952   3.673   0.399   1.700 -1.2780 -0.1037 -0.7620
 1106SOL     OW14953   2.515   2.993   9.679 -0.1778  0.0999 -0.2026
 1106SOL    HW114954   2.528   3.023   9.589  2.5359 -1.0682 -0.2131
 1106SOL    HW214955   2.491   2.902   9.660 -0.8293 -0.0333  1.2970
 1107SOL     OW14956   2.936   4.411   8.019 -0.2179 -0.1976 -0.8291
 1107SOL    HW114957   3.018   4.446   7.982  0.8778  0.9253  2.6424
 1107SOL    HW214958   2.978   4.328   8.041 -0.6945 -0.1737  0.1592
 1108SOL     OW14959   1.731   2.012   3.181  0.2220 -0.0786 -0.4907
 1108SOL    HW114960   1.769   2.036   3.097  0.3520  1.7206  0.0867
 1108SOL    HW214961   1.697   2.095   3.214  1.8913 -0.0268  1.0755
 1109SOL     OW14962   0.335   4.604   6.999  0.1816 -0.2654  0.5920
 1109SOL    HW114963   0.390   4.585   6.922 -0.4243  0.7957 -0.1101
 1109SOL    HW214964   0.263   4.542   6.992  0.7274 -0.9099  0.6607
 1110SOL     OW14965   4.192   0.143   3.597  0.0118 -0.3465 -0.0128
 1110SOL    HW114966   4.196   0.090   3.676 -1.3510 -2.0777 -1.0982
 1110SOL    HW214967   4.107   0.186   3.604  0.7023  1.1515 -0.9414
 1111SOL     OW14968   1.174   4.337   4.771 -0.7071  0.3376  0.0712
 1111SOL    HW114969   1.114   4.325   4.698 -0.3707  2.8859 -0.6297
 1111SOL    HW214970   1.138   4.416   4.810 -0.4020  0.6016 -0.1851
 1112SOL     OW14971   4.196   0.258  10.737 -0.7187  0.3110 -0.0771
 1112SOL    HW114972   4.213   0.352  10.733  0.1282  0.1987  1.0874
 1112SOL    HW214973   4.284   0.222  10.747 -2.5273 -3.7159  1.2814
 1113SOL     OW14974   4.107   2.997   7.592  0.3440 -0.0667 -0.2028
 1113SOL    HW114975   4.162   3.069   7.623 -1.3621  0.1396  2.3306
 1113SOL    HW214976   4.137   2.982   7.503  0.1953  1.7638 -0.5693
 1114SOL     OW14977   1.649   3.617  11.738  0.2144 -0.3514  0.1132
 1114SOL    HW114978   1.721   3.671  11.770 -0.6806 -0.7303  2.7968
 1114SOL    HW214979   1.566   3.637  11.782  0.0781  0.5629 -0.5619
 1115SOL     OW14980   0.997   0.789   4.458 -0.7033  0.1239  0.3726
 1115SOL    HW114981   0.908   0.819   4.442 -0.6570 -0.5373 -1.1846
 1115SOL    HW214982   0.975   0.753   4.544 -1.3378 -1.5337 -0.4782
 1116SOL     OW14983   2.558   3.276  14.501  0.1770  0.1100 -0.1638
 1116SOL    HW114984   2.515   3.278  14.415 -0.4359 -0.6432  0.1235
 1116SOL    HW214985   2.617   3.203  14.483 -1.1401 -1.2255  0.8530
 1117SOL     OW14986   3.276   0.616  11.385  0.1391  0.3135 -0.0075
 1117SOL    HW114987   3.235   0.685  11.332  0.2091 -0.2112 -0.7533
 1117SOL    HW214988   3.323   0.573  11.314  1.4020 -0.4513  1.2933
 1118SOL     OW14989   3.175   0.782   8.648 -0.5153  0.1736 -0.5743
 1118SOL    HW114990   3.117   0.853   8.676 -0.9510 -1.1790  1.9938
 1118SOL    HW214991   3.220   0.823   8.575  1.1414 -0.7302 -0.0720
 1119SOL     OW14992   2.931   2.465   5.444  0.2286  0.6161 -0.3094
 1119SOL    HW114993   3.008   2.493   5.493  0.5148 -0.0961 -0.3458
 1119SOL    HW214994   2.962   2.400   5.380  0.1146 -1.2432  1.5261
 1120SOL     OW14995   2.304   1.827   8.041  0.0463 -0.4330  0.0407
 1120SOL    HW114996   2.228   1.866   7.997  0.3998  1.1136  0.8351
 1120SOL    HW214997   2.356   1.789   7.970  0.6143  1.6447 -0.6415
 1121SOL     OW14998   3.948   2.703   4.290 -0.1717  0.2920 -0.6870
 1121SOL    HW114999   3.924   2.795   4.278  0.1017  0.2776 -1.3337
 1121SOL    HW215000   4.004   2.711   4.367 -0.6596 -1.3400 -0.1542
 1122SOL     OW15001   4.259   2.525   3.503 -0.0508 -0.0970  0.2746
 1122SOL    HW115002   4.280   2.437   3.533 -2.7660 -1.6352 -2.4012
 1122SOL    HW215003   4.281   2.527   3.409  1.6519 -1.2780  0.6498
 1123SOL     OW15004   2.484   3.944   3.004 -0.1507 -0.2910 -0.0664
 1123SOL    HW115005   2.493   3.879   2.934  1.0298  0.9365 -1.0419
 1123SOL    HW215006   2.563   3.922   3.053  0.3996  0.3758 -0.6630
 1124SOL     OW15007   2.480   4.684   2.995 -0.3187  0.2331  0.3378
 1124SOL    HW115008   2.553   4.630   2.966 -1.4010  0.1876 -2.2868
 1124SOL    HW215009   2.412   4.622   2.970 -0.5410  1.4455 -2.0631
 1125SOL     OW15010   0.486   1.208   8.556 -0.1614 -0.2744  0.1814
 1125SOL    HW115011   0.407   1.262   8.554  0.3989  0.5462  0.4302
 1125SOL    HW215012   0.542   1.279   8.526 -0.3334 -0.8243 -1.4740
 1126SOL     OW15013   4.083   3.567   8.215  0.0564 -0.2067 -0.3454
 1126SOL    HW115014   4.070   3.634   8.282  2.8577  0.4386 -0.4567
 1126SOL    HW215015   4.125   3.495   8.261 -1.4229 -1.6306 -1.2446
 1127SOL     OW15016   3.493   2.609  11.339  0.0711  0.6446  0.2177
 1127SOL    HW115017   3.423   2.588  11.278  1.4866  2.3316 -1.9750
 1127SOL    HW215018   3.498   2.704  11.336 -0.3414  0.6614  0.1305
 1128SOL     OW15019   0.150   0.840  11.352 -0.1807 -0.2318  0.2692
 1128SOL    HW115020   0.218   0.783  11.318  0.1760 -0.7688  1.8945
 1128SOL    HW215021   0.099   0.768  11.391  0.4444  0.0782  1.6545
 1129SOL     OW15022   4.032   4.018   5.222  0.3268 -0.0009 -0.0868
 1129SOL    HW115023   4.128   4.011   5.225  0.2570 -0.2929  2.0476
 1129SOL    HW215024   4.016   4.010   5.316  1.0922  0.2511  0.0673
 1130SOL     OW15025   1.378   2.292   7.442 -0.4249  0.0488  0.2807
 1130SOL    HW115026   1.339   2.211   7.408  1.8532 -0.7661 -0.4174
 1130SOL    HW215027   1.296   2.340   7.454 -0.1168  1.2779 -2.4283
 1131SOL     OW15028   1.477   1.191  16.349  0.4387  0.2952  0.1942
 1131SOL    HW115029   1.546   1.198  16.282 -1.9483  2.8452 -1.9967
 1131SOL    HW215030   1.512   1.236  16.425  3.1636 -1.2387 -0.1413
 1132SOL     OW15031   3.995   4.130  15.834  0.2007  0.3057 -0.3023
 1132SOL    HW115032   4.060   4.199  15.848  0.0703  0.1341  1.1616
 1132SOL    HW215033   3.918   4.158  15.884  0.2713  3.2517 -1.8850
 1133SOL     OW15034   2.846   3.426   9.141 -0.2235  0.0634  0.2895
 1133SOL    HW115035   2.914   3.358   9.132 -0.7050 -0.1406 -1.8990
 1133SOL    HW215036   2.804   3.397   9.222 -0.7400  0.4143  0.1429
 1134SOL     OW15037   2.284   0.295   1.456  0.4264 -0.5039  0.0578
 1134SOL    HW115038   2.231   0.344   1.520 -0.9207 -0.5260 -1.0482
 1134SOL    HW215039   2.261   0.209   1.492 -0.7346  0.2444  1.1147
 1135SOL     OW15040   1.849   0.331   3.655 -0.0447 -0.4265 -0.3342
 1135SOL    HW115041   1.915   0.306   3.720  1.1716  2.6594 -0.4234
 1135SOL    HW215042   1.887   0.413   3.626  1.7972 -0.9519  0.5782
 1136SOL     OW15043   0.808   4.453   8.589  0.4035 -0.3137  0.2892
 1136SOL    HW115044   0.730   4.399   8.599  0.6415 -0.8852 -0.9545
 1136SOL    HW215045   0.772   4.528   8.637  1.7445  0.7055 -0.3161
 1137SOL     OW15046   4.494   1.990   5.911  0.2491  0.0221 -0.3013
 1137SOL    HW115047   4.504   1.954   5.823  0.0617 -0.9108  0.0580
 1137SOL    HW215048   4.533   2.077   5.907 -0.5445  0.4494  1.4880
 1138SOL     OW15049   3.724   2.166   6.785  0.0887  0.8105  0.4821
 1138SOL    HW115050   3.756   2.087   6.829 -0.6951  0.5660  0.6089
 1138SOL    HW215051   3.807   2.212   6.774  0.5792  0.1100  1.2100
 1139SOL     OW15052   0.163   3.711   7.101  0.2334 -0.4545 -0.3535
 1139SOL    HW115053   0.145   3.698   7.195 -0.0488 -0.4796 -0.4084
 1139SOL    HW215054   0.217   3.634   7.084  1.8331  1.1273 -2.2506
 1140SOL     OW15055   0.441   2.853   7.067 -0.1986 -0.9184  0.4268
 1140SOL    HW115056   0.440   2.838   6.973 -0.2415 -0.3830  0.3423
 1140SOL    HW215057   0.420   2.765   7.098  0.1335 -1.6814 -1.5340
 1141SOL     OW15058   2.485   4.515   4.814  0.0533 -0.2495 -0.0889
 1141SOL    HW115059   2.426   4.447   4.782  0.7273 -0.9697  0.1798
 1141SOL    HW215060   2.432   4.557   4.883  0.0483  0.6504 -0.6367
 1142SOL     OW15061   3.323   1.242  17.597  0.3028 -0.1557  0.2624
 1142SOL    HW115062   3.365   1.242  17.683  0.7845 -0.2559  0.0287
 1142SOL    HW215063   3.385   1.297  17.550  0.7565 -0.4644  0.4970
 1143SOL     OW15064   1.999   0.357   5.256 -0.1446  0.5073  0.1154
 1143SOL    HW115065   1.937   0.337   5.185 -0.9533  0.7148  0.7594
 1143SOL    HW215066   1.956   0.342   5.340  0.7301 -0.8660  0.3113
 1144SOL     OW15067   3.123   2.243   3.780  0.3247 -0.1375  0.2603
 1144SOL    HW115068   3.045   2.294   3.799  0.3096  0.0775 -0.3782
 1144SOL    HW215069   3.167   2.232   3.865  1.1514  2.4410  0.1709
 1145SOL     OW15070   2.031   3.545   7.181  0.5462 -0.2548  0.7010
 1145SOL    HW115071   2.052   3.489   7.106 -1.2651 -0.5556  0.4317
 1145SOL    HW215072   2.071   3.627   7.152 -0.4436  0.2735  0.8477
 1146SOL     OW15073   0.646   1.694   7.272 -0.4411  0.5392  0.5064
 1146SOL    HW115074   0.735   1.687   7.304 -0.7629  1.3030  1.5616
 1146SOL    HW215075   0.602   1.692   7.357  1.0700  0.3692  1.2832
 1147SOL     OW15076   1.918   1.671  10.557 -0.1294 -0.0093  0.2196
 1147SOL    HW115077   1.845   1.666  10.619 -2.0694  1.9249 -1.9041
 1147SOL    HW215078   1.939   1.579  10.537  0.6632 -0.4126  2.9428
 1148SOL     OW15079   3.366   4.528   5.254 -0.0506 -0.1489 -0.6380
 1148SOL    HW115080   3.423   4.600   5.227  0.1374  0.5399  1.5515
 1148SOL    HW215081   3.376   4.464   5.184  1.9567  0.3738 -0.8497
 1149SOL     OW15082   2.526   4.434   8.139 -0.0991 -0.1367 -0.5578
 1149SOL    HW115083   2.601   4.419   8.081 -1.3114  2.2912 -2.7313
 1149SOL    HW215084   2.450   4.408   8.086 -2.3958  0.8922  2.2185
 1150SOL     OW15085   2.732   2.509   5.628  0.3796  0.4090 -0.6099
 1150SOL    HW115086   2.787   2.586   5.638  1.0808 -0.1013 -0.5746
 1150SOL    HW215087   2.770   2.460   5.554 -2.6239 -1.3575 -1.0149
 1151SOL     OW15088   1.998   2.526   2.379  0.2994 -0.1940 -0.1047
 1151SOL    HW115089   1.977   2.545   2.470 -0.8242  0.3252 -0.4715
 1151SOL    HW215090   1.939   2.456   2.353  0.9463 -1.8905  3.0229
 1152SOL     OW15091   1.368   1.418   1.463 -0.3690  0.3555  0.5972
 1152SOL    HW115092   1.433   1.352   1.440  1.9420  2.8301  0.0296
 1152SOL    HW215093   1.307   1.363   1.513 -0.8252  0.1539 -0.1830
 1153SOL     OW15094   4.006   2.752   4.663 -0.1151 -0.2961  0.0557
 1153SOL    HW115095   3.947   2.678   4.658 -1.2217  0.4611  1.6915
 1153SOL    HW215096   4.085   2.724   4.616 -0.5271  0.0487 -0.8326
 1154SOL     OW15097   2.445   0.076  16.128  0.3450  0.1961  0.1329
 1154SOL    HW115098   2.485   0.126  16.057  0.9763 -1.1148 -0.4291
 1154SOL    HW215099   2.490   4.733  16.117 -0.0973 -0.0252  0.0191
 1155SOL     OW15100   4.487   0.490   8.212  0.0169 -0.3570 -0.1753
 1155SOL    HW115101   4.485   0.579   8.176 -2.6305 -0.2886  0.1364
 1155SOL    HW215102   4.411   0.453   8.168 -0.2214 -0.0586 -0.0225
 1156SOL     OW15103   4.098   0.058  11.441  0.6472  0.0394 -0.2488
 1156SOL    HW115104   4.050   0.140  11.438  2.2149  0.9662 -0.1683
 1156SOL    HW215105   4.144   0.070  11.359 -0.5837 -3.4879 -1.4700
 1157SOL     OW15106   0.889   4.352  13.853  0.2269 -0.4482 -0.2899
 1157SOL    HW115107   0.943   4.427  13.876  0.7739 -0.8454 -0.2974
 1157SOL    HW215108   0.872   4.362  13.760 -1.9152 -0.4032  0.1046
 1158SOL     OW15109   3.580   0.979   3.090 -0.4901 -0.5191 -0.0819
 1158SOL    HW115110   3.582   1.020   3.004 -2.8933 -1.2219 -0.4815
 1158SOL    HW215111   3.518   1.032   3.139 -1.1687 -2.0069  0.6827
 1159SOL     OW15112   1.190   4.107  14.750 -0.6175  0.8123  1.1121
 1159SOL    HW115113   1.184   4.197  14.781 -1.7544  1.3725 -0.6686
 1159SOL    HW215114   1.285   4.096  14.752 -0.4501  1.7038 -1.6894
 1160SOL     OW15115   1.268   1.670  11.745  0.0214 -0.2938  0.1765
 1160SOL    HW115116   1.227   1.678  11.831 -0.5359 -0.3884 -0.0838
 1160SOL    HW215117   1.269   1.576  11.726 -3.6583 -0.3542  0.3563
 1161SOL     OW15118   4.194   4.020   7.792 -0.5613 -0.1854  0.3960
 1161SOL    HW115119   4.275   4.023   7.842  0.2826  1.8437 -1.0917
 1161SOL    HW215120   4.137   4.013   7.868 -1.3496  3.6891  0.1415
 1162SOL     OW15121   1.536   3.480   2.693 -0.0106  0.4512  0.0251
 1162SOL    HW115122   1.510   3.484   2.785 -1.2878  0.2034 -0.3221
 1162SOL    HW215123   1.598   3.553   2.694  0.2288  0.2674 -1.5923
 1163SOL     OW15124   3.742   4.070  10.591  0.2853 -0.2296 -0.4400
 1163SOL    HW115125   3.794   4.093  10.513 -0.0333 -0.3584 -0.6888
 1163SOL    HW215126   3.722   4.158  10.622 -0.0839 -0.2053 -0.7458
 1164SOL     OW15127   0.487   2.891   6.505  0.7354  0.1796 -0.4992
 1164SOL    HW115128   0.551   2.884   6.435 -2.1129  0.3356 -3.0945
 1164SOL    HW215129   0.493   2.802   6.539 -0.7250 -0.1789 -1.1639
 1165SOL     OW15130   4.553   3.010   6.860 -0.6263  0.2458 -0.3079
 1165SOL    HW115131   4.633   3.062   6.851  0.1695 -0.7684  0.8990
 1165SOL    HW215132   4.489   3.081   6.864 -1.9749 -1.0379  0.7996
 1166SOL     OW15133   3.084   4.239   5.309 -0.5027 -0.0321  0.2083
 1166SOL    HW115134   3.085   4.196   5.394  2.5551  0.0473  0.2121
 1166SOL    HW215135   3.008   4.200   5.266 -1.3245 -0.7906  2.3475
 1167SOL     OW15136   3.426   2.966  12.516 -0.1784  0.1851 -0.2559
 1167SOL    HW115137   3.445   2.945  12.607  0.8297 -0.6570 -0.6548
 1167SOL    HW215138   3.406   2.877  12.485  0.1190 -0.0640  0.2690
 1168SOL     OW15139   0.015   2.110   2.875  0.3327  0.1842 -0.6113
 1168SOL    HW115140   4.687   2.044   2.869  0.3692  0.0992 -0.1194
 1168SOL    HW215141   0.011   2.154   2.790  0.0178 -3.3444 -2.4550
 1169SOL     OW15142   0.386   1.432   8.436  0.4137 -0.1933  0.2566
 1169SOL    HW115143   0.462   1.486   8.458  0.9264 -0.7674 -0.0710
 1169SOL    HW215144   0.397   1.407   8.344 -0.8160  1.4230 -0.3197
 1170SOL     OW15145   2.255   2.516  10.404 -0.3867 -0.3657 -0.6073
 1170SOL    HW115146   2.222   2.606  10.412 -1.2890 -0.8508  0.8516
 1170SOL    HW215147   2.278   2.494  10.494 -0.2768 -0.5474 -0.6797
 1171SOL     OW15148   1.529   1.620  17.005  0.2368  0.2797 -0.5185
 1171SOL    HW115149   1.512   1.637  16.912  2.0988 -0.0637 -0.9126
 1171SOL    HW215150   1.586   1.696  17.018  0.7821 -0.3481  0.7444
 1172SOL     OW15151   0.523   1.665   1.590 -0.1057 -0.9739  0.1987
 1172SOL    HW115152   0.521   1.759   1.609  1.8160 -0.9922  0.4908
 1172SOL    HW215153   0.564   1.631   1.670  1.3594 -0.9989 -0.5545
 1173SOL     OW15154   4.601   4.477   0.071 -0.1900  0.2593 -0.0829
 1173SOL    HW115155   4.520   4.524   0.088  0.1509 -0.0166  2.2440
 1173SOL    HW215156   4.670   4.543   0.070 -1.3467  1.4404 -0.7998
 1174SOL     OW15157   3.393   1.441   3.441 -0.1545  0.2213  0.6180
 1174SOL    HW115158   3.393   1.386   3.519  1.4120 -0.6939 -0.0293
 1174SOL    HW215159   3.471   1.410   3.395 -3.3524 -1.6669 -3.5310
 1175SOL     OW15160   4.371   4.049   2.410  0.0761  0.1297  0.4238
 1175SOL    HW115161   4.284   4.086   2.425 -0.3998 -0.4346 -1.0039
 1175SOL    HW215162   4.409   4.101   2.340  1.4796  0.4309  1.3945
 1176SOL     OW15163   4.457   2.262   3.692 -0.2384 -0.0873 -0.4608
 1176SOL    HW115164   4.517   2.221   3.631  1.7242  0.7663  0.8984
 1176SOL    HW215165   4.378   2.236   3.644  0.4282 -0.5706 -1.2864
 1177SOL     OW15166   1.047   1.162  17.375  0.3520 -0.0373  0.6390
 1177SOL    HW115167   1.076   1.141  17.464 -1.7504  1.1337  1.5773
 1177SOL    HW215168   1.074   1.254  17.367 -0.6424  0.2332  0.3245
 1178SOL     OW15169   2.373   1.305   2.126 -0.1123  0.2340 -0.1912
 1178SOL    HW115170   2.372   1.270   2.215 -0.8770 -0.3277 -0.4191
 1178SOL    HW215171   2.286   1.346   2.125 -0.3949 -0.3376  1.3573
 1179SOL     OW15172   2.481   3.496   6.200 -0.4697  0.2550  0.2532
 1179SOL    HW115173   2.497   3.583   6.164  0.0736 -0.1503 -0.4839
 1179SOL    HW215174   2.532   3.503   6.281 -0.0332  1.4043 -0.1190
 1180SOL     OW15175   0.635   2.549  10.314  0.1739 -0.0877  0.1249
 1180SOL    HW115176   0.582   2.519  10.388 -0.8110  2.2468  0.3850
 1180SOL    HW215177   0.591   2.620  10.268 -0.6237 -1.4983 -1.2799
 1181SOL     OW15178   3.895   4.024   4.882 -0.2820  0.5897 -0.4247
 1181SOL    HW115179   3.906   3.929   4.877 -0.6480  0.5252 -0.0562
 1181SOL    HW215180   3.813   4.036   4.931 -0.8695 -1.6535 -0.8630
 1182SOL     OW15181   2.023   1.991   4.684  0.1996  0.4377  0.0285
 1182SOL    HW115182   1.992   2.064   4.738 -2.5254 -0.4506 -0.3502
 1182SOL    HW215183   2.092   2.033   4.632  0.8571  2.4235  2.5075
 1183SOL     OW15184   3.554   2.668  16.385  0.2192  0.3352 -0.2811
 1183SOL    HW115185   3.636   2.650  16.339  1.7767 -0.7085  2.8688
 1183SOL    HW215186   3.503   2.722  16.325 -1.7905  1.2091  2.2012
 1184SOL     OW15187   4.416   2.052   8.108 -0.2659  0.2734  0.0767
 1184SOL    HW115188   4.441   2.140   8.136 -2.4642  1.6458 -2.2488
 1184SOL    HW215189   4.444   1.996   8.181  0.4766 -1.1880 -1.3315
 1185SOL     OW15190   2.494   1.693   7.228  0.3424 -0.5892 -0.5911
 1185SOL    HW115191   2.589   1.683   7.226  0.1100 -2.3047 -3.1874
 1185SOL    HW215192   2.479   1.728   7.316  3.8715  1.5694 -0.8405
 1186SOL     OW15193   0.654   0.405  11.934 -0.0731  0.2733 -0.0009
 1186SOL    HW115194   0.691   0.369  11.853  0.3267 -0.4882  0.5221
 1186SOL    HW215195   0.726   0.405  11.997 -1.6444  1.1832  1.7857
 1187SOL     OW15196   4.400   3.764   2.997 -0.1872  0.3580 -0.1719
 1187SOL    HW115197   4.486   3.740   3.031 -0.5604 -0.1484  0.4248
 1187SOL    HW215198   4.409   3.852   3.033  0.8017 -0.0957  0.6937
 1188SOL     OW15199   4.679   3.482  12.815 -0.4179  0.0414 -0.0124
 1188SOL    HW115200   4.602   3.538  12.811  0.5678  1.5044  1.2576
 1188SOL    HW215201   4.658   3.450  12.903  0.5711 -2.7410 -0.7808
 1189SOL     OW15202   3.169   0.942   4.440 -0.5456 -0.3580 -0.0603
 1189SOL    HW115203   3.173   0.873   4.507  1.1301 -0.9810 -0.7854
 1189SOL    HW215204   3.140   0.892   4.364  2.9050 -1.0229 -0.9433
 1190SOL     OW15205   2.137   2.387  13.966 -0.1384 -0.2666 -0.1337
 1190SOL    HW115206   2.123   2.472  14.007  2.2185  0.5518 -1.0452
 1190SOL    HW215207   2.048   2.355  13.948  0.6529 -2.2584 -0.5648
 1191SOL     OW15208   2.142   4.030   2.605 -0.2432  0.2578 -0.1690
 1191SOL    HW115209   2.110   4.117   2.582  0.2515  0.7353  0.9504
 1191SOL    HW215210   2.197   4.050   2.681 -0.8160 -1.0426  0.5988
 1192SOL     OW15211   4.492   3.775   4.662  0.6941 -0.3477  0.1582
 1192SOL    HW115212   4.525   3.700   4.612 -1.6467  1.0432 -3.4847
 1192SOL    HW215213   4.439   3.822   4.598  2.6363  0.0827 -1.1288
 1193SOL     OW15214   3.549   4.459   4.326 -0.0713  0.5859  0.6909
 1193SOL    HW115215   3.491   4.495   4.393 -0.6269 -0.4392  0.7728
 1193SOL    HW215216   3.495   4.397   4.277  1.3972  0.0537 -0.2531
 1194SOL     OW15217   0.180   3.172   2.884 -0.1080 -0.1420  0.7011
 1194SOL    HW115218   0.243   3.108   2.916 -0.0921 -0.1556  0.6437
 1194SOL    HW215219   0.115   3.168   2.954  1.2212 -1.6544  1.8638
 1195SOL     OW15220   1.545   2.316   4.292 -0.6466  0.6779 -0.3101
 1195SOL    HW115221   1.588   2.306   4.376  0.5416  0.6956 -0.9142
 1195SOL    HW215222   1.606   2.386   4.267  0.0391 -0.0030 -0.5265
 1196SOL     OW15223   0.343   1.854   2.152 -0.0706 -0.0162 -0.0912
 1196SOL    HW115224   0.360   1.807   2.070  0.6368 -3.2318  1.8924
 1196SOL    HW215225   0.416   1.916   2.154 -0.3368  0.3003 -0.3563
 1197SOL     OW15226   1.318   2.910   5.251 -0.0535 -0.2877 -0.1856
 1197SOL    HW115227   1.413   2.916   5.265 -0.3614  2.0092  0.9876
 1197SOL    HW215228   1.286   2.860   5.325 -0.6659  1.2067  0.5653
 1198SOL     OW15229   4.607   4.543  11.831 -0.2231 -0.2123 -0.0107
 1198SOL    HW115230   4.696   4.514  11.851 -0.7354 -0.4025  1.9390
 1198SOL    HW215231   4.619   4.635  11.808 -1.1627 -0.2333 -0.6156
 1199SOL     OW15232   0.005   3.139  13.382  0.0710  0.2019 -0.2086
 1199SOL    HW115233   0.018   3.225  13.344  3.2300 -0.2144 -0.0242
 1199SOL    HW215234   4.704   3.094  13.308  1.2687 -1.2717  0.0017
 1200SOL     OW15235   2.910   2.663   1.908  0.3468 -0.5989  0.3172
 1200SOL    HW115236   2.855   2.664   1.830 -0.9811 -1.1135  1.2439
 1200SOL    HW215237   2.966   2.590   1.882  0.7281 -0.3844  0.5408
 1201SOL     OW15238   4.701   4.235   2.862 -0.0000 -0.2471  0.0478
 1201SOL    HW115239   4.608   4.211   2.862  0.0884 -0.5934  0.9776
 1201SOL    HW215240   4.684   4.328   2.851 -0.3110  0.0879  3.6281
 1202SOL     OW15241   1.131   2.782  16.659  0.0145 -0.3764  0.3282
 1202SOL    HW115242   1.045   2.821  16.673  1.0656  1.5090  1.5137
 1202SOL    HW215243   1.177   2.856  16.620 -1.1784  0.3359  0.2915
 1203SOL     OW15244   3.033   3.786   8.625 -0.0234 -0.1690 -0.4115
 1203SOL    HW115245   3.047   3.733   8.703 -1.0173  0.0948 -0.0558
 1203SOL    HW215246   2.969   3.852   8.654  1.2749  0.8854  0.0483
 1204SOL     OW15247   0.052   1.870  15.729 -0.0625  0.7144  0.0041
 1204SOL    HW115248   0.033   1.777  15.745  0.1086  0.5962 -0.5045
 1204SOL    HW215249   0.124   1.868  15.666  0.4412  0.2858  0.5837
 1205SOL     OW15250   1.585   1.672   2.300  0.0101  0.6096  0.2918
 1205SOL    HW115251   1.531   1.708   2.230  0.2863  0.3250 -0.0686
 1205SOL    HW215252   1.513   1.626   2.344  1.2614 -1.9746 -0.3527
 1206SOL     OW15253   2.889   1.919   2.460  0.6461 -0.2323  0.3149
 1206SOL    HW115254   2.865   1.828   2.477  3.3190 -1.0525 -0.3127
 1206SOL    HW215255   2.838   1.982   2.511 -0.9056 -0.4199 -1.0015
 1207SOL     OW15256   4.547   0.369  16.838 -0.4808 -0.5601 -0.2835
 1207SOL    HW115257   4.622   0.391  16.783  0.7341 -1.3632  1.0602
 1207SOL    HW215258   4.550   0.274  16.843 -1.2477 -0.6161 -0.7848
 1208SOL     OW15259   1.315   3.733   4.112  0.0312 -0.2401 -0.1615
 1208SOL    HW115260   1.329   3.711   4.020  0.4088 -1.2630  0.1293
 1208SOL    HW215261   1.367   3.811   4.128 -1.8407  0.8694  0.4820
 1209SOL     OW15262   4.345   0.111   4.100 -0.0490 -0.1433  0.3749
 1209SOL    HW115263   4.343   0.204   4.122  0.8560 -0.2944  1.0777
 1209SOL    HW215264   4.404   0.089   4.172  1.1212  0.2289 -0.4764
 1210SOL     OW15265   0.414   3.868   4.760  0.2431 -0.1214 -0.2095
 1210SOL    HW115266   0.336   3.911   4.724  1.0408  2.3438  1.0192
 1210SOL    HW215267   0.386   3.852   4.850  0.1334  0.2265 -0.1806
 1211SOL     OW15268   1.286   4.240   2.878 -0.2000 -0.1704  0.5358
 1211SOL    HW115269   1.312   4.192   2.956 -1.5968  0.2950  1.2958
 1211SOL    HW215270   1.368   4.288   2.868 -0.6231  0.2483 -0.8913
 1212SOL     OW15271   4.104   0.602   7.258  1.0584 -0.1950  0.5045
 1212SOL    HW115272   4.166   0.612   7.330  0.4805  0.4560  0.9140
 1212SOL    HW215273   4.161   0.589   7.182  1.1381  2.4982  0.0889
 1213SOL     OW15274   2.070   3.906   3.506 -0.1914 -0.5104  0.1943
 1213SOL    HW115275   2.130   3.902   3.432 -0.5972 -3.7446  0.0252
 1213SOL    HW215276   2.047   3.998   3.513 -0.6847 -0.5957 -0.4120
 1214SOL     OW15277   3.545   3.851   9.350  0.0865 -0.4247 -0.3410
 1214SOL    HW115278   3.617   3.894   9.302 -0.0310  0.5119  0.3198
 1214SOL    HW215279   3.570   3.860   9.442  1.3965  1.5685 -0.8988
 1215SOL     OW15280   3.199   3.728   7.668  0.4914  0.1386  0.0685
 1215SOL    HW115281   3.121   3.676   7.686  0.1039  0.4810 -0.6558
 1215SOL    HW215282   3.160   3.808   7.633  1.3331  0.1384 -0.8536
 1216SOL     OW15283   2.257   0.722   2.936  0.0640 -0.3209  1.0507
 1216SOL    HW115284   2.208   0.658   2.986 -0.3341 -2.1702 -1.7208
 1216SOL    HW215285   2.216   0.713   2.850  1.1743  0.5432  0.4247
 1217SOL     OW15286   0.659   1.399   8.767 -0.1322  0.6977 -0.6512
 1217SOL    HW115287   0.693   1.465   8.828  0.4664 -0.2955  0.0940
 1217SOL    HW215288   0.644   1.463   8.697  0.9954  0.6368 -0.9499
 1218SOL     OW15289   4.434   2.229   3.173  0.0572 -0.1578 -0.1931
 1218SOL    HW115290   4.501   2.275   3.124  0.1802 -1.8165 -1.5759
 1218SOL    HW215291   4.490   2.156   3.200  1.2313 -0.2512 -2.9348
 1219SOL     OW15292   2.200   1.034   9.978  0.1673 -0.0253  0.3134
 1219SOL    HW115293   2.158   1.119   9.987 -0.3774 -0.3831  1.1504
 1219SOL    HW215294   2.177   0.999  10.064  0.7744  0.5537  0.7079
 1220SOL     OW15295   2.080   0.408  15.653 -0.1172  0.0916  0.2292
 1220SOL    HW115296   2.083   0.318  15.686  0.1212 -0.2860 -0.8340
 1220SOL    HW215297   2.103   0.462  15.729  0.3693 -0.3972  0.4326
 1221SOL     OW15298   0.243   0.336   8.263 -0.2571 -0.3259  0.4457
 1221SOL    HW115299   0.250   0.360   8.170 -2.2922  3.0547  1.1725
 1221SOL    HW215300   0.150   0.352   8.282  0.2703  1.6248  1.3589
 1222SOL     OW15301   0.760   0.367   7.175 -0.3787 -0.0933 -0.0246
 1222SOL    HW115302   0.826   0.432   7.200  0.8492 -0.7662 -1.4691
 1222SOL    HW215303   0.785   0.305   7.243 -0.5761  0.9670  1.0155
 1223SOL     OW15304   2.595   3.646  17.342  0.5589  0.2382 -0.1111
 1223SOL    HW115305   2.550   3.641  17.258 -0.6437  3.7382  0.3377
 1223SOL    HW215306   2.551   3.727  17.366  0.9005  1.2187 -2.8246
 1224SOL     OW15307   0.654   2.258   9.065  0.1543 -0.0156  0.5551
 1224SOL    HW115308   0.747   2.239   9.062  0.3585  0.9100  1.0351
 1224SOL    HW215309   0.650   2.347   9.030  0.0761 -0.6212 -0.9922
 1225SOL     OW15310   3.343   0.543  15.198 -0.6066 -0.0906 -0.0122
 1225SOL    HW115311   3.266   0.549  15.254 -0.5233  1.0820 -0.0279
 1225SOL    HW215312   3.328   0.612  15.134 -0.3046 -1.6831 -1.8011
 1226SOL     OW15313   2.739   0.461  12.636 -0.3161  0.0641  0.6530
 1226SOL    HW115314   2.824   0.506  12.637  0.3268 -1.0727 -2.9225
 1226SOL    HW215315   2.731   0.443  12.729  1.0518 -2.4719  0.2938
 1227SOL     OW15316   0.004   3.573  11.263 -0.2917 -0.9488  0.2126
 1227SOL    HW115317   0.026   3.594  11.172 -1.3333  0.4855  0.2992
 1227SOL    HW215318   4.699   3.490  11.250 -0.1264 -1.0800  0.4747
 1228SOL     OW15319   4.636   1.395   5.312  0.2870  0.0577 -0.3887
 1228SOL    HW115320   4.660   1.451   5.239  0.7334 -0.2743 -0.4948
 1228SOL    HW215321   4.599   1.326   5.256  0.3905 -0.1393 -0.2157
 1229SOL     OW15322   1.965   2.880  12.455  0.3737  0.3367 -0.1495
 1229SOL    HW115323   2.014   2.920  12.528  2.5630  0.3756 -1.6271
 1229SOL    HW215324   2.008   2.936  12.390 -1.7288  0.9060 -1.0392
 1230SOL     OW15325   0.136   1.468   0.460  0.2429  0.0333 -0.5132
 1230SOL    HW115326   0.213   1.417   0.438  0.2923  0.2508 -0.8370
 1230SOL    HW215327   0.074   1.399   0.482  1.0292 -0.3641  0.4534
 1231SOL     OW15328   4.731   2.951   9.549  0.2038  0.4999  0.1465
 1231SOL    HW115329   0.071   2.995   9.577  0.4210  0.0362  0.2521
 1231SOL    HW215330   4.705   2.911   9.632  2.5329  1.2662  1.2445
 1232SOL     OW15331   4.311   0.822   9.859 -0.0175 -0.0851  0.0537
 1232SOL    HW115332   4.386   0.877   9.838  0.2113 -0.4138  0.0136
 1232SOL    HW215333   4.290   0.785   9.774  1.5849 -0.7197 -0.0701
 1233SOL     OW15334   4.021   1.445   4.305  0.3381 -0.2802 -1.0293
 1233SOL    HW115335   4.077   1.370   4.326 -0.8311 -0.8544  0.0845
 1233SOL    HW215336   4.029   1.507   4.377 -1.3730 -0.5334 -0.6130
 1234SOL     OW15337   1.368   2.390   3.591 -0.4005  0.1708  0.2394
 1234SOL    HW115338   1.377   2.482   3.567 -0.7568  0.3373  0.7539
 1234SOL    HW215339   1.364   2.383   3.686  0.1953  0.3207  0.2791
 1235SOL     OW15340   1.897   4.440   2.688 -0.2934 -0.3718  0.5557
 1235SOL    HW115341   1.824   4.502   2.682 -0.6390 -0.6841  1.4767
 1235SOL    HW215342   1.942   4.486   2.758 -0.1574 -0.8222  0.7642
 1236SOL     OW15343   2.077   0.679   7.552  0.2358 -0.7684 -0.2757
 1236SOL    HW115344   2.042   0.664   7.464 -0.3838  0.8879 -0.3122
 1236SOL    HW215345   2.060   0.773   7.557 -0.2429 -0.8628 -0.1861
 1237SOL     OW15346   2.882   2.722   3.493 -0.0653  0.1398  0.5545
 1237SOL    HW115347   2.860   2.695   3.582 -0.0515 -0.0320  0.5073
 1237SOL    HW215348   2.974   2.698   3.480 -0.1589 -0.3035  0.6978
 1238SOL     OW15349   1.958   3.646  16.268  0.3193 -0.8000 -0.6018
 1238SOL    HW115350   2.029   3.583  16.275  0.7757 -0.2263 -0.0800
 1238SOL    HW215351   2.003   3.713  16.217  2.3480 -1.7953 -0.1150
 1239SOL     OW15352   2.602   1.434   6.531  0.1047 -0.1956 -0.0275
 1239SOL    HW115353   2.620   1.344   6.503  1.4415 -0.2651  1.0595
 1239SOL    HW215354   2.682   1.456   6.579 -0.4583  0.6145  0.5231
 1240SOL     OW15355   4.363   2.221   6.772  0.5452  0.0204  0.0327
 1240SOL    HW115356   4.353   2.131   6.740 -2.8902  0.9802 -1.5617
 1240SOL    HW215357   4.426   2.248   6.705  0.2742  2.5792  0.8126
 1241SOL     OW15358   3.606   0.479  15.319  0.1505  0.3829  0.3710
 1241SOL    HW115359   3.616   0.467  15.414 -3.1071  0.4435  0.6987
 1241SOL    HW215360   3.511   0.471  15.309  0.2075  0.0656  0.0925
 1242SOL     OW15361   1.970   2.430  17.621 -0.8333  0.6834 -0.0849
 1242SOL    HW115362   1.976   2.403  17.712 -1.4481  2.1341  0.3950
 1242SOL    HW215363   2.051   2.391  17.590 -0.0532  0.8603  1.7675
 1243SOL     OW15364   0.484   2.534  11.544  0.1222  0.1623  0.3821
 1243SOL    HW115365   0.517   2.496  11.625  0.0047 -0.6784  0.0480
 1243SOL    HW215366   0.402   2.577  11.565 -0.3918 -0.4611 -0.3256
 1244SOL     OW15367   3.721   3.726  15.790 -0.0874 -0.4763 -0.3894
 1244SOL    HW115368   3.776   3.662  15.835 -1.0702 -0.9139  0.1821
 1244SOL    HW215369   3.776   3.789  15.743 -1.6887  0.5031 -0.9356
 1245SOL     OW15370   3.440   0.952   7.206 -0.0725  0.0868 -0.4731
 1245SOL    HW115371   3.468   0.923   7.118  0.5232 -2.1766  0.4512
 1245SOL    HW215372   3.345   0.961   7.196 -0.3586 -1.0669  1.2227
 1246SOL     OW15373   3.351   0.163   7.177 -0.1706 -0.3115  0.0679
 1246SOL    HW115374   3.414   0.225   7.214 -1.7664  0.0988  2.1330
 1246SOL    HW215375   3.290   0.228   7.142  2.2407  1.2620 -1.1829
 1247SOL     OW15376   0.286   0.721   2.976  0.6005 -0.2483  0.1881
 1247SOL    HW115377   0.362   0.716   3.034 -1.5179 -2.8256  2.7629
 1247SOL    HW215378   0.284   0.628   2.951  1.3167  0.4461 -2.4402
 1248SOL     OW15379   0.077   0.289   8.980  0.2991 -0.3546  0.2273
 1248SOL    HW115380   0.020   0.350   9.026  2.8251  2.2685 -0.0850
 1248SOL    HW215381   0.042   0.298   8.891  2.7185 -1.9806 -0.9009
 1249SOL     OW15382   3.038   4.443   9.329  0.2545  0.3784  1.0776
 1249SOL    HW115383   3.125   4.421   9.362  1.2030  2.0095 -0.3030
 1249SOL    HW215384   3.052   4.537   9.314  2.0673  0.1073  1.1211
 1250SOL     OW15385   4.510   0.439   5.913  0.7750 -0.3409 -0.1721
 1250SOL    HW115386   4.597   0.398   5.919  0.1327 -1.7417 -0.3161
 1250SOL    HW215387   4.515   0.491   5.833 -0.4604 -1.2627 -0.8570
 1251SOL     OW15388   2.447   4.366  12.528  0.2692  0.0620 -0.1126
 1251SOL    HW115389   2.395   4.293  12.561 -0.5860  0.0124 -1.5841
 1251SOL    HW215390   2.426   4.439  12.585 -2.2583 -1.5670  1.0361
 1252SOL     OW15391   3.142   0.723   0.027 -0.0060  0.1363 -0.3341
 1252SOL    HW115392   3.236   0.722   0.039 -0.0122  3.1277 -0.0569
 1252SOL    HW215393   3.125   0.630   0.007  1.3861 -0.4994  1.5072
 1253SOL     OW15394   0.417   0.330  17.282  0.1899  0.3344  0.0093
 1253SOL    HW115395   0.368   0.267  17.336  0.0812  0.6325  0.2560
 1253SOL    HW215396   0.352   0.364  17.221  0.3984 -0.1566 -0.4902
 1254SOL     OW15397   2.248   2.305  16.226 -0.2111  0.0547  0.3015
 1254SOL    HW115398   2.222   2.237  16.163 -2.1446  0.4358  0.6880
 1254SOL    HW215399   2.295   2.353  16.158 -0.5814  2.7545  1.9463
 1255SOL     OW15400   1.855   1.970   9.470  0.3061  0.2447 -0.0048
 1255SOL    HW115401   1.833   2.061   9.449 -2.4841 -0.7308 -1.2652
 1255SOL    HW215402   1.767   1.933   9.479  0.6511 -0.8698 -1.2294
 1256SOL     OW15403   3.350   1.962  16.765  0.0938 -0.0644 -0.5142
 1256SOL    HW115404   3.303   1.994  16.687  2.9670  2.4442 -1.1967
 1256SOL    HW215405   3.430   1.922  16.730  0.9940  0.6503  0.7425
 1257SOL     OW15406   2.759   4.175   3.580 -0.0885  0.0911  0.6067
 1257SOL    HW115407   2.766   4.101   3.519 -0.6868 -0.6238  1.4063
 1257SOL    HW215408   2.845   4.170   3.624  1.1909 -0.8567 -1.9949
 1258SOL     OW15409   0.968   1.082   1.463 -0.2701 -0.1636  0.6382
 1258SOL    HW115410   1.015   1.100   1.544  2.0580 -3.2238 -0.0583
 1258SOL    HW215411   0.930   1.166   1.434 -0.1514 -1.1600 -2.4343
 1259SOL     OW15412   2.107   3.956   0.194 -0.3962  0.3444  0.2669
 1259SOL    HW115413   2.188   3.967   0.244 -0.4769 -2.0021  0.9096
 1259SOL    HW215414   2.122   4.017   0.122  0.7006  0.2768  0.4357
 1260SOL     OW15415   2.166   3.835   4.949 -0.0379  0.8846  1.0002
 1260SOL    HW115416   2.260   3.824   4.967 -0.1079 -2.1499 -0.3858
 1260SOL    HW215417   2.163   3.908   4.887 -0.6082  0.7397  0.8574
 1261SOL     OW15418   1.478   2.527   9.439  0.0926  0.6395  0.2450
 1261SOL    HW115419   1.433   2.467   9.498 -2.4539  0.4019 -1.9066
 1261SOL    HW215420   1.454   2.611   9.479  1.2348  0.7351  0.7396
 1262SOL     OW15421   4.272   3.097  11.058 -0.1399  0.5794  0.2279
 1262SOL    HW115422   4.286   3.191  11.063 -1.6512  0.7707  0.8377
 1262SOL    HW215423   4.329   3.082  10.982  0.3979  4.7958 -0.1588
 1263SOL     OW15424   2.978   1.429  16.447  0.6529 -0.1654 -0.1293
 1263SOL    HW115425   3.057   1.457  16.493  0.6256  0.7625 -0.6541
 1263SOL    HW215426   2.970   1.337  16.474  1.2498 -0.1528  0.0839
 1264SOL     OW15427   2.328   2.923  14.639  0.4175 -0.3153 -0.0344
 1264SOL    HW115428   2.246   2.898  14.682  0.7962 -0.6368  0.5072
 1264SOL    HW215429   2.295   2.986  14.575 -0.1252  0.6037  1.1648
 1265SOL     OW15430   4.374   1.716   8.867  0.4023  0.1185  0.2265
 1265SOL    HW115431   4.401   1.709   8.959 -0.6813 -0.8495  0.4761
 1265SOL    HW215432   4.308   1.785   8.877 -2.2652 -2.5793  1.4798
 1266SOL     OW15433   3.361   2.373  11.805 -0.1309  0.3722 -0.2607
 1266SOL    HW115434   3.416   2.440  11.845 -0.4415 -0.0150  0.8264
 1266SOL    HW215435   3.380   2.379  11.712 -1.0257 -4.6056 -0.7759
 1267SOL     OW15436   1.228   1.629  14.891  0.3761  0.5933  0.2494
 1267SOL    HW115437   1.253   1.616  14.983  1.5274 -0.1436 -0.1644
 1267SOL    HW215438   1.234   1.723  14.877  0.5563  0.6842  0.9186
 1268SOL     OW15439   2.534   3.593   8.913  0.2336 -0.3860 -0.7338
 1268SOL    HW115440   2.519   3.686   8.898 -0.3796 -0.5452 -1.1109
 1268SOL    HW215441   2.625   3.588   8.883 -0.4856  2.6337 -3.3727
 1269SOL     OW15442   1.413   2.142   3.736  0.1969  0.0877  0.1458
 1269SOL    HW115443   1.360   2.164   3.813 -0.8053 -0.6172 -0.3458
 1269SOL    HW215444   1.348   2.143   3.666 -1.0348  0.6042  1.2867
 1270SOL     OW15445   2.668   4.256   3.895 -0.0238  0.3181 -0.2984
 1270SOL    HW115446   2.576   4.258   3.922 -0.6079 -3.3795 -1.9277
 1270SOL    HW215447   2.652   4.233   3.803 -1.0544 -1.0345  0.2101
 1271SOL     OW15448   3.470   1.728   3.240 -0.5037 -0.1609  0.4821
 1271SOL    HW115449   3.460   1.651   3.184 -0.1884 -0.2070  0.4891
 1271SOL    HW215450   3.408   1.789   3.199 -0.0051 -0.1029 -0.1815
 1272SOL     OW15451   1.917   0.251   9.234 -0.1263  0.2072  0.0894
 1272SOL    HW115452   1.988   0.275   9.174  1.2423 -2.9048  0.4471
 1272SOL    HW215453   1.857   0.203   9.177  1.5533  0.4535 -1.8784
 1273SOL     OW15454   1.513   2.987   9.855 -0.1366  0.8824  0.2840
 1273SOL    HW115455   1.529   2.929   9.781  2.1897  1.1236  0.5751
 1273SOL    HW215456   1.445   3.040   9.814  1.5410  1.9073 -1.1860
 1274SOL     OW15457   2.959   1.699   6.533  0.3328  0.2014  0.1632
 1274SOL    HW115458   3.034   1.734   6.581 -0.3468  2.5204 -0.4491
 1274SOL    HW215459   2.909   1.778   6.515  0.3503  0.1912  0.0708
 1275SOL     OW15460   2.418   2.551   6.984 -0.1966  0.0559 -0.7564
 1275SOL    HW115461   2.395   2.644   6.976 -0.7911 -0.1247 -1.0931
 1275SOL    HW215462   2.437   2.539   6.891  0.6436 -1.8727 -0.3345
 1276SOL     OW15463   1.715   0.051   7.587  0.8524  0.0956  0.1930
 1276SOL    HW115464   1.783   0.103   7.544  0.6522 -0.5078 -0.8409
 1276SOL    HW215465   1.635   0.097   7.563  2.2237  1.4218 -1.7805
 1277SOL     OW15466   3.271   3.953  12.740 -0.2267  0.0070  0.1380
 1277SOL    HW115467   3.307   3.942  12.652 -0.3955  1.4458 -0.1100
 1277SOL    HW215468   3.206   3.883  12.754 -0.6998  0.1953 -1.0731
 1278SOL     OW15469   0.760   0.004   1.629 -0.0061  0.0306  0.0987
 1278SOL    HW115470   0.695   0.074   1.639  0.7505  0.5765  1.2808
 1278SOL    HW215471   0.745   4.725   1.537  2.9705 -0.7776 -0.2136
 1279SOL     OW15472   3.809   1.580   4.646  0.1650 -0.0118  0.2830
 1279SOL    HW115473   3.722   1.605   4.676 -1.2769 -3.3904 -1.0377
 1279SOL    HW215474   3.779   1.512   4.586  0.1575  0.0059  0.2666
 1280SOL     OW15475   2.925   1.856  15.176  0.1205 -0.3970 -0.4028
 1280SOL    HW115476   2.931   1.838  15.270  3.2118  0.4030 -0.4533
 1280SOL    HW215477   3.009   1.901  15.167  0.5835 -1.2588 -0.4191
 1281SOL     OW15478   2.682   0.004   3.205  0.0477 -0.2831 -0.0987
 1281SOL    HW115479   2.727   0.056   3.139 -2.7031 -1.4765 -2.9155
 1281SOL    HW215480   2.612   4.709   3.150 -0.6983  1.1049 -0.0454
 1282SOL     OW15481   2.669   3.243   5.040 -0.1524  0.4007  0.1053
 1282SOL    HW115482   2.631   3.158   5.018 -0.0108  0.1494  0.8440
 1282SOL    HW215483   2.637   3.287   4.961 -1.2457  0.5919  0.6577
 1283SOL     OW15484   0.947   2.127  16.265  0.4874 -0.3024  0.8025
 1283SOL    HW115485   0.876   2.134  16.329 -0.9893 -0.1131 -0.8895
 1283SOL    HW215486   0.902   2.130  16.181  0.7224 -0.5776  0.6622
 1284SOL     OW15487   4.671   2.591   4.619 -0.4472  0.0641  0.1877
 1284SOL    HW115488   4.691   2.677   4.582  0.6395  0.0705  0.8057
 1284SOL    HW215489   4.718   2.528   4.564 -1.2414 -1.3730  1.1558
 1285SOL     OW15490   4.537   0.323   2.899 -0.0528 -0.1453  0.1433
 1285SOL    HW115491   4.500   0.314   2.812 -0.7359 -1.8683  0.6147
 1285SOL    HW215492   4.581   0.408   2.895 -2.4224  1.1932  2.6122
 1286SOL     OW15493   0.287   4.323   2.521  0.4026 -0.2399  0.7894
 1286SOL    HW115494   0.259   4.390   2.459  2.9219 -1.3688 -1.5516
 1286SOL    HW215495   0.289   4.372   2.603  2.0569  3.5373 -1.5106
 1287SOL     OW15496   1.734   0.837  11.430  0.1120  0.1501  0.2514
 1287SOL    HW115497   1.753   0.776  11.502 -0.2717 -0.3013 -0.0343
 1287SOL    HW215498   1.691   0.776  11.370 -0.8039  0.0613  0.9967
 1288SOL     OW15499   0.393   1.690   1.924 -0.4562  0.0301  0.4267
 1288SOL    HW115500   0.430   1.603   1.911  0.6174  0.2201  2.1071
 1288SOL    HW215501   0.315   1.682   1.870  0.2046  1.6752 -0.7741
 1289SOL     OW15502   0.283   1.906   8.329  0.2309 -0.0946 -0.5980
 1289SOL    HW115503   0.305   1.938   8.416 -1.6472  1.8252 -0.8380
 1289SOL    HW215504   0.264   1.813   8.344 -0.4303  0.5699  2.7942
 1290SOL     OW15505   2.293   2.884   4.451  0.0878  0.5400  0.2497
 1290SOL    HW115506   2.342   2.904   4.372  2.1902  0.7646  1.5882
 1290SOL    HW215507   2.322   2.795   4.473 -2.7459 -0.5475 -0.4046
 1291SOL     OW15508   0.934   4.724  14.338  0.2964 -0.1178 -0.0713
 1291SOL    HW115509   0.883   0.023  14.268 -0.3270 -0.2366  0.3204
 1291SOL    HW215510   0.912   4.631  14.329 -0.4170  0.0586 -0.1255
 1292SOL     OW15511   4.295   3.401   5.279  0.1219  0.3257 -0.4863
 1292SOL    HW115512   4.380   3.393   5.321 -0.3953  0.5533  0.5927
 1292SOL    HW215513   4.298   3.494   5.254 -0.1640  0.8124  1.2947
 1293SOL     OW15514   2.642   1.844  10.020  0.7733  0.5572 -0.1742
 1293SOL    HW115515   2.712   1.779  10.020 -1.0465 -1.4126  0.3026
 1293SOL    HW215516   2.571   1.789  10.053  0.3418  1.9384  1.1892
 1294SOL     OW15517   4.407   3.716  11.826  0.2116 -0.0170  0.3302
 1294SOL    HW115518   4.353   3.727  11.904  1.2845  1.6601  0.8413
 1294SOL    HW215519   4.459   3.640  11.851  2.2064  0.9212 -0.9243
 1295SOL     OW15520   0.848   3.156  16.501 -0.6783 -0.3075  0.1158
 1295SOL    HW115521   0.770   3.102  16.487 -0.6034 -0.4284  0.1629
 1295SOL    HW215522   0.878   3.171  16.411 -0.7432 -1.2186 -0.0555
 1296SOL     OW15523   1.483   1.904  14.845 -0.0960  0.0026 -0.9940
 1296SOL    HW115524   1.471   1.942  14.931  0.7069 -1.0235 -0.4248
 1296SOL    HW215525   1.568   1.938  14.818 -0.1357  0.8453 -0.0275
 1297SOL     OW15526   0.561   3.815   8.290  0.6082  0.3388 -0.1783
 1297SOL    HW115527   0.649   3.811   8.329  1.0215 -2.5539 -1.4663
 1297SOL    HW215528   0.539   3.903   8.323  0.1809 -0.3112  1.2822
 1298SOL     OW15529   1.151   1.445  14.258 -0.0965  0.1331  0.0895
 1298SOL    HW115530   1.199   1.449  14.341 -1.7850 -0.7699  1.0928
 1298SOL    HW215531   1.136   1.537  14.235  0.5889  0.2929  0.2721
 1299SOL     OW15532   0.984   2.869   7.292 -0.0297  0.1344  0.3981
 1299SOL    HW115533   0.941   2.882   7.377 -0.7980  0.6555 -0.0694
 1299SOL    HW215534   1.063   2.915   7.318  0.4764 -0.1713 -0.6061
 1300SOL     OW15535   4.134   4.383   4.102  0.0470 -0.8938  0.1421
 1300SOL    HW115536   4.166   4.463   4.143  0.5112 -0.5962 -0.7982
 1300SOL    HW215537   4.089   4.345   4.177 -1.2843  1.6363  0.6315
 1301SOL     OW15538   4.505   2.464  16.912 -0.4349 -0.0967  0.2274
 1301SOL    HW115539   4.561   2.417  16.975 -0.0927 -0.3188 -0.2457
 1301SOL    HW215540   4.561   2.538  16.890  1.7850 -1.9470 -0.3828
 1302SOL     OW15541   0.781   2.499   6.313  0.5302  0.3250  0.3288
 1302SOL    HW115542   0.785   2.527   6.405  2.0156 -0.6166  0.5551
 1302SOL    HW215543   0.703   2.539   6.275  1.2844  0.0590 -1.4741
 1303SOL     OW15544   1.511   1.448   3.409  0.0940  0.1915 -0.1846
 1303SOL    HW115545   1.441   1.416   3.467  1.3827 -2.0521  0.1137
 1303SOL    HW215546   1.494   1.542   3.404  0.9165  0.3591  0.2474
 1304SOL     OW15547   2.842   3.598   3.698 -0.1287  0.7742 -0.1354
 1304SOL    HW115548   2.887   3.591   3.783 -1.7157  1.4767  0.7581
 1304SOL    HW215549   2.865   3.688   3.675  1.0242  0.2046 -1.2333
 1305SOL     OW15550   3.104   0.013   6.551 -0.8296  0.0308  0.3402
 1305SOL    HW115551   3.014   0.033   6.524 -0.7977 -1.1946 -0.6155
 1305SOL    HW215552   3.147   4.732   6.468  0.8309 -0.0658  1.2205
 1306SOL     OW15553   4.724   2.481   8.610  0.5793  0.4393 -0.0621
 1306SOL    HW115554   4.667   2.428   8.556  1.0505 -1.3040  1.1468
 1306SOL    HW215555   4.677   2.470   8.693  1.3650 -1.3522  0.1510
 1307SOL     OW15556   1.843   0.682  16.970  0.2211 -0.0160 -0.2404
 1307SOL    HW115557   1.765   0.636  16.939 -0.2514 -0.4399  1.5644
 1307SOL    HW215558   1.903   0.607  16.969  1.7698  1.2715 -2.3304
 1308SOL     OW15559   3.418   2.532   8.888 -0.0440  0.5025 -0.7136
 1308SOL    HW115560   3.484   2.505   8.952  0.5022  1.9465 -0.6501
 1308SOL    HW215561   3.352   2.471   8.919 -0.7105  1.9623  0.7553
 1309SOL     OW15562   1.239   4.663  15.335 -0.1350  0.1925  0.2502
 1309SOL    HW115563   1.164   4.669  15.394 -3.1120 -3.2050 -3.2354
 1309SOL    HW215564   1.309   4.665  15.400  0.9396  4.2224 -1.0447
 1310SOL     OW15565   3.429   0.323   4.591 -0.5130 -0.6743  0.4882
 1310SOL    HW115566   3.496   0.337   4.657 -1.0627  0.5270  0.7978
 1310SOL    HW215567   3.401   0.234   4.613 -1.6800 -0.4715 -0.1456
 1311SOL     OW15568   0.995   1.021  10.352 -0.0257 -0.4444  0.6472
 1311SOL    HW115569   0.923   0.958  10.350 -0.2070 -0.2468  0.9075
 1311SOL    HW215570   1.073   0.973  10.324 -0.1879 -1.2234  1.5081
 1312SOL     OW15571   1.057   1.037   7.450  0.3284  0.0182 -0.6283
 1312SOL    HW115572   1.108   1.091   7.511  0.3010 -0.9337  0.2395
 1312SOL    HW215573   1.111   0.967   7.416  1.0293  0.5554 -0.6134
 1313SOL     OW15574   0.585   0.281   4.621  0.7938 -0.3797  0.3166
 1313SOL    HW115575   0.613   0.289   4.530  0.1083 -0.7900  0.0611
 1313SOL    HW215576   0.492   0.260   4.612  0.5968 -0.2703  2.0073
 1314SOL     OW15577   2.834   2.490   4.554  0.1658 -0.8991  0.5358
 1314SOL    HW115578   2.794   2.473   4.639 -2.7713 -1.8436 -1.0425
 1314SOL    HW215579   2.810   2.406   4.515 -0.3226 -0.8636  0.7618
 1315SOL     OW15580   2.381   4.192   9.392  0.0913 -0.3090  0.5132
 1315SOL    HW115581   2.422   4.124   9.445  1.5042 -0.7561 -1.1321
 1315SOL    HW215582   2.428   4.174   9.310  2.3658 -1.0583  1.9749
 1316SOL     OW15583   0.115   1.366   3.633 -0.5058 -0.5209  0.8942
 1316SOL    HW115584   0.068   1.445   3.661  1.1152  0.3332  1.1925
 1316SOL    HW215585   0.136   1.334   3.721  0.7342  2.3623  1.6478
 1317SOL     OW15586   0.694   3.873   8.945  0.1433  0.0906 -0.2009
 1317SOL    HW115587   0.622   3.888   9.007  2.1251 -1.7938  2.5524
 1317SOL    HW215588   0.724   3.798   8.997 -2.7981  0.0545  1.4924
 1318SOL     OW15589   3.684   4.339   2.364 -0.3902  0.2119 -0.6532
 1318SOL    HW115590   3.694   4.409   2.300 -0.9986  1.6287  0.7968
 1318SOL    HW215591   3.593   4.356   2.388  0.6818  2.3419  1.9655
 1319SOL     OW15592   2.537   4.617   7.815 -0.1901 -0.4234 -0.2508
 1319SOL    HW115593   2.552   4.706   7.847 -0.8682  0.3885 -2.1789
 1319SOL    HW215594   2.585   4.567   7.881 -1.0946 -0.7644  0.1342
 1320SOL     OW15595   3.560   3.208   1.567  0.2699  0.0813 -0.3161
 1320SOL    HW115596   3.625   3.138   1.562 -0.3939 -0.5499 -0.2649
 1320SOL    HW215597   3.593   3.261   1.639 -0.3856 -1.0083  0.7830
 1321SOL     OW15598   0.866   0.510   2.719  0.1918 -0.4377 -0.2245
 1321SOL    HW115599   0.961   0.520   2.725 -0.0057  1.1298  0.2167
 1321SOL    HW215600   0.848   0.469   2.804 -0.5900  1.1614  0.3793
 1322SOL     OW15601   4.664   1.331   7.087 -0.1847 -0.2911  0.3047
 1322SOL    HW115602   4.615   1.284   7.019  0.9654  0.2539 -0.8992
 1322SOL    HW215603   0.005   1.339   7.038  0.0348 -2.3470  0.3216
 1323SOL     OW15604   1.781   1.869   5.327  0.1146  0.0195  0.6059
 1323SOL    HW115605   1.702   1.919   5.312  0.3605 -0.0716 -0.9452
 1323SOL    HW215606   1.758   1.806   5.396  0.6388  0.6325  1.3475
 1324SOL     OW15607   4.698   2.111  15.681 -0.0783 -0.5948 -0.1262
 1324SOL    HW115608   0.042   2.133  15.643  0.6292  0.7572  2.2466
 1324SOL    HW215609   4.723   2.024  15.711 -2.1109 -0.4678  1.9218
 1325SOL     OW15610   0.849   2.120  10.480 -0.3982 -0.2548  0.3813
 1325SOL    HW115611   0.837   2.215  10.473 -2.2534 -0.4141  1.4758
 1325SOL    HW215612   0.937   2.121  10.517 -0.1947 -1.0412 -0.0754
 1326SOL     OW15613   3.069   4.228   5.627  0.3951 -0.1777 -0.0219
 1326SOL    HW115614   3.117   4.147   5.610 -0.0506 -0.3764 -0.3195
 1326SOL    HW215615   3.122   4.255   5.702 -0.8672 -0.7729  1.0894
 1327SOL     OW15616   3.627   2.079   9.265  0.1874 -0.4332 -0.0462
 1327SOL    HW115617   3.579   2.009   9.222 -0.9821  0.4978 -0.2601
 1327SOL    HW215618   3.563   2.149   9.277 -0.0913 -0.0660 -3.7515
 1328SOL     OW15619   0.759   3.441   8.924  0.1728 -0.0369 -0.2274
 1328SOL    HW115620   0.724   3.414   8.839  1.1268 -0.6097 -0.4440
 1328SOL    HW215621   0.810   3.518   8.898  2.0555 -1.2809 -0.2571
 1329SOL     OW15622   2.569   0.851   1.767 -0.2676 -0.0155  0.1150
 1329SOL    HW115623   2.510   0.881   1.698 -1.2367  1.6386  1.6730
 1329SOL    HW215624   2.504   0.808   1.823 -0.8435 -1.6149 -1.7576
 1330SOL     OW15625   4.099   2.191   3.338 -0.5010 -0.1737  0.4470
 1330SOL    HW115626   4.054   2.263   3.295  1.9014  1.8049  1.2123
 1330SOL    HW215627   4.078   2.129   3.268 -2.6601  2.4457 -1.2328
 1331SOL     OW15628   2.630   1.028   7.882  0.0894  0.5450  0.1945
 1331SOL    HW115629   2.574   1.037   7.805 -0.7539  0.0326  0.7496
 1331SOL    HW215630   2.694   1.098   7.876  0.5369  0.0519 -0.7487
 1332SOL     OW15631   2.894   2.234   8.256 -0.2830 -0.7072 -0.1384
 1332SOL    HW115632   2.840   2.261   8.331  0.0026 -1.6805  0.4228
 1332SOL    HW215633   2.973   2.287   8.262 -1.3446  1.0941 -2.0788
 1333SOL     OW15634   3.765   3.631   8.453  0.4668  0.3641 -0.4332
 1333SOL    HW115635   3.710   3.709   8.445 -2.9721 -2.0091  0.2900
 1333SOL    HW215636   3.846   3.680   8.435  1.2484 -1.2584 -1.2700
 1334SOL     OW15637   1.602   3.747   7.488  0.3936  0.2663  0.3087
 1334SOL    HW115638   1.605   3.837   7.457 -1.1966 -0.2252 -1.2482
 1334SOL    HW215639   1.629   3.761   7.579  0.5925  1.4947  0.0656
 1335SOL     OW15640   3.319   4.169   9.215  0.0062 -0.5129 -0.3440
 1335SOL    HW115641   3.381   4.128   9.155 -0.9940 -0.0740 -1.6591
 1335SOL    HW215642   3.289   4.247   9.170  2.4678  0.5527 -0.1324
 1336SOL     OW15643   3.719   1.427   2.749  0.6667  0.4753  0.0409
 1336SOL    HW115644   3.712   1.521   2.764  1.5872  0.5449  0.0107
 1336SOL    HW215645   3.672   1.419   2.665 -0.0246 -2.4351  0.7132
 1337SOL     OW15646   1.522   1.527  16.715 -0.1191 -0.7398 -0.4562
 1337SOL    HW115647   1.442   1.475  16.706 -0.1258 -0.9453  0.7965
 1337SOL    HW215648   1.517   1.582  16.637 -2.2877  0.5860  0.6124
 1338SOL     OW15649   1.817   2.140   2.945  0.5176 -0.4533 -0.8064
 1338SOL    HW115650   1.749   2.176   2.888  0.4687  0.6540 -0.0282
 1338SOL    HW215651   1.853   2.217   2.989  2.2159 -1.0462 -1.1470
 1339SOL     OW15652   2.641   4.215   8.944  0.3791 -0.5246 -0.1147
 1339SOL    HW115653   2.698   4.165   8.885  0.2631  1.0601 -1.5657
 1339SOL    HW215654   2.661   4.184   9.032 -1.7823 -0.5718  0.3370
 1340SOL     OW15655   3.124   1.209   8.690 -0.5954 -0.3344 -0.3101
 1340SOL    HW115656   3.208   1.179   8.654 -1.6316 -1.1977 -1.9848
 1340SOL    HW215657   3.072   1.196   8.611  0.6200  0.6195 -1.2765
 1341SOL     OW15658   0.021   1.607   0.173  0.1858 -0.2514 -0.2054
 1341SOL    HW115659   4.728   1.560   0.097  1.9789  1.0241 -1.7839
 1341SOL    HW215660   4.709   1.557   0.236 -0.1075 -1.5214 -1.4727
 1342SOL     OW15661   4.068   4.343   8.583  0.2758  0.2912 -0.1096
 1342SOL    HW115662   4.035   4.399   8.654  0.4788 -0.3906  0.5197
 1342SOL    HW215663   3.999   4.338   8.518 -0.1536 -1.3336  0.4701
 1343SOL     OW15664   0.399   4.393   0.086  0.1579 -0.0785 -0.1447
 1343SOL    HW115665   0.453   4.334   0.033  1.6273  0.4219  0.7929
 1343SOL    HW215666   0.398   4.362   0.176 -2.7249  1.7727  0.4318
 1344SOL     OW15667   1.351   2.279   2.678  0.2103  0.7598 -0.4823
 1344SOL    HW115668   1.300   2.359   2.667 -0.3361  0.6403  1.2084
 1344SOL    HW215669   1.415   2.286   2.607 -0.0232  0.0585 -0.7552
 1345SOL     OW15670   3.837   0.566   2.296  0.2888  0.1554  0.5584
 1345SOL    HW115671   3.907   0.608   2.246  0.0587 -0.0072  0.0965
 1345SOL    HW215672   3.771   0.635   2.286  0.2068 -0.0645 -0.5055
 1346SOL     OW15673   0.676   1.723  17.341  0.5687 -0.5466 -0.0962
 1346SOL    HW115674   0.680   1.805  17.292 -1.7860 -0.3493  0.0091
 1346SOL    HW215675   0.754   1.739  17.394 -0.1993  2.5374  0.1373
 1347SOL     OW15676   2.123   1.106   1.974  0.1086 -0.1887  0.1600
 1347SOL    HW115677   2.092   1.181   2.025  0.5241  0.6230 -0.7791
 1347SOL    HW215678   2.120   1.134   1.882 -0.1994  0.6398  0.4235
 1348SOL     OW15679   3.938   0.525   0.711  0.2064 -0.0322 -0.1291
 1348SOL    HW115680   4.018   0.577   0.710  0.8101 -0.9457  0.7530
 1348SOL    HW215681   3.892   0.566   0.785 -0.8146 -0.5957 -0.4541
 1349SOL     OW15682   3.963   4.311   7.792 -0.2995 -0.3916  0.3175
 1349SOL    HW115683   3.975   4.264   7.710  2.0679  0.1910  0.3315
 1349SOL    HW215684   3.885   4.275   7.835 -0.3482 -2.8787 -1.8665
 1350SOL     OW15685   0.182   3.605   1.800 -0.1045  0.2853  0.6901
 1350SOL    HW115686   0.271   3.570   1.797 -0.3833 -0.2053 -2.1785
 1350SOL    HW215687   0.134   3.546   1.857  1.9364 -3.1003 -1.1447
 1351SOL     OW15688   4.389   0.771  12.654  0.4883  0.5668  0.0304
 1351SOL    HW115689   4.432   0.688  12.635  0.2800  0.1077  1.5429
 1351SOL    HW215690   4.379   0.804  12.565 -0.1380  1.8130  0.5651
 1352SOL     OW15691   2.742   1.294   7.441 -0.1595  0.1416  0.0093
 1352SOL    HW115692   2.751   1.199   7.452 -0.7903 -0.0624 -1.2355
 1352SOL    HW215693   2.820   1.336   7.478  0.3704 -0.2453 -0.6825
 1353SOL     OW15694   1.929   2.186   3.743  0.3626 -0.3785 -0.6412
 1353SOL    HW115695   1.969   2.271   3.761 -0.1142  0.0244 -1.5502
 1353SOL    HW215696   1.837   2.206   3.732 -0.0096 -2.6134 -1.5857
 1354SOL     OW15697   3.028   4.672   6.156  0.0318  0.1470  0.3447
 1354SOL    HW115698   2.990   4.731   6.222 -1.8476 -0.4727 -0.1717
 1354SOL    HW215699   3.122   4.685   6.167  0.0211  1.8942 -1.5965
 1355SOL     OW15700   2.002   0.340   7.714 -0.2826  0.1664  0.0720
 1355SOL    HW115701   1.975   0.266   7.769  0.5433  0.5262  0.9607
 1355SOL    HW215702   1.969   0.316   7.627 -0.9624 -0.9428  0.6283
 1356SOL     OW15703   4.595   4.480  15.417  0.3185  0.0852 -0.6994
 1356SOL    HW115704   4.524   4.494  15.355  0.8825  1.1081 -1.1049
 1356SOL    HW215705   4.665   4.460  15.355 -0.5592 -1.0754 -1.3173
 1357SOL     OW15706   4.205   1.225   0.799  0.0876  0.0567  0.1978
 1357SOL    HW115707   4.191   1.318   0.820 -1.1008 -0.1628  0.3939
 1357SOL    HW215708   4.149   1.178   0.860 -1.6840  1.6653 -0.1592
 1358SOL     OW15709   2.357   4.142   5.307 -0.2521 -0.6002  0.0374
 1358SOL    HW115710   2.321   4.222   5.346  0.6655  0.1135 -0.5754
 1358SOL    HW215711   2.391   4.170   5.222  0.7768 -1.2382  0.2380
 1359SOL     OW15712   0.929   4.483   5.886  0.4927  0.1993  0.3409
 1359SOL    HW115713   1.016   4.516   5.910 -0.2353  1.3062  1.4460
 1359SOL    HW215714   0.932   4.393   5.917 -0.5764 -0.1282 -0.5375
 1360SOL     OW15715   3.425   2.898   5.554  0.3757 -0.3908 -0.2566
 1360SOL    HW115716   3.394   2.908   5.644 -0.2531 -0.1646 -0.5048
 1360SOL    HW215717   3.472   2.981   5.548  2.3787 -1.6536 -2.1108
 1361SOL     OW15718   3.817   4.712   1.387 -0.2905 -0.0601 -0.7421
 1361SOL    HW115719   3.898   0.003   1.347 -0.7438 -0.9588 -2.3605
 1361SOL    HW215720   3.793   0.062   1.408 -0.2883 -0.2226 -0.0301
 1362SOL     OW15721   3.432   3.896  17.649  0.7215 -0.2144  0.1686
 1362SOL    HW115722   3.399   3.923  17.563  0.7730 -1.0645 -0.1106
 1362SOL    HW215723   3.496   3.967  17.662  0.4723 -0.6405  3.7319
 1363SOL     OW15724   0.562   4.508   6.461 -0.1393 -0.7012 -0.3668
 1363SOL    HW115725   0.551   4.590   6.510  0.7416 -1.8319  1.7206
 1363SOL    HW215726   0.474   4.476   6.442  0.1924 -1.1211 -1.2016
 1364SOL     OW15727   0.184   0.588   5.379 -0.2255  0.8120  0.4057
 1364SOL    HW115728   0.146   0.513   5.426 -0.0355 -0.9252 -2.2348
 1364SOL    HW215729   0.269   0.610   5.418  1.5781 -3.0643 -1.3759
 1365SOL     OW15730   2.354   0.185   8.698  0.4216  0.8261  0.1577
 1365SOL    HW115731   2.385   0.272   8.671  0.9036  0.3296 -0.8667
 1365SOL    HW215732   2.274   0.183   8.646  2.0525 -0.1732 -2.2765
 1366SOL     OW15733   1.093   4.236  11.081 -0.8037  0.0722 -0.0533
 1366SOL    HW115734   1.071   4.193  10.998 -0.3621  0.0197 -0.1444
 1366SOL    HW215735   1.106   4.325  11.047 -1.2456  0.7583  1.6122
 1367SOL     OW15736   2.205   0.104   4.903  0.0252 -0.6501 -0.0068
 1367SOL    HW115737   2.110   0.103   4.891  0.2644 -0.5143 -1.9049
 1367SOL    HW215738   2.219   0.025   4.955 -0.1523 -0.0789  0.8950
 1368SOL     OW15739   3.758   2.446   0.819 -0.1273  0.7249 -0.1930
 1368SOL    HW115740   3.755   2.434   0.724 -0.7259 -0.0987 -0.0704
 1368SOL    HW215741   3.698   2.521   0.822  1.7668  2.1828  1.0443
 1369SOL     OW15742   3.368   0.085   6.599 -0.6831 -0.2174  0.4237
 1369SOL    HW115743   3.374   0.060   6.691  0.3022 -1.1532  0.1158
 1369SOL    HW215744   3.289   0.040   6.570 -2.3728  2.7025  0.4980
 1370SOL     OW15745   0.317   0.221   4.115 -0.7228  0.6324 -0.1633
 1370SOL    HW115746   0.283   0.160   4.050 -1.6886  0.9227  0.0729
 1370SOL    HW215747   0.344   0.292   4.057 -2.2003  1.1873 -0.1637
 1371SOL     OW15748   1.587   4.173   6.910 -0.0955 -0.1470  0.1654
 1371SOL    HW115749   1.678   4.196   6.929 -0.5835  0.1378  2.1293
 1371SOL    HW215750   1.545   4.259   6.908  3.4758  1.5572 -0.4488
 1372SOL     OW15751   1.153   4.461   5.601  0.1113  0.3066  0.0954
 1372SOL    HW115752   1.094   4.399   5.557  0.0219  1.5091 -1.4703
 1372SOL    HW215753   1.187   4.416   5.678  0.1481  1.0725  0.5181
 1373SOL     OW15754   1.163   1.063   2.445 -0.2626  0.6865  0.2252
 1373SOL    HW115755   1.234   1.043   2.383 -1.1445  1.2778 -0.9668
 1373SOL    HW215756   1.095   1.090   2.384 -1.4078 -0.9212  0.7755
 1374SOL     OW15757   1.925   1.289  15.123  0.5965 -0.3624 -0.0558
 1374SOL    HW115758   1.911   1.205  15.167  0.6153 -0.0877  0.4656
 1374SOL    HW215759   2.017   1.311  15.138  0.5130  1.3867 -2.0444
 1375SOL     OW15760   0.153   1.283   1.796  0.6701 -0.1424  0.4471
 1375SOL    HW115761   0.086   1.227   1.833 -0.7748  0.7528 -0.8330
 1375SOL    HW215762   0.129   1.319   1.711 -2.0912  1.3239  1.8602
 1376SOL     OW15763   2.505   1.600   8.465  0.0476 -0.0649  0.1456
 1376SOL    HW115764   2.487   1.692   8.483  1.5913  0.2338  0.1628
 1376SOL    HW215765   2.503   1.604   8.370  0.6009  1.5639  0.2072
 1377SOL     OW15766   2.056   0.597   5.118 -1.1988  0.0477 -0.0613
 1377SOL    HW115767   2.084   0.514   5.156 -1.0842 -0.1097 -0.4909
 1377SOL    HW215768   2.014   0.587   5.033 -1.6794  2.4268 -0.0945
 1378SOL     OW15769   4.522   3.580  14.501  0.0098 -0.0384  0.0630
 1378SOL    HW115770   4.521   3.532  14.418  2.8336 -0.9625  0.5483
 1378SOL    HW215771   4.450   3.548  14.555 -0.3115 -1.5254 -1.2246
 1379SOL     OW15772   1.576   4.431   6.324  0.6150  0.2072  0.3183
 1379SOL    HW115773   1.544   4.499   6.383 -2.0182  0.8790 -1.8886
 1379SOL    HW215774   1.608   4.486   6.252 -1.0704 -0.1788 -0.7395
 1380SOL     OW15775   3.675   4.058   8.076 -0.7243 -0.5219  0.1109
 1380SOL    HW115776   3.657   4.073   8.169  0.0436 -0.0906  0.1927
 1380SOL    HW215777   3.667   4.149   8.047  0.3743 -0.4649  0.0031
 1381SOL     OW15778   4.182   2.132   7.333  0.3469  0.0470 -0.2388
 1381SOL    HW115779   4.226   2.217   7.343 -0.7548  0.6163 -0.3003
 1381SOL    HW215780   4.142   2.129   7.420  1.4896 -3.5500  0.1291
 1382SOL     OW15781   4.103   3.905   3.383  0.4888 -0.5249 -0.1101
 1382SOL    HW115782   4.192   3.876   3.366  0.9187  0.1737  0.9443
 1382SOL    HW215783   4.122   3.999   3.387 -0.9462 -0.2386  0.1308
 1383SOL     OW15784   2.139   1.786  14.094 -0.4763  0.1050 -0.2835
 1383SOL    HW115785   2.214   1.737  14.061 -0.3694 -0.5293  0.9119
 1383SOL    HW215786   2.099   1.840  14.026 -1.4131  0.0659  0.2460
 1384SOL     OW15787   0.613   2.042   0.195  0.0441 -0.6496 -0.7028
 1384SOL    HW115788   0.621   2.013   0.286 -0.2410 -1.1259 -0.8259
 1384SOL    HW215789   0.583   1.956   0.164 -1.4880  0.3301 -1.9189
 1385SOL     OW15790   1.494   1.425   8.079  0.0809 -0.4159 -0.0820
 1385SOL    HW115791   1.445   1.470   8.011 -2.3536 -2.2702  0.4406
 1385SOL    HW215792   1.457   1.337   8.073 -0.7345 -0.1224  0.5389
 1386SOL     OW15793   2.536   1.895   5.164  0.1042  0.3518 -0.5566
 1386SOL    HW115794   2.479   1.834   5.117 -0.1727 -1.2821  1.8853
 1386SOL    HW215795   2.590   1.929   5.092 -0.6363  1.7416 -0.4369
 1387SOL     OW15796   0.805   2.715   4.519  0.6072 -1.2211  0.2968
 1387SOL    HW115797   0.824   2.793   4.572 -2.1933  0.2095 -0.8578
 1387SOL    HW215798   0.783   2.656   4.592  2.3306 -2.1511  0.0919
 1388SOL     OW15799   3.365   4.157   1.371 -0.4735  0.1205 -0.2212
 1388SOL    HW115800   3.412   4.122   1.447 -0.5814  1.9091  0.6646
 1388SOL    HW215801   3.363   4.078   1.316  1.4224  1.2866 -1.9483
 1389SOL     OW15802   1.634   4.267   0.223  0.0811  0.5954 -0.3622
 1389SOL    HW115803   1.651   4.241   0.132 -1.8620  2.4309 -1.2535
 1389SOL    HW215804   1.725   4.274   0.253  0.2836  0.6365 -0.9619
 1390SOL     OW15805   0.881   2.178   8.139  0.2414 -0.4098 -0.4484
 1390SOL    HW115806   0.854   2.224   8.060  0.0503  3.3480  1.7601
 1390SOL    HW215807   0.966   2.220   8.152 -1.5402  2.6370  1.5136
 1391SOL     OW15808   3.440   3.393   8.898  0.0642 -0.2961 -0.3294
 1391SOL    HW115809   3.461   3.472   8.848  1.4493 -1.1254 -1.0565
 1391SOL    HW215810   3.451   3.324   8.832  0.3747  1.0780 -1.7213
 1392SOL     OW15811   0.800   4.328  14.358 -0.4701  0.3857  0.0577
 1392SOL    HW115812   0.809   4.254  14.297  1.3242  0.9058 -0.2817
 1392SOL    HW215813   0.792   4.271  14.435 -1.1234  1.0064  0.4529
 1393SOL     OW15814   4.203   0.271  12.820 -0.1466  0.6555  0.8714
 1393SOL    HW115815   4.195   0.219  12.900 -0.9366  0.9266  0.9668
 1393SOL    HW215816   4.197   0.204  12.751 -0.6707 -0.2232  1.7721
 1394SOL     OW15817   0.020   2.345   9.505  0.3278 -0.2748  0.0313
 1394SOL    HW115818   0.095   2.342   9.445  0.7915 -1.3120  0.6557
 1394SOL    HW215819   4.706   2.280   9.461  0.0954 -1.0223  1.4093
 1395SOL     OW15820   3.526   2.924  11.965  0.3226  0.8239 -0.3011
 1395SOL    HW115821   3.453   2.983  11.985  1.7840  1.7774  2.2933
 1395SOL    HW215822   3.474   2.860  11.917  0.1070 -0.1467  1.2280
 1396SOL     OW15823   4.525   1.934   7.254  0.0995 -0.4752  0.4000
 1396SOL    HW115824   4.609   1.938   7.299 -0.2009  1.4020  0.7853
 1396SOL    HW215825   4.533   1.853   7.204  2.5227  1.0381 -1.5938
 1397SOL     OW15826   0.985   1.178   5.502 -0.2647  0.5798 -0.3228
 1397SOL    HW115827   0.897   1.182   5.466 -0.4952 -0.6493  0.1218
 1397SOL    HW215828   1.035   1.250   5.462 -1.2902  1.1224 -0.6197
 1398SOL     OW15829   3.148   4.336   7.152 -0.2325 -0.0978  0.3651
 1398SOL    HW115830   3.078   4.296   7.202 -0.4701 -0.9231 -0.6181
 1398SOL    HW215831   3.208   4.375   7.216 -1.3007  0.3645  1.0777
 1399SOL     OW15832   4.000   0.732   8.416 -0.4391 -0.1791  0.2090
 1399SOL    HW115833   3.978   0.807   8.472 -1.1308 -0.3591  0.1818
 1399SOL    HW215834   4.021   0.774   8.332 -0.0266  2.7995  1.7814
 1400SOL     OW15835   1.699   0.557   3.930  0.2346  0.0678 -0.3956
 1400SOL    HW115836   1.649   0.625   3.976 -1.3121 -1.3350 -0.0177
 1400SOL    HW215837   1.764   0.528   3.993 -1.0692 -0.8769  0.4998
 1401SOL     OW15838   2.673   4.222   2.699  0.2258  0.1648  0.3802
 1401SOL    HW115839   2.694   4.283   2.770 -0.5308  0.2980  0.4912
 1401SOL    HW215840   2.578   4.219   2.690  0.1505  1.9305  0.6661
 1402SOL     OW15841   3.783   4.181   3.850  0.1113  0.2059 -0.7721
 1402SOL    HW115842   3.730   4.230   3.787  0.3667 -1.5105 -2.3051
 1402SOL    HW215843   3.800   4.103   3.797 -0.6601 -1.5740  1.6150
 1403SOL     OW15844   3.080   2.785  10.658  0.1708 -0.9108  0.1615
 1403SOL    HW115845   3.161   2.770  10.609  0.0265 -0.9045 -0.0800
 1403SOL    HW215846   3.042   2.708  10.614  0.9450 -0.5087 -1.2200
 1404SOL     OW15847   0.920   4.000   2.334 -0.0151  0.6676  0.1021
 1404SOL    HW115848   0.953   4.090   2.332  1.6424  0.0276 -2.5206
 1404SOL    HW215849   0.875   3.990   2.417  0.5972 -1.9058  0.1246
 1405SOL     OW15850   3.458   1.804   6.136  0.3881 -0.0931 -0.3140
 1405SOL    HW115851   3.476   1.897   6.151 -0.1952 -0.1386  0.7337
 1405SOL    HW215852   3.414   1.793   6.052  0.4733 -0.6947 -0.2817
 1406SOL     OW15853   1.328   2.118   9.004 -0.3711 -0.5022  0.0850
 1406SOL    HW115854   1.376   2.074   8.934  1.7484  1.5533  0.2527
 1406SOL    HW215855   1.260   2.053   9.024  0.0944 -0.7833  0.7529
 1407SOL     OW15856   1.476   3.495   5.329  0.0057  0.3486 -0.1287
 1407SOL    HW115857   1.519   3.507   5.244  0.2440  0.5580  0.0217
 1407SOL    HW215858   1.543   3.455   5.385 -0.4089  1.2679  1.0283
 1408SOL     OW15859   1.422   3.967   4.349 -0.0350  0.3737  0.0480
 1408SOL    HW115860   1.502   3.920   4.327 -0.0233  1.0463 -1.3730
 1408SOL    HW215861   1.386   3.913   4.419 -0.3307 -0.1941 -0.5429
 1409SOL     OW15862   4.129   4.322   6.991  0.4705 -0.8163 -0.4680
 1409SOL    HW115863   4.048   4.357   7.027  0.6005 -0.7006 -0.2901
 1409SOL    HW215864   4.173   4.280   7.065  2.0003  0.5327 -0.5954
 1410SOL     OW15865   1.142   4.705  16.641 -0.0211  0.0157  0.2645
 1410SOL    HW115866   1.226   0.006  16.623 -0.0878 -1.0045 -2.4936
 1410SOL    HW215867   1.166   4.656  16.719 -1.2080  1.7551  1.7186
 1411SOL     OW15868   0.423   2.302   4.141  0.7394  0.0319 -0.6955
 1411SOL    HW115869   0.442   2.247   4.065 -0.7740 -0.8050 -0.4516
 1411SOL    HW215870   0.510   2.289   4.179 -0.2006 -0.1221  1.4289
 1412SOL     OW15871   4.336   1.418   5.571  0.5719 -0.0073  0.5834
 1412SOL    HW115872   4.377   1.414   5.657 -1.4051  1.0066  1.5770
 1412SOL    HW215873   4.296   1.332   5.570 -1.3601  0.9198 -0.7306
 1413SOL     OW15874   1.232   1.441   8.270  0.3040  0.2269  0.3144
 1413SOL    HW115875   1.143   1.470   8.288 -0.4769 -3.7555  2.9018
 1413SOL    HW215876   1.234   1.415   8.178  0.9345  0.6314  0.2106
 1414SOL     OW15877   1.921   2.277   9.472  0.2562 -0.5160 -0.0416
 1414SOL    HW115878   2.007   2.253   9.506  0.4158  0.6305  0.3438
 1414SOL    HW215879   1.930   2.369   9.497  0.2069 -0.1748 -1.2712
 1415SOL     OW15880   2.906   2.670   9.565  0.0965  0.0214 -0.0357
 1415SOL    HW115881   2.823   2.646   9.524 -0.0483  2.6777 -1.2941
 1415SOL    HW215882   2.942   2.589   9.602  0.0998 -1.7931 -4.0510
 1416SOL     OW15883   2.188   0.548  12.987  0.3124 -0.1935 -0.0151
 1416SOL    HW115884   2.249   0.527  13.058  1.1018 -1.1484 -0.9782
 1416SOL    HW215885   2.104   0.561  13.031  0.4978  2.5098 -0.4227
 1417SOL     OW15886   4.718   3.516   9.733  0.3194  0.0618 -0.6974
 1417SOL    HW115887   4.658   3.571   9.784  2.7004  1.6758  0.3542
 1417SOL    HW215888   0.040   3.496   9.803 -2.7739 -0.7044  1.8394
 1418SOL     OW15889   0.459   3.397   2.630  0.0697  0.0244  0.1587
 1418SOL    HW115890   0.364   3.410   2.630  0.3260  1.8482  1.1854
 1418SOL    HW215891   0.481   3.441   2.711  1.8385  0.1178 -0.3716
 1419SOL     OW15892   1.464   2.928   8.929  0.0639  1.0888 -0.1244
 1419SOL    HW115893   1.441   2.980   8.852 -0.9981 -0.5483 -0.9362
 1419SOL    HW215894   1.556   2.905   8.917 -0.2135 -0.4799  0.7401
 1420SOL     OW15895   4.717   4.315   2.507  0.7771 -0.4815 -0.0062
 1420SOL    HW115896   4.736   4.354   2.593 -1.2145  2.7523 -1.0780
 1420SOL    HW215897   0.040   4.244   2.513 -0.0677 -1.0865  2.0426
 1421SOL     OW15898   4.571   1.645   0.796  0.1097  0.0515 -0.6001
 1421SOL    HW115899   4.499   1.706   0.778  0.4684  0.8577  0.6823
 1421SOL    HW215900   4.618   1.634   0.713 -2.2415 -1.4898 -1.7224
 1422SOL     OW15901   2.901   4.435   6.363  0.4983 -0.4723  0.0474
 1422SOL    HW115902   2.844   4.377   6.415  2.7229 -1.7190  1.1145
 1422SOL    HW215903   2.891   4.516   6.413 -0.5836 -0.7999  0.3768
 1423SOL     OW15904   0.322   3.507   8.066  0.2598  0.0974  0.1564
 1423SOL    HW115905   0.238   3.465   8.083  1.6266 -2.3694  0.8689
 1423SOL    HW215906   0.361   3.483   8.151 -0.0208  2.1012  0.8455
 1424SOL     OW15907   3.278   1.639   1.346  0.1070 -0.2204 -0.0362
 1424SOL    HW115908   3.324   1.713   1.306  0.6693  0.1122  1.2261
 1424SOL    HW215909   3.324   1.618   1.427 -0.0869 -1.9336 -0.3659
 1425SOL     OW15910   1.608   4.236   7.557  0.2283 -0.4234  0.0817
 1425SOL    HW115911   1.691   4.208   7.596  1.6593  0.1784 -2.5656
 1425SOL    HW215912   1.647   4.297   7.494  2.3601  1.5187  3.2622
 1426SOL     OW15913   3.712   3.107   8.744 -0.0648  0.3202  0.1418
 1426SOL    HW115914   3.699   3.173   8.676  1.4764 -0.8591 -1.2926
 1426SOL    HW215915   3.774   3.138   8.810  1.6403 -1.1805 -0.7275
 1427SOL     OW15916   0.057   1.214   4.398 -0.3182 -0.2477  0.6862
 1427SOL    HW115917   0.037   1.147   4.463  0.4998  0.0808  1.2744
 1427SOL    HW215918   0.078   1.293   4.449  0.7486 -0.9639  1.3665
 1428SOL     OW15919   1.136   3.477   8.252  0.0195  0.2008  0.0893
 1428SOL    HW115920   1.049   3.508   8.228 -0.8154 -0.5885  2.1781
 1428SOL    HW215921   1.135   3.385   8.227 -1.6565 -0.0169  1.0354
 1429SOL     OW15922   1.312   4.103   4.658 -0.2362  0.6703  0.7117
 1429SOL    HW115923   1.252   4.071   4.590  0.5473  3.5810 -1.3687
 1429SOL    HW215924   1.265   4.186   4.669 -0.0269  0.8452  0.3114
 1430SOL     OW15925   0.638   1.423   2.123  0.1314 -0.4968  0.0123
 1430SOL    HW115926   0.568   1.368   2.087 -1.5554  0.8021  1.3355
 1430SOL    HW215927   0.711   1.385   2.073  0.7411 -1.3524  1.5488
 1431SOL     OW15928   4.005   0.858  17.437  0.5683 -0.1659 -0.3628
 1431SOL    HW115929   3.946   0.807  17.382  1.0558 -1.0873 -0.0165
 1431SOL    HW215930   3.998   0.800  17.512  1.5198  1.8454  1.2724
 1432SOL     OW15931   0.090   3.971  14.976  0.8511  0.2999 -0.6414
 1432SOL    HW115932   0.168   3.956  14.924  2.0868 -0.2483  1.3783
 1432SOL    HW215933   0.095   4.067  14.982  0.1066  0.4238 -1.9689
 1433SOL     OW15934   4.173   0.881   3.455 -0.1954  0.0852 -0.6912
 1433SOL    HW115935   4.081   0.856   3.447  0.1030 -0.6843 -1.6281
 1433SOL    HW215936   4.169   0.954   3.518 -0.0935  0.1924 -0.8083
 1434SOL     OW15937   4.336   4.565   7.016 -0.5846  0.4562  0.0400
 1434SOL    HW115938   4.250   4.528   7.040 -0.4180  0.9434  1.3564
 1434SOL    HW215939   4.354   4.526   6.930 -1.1291  1.1662 -0.4022
 1435SOL     OW15940   2.505   1.637   5.849  0.1130 -0.0323 -0.5076
 1435SOL    HW115941   2.552   1.697   5.908  0.7964  1.6928 -2.8010
 1435SOL    HW215942   2.497   1.558   5.902  0.1063  0.2794 -0.0425
 1436SOL     OW15943   0.861   1.878   2.173 -0.3796 -0.5260  0.0347
 1436SOL    HW115944   0.844   1.959   2.221 -1.1166  0.2825 -1.6133
 1436SOL    HW215945   0.806   1.813   2.218 -1.5291 -2.1716 -3.7792
 1437SOL     OW15946   4.213   2.848  10.020 -0.5755  0.1683  0.3064
 1437SOL    HW115947   4.210   2.799   9.938 -1.1043  1.0939 -0.2102
 1437SOL    HW215948   4.145   2.802  10.069 -0.4355 -0.8938 -0.5023
 1438SOL     OW15949   2.566   0.482  12.416  0.3277 -0.0874  0.2726
 1438SOL    HW115950   2.619   0.456  12.491 -0.3577  1.9001  1.4400
 1438SOL    HW215951   2.542   0.571  12.441 -0.6021 -0.7308  1.6370
 1439SOL     OW15952   0.898   0.270   1.260  0.0906  0.0146 -0.2771
 1439SOL    HW115953   0.871   0.321   1.184 -2.4937 -2.4996 -1.0676
 1439SOL    HW215954   0.991   0.290   1.270 -0.0075  0.2217  0.1961
 1440SOL     OW15955   0.691   1.946   3.795 -0.1597 -0.0508  0.0242
 1440SOL    HW115956   0.664   1.988   3.713  0.3997  0.0894 -0.0859
 1440SOL    HW215957   0.735   1.869   3.758  0.8479  0.2887  0.5095
 1441SOL     OW15958   1.902   1.422   7.393  0.3734  0.3634  0.4232
 1441SOL    HW115959   1.887   1.343   7.445 -1.2074  0.1217 -0.4017
 1441SOL    HW215960   1.820   1.432   7.345  0.2665 -1.6064  0.2201
 1442SOL     OW15961   4.534   2.729   1.988 -0.0409 -0.7267  0.1700
 1442SOL    HW115962   4.591   2.767   1.921 -0.5401 -0.8210 -0.3143
 1442SOL    HW215963   4.459   2.698   1.937 -1.1534  0.7464  0.8968
 1443SOL     OW15964   2.041   2.627   7.872  0.1590  0.3213  0.5552
 1443SOL    HW115965   2.132   2.653   7.858  1.0856 -1.3637  3.6408
 1443SOL    HW215966   2.051   2.548   7.925  0.8011  0.4393  0.6114
 1444SOL     OW15967   3.765   0.898   0.004 -0.2060  0.0021  0.0178
 1444SOL    HW115968   3.681   0.925   0.041 -0.6197 -0.9736 -0.1912
 1444SOL    HW215969   3.814   0.980   0.003  1.1465 -0.7995  0.0916
 1445SOL     OW15970   3.334   1.550   7.161  0.2715 -0.5397 -0.0322
 1445SOL    HW115971   3.343   1.632   7.113  1.5632 -1.9014 -2.1172
 1445SOL    HW215972   3.332   1.580   7.252 -1.2109  0.1584 -0.2959
 1446SOL     OW15973   1.330   2.310   2.010  0.5346 -0.5471 -0.0349
 1446SOL    HW115974   1.296   2.271   1.929 -0.1154  0.9561 -0.4748
 1446SOL    HW215975   1.361   2.231   2.055 -0.8754 -1.1267 -0.0794
 1447SOL     OW15976   1.945   1.634   2.201  0.1583  0.0357 -0.3633
 1447SOL    HW115977   2.039   1.643   2.219 -0.2224  0.4509  1.3666
 1447SOL    HW215978   1.913   1.694   2.268  0.0345 -0.2935 -0.1259
 1448SOL     OW15979   0.059   0.936   9.859 -0.1832 -0.1620 -0.1554
 1448SOL    HW115980   0.098   0.851   9.877 -2.3297 -0.5572  2.6745
 1448SOL    HW215981   0.129   0.974   9.806  0.0939  0.7086  0.8520
 1449SOL     OW15982   2.741   2.724  13.239  0.1052 -0.1612  0.3359
 1449SOL    HW115983   2.677   2.678  13.293 -1.0734  1.0139 -0.0750
 1449SOL    HW215984   2.731   2.818  13.251 -0.7548  0.1314 -2.6351
 1450SOL     OW15985   2.298   1.544   7.122  0.7158  0.2689 -0.0701
 1450SOL    HW115986   2.277   1.593   7.042 -0.9536 -2.8191 -1.5633
 1450SOL    HW215987   2.375   1.594   7.149  1.1932 -0.9909  0.8838
 1451SOL     OW15988   2.133   4.739   6.324 -0.6032 -0.1153  0.3041
 1451SOL    HW115989   2.226   4.738   6.349 -0.6521 -0.2112  0.4791
 1451SOL    HW215990   2.106   4.647   6.329 -0.8240  0.0429  2.0523
 1452SOL     OW15991   1.169   0.498   6.704  0.1061 -0.1366  0.3141
 1452SOL    HW115992   1.151   0.592   6.695 -2.0799 -0.4776  1.1397
 1452SOL    HW215993   1.234   0.482   6.636 -0.6643 -0.8477 -0.2507
 1453SOL     OW15994   4.453   3.549   3.405  0.2900  0.2504 -0.6173
 1453SOL    HW115995   4.404   3.501   3.338  0.0029 -1.6341  0.9465
 1453SOL    HW215996   4.532   3.496   3.399  2.0419  2.9116 -0.7677
 1454SOL     OW15997   4.017   1.288  11.718 -0.5235 -0.2634  0.5862
 1454SOL    HW115998   4.026   1.377  11.684  4.5451 -0.5661  1.0509
 1454SOL    HW215999   4.038   1.236  11.641  1.2870 -1.0073  1.5869
 1455SOL     OW16000   0.973   1.298   8.549  0.6038  0.4893  0.0253
 1455SOL    HW116001   0.999   1.373   8.602 -2.2241  1.0841  0.5968
 1455SOL    HW216002   0.957   1.337   8.463  0.6225  0.2547 -0.0846
 1456SOL     OW16003   1.537   1.870   8.227 -0.0698 -0.3608  0.7065
 1456SOL    HW116004   1.503   1.790   8.188 -1.1780  0.7484 -0.6256
 1456SOL    HW216005   1.494   1.879   8.312 -0.3294 -0.6856  0.6089
 1457SOL     OW16006   0.515   4.229   2.227  0.0373  0.0479 -0.2740
 1457SOL    HW116007   0.444   4.277   2.184 -0.5454 -0.8389 -0.2877
 1457SOL    HW216008   0.590   4.264   2.178 -1.0235  0.5726 -1.5426
 1458SOL     OW16009   0.747   1.910   7.647  0.3583 -0.1707 -0.0690
 1458SOL    HW116010   0.709   1.955   7.572  1.7981  0.3792 -0.4716
 1458SOL    HW216011   0.818   1.965   7.681  0.7867 -1.1328  0.6088
 1459SOL     OW16012   0.572   3.077   4.434 -0.0727  0.1249  0.3413
 1459SOL    HW116013   0.519   3.081   4.355 -0.8326 -3.2489  0.6567
 1459SOL    HW216014   0.554   3.161   4.474  1.0597 -1.0117  3.2797
 1460SOL     OW16015   0.720   2.829   3.194 -0.5826  0.0856  0.4035
 1460SOL    HW116016   0.786   2.806   3.259  1.3097 -0.1243 -1.6082
 1460SOL    HW216017   0.778   2.843   3.120 -0.3553  1.9628  0.9385
 1461SOL     OW16018   4.343   0.165   1.237  0.0426 -0.2420 -0.0501
 1461SOL    HW116019   4.318   0.106   1.308  0.6589 -0.4331  0.0064
 1461SOL    HW216020   4.276   0.233   1.248 -1.8053 -1.9860 -0.4589
 1462SOL     OW16021   3.342   4.562  10.614  0.6863 -0.6435 -0.0718
 1462SOL    HW116022   3.314   4.540  10.703  0.3021  1.6555  0.3721
 1462SOL    HW216023   3.352   4.656  10.628 -1.6323 -0.2444 -1.0643
 1463SOL     OW16024   3.014   4.303  16.505  0.1507  0.1266  0.6075
 1463SOL    HW116025   2.951   4.375  16.512  1.6699  1.6717 -1.6228
 1463SOL    HW216026   2.950   4.233  16.496 -1.4173  1.6642 -0.0042
 1464SOL     OW16027   3.177   3.549   9.762  0.1691  0.3814 -0.2733
 1464SOL    HW116028   3.126   3.502   9.829  0.2303  0.0480 -0.4570
 1464SOL    HW216029   3.262   3.504   9.757  0.6880  1.2737  0.6304
 1465SOL     OW16030   0.079   2.767   5.480  0.6734 -0.4917  0.0764
 1465SOL    HW116031   0.062   2.810   5.564  1.0417  0.9941 -0.6072
 1465SOL    HW216032   0.121   2.834   5.426  0.8767  0.1392  1.0062
 1466SOL     OW16033   2.986   1.542   6.942  0.5386  0.0011  0.3941
 1466SOL    HW116034   2.914   1.605   6.935 -0.0859 -0.7417  0.1717
 1466SOL    HW216035   2.998   1.551   7.036  0.8968  1.4147  0.2160
 1467SOL     OW16036   3.959   1.668   9.438 -0.2672  1.2168  0.0621
 1467SOL    HW116037   3.912   1.750   9.424  0.4616  1.1348 -2.8578
 1467SOL    HW216038   3.970   1.657   9.532 -0.3272 -0.6407 -0.1465
 1468SOL     OW16039   0.485   0.716   5.365 -0.1855 -0.8159  0.4609
 1468SOL    HW116040   0.442   0.801   5.371  0.0055 -0.6809 -0.1343
 1468SOL    HW216041   0.575   0.742   5.345  0.3616 -1.6683  1.7928
 1469SOL     OW16042   1.740   2.518   4.230  0.3923  0.6643  0.1434
 1469SOL    HW116043   1.832   2.529   4.205  0.3092 -0.9571 -0.9080
 1469SOL    HW216044   1.740   2.526   4.325 -0.4281  2.3648 -0.0019
 1470SOL     OW16045   2.101   3.652   2.615  0.3464 -0.2822  0.3343
 1470SOL    HW116046   2.021   3.614   2.579  0.0505 -0.8999  1.6744
 1470SOL    HW216047   2.135   3.587   2.677  2.8699 -0.2054 -0.9829
 1471SOL     OW16048   2.061   3.514   7.687 -0.0717  0.5222  0.2477
 1471SOL    HW116049   2.114   3.437   7.707  0.5579  0.9277  0.1484
 1471SOL    HW216050   2.115   3.558   7.621  0.5858 -0.1983  0.3071
 1472SOL     OW16051   2.937   2.576   6.170 -0.6243  0.6317  0.5657
 1472SOL    HW116052   3.016   2.594   6.119 -1.6529  1.3342 -0.7864
 1472SOL    HW216053   2.941   2.490   6.211 -3.2700  0.1253 -0.2877
 1473SOL     OW16054   2.605   3.019  14.423 -0.3690 -0.8113 -1.3129
 1473SOL    HW116055   2.556   3.076  14.364 -1.3393  0.4756  0.7373
 1473SOL    HW216056   2.530   2.963  14.444  0.9209 -0.7772  3.5189
 1474SOL     OW16057   1.828   3.680   3.214  0.4115 -0.0114  0.0568
 1474SOL    HW116058   1.909   3.663   3.166  0.6587 -0.0477  0.4826
 1474SOL    HW216059   1.773   3.717   3.144 -1.4258  0.2674  1.6344
 1475SOL     OW16060   2.267   0.562   6.276 -0.0631 -0.3904  0.2825
 1475SOL    HW116061   2.293   0.473   6.253  1.0347 -0.3312  1.3247
 1475SOL    HW216062   2.348   0.591   6.318 -0.2072 -1.1122  1.0602
 1476SOL     OW16063   3.289   1.629  13.721  0.4085  0.3868  0.1240
 1476SOL    HW116064   3.209   1.678  13.740  1.4702  1.4418  1.9319
 1476SOL    HW216065   3.328   1.676  13.647 -1.1357  1.8718  0.2731
 1477SOL     OW16066   2.679   4.359   4.946 -0.1609  0.3115 -0.0846
 1477SOL    HW116067   2.768   4.383   4.920 -1.2510  3.1859 -1.1736
 1477SOL    HW216068   2.622   4.413   4.891  1.6361 -0.4865 -2.7578
 1478SOL     OW16069   0.363   4.645  11.872 -0.4628  0.6885 -0.5711
 1478SOL    HW116070   0.288   4.650  11.812 -0.5520  0.6214 -0.4659
 1478SOL    HW216071   0.421   4.580  11.832  1.2952  1.8922  0.0280
 1479SOL     OW16072   4.661   0.430   0.212  0.0575  1.0367 -0.3279
 1479SOL    HW116073   0.003   0.390   0.241 -0.1549  2.0525  1.6891
 1479SOL    HW216074   4.603   0.413   0.286 -1.2420  1.3512 -1.2805
 1480SOL     OW16075   1.050   1.318   4.924  1.0228 -0.2754  0.1058
 1480SOL    HW116076   0.993   1.395   4.923  2.2824  0.6285 -1.1995
 1480SOL    HW216077   1.121   1.339   4.864  0.9687 -1.3103 -0.3235
 1481SOL     OW16078   1.085   3.657  11.107  0.7100  0.2601 -0.0517
 1481SOL    HW116079   1.038   3.623  11.183  3.5402 -2.3640  0.5379
 1481SOL    HW216080   1.074   3.751  11.122 -0.2198 -0.2347  2.3980
 1482SOL     OW16081   4.400   1.732   7.791 -0.9378 -0.5001  0.7198
 1482SOL    HW116082   4.466   1.778   7.738 -0.4878  0.4355  2.0726
 1482SOL    HW216083   4.406   1.647   7.748 -0.8047 -0.8643  1.4657
 1483SOL     OW16084   0.263   3.012   3.661 -0.9406 -0.2961  0.8015
 1483SOL    HW116085   0.291   3.098   3.692 -0.4260 -0.9070  2.0633
 1483SOL    HW216086   0.292   2.961   3.737 -0.3721  1.6875  1.9155
 1484SOL     OW16087   1.871   0.238   2.288  0.3352  0.0466  0.0068
 1484SOL    HW116088   1.797   0.213   2.342  1.2787 -1.3017  0.6677
 1484SOL    HW216089   1.869   0.332   2.306  0.1775 -0.0711  0.6190
 1485SOL     OW16090   4.440   3.065   4.870  0.3876 -0.0770 -0.6223
 1485SOL    HW116091   4.366   3.005   4.880 -1.7400  2.0617 -3.8985
 1485SOL    HW216092   4.410   3.108   4.791  0.8367  1.4556  0.0338
 1486SOL     OW16093   1.683   1.423   2.293  0.0974 -0.3247 -0.2517
 1486SOL    HW116094   1.671   1.518   2.297 -3.6203 -0.8139 -0.0257
 1486SOL    HW216095   1.676   1.390   2.383  0.9625 -2.1187 -0.8353
 1487SOL     OW16096   4.668   3.383   3.222  0.1954  0.4862  0.1628
 1487SOL    HW116097   0.007   3.350   3.262  2.0336  1.8805 -2.2810
 1487SOL    HW216098   4.662   3.315   3.155 -0.5241  0.0442  0.6816
 1488SOL     OW16099   3.490   1.019   5.869  0.1580  0.0051  0.7132
 1488SOL    HW116100   3.402   1.012   5.831  1.2202 -2.0263 -1.3818
 1488SOL    HW216101   3.496   1.113   5.884 -1.2069 -0.1014  1.9027
 1489SOL     OW16102   3.298   3.210  11.442 -0.1594 -0.6210 -0.0843
 1489SOL    HW116103   3.268   3.202  11.352 -2.5861  0.7229  0.6119
 1489SOL    HW216104   3.217   3.242  11.481 -0.4898 -0.5120 -0.8699
 1490SOL     OW16105   2.097   2.501   2.982 -0.1194 -0.5512 -0.5536
 1490SOL    HW116106   2.078   2.583   3.028  0.7546 -1.3281  1.2110
 1490SOL    HW216107   2.190   2.488   3.001 -0.5256 -0.3699  1.5336
 1491SOL     OW16108   4.440   1.544   4.641  0.1934  0.3233 -0.7550
 1491SOL    HW116109   4.355   1.518   4.604  0.7633 -0.5685 -1.4543
 1491SOL    HW216110   4.420   1.558   4.733 -0.8345  0.6097 -1.0166
 1492SOL     OW16111   4.699   2.209   2.109  0.1670 -0.3529 -0.4447
 1492SOL    HW116112   4.644   2.270   2.158  2.9355  1.6661  0.1461
 1492SOL    HW216113   0.011   2.271   2.059 -2.8739  1.0724 -1.8689
 1493SOL     OW16114   1.391   3.451   7.064 -0.4413 -0.0071 -0.2449
 1493SOL    HW116115   1.412   3.533   7.020 -1.8077  0.7528  0.5351
 1493SOL    HW216116   1.308   3.465   7.109 -0.6383 -0.4864 -0.4549
 1494SOL     OW16117   0.771   3.372   8.178  0.0475  0.4799  0.0988
 1494SOL    HW116118   0.736   3.456   8.150  0.5932  1.5630  2.6060
 1494SOL    HW216119   0.819   3.398   8.256 -2.2683  0.9421  1.3698
 1495SOL     OW16120   1.886   3.585  14.622 -0.1466 -0.0804 -0.0756
 1495SOL    HW116121   1.953   3.516  14.621  1.4682  1.4965  1.2877
 1495SOL    HW216122   1.906   3.630  14.704 -0.9684 -1.7665  1.0501
 1496SOL     OW16123   0.562   0.342   2.012 -0.7360  0.6774 -0.0316
 1496SOL    HW116124   0.547   0.436   2.019 -1.3548  0.5793 -0.0323
 1496SOL    HW216125   0.474   0.305   2.007 -0.8503  0.9871 -0.3235
 1497SOL     OW16126   0.767   0.329  12.379  0.0375  0.2128 -0.0139
 1497SOL    HW116127   0.845   0.291  12.420 -0.8781 -0.7431  0.7992
 1497SOL    HW216128   0.786   0.316  12.286  0.0913 -0.9402  0.1634
 1498SOL     OW16129   4.377   3.311   5.742  0.0054  0.1490  0.4562
 1498SOL    HW116130   4.316   3.319   5.815  1.1721 -1.1040  1.5764
 1498SOL    HW216131   4.383   3.216   5.739 -0.5897  0.1918 -1.5360
 1499SOL     OW16132   4.610   1.783   6.588  0.2750 -0.4391  0.2728
 1499SOL    HW116133   4.622   1.755   6.678  1.0307  1.4970  0.7734
 1499SOL    HW216134   4.704   1.800   6.575  0.2790 -1.2891 -0.8218
 1500SOL     OW16135   1.984   3.681  17.356  0.2056 -0.2620  0.2972
 1500SOL    HW116136   1.900   3.655  17.393 -0.1875  0.8706  0.2134
 1500SOL    HW216137   2.014   3.734  17.430  0.2689  1.5899 -1.0513
 1501SOL     OW16138   0.739   1.725   2.770  0.5366  0.7807  0.1204
 1501SOL    HW116139   0.666   1.726   2.832 -0.4586  0.3495 -1.0413
 1501SOL    HW216140   0.738   1.632   2.745  1.5531  0.4072  1.4537
 1502SOL     OW16141   2.251   2.360   8.972  0.2645  0.3135  0.1763
 1502SOL    HW116142   2.337   2.322   8.954  0.1961 -1.1128  2.9041
 1502SOL    HW216143   2.247   2.446   8.930  1.9259  0.0575 -0.4979
 1503SOL     OW16144   4.589   2.876  11.333  0.3735  0.1768  0.7160
 1503SOL    HW116145   4.656   2.827  11.381  0.8811 -0.7208 -0.9248
 1503SOL    HW216146   4.511   2.830  11.365 -1.0132  0.8959 -1.6530
 1504SOL     OW16147   1.016   1.391   6.782 -0.8070 -0.8661 -0.2014
 1504SOL    HW116148   1.055   1.354   6.861 -2.2544 -1.5060  0.2274
 1504SOL    HW216149   0.932   1.412   6.824  0.8865  1.1622  2.1608
 1505SOL     OW16150   1.109   3.426   0.460 -0.6545  0.0550 -0.1784
 1505SOL    HW116151   1.118   3.513   0.421  0.6735 -1.5800 -3.5566
 1505SOL    HW216152   1.195   3.413   0.501  0.6967  0.6920 -2.7935
 1506SOL     OW16153   1.821   1.836  10.158 -0.5941 -0.0077  0.1293
 1506SOL    HW116154   1.757   1.770  10.185 -0.3909  0.1629  1.0393
 1506SOL    HW216155   1.823   1.811  10.066  0.8609  0.2948  0.0794
 1507SOL     OW16156   4.435   0.535   4.797 -0.2971 -0.2492  0.1439
 1507SOL    HW116157   4.456   0.444   4.818  1.5593 -0.0655 -0.9004
 1507SOL    HW216158   4.474   0.532   4.709  0.3388 -1.6385  0.4779
 1508SOL     OW16159   4.115   1.822  10.821 -0.0194  0.2057 -0.6730
 1508SOL    HW116160   4.188   1.775  10.780  0.5984  2.0755 -1.7111
 1508SOL    HW216161   4.067   1.747  10.856  2.2449  1.3277  4.7470
 1509SOL     OW16162   0.465   3.959   7.329 -0.1918 -0.3184  0.2477
 1509SOL    HW116163   0.534   3.995   7.384 -0.4672 -2.2334  1.8267
 1509SOL    HW216164   0.477   4.024   7.259 -1.6931 -1.1443 -0.8036
 1510SOL     OW16165   2.220   1.133   9.017  0.2311 -0.4035 -0.1555
 1510SOL    HW116166   2.210   1.042   8.988  0.2838 -0.0846 -1.1795
 1510SOL    HW216167   2.207   1.119   9.111  0.4571 -0.7124 -0.1701
 1511SOL     OW16168   2.802   0.933   8.366  0.3112 -0.5596 -0.1411
 1511SOL    HW116169   2.781   0.858   8.420  1.9337  0.0365  1.3388
 1511SOL    HW216170   2.737   1.001   8.383 -0.8721 -1.5380 -0.7226
 1512SOL     OW16171   3.475   2.255   5.194 -0.0023 -0.1607 -0.5526
 1512SOL    HW116172   3.471   2.178   5.137 -2.1612 -0.0782 -0.5200
 1512SOL    HW216173   3.570   2.268   5.193 -0.2149  1.3592 -0.3758
 1513SOL     OW16174   2.304   0.347  15.461 -0.2317 -0.4021 -0.9793
 1513SOL    HW116175   2.385   0.370  15.505 -0.4744 -0.1652 -0.6523
 1513SOL    HW216176   2.243   0.358  15.534  4.2098  1.8995  2.3476
 1514SOL     OW16177   1.309   3.821   4.804 -0.5072 -0.0503 -0.1797
 1514SOL    HW116178   1.249   3.845   4.874  2.0908  1.8073  1.4196
 1514SOL    HW216179   1.385   3.850   4.854  0.7866 -0.0769 -2.1116
 1515SOL     OW16180   3.720   3.272   2.008 -0.2546  0.1488  0.1686
 1515SOL    HW116181   3.651   3.274   2.074  0.3538  1.9430  0.7399
 1515SOL    HW216182   3.673   3.203   1.960 -0.7774  1.7647 -1.6265
 1516SOL     OW16183   4.490   4.254   4.275  0.2727 -0.3164 -0.4791
 1516SOL    HW116184   4.485   4.332   4.330  1.4398  0.0408 -0.8771
 1516SOL    HW216185   4.451   4.181   4.325  0.2327 -0.3854 -0.6126
 1517SOL     OW16186   2.530   3.932  15.838 -0.5548  0.0367 -0.7209
 1517SOL    HW116187   2.517   3.846  15.797 -1.3319  0.7343 -1.9471
 1517SOL    HW216188   2.618   3.954  15.808  0.3649  0.2120  2.1191
 1518SOL     OW16189   4.270   3.738   5.428  0.4867 -1.0134  0.2691
 1518SOL    HW116190   4.260   3.646   5.453  0.5322 -1.2665 -0.6370
 1518SOL    HW216191   4.280   3.729   5.333 -0.9267  1.6164 -0.1237
 1519SOL     OW16192   1.830   1.821   6.093  0.1757 -0.0400 -0.2421
 1519SOL    HW116193   1.834   1.725   6.094  1.0700 -0.0054 -0.1642
 1519SOL    HW216194   1.738   1.827   6.069 -0.1003 -0.0783  0.7892
 1520SOL     OW16195   4.409   3.196   0.844 -0.7008  0.0452 -0.2864
 1520SOL    HW116196   4.439   3.215   0.755  0.1258 -0.1737 -0.0559
 1520SOL    HW216197   4.449   3.263   0.899  2.1546 -3.0320  1.3864
 1521SOL     OW16198   0.378   3.176   8.769  0.4236  0.8901 -0.2807
 1521SOL    HW116199   0.324   3.173   8.848  0.6572  1.1421 -0.1098
 1521SOL    HW216200   0.427   3.255   8.792  0.6442  0.8711 -0.6776
 1522SOL     OW16201   1.686   0.141   2.479  0.1216  0.1386 -0.4365
 1522SOL    HW116202   1.691   0.046   2.487  0.7763 -0.0411 -2.8313
 1522SOL    HW216203   1.696   0.180   2.566 -1.8090  1.2597 -0.7186
 1523SOL     OW16204   1.616   1.221   4.909 -0.0357 -0.1525 -0.1781
 1523SOL    HW116205   1.695   1.274   4.896 -0.2378 -0.4720 -2.6305
 1523SOL    HW216206   1.566   1.280   4.966  0.8067  1.9298 -1.5793
 1524SOL     OW16207   4.386   0.971   1.727 -0.2904 -0.0279 -0.2066
 1524SOL    HW116208   4.416   0.882   1.707  3.5298  0.9016  1.5193
 1524SOL    HW216209   4.304   0.967   1.777  0.1244 -0.1759  0.4491
 1525SOL     OW16210   0.837   2.105   4.018  0.6983  0.3669  0.1976
 1525SOL    HW116211   0.850   2.025   3.967 -2.9818  0.1933 -0.4741
 1525SOL    HW216212   0.870   2.173   3.959 -0.3840  0.0968 -0.7066
 1526SOL     OW16213   0.106   0.548   8.730  0.1758 -0.1720  0.4026
 1526SOL    HW116214   0.077   0.577   8.643  0.1480 -0.5662  0.2776
 1526SOL    HW216215   0.062   0.464   8.745 -2.2209  1.1471  0.8033
 1527SOL     OW16216   4.015   4.592   7.715 -0.1161  0.5992 -0.4774
 1527SOL    HW116217   3.999   4.507   7.758 -1.1391  1.2115  0.3705
 1527SOL    HW216218   3.944   4.583   7.650 -1.7285 -0.6932  1.4519
 1528SOL     OW16219   0.461   3.705   0.540 -0.3279  0.2957 -0.9269
 1528SOL    HW116220   0.407   3.751   0.604  0.4823 -0.6625  0.4692
 1528SOL    HW216221   0.542   3.757   0.538  0.4445 -0.8404  0.5094
 1529SOL     OW16222   0.113   0.384   1.985 -0.4217 -0.5479 -0.6203
 1529SOL    HW116223   0.105   0.386   1.889 -3.0669  0.4294 -0.3605
 1529SOL    HW216224   0.180   0.449   2.010  0.4804 -1.0814 -1.6266
 1530SOL     OW16225   4.329   3.597   7.137  0.3027  0.3624 -0.6829
 1530SOL    HW116226   4.395   3.586   7.206  0.1770  0.4115 -0.5533
 1530SOL    HW216227   4.254   3.629   7.188  1.7026  1.5033  0.6580
 1531SOL     OW16228   4.170   1.301   0.294 -0.1249  0.3954 -0.7976
 1531SOL    HW116229   4.158   1.336   0.382 -0.6262 -0.0830 -0.6827
 1531SOL    HW216230   4.129   1.217   0.311  1.8068  0.0612  2.2302
 1532SOL     OW16231   0.802   4.438   1.655 -0.4455  0.0930 -0.1433
 1532SOL    HW116232   0.825   4.529   1.673 -0.3747 -0.0032  0.2457
 1532SOL    HW216233   0.747   4.423   1.731 -0.6116  0.4971 -0.1836
 1533SOL     OW16234   0.987   1.224   8.031 -0.0378  0.2967  0.9177
 1533SOL    HW116235   1.036   1.148   7.999  1.3295  0.7075  2.0145
 1533SOL    HW216236   0.934   1.177   8.094 -1.2034 -0.2910 -0.4908
 1534SOL     OW16237   1.480   2.838   6.324  0.8637 -0.0093 -0.0046
 1534SOL    HW116238   1.529   2.920   6.324  1.4246 -0.3634  2.4229
 1534SOL    HW216239   1.514   2.815   6.237  0.1246 -0.0293 -0.2905
 1535SOL     OW16240   1.821   0.759   5.212  0.7498  0.4033 -0.2912
 1535SOL    HW116241   1.869   0.679   5.191 -0.0430 -0.2105  0.2898
 1535SOL    HW216242   1.851   0.768   5.303  0.5523 -3.2481  0.1325
 1536SOL     OW16243   2.501   1.870   1.981 -0.1159  0.3372 -0.3399
 1536SOL    HW116244   2.414   1.836   1.958  0.1936 -0.1331 -0.8342
 1536SOL    HW216245   2.523   1.806   2.048 -0.6398  0.7381  0.2098
 1537SOL     OW16246   1.564   4.008   8.164 -0.2223 -0.7109  0.2038
 1537SOL    HW116247   1.600   4.079   8.218  0.9525 -1.1923  0.0436
 1537SOL    HW216248   1.479   4.048   8.150  0.0979  0.9922  3.1768
 1538SOL     OW16249   2.831   2.188   2.210 -0.1535 -0.4969 -0.3707
 1538SOL    HW116250   2.773   2.112   2.207 -0.1103 -0.6213  2.0860
 1538SOL    HW216251   2.888   2.155   2.141  0.2688  0.3725 -0.4414
 1539SOL     OW16252   4.711   0.418   3.203  0.7585 -0.1560 -0.5450
 1539SOL    HW116253   0.012   0.504   3.203 -2.2005  1.2707  2.3567
 1539SOL    HW216254   4.641   0.423   3.138  0.9570 -0.3467 -0.7718
 1540SOL     OW16255   2.457   3.783   2.720  0.1076 -0.6579 -0.5556
 1540SOL    HW116256   2.519   3.710   2.727 -0.4337 -1.1353 -0.7143
 1540SOL    HW216257   2.393   3.776   2.790 -1.9104 -2.3541 -2.5807
 1541SOL     OW16258   0.678   0.577   8.489  0.2397 -0.3430  0.6689
 1541SOL    HW116259   0.597   0.560   8.440  1.1871  0.1953 -1.0845
 1541SOL    HW216260   0.726   0.633   8.429 -0.3149 -0.7629 -0.1793
 1542SOL     OW16261   3.176   0.584  12.843  0.5934  0.3266 -0.1858
 1542SOL    HW116262   3.235   0.656  12.866  0.7389  0.2037 -0.1698
 1542SOL    HW216263   3.193   0.527  12.918 -0.5524  0.8897  0.4966
 1543SOL     OW16264   3.206   0.848   5.501 -0.3703 -0.6072  0.2608
 1543SOL    HW116265   3.141   0.915   5.521 -0.9067 -0.0377 -3.3601
 1543SOL    HW216266   3.162   0.809   5.425  0.6196  1.0122 -1.1586
 1544SOL     OW16267   0.182   0.127   3.531  0.4705  0.0754 -0.5329
 1544SOL    HW116268   0.126   0.164   3.463 -1.1212 -1.0624  0.1530
 1544SOL    HW216269   0.258   0.184   3.523  0.4066 -0.1276 -2.4561
 1545SOL     OW16270   2.405   3.153  11.678  0.3993 -0.3469 -0.1704
 1545SOL    HW116271   2.430   3.150  11.586  0.7415  1.2544 -0.1432
 1545SOL    HW216272   2.318   3.114  11.670 -0.5235  2.1388 -2.2471
 1546SOL     OW16273   3.288   1.970   9.651 -0.1360 -0.0566 -0.3161
 1546SOL    HW116274   3.199   1.938   9.666  0.1992 -0.4409  0.9051
 1546SOL    HW216275   3.294   1.960   9.556  1.8146 -0.9426 -0.0959
 1547SOL     OW16276   3.567   4.392   1.552  0.0266  0.0778  0.1571
 1547SOL    HW116277   3.539   4.304   1.575  1.9631 -0.2047  1.4203
 1547SOL    HW216278   3.600   4.371   1.465  0.7729  2.5083 -0.1393
 1548SOL     OW16279   3.877   3.038   9.600 -0.1059  0.6322 -0.6217
 1548SOL    HW116280   3.837   2.971   9.545 -2.0617  1.6003 -0.3792
 1548SOL    HW216281   3.887   2.987   9.680 -1.1718  0.6093 -0.5045
 1549SOL     OW16282   0.177   3.290   2.436  0.7556 -0.9846  0.1860
 1549SOL    HW116283   0.215   3.250   2.514  1.9830  3.8674  2.0583
 1549SOL    HW216284   0.139   3.210   2.398  1.3912 -2.0909  1.9002
 1550SOL     OW16285   3.283   0.615   3.173 -0.4759  0.5969 -0.0486
 1550SOL    HW116286   3.218   0.608   3.243  0.4381  1.1345  0.8687
 1550SOL    HW216287   3.235   0.581   3.098 -0.1558 -0.1261  0.0748
 1551SOL     OW16288   2.912   1.591   5.696 -0.3719  0.1190  0.0519
 1551SOL    HW116289   2.882   1.601   5.786  0.8235 -2.7461  0.7733
 1551SOL    HW216290   2.829   1.561   5.661  0.6844 -0.5485 -1.8856
 1552SOL     OW16291   0.242   0.392  17.085 -0.2801  0.5252  0.2544
 1552SOL    HW116292   0.165   0.448  17.080 -1.0631 -0.4243  1.5244
 1552SOL    HW216293   0.312   0.453  17.064 -0.8279  1.2410  0.4788
 1553SOL     OW16294   0.314   4.178   6.951  0.3441 -0.3072  0.0406
 1553SOL    HW116295   0.266   4.117   6.895 -0.4502 -0.1068  0.5060
 1553SOL    HW216296   0.378   4.122   6.995 -0.9860 -0.3475  1.9241
 1554SOL     OW16297   4.695   2.238   7.328 -0.5485 -0.1165  0.2974
 1554SOL    HW116298   4.691   2.142   7.331  1.3441 -0.1981 -0.0364
 1554SOL    HW216299   4.627   2.262   7.391 -1.2458 -0.8281 -0.1830
 1555SOL     OW16300   2.410   2.206   2.066 -0.1196  0.0171  0.5613
 1555SOL    HW116301   2.440   2.144   2.133 -0.7977  1.8782  2.5885
 1555SOL    HW216302   2.374   2.273   2.125  0.6407  3.0875 -2.4375
 1556SOL     OW16303   1.453   4.048  14.722 -0.4771 -0.5055  0.4013
 1556SOL    HW116304   1.543   4.039  14.754 -0.6458 -1.7590  0.5469
 1556SOL    HW216305   1.456   4.050  14.627 -2.5522  1.0828  0.3700
 1557SOL     OW16306   4.267   1.179   3.884  0.1109 -0.7700 -0.8761
 1557SOL    HW116307   4.249   1.108   3.945 -1.4137  0.2391 -0.1622
 1557SOL    HW216308   4.234   1.250   3.939 -1.9596 -1.9224 -0.6131
 1558SOL     OW16309   4.448   3.664   3.788 -0.5912 -0.2626  0.3920
 1558SOL    HW116310   4.404   3.600   3.732  1.2163 -0.1015 -1.1941
 1558SOL    HW216311   4.478   3.731   3.726  2.5758 -0.3801  1.8059
 1559SOL     OW16312   1.010   2.271   5.048 -0.6689 -0.0410 -0.1102
 1559SOL    HW116313   1.095   2.282   5.091 -1.0538 -2.7075  1.3078
 1559SOL    HW216314   1.022   2.198   4.987  0.1817  0.7545 -0.8887
 1560SOL     OW16315   0.514   3.763   4.531  0.2394 -0.1739  0.1060
 1560SOL    HW116316   0.528   3.682   4.580  2.6828  0.2607  0.1007
 1560SOL    HW216317   0.456   3.809   4.592 -0.3576 -0.1646 -0.4657
 1561SOL     OW16318   1.825   0.916   2.137 -0.0064  0.0161  0.1297
 1561SOL    HW116319   1.890   0.876   2.079 -0.0472  0.6403 -0.3459
 1561SOL    HW216320   1.891   0.970   2.179 -0.4115 -0.4361  1.3439
 1562SOL     OW16321   1.327   2.326   7.121 -0.3935 -0.6758 -0.3900
 1562SOL    HW116322   1.274   2.377   7.181  2.4618  2.6910 -0.6904
 1562SOL    HW216323   1.327   2.392   7.051  3.5486 -0.9400 -0.6674
 1563SOL     OW16324   3.242   0.261  17.380 -0.7236 -0.1415 -0.4082
 1563SOL    HW116325   3.250   0.289  17.471 -1.3119 -1.4328  0.0263
 1563SOL    HW216326   3.149   0.249  17.365 -0.8740  2.3769 -1.6480
 1564SOL     OW16327   3.116   3.472   0.781  0.4886 -0.4887  0.4190
 1564SOL    HW116328   3.177   3.469   0.855  0.1600 -1.0017  0.6620
 1564SOL    HW216329   3.063   3.399   0.812 -1.5394  0.3856 -1.0210
 1565SOL     OW16330   4.524   2.019   9.810 -0.3016  0.1546 -0.1555
 1565SOL    HW116331   4.500   2.096   9.758  0.2395 -1.0124 -2.1300
 1565SOL    HW216332   4.614   2.001   9.783  0.3107  2.2140  0.4793
 1566SOL     OW16333   2.803   2.321   7.199 -0.0956  0.6580 -0.0519
 1566SOL    HW116334   2.747   2.255   7.238  0.0095  0.2922 -0.5114
 1566SOL    HW216335   2.819   2.368   7.281  2.4174 -1.7475  0.8619
 1567SOL     OW16336   3.332   2.301  15.676  0.4927  0.0432 -0.3080
 1567SOL    HW116337   3.267   2.231  15.675  0.8283 -0.2847  0.9751
 1567SOL    HW216338   3.276   2.376  15.697  0.0253 -0.7723  1.3791
 1568SOL     OW16339   1.365   3.234   8.861 -0.0069  0.2922 -0.3242
 1568SOL    HW116340   1.348   3.235   8.955  0.3973  1.7727 -0.2657
 1568SOL    HW216341   1.340   3.147   8.831 -2.0809 -0.4446  3.6380
 1569SOL     OW16342   3.378   4.284   7.860  0.5019 -0.3341 -0.1138
 1569SOL    HW116343   3.448   4.295   7.924 -0.1820 -1.2641  0.8092
 1569SOL    HW216344   3.423   4.274   7.776  0.1687  2.8041 -0.6718
 1570SOL     OW16345   3.774   0.100   7.529  0.4199 -0.3374  0.0200
 1570SOL    HW116346   3.838   0.163   7.495  1.9304 -2.3988 -0.9604
 1570SOL    HW216347   3.799   0.083   7.619  0.5364 -3.4409 -0.5954
 1571SOL     OW16348   3.751   2.152   4.168 -0.6205  0.1514 -0.3409
 1571SOL    HW116349   3.821   2.128   4.229  0.2827  1.4728 -0.8602
 1571SOL    HW216350   3.733   2.064   4.135 -0.1607 -0.5788  1.3116
 1572SOL     OW16351   2.833   3.636  15.154  0.0149 -0.1354  0.1916
 1572SOL    HW116352   2.738   3.636  15.151  0.0891  3.1849 -2.4604
 1572SOL    HW216353   2.849   3.543  15.139 -0.2420 -0.4276  1.7469
 1573SOL     OW16354   4.491   2.043   6.600 -0.2509  0.2207 -0.1809
 1573SOL    HW116355   4.457   1.960   6.634  0.1646 -0.1800 -0.7449
 1573SOL    HW216356   4.578   2.012   6.575 -1.2065 -1.0454 -1.9438
 1574SOL     OW16357   0.535   0.087   7.423  0.5589  1.0946  0.6210
 1574SOL    HW116358   0.555   0.132   7.340 -0.2951  0.3773  0.0294
 1574SOL    HW216359   0.447   0.115   7.447  0.0067  0.3077 -0.4652
 1575SOL     OW16360   0.271   4.466   8.220 -0.0718 -0.2592 -0.2994
 1575SOL    HW116361   0.211   4.477   8.146 -0.6480 -2.3918 -0.1319
 1575SOL    HW216362   0.267   4.557   8.251 -0.5382 -1.3757  2.8814
 1576SOL     OW16363   4.120   0.837   5.210  0.1413 -0.1643  0.4365
 1576SOL    HW116364   4.201   0.883   5.235  1.0512 -0.8535 -1.2343
 1576SOL    HW216365   4.069   0.851   5.290 -0.3700  1.5760 -0.1874
 1577SOL     OW16366   3.997   0.049   2.314  0.3396  0.0359  0.0500
 1577SOL    HW116367   4.035   4.707   2.344  1.7127  0.6980  0.1355
 1577SOL    HW216368   3.977   0.100   2.393  0.1093  1.8982 -1.2315
 1578SOL     OW16369   2.439   2.102   2.342 -0.5262 -0.6720  0.0457
 1578SOL    HW116370   2.487   2.182   2.365  0.1110 -0.4368 -2.1050
 1578SOL    HW216371   2.491   2.041   2.393  0.8174  1.3744  1.1460
 1579SOL     OW16372   1.539   3.419   8.213 -0.5469  0.3325 -0.1204
 1579SOL    HW116373   1.483   3.411   8.136  0.3052 -1.4025 -0.5404
 1579SOL    HW216374   1.628   3.388   8.200 -0.6919 -1.9707  4.3631
 1580SOL     OW16375   0.340   1.607   8.108 -0.5706 -0.3145  0.2108
 1580SOL    HW116376   0.286   1.629   8.184  1.7991 -1.5006  2.2133
 1580SOL    HW216377   0.347   1.513   8.120 -1.5903 -0.3976  0.2042
 1581SOL     OW16378   2.433   3.123  11.945  0.1210  0.2588  0.0439
 1581SOL    HW116379   2.483   3.041  11.950 -0.3743 -0.0806 -0.6160
 1581SOL    HW216380   2.416   3.112  11.852 -1.0628  1.0625  0.1728
 1582SOL     OW16381   0.570   3.665  10.176 -0.3863 -0.5617  0.6979
 1582SOL    HW116382   0.508   3.662  10.249  0.8219  1.8388  1.8159
 1582SOL    HW216383   0.526   3.610  10.111  1.9397 -2.4480  0.7410
 1583SOL     OW16384   1.196   0.280   8.524 -0.3230 -0.2252  0.0234
 1583SOL    HW116385   1.165   0.259   8.436 -0.7248 -1.1135  0.3793
 1583SOL    HW216386   1.144   0.357   8.547 -0.4200 -0.1138 -0.5755
 1584SOL     OW16387   3.133   2.398   7.121 -0.4098 -0.3467 -0.2519
 1584SOL    HW116388   3.219   2.418   7.159 -0.8418  2.1556 -0.6176
 1584SOL    HW216389   3.079   2.474   7.141 -0.1324 -0.2108 -0.0107
 1585SOL     OW16390   2.923   1.373   7.238 -0.2046  0.4247  0.1223
 1585SOL    HW116391   2.876   1.444   7.283 -2.4412 -3.0276  3.2523
 1585SOL    HW216392   2.863   1.299   7.236  1.8561 -1.2475  0.1896
 1586SOL     OW16393   1.818   3.273  15.385  0.5192 -0.5134  0.0055
 1586SOL    HW116394   1.891   3.252  15.328  0.3296  3.0620 -1.5216
 1586SOL    HW216395   1.750   3.237  15.328  2.1615  0.1233 -2.3164
 1587SOL     OW16396   4.427   1.770   1.665  0.4996 -0.0384 -0.4395
 1587SOL    HW116397   4.454   1.681   1.641  0.0779 -1.1944  3.4984
 1587SOL    HW216398   4.512   1.811   1.681 -0.2789  1.1306  0.6572
 1588SOL     OW16399   2.913   1.299   3.738  0.1979  0.0302  0.4335
 1588SOL    HW116400   2.907   1.388   3.705 -3.1799  0.2751  1.7167
 1588SOL    HW216401   2.834   1.296   3.791  0.6832  0.2520  1.1782
 1589SOL     OW16402   3.618   1.579   6.818 -0.4846  0.1278 -0.5278
 1589SOL    HW116403   3.539   1.601   6.769  1.7482  4.4733 -2.2159
 1589SOL    HW216404   3.631   1.495   6.774  0.4297  0.7058 -1.3531
 1590SOL     OW16405   1.350   0.593   5.997 -0.4277 -0.1440 -0.6335
 1590SOL    HW116406   1.422   0.655   6.013 -1.6395  1.0155  0.3317
 1590SOL    HW216407   1.388   0.554   5.919  0.9138  0.0168 -0.0600
 1591SOL     OW16408   2.968   1.550   3.060  0.0040  0.7392  0.3225
 1591SOL    HW116409   3.063   1.549   3.071 -0.1344 -1.0242  1.2830
 1591SOL    HW216410   2.952   1.641   3.035 -0.7866 -0.1986 -2.5699
 1592SOL     OW16411   0.418   2.555   4.475 -0.0522 -0.6888  0.1383
 1592SOL    HW116412   0.459   2.641   4.489  2.8797 -2.0920  0.2286
 1592SOL    HW216413   0.497   2.506   4.453 -0.1732 -0.3691 -0.9927
 1593SOL     OW16414   1.865   2.853  17.021  0.6639  0.0598 -0.1186
 1593SOL    HW116415   1.846   2.838  17.114  0.6227  0.5774 -0.0403
 1593SOL    HW216416   1.774   2.883  17.010  0.6499  1.0793  2.6959
 1594SOL     OW16417   1.995   2.026   8.498 -0.0574  0.3783  0.1299
 1594SOL    HW116418   1.937   1.950   8.497  2.7613 -1.8367  2.9971
 1594SOL    HW216419   2.049   2.011   8.576  3.1532 -0.0652 -2.2188
 1595SOL     OW16420   4.358   1.615   2.621 -0.1919  0.2443  0.3166
 1595SOL    HW116421   4.434   1.562   2.647 -1.7617 -2.3116 -0.2257
 1595SOL    HW216422   4.310   1.622   2.703 -0.5730  1.3465  0.0006
 1596SOL     OW16423   4.274   4.501   2.443 -0.2429  0.4397  0.2182
 1596SOL    HW116424   4.294   4.594   2.453 -1.2693  0.6233  0.5493
 1596SOL    HW216425   4.222   4.486   2.522  0.8323 -2.7490  0.3210
 1597SOL     OW16426   1.630   2.017  12.897  0.2420 -0.3546 -0.1337
 1597SOL    HW116427   1.579   1.982  12.824 -0.4700  0.1811  0.1089
 1597SOL    HW216428   1.708   1.968  12.871 -1.1404 -2.7505  0.2700
 1598SOL     OW16429   0.493   3.415   4.234  0.3655  0.3096  0.1796
 1598SOL    HW116430   0.438   3.489   4.259  0.0912 -0.2965  1.3601
 1598SOL    HW216431   0.434   3.363   4.180 -0.1713 -1.7461  2.7558
 1599SOL     OW16432   1.170   1.377   4.172  0.0572 -0.4493  0.3013
 1599SOL    HW116433   1.235   1.311   4.146  0.2641 -0.0899 -0.0978
 1599SOL    HW216434   1.212   1.431   4.238 -0.8072 -1.2958  1.5420
 1600SOL     OW16435   3.481   0.216   2.673  0.1925 -0.8126 -0.1284
 1600SOL    HW116436   3.487   0.311   2.678  2.5944 -0.9612 -0.3544
 1600SOL    HW216437   3.566   0.187   2.706 -0.5838 -1.1920  1.5400
 1601SOL     OW16438   3.016   2.725   2.361 -0.1909  0.0481  0.1918
 1601SOL    HW116439   2.941   2.752   2.307  0.6729 -0.8526 -1.4597
 1601SOL    HW216440   2.970   2.674   2.428  2.4134 -0.4750  1.5770
 1602SOL     OW16441   4.077   0.772  11.153 -0.1515 -0.2929 -0.5925
 1602SOL    HW116442   4.011   0.768  11.084  0.1722  2.3753 -1.0866
 1602SOL    HW216443   4.151   0.779  11.093 -0.0384  0.2518 -0.3962
 1603SOL     OW16444   3.047   1.155  16.536  0.3856  0.6408 -0.0624
 1603SOL    HW116445   2.981   1.117  16.479  0.5267  1.3680 -0.7226
 1603SOL    HW216446   3.048   1.096  16.611 -1.0957  0.3837 -0.2508
 1604SOL     OW16447   3.559   1.318  15.592 -0.2366 -0.1172 -0.3627
 1604SOL    HW116448   3.564   1.230  15.554  0.8231 -0.3616  0.3281
 1604SOL    HW216449   3.625   1.370  15.545 -0.7528  1.1940  0.3507
 1605SOL     OW16450   0.767   1.118   6.981 -0.3961  0.2283 -0.0680
 1605SOL    HW116451   0.716   1.038   6.983  0.1383 -0.1297 -1.2115
 1605SOL    HW216452   0.755   1.155   6.894  1.5371 -0.6623 -0.7138
 1606SOL     OW16453   3.895   3.554   8.760  0.0457  0.0930 -0.3931
 1606SOL    HW116454   3.857   3.633   8.720 -0.8464 -0.9431 -1.5684
 1606SOL    HW216455   3.825   3.538   8.824  0.0907  0.6505 -0.2014
 1607SOL     OW16456   2.920   2.005   7.728 -0.0758 -0.1847  0.2516
 1607SOL    HW116457   2.947   2.045   7.645 -1.1083 -0.8207 -0.3911
 1607SOL    HW216458   2.954   2.071   7.788  3.3896 -2.7062  1.0926
 1608SOL     OW16459   0.323   1.493   7.322  0.2490 -0.1101 -0.4377
 1608SOL    HW116460   0.340   1.508   7.415 -0.6431  2.5136 -0.6896
 1608SOL    HW216461   0.338   1.399   7.327  3.1531  0.4465  1.3319
 1609SOL     OW16462   2.379   4.551   9.906 -0.1146  0.4780  0.1228
 1609SOL    HW116463   2.355   4.496   9.831 -0.9240  0.7964  0.1451
 1609SOL    HW216464   2.306   4.612   9.917  0.8506  1.6079  0.2827
 1610SOL     OW16465   3.938   3.129   5.605 -0.2304  0.3624 -0.6667
 1610SOL    HW116466   3.933   3.068   5.532 -0.6798  0.6082 -0.8363
 1610SOL    HW216467   4.026   3.103   5.634 -1.2147  1.2794  3.1444
 1611SOL     OW16468   0.353   4.564  17.271 -0.5571  0.7627 -0.7790
 1611SOL    HW116469   0.371   4.598  17.184  1.0231  2.3109  0.1484
 1611SOL    HW216470   0.310   4.640  17.311 -2.1353 -1.4820  1.8583
 1612SOL     OW16471   4.506   1.522  15.924  0.0569 -0.0850 -0.1447
 1612SOL    HW116472   4.451   1.553  15.996  1.6593 -2.4204  2.0733
 1612SOL    HW216473   4.591   1.566  15.929 -1.1699  2.1898  0.8839
 1613SOL     OW16474   2.811   2.840  11.630 -0.3974 -0.2427 -0.1670
 1613SOL    HW116475   2.786   2.810  11.717  1.5015 -0.0798  0.4238
 1613SOL    HW216476   2.881   2.777  11.615  0.5655  1.0632 -1.1677
 1614SOL     OW16477   4.347   1.861  11.610 -0.2850 -0.0587 -0.3553
 1614SOL    HW116478   4.345   1.952  11.638  2.4576 -0.5899  1.6033
 1614SOL    HW216479   4.438   1.861  11.578  0.1484  3.1360  0.8318
 1615SOL     OW16480   1.861   0.682  10.449 -0.6582 -0.1537 -0.3716
 1615SOL    HW116481   1.856   0.700  10.543  1.4094  3.0499 -0.8766
 1615SOL    HW216482   1.880   0.589  10.444 -2.4024 -0.4836 -0.7457
 1616SOL     OW16483   4.662   1.155   5.866  0.2149  0.4457 -0.1699
 1616SOL    HW116484   4.725   1.207   5.817  1.8275 -2.6754 -1.4343
 1616SOL    HW216485   4.668   1.187   5.955 -1.1700 -0.2314  0.1582
 1617SOL     OW16486   2.770   0.298  12.876  0.4061 -0.0109  0.7632
 1617SOL    HW116487   2.832   0.323  12.945  1.6120 -0.0652 -0.3011
 1617SOL    HW216488   2.686   0.305  12.922 -1.0226 -1.1406 -1.7206
 1618SOL     OW16489   0.049   4.574   5.978 -0.0951  0.0474 -0.1969
 1618SOL    HW116490   0.111   4.646   5.982 -0.7386  0.4944  2.0667
 1618SOL    HW216491   0.030   4.573   5.884 -0.5469 -0.8600 -0.0930
 1619SOL     OW16492   4.068   2.656  13.767  0.1063  0.6140 -0.5868
 1619SOL    HW116493   4.045   2.646  13.675  0.2546 -0.4907 -0.5028
 1619SOL    HW216494   4.006   2.718  13.805 -0.2206  1.1348 -1.9763
 1620SOL     OW16495   0.375   2.629   2.734  0.3574  0.2350 -0.7292
 1620SOL    HW116496   0.465   2.662   2.722  0.7865 -0.1763  1.3929
 1620SOL    HW216497   0.379   2.612   2.828  0.1049  0.6627 -0.6414
 1621SOL     OW16498   3.870   0.735   7.944  0.4287  0.6662 -0.5154
 1621SOL    HW116499   3.872   0.709   7.852  1.6713  1.7664 -0.7961
 1621SOL    HW216500   3.798   0.797   7.950 -0.7634 -0.5105 -2.7440
 1622SOL     OW16501   2.247   0.647  13.513 -0.4656 -0.4061  0.4125
 1622SOL    HW116502   2.223   0.689  13.596 -3.6242  0.3610 -0.8858
 1622SOL    HW216503   2.162   0.616  13.481  0.3021  0.0150 -1.9762
 1623SOL     OW16504   4.473   3.917   9.404 -0.3907 -0.0970 -0.3192
 1623SOL    HW116505   4.515   3.832   9.385 -2.1380 -1.3225  1.2952
 1623SOL    HW216506   4.383   3.885   9.412 -0.7463  0.7418 -0.9966
 1624SOL     OW16507   4.001   3.998   0.137 -0.4452 -0.1584 -0.0388
 1624SOL    HW116508   3.961   3.911   0.132  1.9308 -1.2549 -0.0221
 1624SOL    HW216509   4.017   4.001   0.231  2.2157  1.4619 -0.5505
 1625SOL     OW16510   3.052   2.239  13.239  0.0774  0.0954 -0.4960
 1625SOL    HW116511   2.994   2.164  13.226  0.3830  0.1008 -1.9167
 1625SOL    HW216512   3.054   2.263  13.332  0.8941 -1.6567 -0.0603
 1626SOL     OW16513   2.017   0.435   6.800 -0.6526  0.2467  0.2594
 1626SOL    HW116514   2.087   0.443   6.865 -3.1123  2.3693  2.6501
 1626SOL    HW216515   1.972   0.519   6.797  0.5588  0.9366  1.4380
 1627SOL     OW16516   3.075   1.446   4.761 -0.1734 -0.0060 -0.6347
 1627SOL    HW116517   3.050   1.395   4.838  3.0391 -2.6987 -1.3588
 1627SOL    HW216518   3.165   1.414   4.753  0.0426  1.2268 -3.1313
 1628SOL     OW16519   0.290   2.835   3.866  0.4257 -0.4289  0.1895
 1628SOL    HW116520   0.292   2.740   3.849 -3.3683 -0.4704  0.0749
 1628SOL    HW216521   0.371   2.842   3.917 -0.5087  3.8867  1.0575
 1629SOL     OW16522   3.838   0.364   6.929 -0.4457 -0.3619 -0.0504
 1629SOL    HW116523   3.928   0.397   6.936  0.5243 -3.1444  0.4574
 1629SOL    HW216524   3.809   0.389   7.016 -0.7044  0.8405 -0.4689
 1630SOL     OW16525   3.629   2.196   0.961 -0.2602 -0.0113  0.5612
 1630SOL    HW116526   3.583   2.232   0.885 -1.1331  0.1816  1.1944
 1630SOL    HW216527   3.647   2.104   0.940  1.1353  0.2236  0.7107
 1631SOL     OW16528   1.383   3.003   2.717 -0.1884 -0.4240 -0.1378
 1631SOL    HW116529   1.326   2.994   2.641 -0.1913 -1.1075 -0.0542
 1631SOL    HW216530   1.467   2.964   2.694  0.7184  0.9354  0.8355
 1632SOL     OW16531   0.777   4.068   7.178 -0.1322 -0.3505 -0.1294
 1632SOL    HW116532   0.776   4.050   7.272 -1.8471 -4.9260 -1.0198
 1632SOL    HW216533   0.869   4.059   7.152 -0.1846  0.4666 -0.6019
 1633SOL     OW16534   2.001   0.881   4.351  0.2280 -0.1282 -0.3665
 1633SOL    HW116535   2.054   0.945   4.399 -0.8124 -0.1872  0.8470
 1633SOL    HW216536   2.042   0.884   4.264  2.0300 -1.7243  0.4519
 1634SOL     OW16537   0.064   1.941   6.813 -0.3776  0.5144 -0.2600
 1634SOL    HW116538   0.087   1.869   6.871 -1.9610  2.2960  2.5968
 1634SOL    HW216539   4.710   1.950   6.824 -0.5767 -2.6551  0.5954
 1635SOL     OW16540   3.648   4.225  17.479  0.4683 -0.3207 -0.3684
 1635SOL    HW116541   3.668   4.133  17.496  0.5669  0.0103  1.2392
 1635SOL    HW216542   3.556   4.222  17.507 -0.0948 -0.6670 -2.2478
 1636SOL     OW16543   3.614   0.695   9.132 -0.3300  0.5424 -0.5058
 1636SOL    HW116544   3.603   0.642   9.053  1.3536 -0.8747  0.1910
 1636SOL    HW216545   3.674   0.641   9.183 -1.2366  1.2828  1.3394
 1637SOL     OW16546   2.179   1.626   9.935 -0.3373 -0.8637  0.0900
 1637SOL    HW116547   2.141   1.675  10.008  0.3823 -0.5139  0.2300
 1637SOL    HW216548   2.114   1.557   9.922 -0.7416 -0.2073 -1.4243
 1638SOL     OW16549   0.297   3.692   8.879  0.3849  0.6311 -0.7636
 1638SOL    HW116550   0.379   3.662   8.918  1.5195 -0.5682 -4.0573
 1638SOL    HW216551   0.249   3.715   8.959 -0.1818  0.3977 -1.0377
 1639SOL     OW16552   1.085   3.274  10.686 -0.1797  0.1368 -0.0678
 1639SOL    HW116553   1.172   3.303  10.714  0.5525  0.4994 -2.6940
 1639SOL    HW216554   1.082   3.310  10.597  0.8597  1.6648  0.5216
 1640SOL     OW16555   0.888   3.949   8.753 -0.9136 -0.4148  0.1786
 1640SOL    HW116556   0.978   3.982   8.748 -0.9751 -0.4255 -0.9223
 1640SOL    HW216557   0.843   4.026   8.790 -0.0643 -0.5649  1.5112
 1641SOL     OW16558   3.131   2.450  13.100  0.1761 -1.1340  0.0830
 1641SOL    HW116559   3.108   2.373  13.153  0.0764 -2.1517 -1.4583
 1641SOL    HW216560   3.203   2.409  13.051 -2.1807 -2.7285 -2.0145
 1642SOL     OW16561   1.544   4.493   8.534 -0.0587 -0.2433  0.0860
 1642SOL    HW116562   1.460   4.475   8.576  0.0359 -0.8101  0.0345
 1642SOL    HW216563   1.600   4.467   8.607 -3.3880 -0.2988  2.6180
 1643SOL     OW16564   1.644   1.382   5.168  0.1783  0.4484  0.2462
 1643SOL    HW116565   1.643   1.307   5.227  2.7751  1.2218  1.2741
 1643SOL    HW216566   1.716   1.362   5.109 -0.0038 -1.0342  0.5404
 1644SOL     OW16567   1.714   3.188   8.169  0.0446 -0.4751  0.2736
 1644SOL    HW116568   1.630   3.141   8.166 -1.4265  2.1013  1.6883
 1644SOL    HW216569   1.746   3.166   8.081 -2.5738  2.0714 -1.3107
 1645SOL     OW16570   4.508   0.566   9.675 -0.0053 -0.2302  0.4276
 1645SOL    HW116571   4.490   0.556   9.769  2.0041 -0.4976  0.7885
 1645SOL    HW216572   4.422   0.603   9.653 -0.7187 -2.3174 -0.2626
 1646SOL     OW16573   3.905   1.452  13.075  0.0744  0.2021  0.1837
 1646SOL    HW116574   3.982   1.423  13.124 -0.0727  2.1204  1.5671
 1646SOL    HW216575   3.918   1.405  12.992  2.1192  0.9337  0.0981
 1647SOL     OW16576   3.934   3.880  15.369  0.7815  0.9455  0.5652
 1647SOL    HW116577   3.938   3.969  15.405  1.0900  1.4734 -0.7829
 1647SOL    HW216578   3.975   3.891  15.283  1.1067 -3.6007  0.1647
 1648SOL     OW16579   0.934   2.963   2.686 -0.1126  0.1591 -0.4638
 1648SOL    HW116580   0.874   2.980   2.759  1.0941 -2.5649  1.1453
 1648SOL    HW216581   0.904   3.038   2.634 -1.6470  0.7161  1.2132
 1649SOL     OW16582   1.563   4.337  14.797 -0.3511  0.5295 -0.1518
 1649SOL    HW116583   1.599   4.265  14.745  0.3151  0.6023  0.2167
 1649SOL    HW216584   1.645   4.377  14.824  0.2451 -0.9916  0.3284
 1650SOL     OW16585   1.491   2.637   5.628  0.1541  0.0341 -0.2378
 1650SOL    HW116586   1.580   2.662   5.653  0.1761 -1.0901  0.8303
 1650SOL    HW216587   1.472   2.596   5.713 -2.0676  0.1262 -0.6873
 1651SOL     OW16588   1.721   3.007   7.705 -0.6773 -0.2816 -0.2558
 1651SOL    HW116589   1.752   3.077   7.648 -1.8109 -1.5521 -2.3978
 1651SOL    HW216590   1.791   2.942   7.699  1.1746  1.6051  0.9648
 1652SOL     OW16591   4.182   3.929   4.208 -0.0622 -0.6481 -0.3566
 1652SOL    HW116592   4.231   3.884   4.139 -3.2586 -3.8105 -0.6125
 1652SOL    HW216593   4.186   4.018   4.174 -2.0805 -0.0259  1.0111
 1653SOL     OW16594   0.255   0.667   9.633  0.9319 -0.0913  0.3830
 1653SOL    HW116595   0.168   0.677   9.593  1.5863 -0.8401 -1.2558
 1653SOL    HW216596   0.305   0.635   9.558  0.7217 -3.3777  1.6414
 1654SOL     OW16597   2.988   4.129   6.408  0.3689 -0.4498 -0.4231
 1654SOL    HW116598   2.994   4.085   6.493  1.3803  2.2671  0.9206
 1654SOL    HW216599   2.902   4.170   6.411 -0.2189 -1.5156 -2.7445
 1655SOL     OW16600   3.697   2.326   3.242  0.6166  0.1924  0.0369
 1655SOL    HW116601   3.634   2.392   3.269  1.6456  0.4591  1.7763
 1655SOL    HW216602   3.678   2.254   3.302 -3.1383  1.2037  0.0304
 1656SOL     OW16603   0.021   1.165   1.100 -0.4347  0.5938  0.0689
 1656SOL    HW116604   4.739   1.255   1.080 -1.3404 -0.1280 -2.1142
 1656SOL    HW216605   0.090   1.156   1.035 -0.0794  1.9069  0.2702
 1657SOL     OW16606   1.333   1.229  10.701 -0.1315 -0.1592 -0.4593
 1657SOL    HW116607   1.248   1.185  10.708  0.0336 -0.1651  1.7179
 1657SOL    HW216608   1.393   1.154  10.703 -0.9108 -0.7845 -0.6985
 1658SOL     OW16609   1.549   3.942   4.639 -0.2736  0.1042  0.1616
 1658SOL    HW116610   1.493   3.865   4.638 -0.8791  0.5894 -2.1603
 1658SOL    HW216611   1.474   4.001   4.652  0.7095  2.3434 -4.2092
 1659SOL     OW16612   0.583   2.543   2.135 -0.1005  0.2081 -0.4057
 1659SOL    HW116613   0.676   2.539   2.112 -0.1112  2.9299 -0.8743
 1659SOL    HW216614   0.589   2.562   2.229 -0.7617 -0.1448 -0.2920
 1660SOL     OW16615   4.497   3.514   8.858  0.3835 -0.9091  0.8639
 1660SOL    HW116616   4.419   3.478   8.901 -0.2489  1.1016  1.3885
 1660SOL    HW216617   4.522   3.587   8.914  0.1434 -1.8275  2.1687
 1661SOL     OW16618   1.691   3.510   0.986  0.2728 -0.2664 -0.5220
 1661SOL    HW116619   1.692   3.606   0.977  0.8779 -0.3964 -1.8421
 1661SOL    HW216620   1.649   3.499   1.071 -1.8017  0.4999 -1.4549
 1662SOL     OW16621   2.332   0.441   3.841 -0.1491 -0.0948  0.1610
 1662SOL    HW116622   2.271   0.510   3.817  0.2536  0.5150  0.9153
 1662SOL    HW216623   2.391   0.458   3.768 -2.0054  1.0030 -1.0870
 1663SOL     OW16624   1.219   1.153   6.049 -0.0272 -0.5829 -0.6502
 1663SOL    HW116625   1.234   1.245   6.067 -0.9976 -0.5184 -0.1357
 1663SOL    HW216626   1.300   1.129   6.004  1.4022 -0.2195  1.7331
 1664SOL     OW16627   4.614   1.994   7.917 -0.7729  0.3832  0.3520
 1664SOL    HW116628   4.541   2.000   7.978 -0.4194 -2.6240  1.0811
 1664SOL    HW216629   4.645   1.909   7.948  2.2681  0.9341 -1.1658
 1665SOL     OW16630   3.142   0.438   8.051  0.1551 -0.6697  0.4626
 1665SOL    HW116631   3.120   0.531   8.052  1.1522 -0.4421  0.8969
 1665SOL    HW216632   3.188   0.436   7.967  0.2517  1.4948  0.4766
 1666SOL     OW16633   0.747   2.965  14.127 -0.2527 -0.3418 -0.4598
 1666SOL    HW116634   0.794   2.895  14.081  1.0730 -0.2401  0.7570
 1666SOL    HW216635   0.811   2.991  14.193 -0.7451 -0.8078  0.2138
 1667SOL     OW16636   4.356   1.452   5.977  0.3700 -0.4436  0.2312
 1667SOL    HW116637   4.383   1.520   5.915 -0.2276  0.8722  1.4103
 1667SOL    HW216638   4.342   1.513   6.049  0.5365  0.2812 -0.3443
 1668SOL     OW16639   3.125   1.697   8.795  0.1961 -0.3786  0.4364
 1668SOL    HW116640   3.032   1.677   8.802 -0.0233  0.6230  0.3976
 1668SOL    HW216641   3.133   1.722   8.703  0.3379  0.1476  0.5928
 1669SOL     OW16642   0.641   3.694   2.563  0.3227 -0.2930 -0.4998
 1669SOL    HW116643   0.619   3.638   2.637 -2.8834 -0.4059 -1.5606
 1669SOL    HW216644   0.565   3.687   2.505 -0.3536  0.4691  0.2906
 1670SOL     OW16645   2.395   3.078   6.947 -0.1806  0.1932  0.1611
 1670SOL    HW116646   2.360   2.994   6.977 -1.0234  0.5848  0.2566
 1670SOL    HW216647   2.378   3.085   6.853 -0.0650 -2.4196 -0.0541
 1671SOL     OW16648   0.522   3.856   9.775  0.1790  0.2657 -0.2202
 1671SOL    HW116649   0.573   3.917   9.828  0.0176  0.3556 -0.1687
 1671SOL    HW216650   0.448   3.835   9.832 -0.2466  2.0629 -0.0950
 1672SOL     OW16651   3.551   3.415   6.983 -0.3950  0.4794 -0.5039
 1672SOL    HW116652   3.565   3.338   6.929 -0.2449 -0.7425  1.2950
 1672SOL    HW216653   3.629   3.465   6.956 -0.7173  0.1883 -1.9471
 1673SOL     OW16654   4.354   2.738   5.176 -0.3075  0.3189 -0.5708
 1673SOL    HW116655   4.415   2.689   5.121  0.7187 -1.4766  2.1232
 1673SOL    HW216656   4.418   2.808   5.187  0.4615 -0.6181  0.8950
 1674SOL     OW16657   2.706   2.106  14.989 -0.1373  0.2457  0.2362
 1674SOL    HW116658   2.648   2.182  14.993 -0.5189  0.0513 -1.2995
 1674SOL    HW216659   2.771   2.128  15.056 -0.6134 -0.7020  1.0051
 1675SOL     OW16660   0.762   4.254  17.545  0.2113  0.2850  0.4845
 1675SOL    HW116661   0.702   4.260  17.471 -0.8011 -3.3997  1.0013
 1675SOL    HW216662   0.798   4.168  17.522  0.0963  0.0326  1.2262
 1676SOL     OW16663   1.013   2.721  16.332 -0.1837 -0.7690 -0.2555
 1676SOL    HW116664   1.109   2.717  16.328 -0.2377 -1.4635 -0.9130
 1676SOL    HW216665   0.985   2.801  16.288 -2.1614 -1.8421 -0.9441
 1677SOL     OW16666   4.162   1.563   2.173 -0.1333 -0.5315  0.3300
 1677SOL    HW116667   4.124   1.592   2.090 -0.0517  1.9439  1.1437
 1677SOL    HW216668   4.102   1.601   2.236 -1.2626  0.2059 -1.1826
 1678SOL     OW16669   0.612   4.734  15.365 -0.1298  0.6063  0.0752
 1678SOL    HW116670   0.542   0.011  15.303  0.8316 -0.3568 -1.2924
 1678SOL    HW216671   0.594   4.642  15.384 -0.5566  0.8499  0.8299
 1679SOL     OW16672   0.572   0.987   3.867 -0.0780  0.5796  0.4655
 1679SOL    HW116673   0.478   0.969   3.860  0.3433 -1.3406 -0.1166
 1679SOL    HW216674   0.562   1.074   3.827 -1.4274 -0.2366 -0.9902
 1680SOL     OW16675   2.318   3.926   5.886  0.0124 -0.6315 -0.0533
 1680SOL    HW116676   2.248   3.867   5.915 -1.2064  0.6737 -0.3483
 1680SOL    HW216677   2.301   3.922   5.792 -2.2675 -1.7055  0.3819
 1681SOL     OW16678   2.856   2.849   4.719  0.1211  0.2036  0.2172
 1681SOL    HW116679   2.795   2.913   4.682  0.3256  1.2481  1.6602
 1681SOL    HW216680   2.939   2.863   4.674 -0.4885 -0.4862 -1.1111
 1682SOL     OW16681   4.584   1.232  16.442  0.1107  0.1658  0.5020
 1682SOL    HW116682   4.514   1.171  16.467 -0.9077 -0.2518 -3.3598
 1682SOL    HW216683   4.630   1.242  16.526  2.1177 -3.4107 -0.1941
 1683SOL     OW16684   3.167   1.081   7.235  0.7132  0.7205 -0.0021
 1683SOL    HW116685   3.096   1.079   7.171 -0.0844  0.3954  0.8809
 1683SOL    HW216686   3.169   1.173   7.262  1.8543  1.1160 -1.4565
 1684SOL     OW16687   3.312   4.436   7.369  0.6393 -0.3858  0.0368
 1684SOL    HW116688   3.405   4.432   7.344  0.6852 -2.3424  0.5904
 1684SOL    HW216689   3.304   4.530   7.389  1.7035 -0.3088  0.0943
 1685SOL     OW16690   0.447   1.208   6.194  0.2197  0.5568 -0.1171
 1685SOL    HW116691   0.397   1.127   6.192  0.3666  0.4933 -1.1937
 1685SOL    HW216692   0.524   1.174   6.148  1.3929  2.1204  0.6906
 1686SOL     OW16693   2.781   2.516  13.732 -0.1766 -0.2293 -0.2120
 1686SOL    HW116694   2.814   2.540  13.819  0.7282  1.2178 -0.9455
 1686SOL    HW216695   2.803   2.594  13.680  0.0185 -0.8237 -1.0204
 1687SOL     OW16696   4.601   1.565   5.530 -0.0157  0.4111  0.1127
 1687SOL    HW116697   4.667   1.620   5.488  0.1212  1.1244  1.2525
 1687SOL    HW216698   4.591   1.492   5.469  0.2265  0.8503 -0.4463
 1688SOL     OW16699   1.988   2.469   6.016  0.0603 -0.4745 -0.2578
 1688SOL    HW116700   1.910   2.491   6.067  0.1890 -1.8518  0.5322
 1688SOL    HW216701   1.981   2.521   5.936 -1.6007  0.9619  0.8200
 1689SOL     OW16702   1.924   1.786   6.740 -0.4145  0.2229  0.4729
 1689SOL    HW116703   1.965   1.705   6.709  1.0728  0.9360  0.5840
 1689SOL    HW216704   1.998   1.847   6.742 -0.7089  0.6349 -1.1274
 1690SOL     OW16705   3.530   2.516   3.716  0.9503 -0.1288 -0.0679
 1690SOL    HW116706   3.536   2.573   3.793  0.6243 -0.4684  0.2107
 1690SOL    HW216707   3.528   2.581   3.646  0.0946 -1.9849 -1.7712
 1691SOL     OW16708   0.674   1.723   2.313 -0.0508  0.2001 -0.1463
 1691SOL    HW116709   0.718   1.639   2.305 -1.1816 -0.5468  1.4589
 1691SOL    HW216710   0.582   1.701   2.298  0.2133  0.1000 -1.6046
 1692SOL     OW16711   3.460   4.499   5.530  0.4329 -0.1174 -0.1575
 1692SOL    HW116712   3.431   4.575   5.580  0.0934  0.1819 -0.8047
 1692SOL    HW216713   3.421   4.515   5.444  0.0433 -0.4429 -0.0397
 1693SOL     OW16714   3.001   2.150   4.136 -0.1137  0.0896  0.1718
 1693SOL    HW116715   3.029   2.120   4.222 -2.6176  0.7390  1.2227
 1693SOL    HW216716   3.082   2.144   4.085  0.8267  2.1992  1.4572
 1694SOL     OW16717   2.391   4.596   5.508 -0.3404 -1.0905  0.4674
 1694SOL    HW116718   2.404   4.532   5.439 -0.1868 -0.5974  0.0349
 1694SOL    HW216719   2.439   4.670   5.469  0.1940 -1.8266 -0.2752
 1695SOL     OW16720   3.040   0.102   3.513 -0.0098  0.0746 -0.2037
 1695SOL    HW116721   2.970   0.037   3.502 -0.3322  0.3261  0.3864
 1695SOL    HW216722   3.108   0.088   3.447 -1.5621  1.6512 -2.1321
 1696SOL     OW16723   3.554   2.712   6.725  0.3568  0.0394 -0.6255
 1696SOL    HW116724   3.553   2.617   6.736  0.5795  0.2413  1.1344
 1696SOL    HW216725   3.557   2.715   6.629  1.2491 -0.4096 -0.6084
 1697SOL     OW16726   2.502   1.062   2.364 -0.1328 -0.5302 -0.3942
 1697SOL    HW116727   2.503   1.158   2.365 -0.4309 -0.5335 -0.0023
 1697SOL    HW216728   2.582   1.050   2.416 -1.0477  0.1557  1.1773
 1698SOL     OW16729   1.498   0.271   2.316  0.5734  0.4431  0.6023
 1698SOL    HW116730   1.562   0.217   2.363  0.9509  0.3920  0.0324
 1698SOL    HW216731   1.539   0.358   2.317  0.0124  0.6720  2.4371
 1699SOL     OW16732   3.149   2.204   5.723  0.3482 -0.4264  0.0792
 1699SOL    HW116733   3.214   2.272   5.744 -0.9644  0.8851 -0.1474
 1699SOL    HW216734   3.192   2.121   5.743  2.2616  0.3692 -0.7193
 1700SOL     OW16735   2.886   1.737  13.824 -0.0098 -0.7241  0.3954
 1700SOL    HW116736   2.964   1.748  13.769  0.9941  0.1999  2.0065
 1700SOL    HW216737   2.872   1.824  13.861  0.3904 -0.4012 -0.2122
 1701SOL     OW16738   3.680   4.544   3.936 -0.4899  0.1775  0.1165
 1701SOL    HW116739   3.670   4.597   3.857 -0.0841 -1.6789 -1.2050
 1701SOL    HW216740   3.723   4.608   3.992  1.6445 -0.5227 -0.7280
 1702SOL     OW16741   2.092   3.967   2.185  0.4720  0.3627  0.1384
 1702SOL    HW116742   2.120   3.927   2.267 -1.1163  0.2165  0.6051
 1702SOL    HW216743   2.084   3.888   2.131 -0.6007  0.8523 -0.4047
 1703SOL     OW16744   1.572   2.486   1.980 -0.0494 -0.3020  0.8173
 1703SOL    HW116745   1.500   2.544   2.005  0.3779  1.1020 -1.1619
 1703SOL    HW216746   1.515   2.410   1.963  0.5008 -0.7343  0.9195
 1704SOL     OW16747   0.822   3.777   5.384  0.1245  0.1155 -0.2805
 1704SOL    HW116748   0.809   3.739   5.297 -1.6450 -0.4569  0.2232
 1704SOL    HW216749   0.911   3.807   5.370 -0.1585 -0.1739 -2.6877
 1705SOL     OW16750   0.022   3.076   5.741 -0.4432  0.9817 -0.0589
 1705SOL    HW116751   4.695   3.023   5.783 -0.5223 -0.5399 -2.1591
 1705SOL    HW216752   0.094   3.072   5.805 -1.9860  0.6109  1.6760
 1706SOL     OW16753   1.639   1.341   9.144  0.7805  0.3581 -0.3529
 1706SOL    HW116754   1.638   1.411   9.208  1.3505 -0.8275  0.9485
 1706SOL    HW216755   1.631   1.268   9.206  0.4952  0.3186 -0.4358
 1707SOL     OW16756   1.842   0.166  15.705  0.4924  0.0813  0.0996
 1707SOL    HW116757   1.902   0.199  15.773 -0.3851  2.7418 -0.4148
 1707SOL    HW216758   1.853   0.234  15.638  1.2748  0.7622  0.9199
 1708SOL     OW16759   4.282   4.089   7.547 -0.3916 -0.1732 -0.4643
 1708SOL    HW116760   4.286   4.025   7.618  0.2993 -1.2799 -1.5084
 1708SOL    HW216761   4.329   4.158   7.594  0.8980 -0.4414 -1.3509
 1709SOL     OW16762   2.225   3.394   6.224 -0.2189 -0.0628 -0.2206
 1709SOL    HW116763   2.314   3.427   6.234  0.5131 -2.4197  1.0830
 1709SOL    HW216764   2.188   3.470   6.179  0.5091  0.2534 -0.2823
 1710SOL     OW16765   3.745   0.282   1.838  0.1012  0.3154  0.4558
 1710SOL    HW116766   3.735   0.226   1.915 -1.9850  1.3293  0.9128
 1710SOL    HW216767   3.831   0.260   1.801  0.6113  4.4748 -0.7889
 1711SOL     OW16768   2.212   3.355  17.750  0.5450 -0.2078  0.2127
 1711SOL    HW116769   2.154   3.405   0.047 -0.8751 -1.8454  0.1917
 1711SOL    HW216770   2.296   3.400  17.758  0.8951 -0.7700 -0.3241
 1712SOL     OW16771   3.164   3.356   8.065 -0.2285  0.4761 -0.1164
 1712SOL    HW116772   3.237   3.368   8.125 -0.2863  0.6049 -0.0727
 1712SOL    HW216773   3.098   3.407   8.111 -0.1908  0.7281 -0.3457
 1713SOL     OW16774   1.792   4.304   0.913  0.1016 -0.4126  0.3296
 1713SOL    HW116775   1.712   4.357   0.918 -0.5634 -1.3914  0.1250
 1713SOL    HW216776   1.846   4.354   0.853  0.3590 -0.3369  0.6273
 1714SOL     OW16777   4.214   3.104  16.467 -0.3980 -0.3257 -0.0588
 1714SOL    HW116778   4.295   3.082  16.421 -0.7488  2.3182 -1.9431
 1714SOL    HW216779   4.208   3.034  16.532  0.0874 -0.2143  0.1011
 1715SOL     OW16780   3.330   2.985   1.880 -0.0188 -0.0933 -0.1810
 1715SOL    HW116781   3.317   2.948   1.968 -0.8793 -1.2188 -0.7886
 1715SOL    HW216782   3.263   2.939   1.831 -1.6129  0.1007  1.8076
 1716SOL     OW16783   0.735   3.284   4.180 -0.3851 -0.4348  0.0733
 1716SOL    HW116784   0.780   3.291   4.265  0.6317 -0.1361 -0.4925
 1716SOL    HW216785   0.653   3.325   4.209 -1.0974 -0.1911 -2.3317
 1717SOL     OW16786   4.579   2.519   6.983  0.0847  0.1659 -0.3687
 1717SOL    HW116787   4.533   2.562   7.055  0.4201  0.3138 -0.2419
 1717SOL    HW216788   4.592   2.586   6.915 -0.9543  0.9749  0.2344
 1718SOL     OW16789   2.576   2.667  13.463 -0.0816  0.2001  0.0170
 1718SOL    HW116790   2.485   2.696  13.470 -0.1169 -0.3799  2.0065
 1718SOL    HW216791   2.564   2.574  13.445  2.5381  0.4434 -3.0404
 1719SOL     OW16792   4.360   1.605   5.384  0.3861 -0.0393  0.9919
 1719SOL    HW116793   4.456   1.601   5.384  0.5100  2.8728 -1.6347
 1719SOL    HW216794   4.341   1.536   5.446  2.2592  0.4496  2.1111
 1720SOL     OW16795   4.445   4.271   9.746  0.1748  0.5701 -0.3298
 1720SOL    HW116796   4.521   4.227   9.706 -0.8520 -1.4208 -0.0987
 1720SOL    HW216797   4.397   4.300   9.668  1.4001 -1.6353 -1.9409
 1721SOL     OW16798   1.513   3.118  14.964 -0.2057 -0.3663  0.0331
 1721SOL    HW116799   1.511   3.129  14.869 -0.6806  1.0426  0.2179
 1721SOL    HW216800   1.419   3.116  14.976 -0.4674  1.6215 -1.6825
 1722SOL     OW16801   0.980   0.737   1.593  0.0064  0.1714 -0.3314
 1722SOL    HW116802   1.050   0.726   1.657 -2.2951  0.9186  2.2880
 1722SOL    HW216803   1.036   0.728   1.516 -0.7903  1.9003 -1.1090
 1723SOL     OW16804   4.363   2.600   2.220 -0.1699  0.1564  0.3735
 1723SOL    HW116805   4.298   2.587   2.151  1.1202  1.6354 -1.1022
 1723SOL    HW216806   4.363   2.696   2.229 -2.1466  0.2558 -0.5825
 1724SOL     OW16807   1.869   3.280  10.460 -0.8576 -0.3921  0.7675
 1724SOL    HW116808   1.798   3.223  10.487  0.5140 -2.0297  0.8897
 1724SOL    HW216809   1.871   3.264  10.365  0.4837 -1.7021  1.0117
 1725SOL     OW16810   1.953   1.819  17.738 -0.8514 -0.3128 -0.2560
 1725SOL    HW116811   1.933   1.891   0.038  0.9506 -1.7161  1.9902
 1725SOL    HW216812   1.862   1.796  17.717 -1.5746  2.0319  0.2605
 1726SOL     OW16813   0.049   0.543   5.109  0.6986  0.6140  0.0258
 1726SOL    HW116814   0.105   0.544   5.188  0.0097  1.1013  0.5060
 1726SOL    HW216815   4.718   0.482   5.125 -0.0651  1.8090  1.1136
 1727SOL     OW16816   4.065   1.471   5.043 -0.1617  0.4757  0.1664
 1727SOL    HW116817   4.061   1.375   5.037 -1.4630  0.4835  0.8532
 1727SOL    HW216818   4.146   1.482   5.094 -0.6582 -0.6640  1.1972
 1728SOL     OW16819   4.160   4.708  12.507 -0.0087  0.4934  0.4047
 1728SOL    HW116820   4.214   0.038  12.541 -0.3138  1.6278 -1.4434
 1728SOL    HW216821   4.176   4.646  12.578 -0.7553  1.1075  1.1119
 1729SOL     OW16822   3.192   1.630   2.903 -0.5347  0.2155 -0.0115
 1729SOL    HW116823   3.225   1.578   2.830  3.6201 -0.8984  2.6743
 1729SOL    HW216824   3.152   1.695   2.845 -0.3826  0.9950  0.7449
 1730SOL     OW16825   3.819   1.195   9.760  0.1883 -0.1816  0.0240
 1730SOL    HW116826   3.783   1.282   9.741 -2.2078 -0.7966  1.7577
 1730SOL    HW216827   3.914   1.207   9.760  0.0379  1.1496 -1.9850
 1731SOL     OW16828   1.379   2.259  17.061 -0.4856 -0.4194  0.7860
 1731SOL    HW116829   1.295   2.305  17.070 -1.2274 -1.5158 -0.4703
 1731SOL    HW216830   1.366   2.185  17.120  2.5136 -0.5928  1.1996
 1732SOL     OW16831   2.865   1.052  11.376 -0.1478 -0.7005  0.3806
 1732SOL    HW116832   2.891   1.011  11.458 -0.7708  0.9055  1.3777
 1732SOL    HW216833   2.817   1.128  11.408  0.7152  0.4774 -1.0858
 1733SOL     OW16834   3.959   0.166   3.742  0.0520 -0.0639  0.4495
 1733SOL    HW116835   3.963   0.070   3.742 -1.2450 -0.1179  0.6294
 1733SOL    HW216836   3.890   0.194   3.802  1.0489 -1.1988  2.1220
 1734SOL     OW16837   2.832   2.482  12.978  0.2272  0.0267  0.0672
 1734SOL    HW116838   2.813   2.567  12.937 -2.0001 -2.1153 -3.3053
 1734SOL    HW216839   2.927   2.481  12.967  0.3580  2.0402  0.9129
 1735SOL     OW16840   3.200   2.837   6.173  0.3037  0.0471 -0.1076
 1735SOL    HW116841   3.179   2.758   6.123 -1.6442  1.0378 -0.8537
 1735SOL    HW216842   3.138   2.903   6.142 -0.7914 -0.5627  0.8193
 1736SOL     OW16843   3.495   2.394   2.596  0.0181 -0.2741  0.1060
 1736SOL    HW116844   3.441   2.315   2.598 -0.5946  0.2235  4.7450
 1736SOL    HW216845   3.502   2.401   2.501  0.2153 -2.5186 -0.0445
 1737SOL     OW16846   1.649   1.521   7.284 -0.0205 -0.7336  0.8457
 1737SOL    HW116847   1.642   1.616   7.298 -2.3264 -0.4346 -2.4498
 1737SOL    HW216848   1.557   1.496   7.277 -0.3854  0.2999  1.8869
 1738SOL     OW16849   1.168   4.656   8.987 -0.4912  0.6179  0.2438
 1738SOL    HW116850   1.248   4.707   9.000  0.7439 -1.2996  0.2173
 1738SOL    HW216851   1.111   4.732   8.997 -0.3393  0.9350 -1.2936
 1739SOL     OW16852   2.207   2.074   4.463 -0.8272  0.8999 -0.1305
 1739SOL    HW116853   2.287   2.122   4.440 -1.0296  0.6758 -1.3022
 1739SOL    HW216854   2.200   2.001   4.401  2.2139 -0.4779  1.1783
 1740SOL     OW16855   1.247   3.167  15.089  0.0684 -0.4099 -0.2465
 1740SOL    HW116856   1.236   3.087  15.141 -0.3337 -1.3654 -1.7654
 1740SOL    HW216857   1.216   3.228  15.155 -1.0868 -3.0679  1.6865
 1741SOL     OW16858   2.358   1.725   5.647 -0.0078  0.2258  0.6294
 1741SOL    HW116859   2.372   1.642   5.601  1.3675  0.3446  0.8481
 1741SOL    HW216860   2.416   1.712   5.722  1.4828 -0.7874 -0.6859
 1742SOL     OW16861   1.330   0.170   6.647 -0.2672  0.1422  0.2091
 1742SOL    HW116862   1.295   0.208   6.567 -2.3992 -2.6472 -0.1657
 1742SOL    HW216863   1.405   0.126   6.606 -1.1557 -1.4946  0.3632
 1743SOL     OW16864   0.476   0.651   7.685  0.4245 -0.0646  0.3302
 1743SOL    HW116865   0.522   0.698   7.755  1.1811  0.8889 -0.7991
 1743SOL    HW216866   0.388   0.666   7.718  0.7524  0.8426  0.8166
 1744SOL     OW16867   0.374   0.885   6.804  0.4353  0.8813  0.0665
 1744SOL    HW116868   0.427   0.882   6.884  1.7925  1.4899 -0.8127
 1744SOL    HW216869   0.434   0.854   6.736  0.6033  0.5294  0.3725
 1745SOL     OW16870   1.473   0.864   2.809  0.0348 -0.0081  0.2212
 1745SOL    HW116871   1.416   0.881   2.884  1.7568  0.3328  1.4568
 1745SOL    HW216872   1.461   0.940   2.753  0.4069  0.4076  0.7042
 1746SOL     OW16873   0.838   4.735   6.817  0.0328 -0.4195 -0.3892
 1746SOL    HW116874   0.800   0.075   6.849 -3.5740 -1.8507 -1.1007
 1746SOL    HW216875   0.763   4.679   6.837  0.3749 -1.0658 -0.8931
 1747SOL     OW16876   0.330   2.987   1.809  0.1128 -0.8406  0.8176
 1747SOL    HW116877   0.400   2.973   1.745 -1.5318  0.1906 -1.2009
 1747SOL    HW216878   0.327   2.904   1.857 -1.4765 -0.6808  1.0097
 1748SOL     OW16879   2.268   2.996  10.744  0.1875 -0.4604  0.8559
 1748SOL    HW116880   2.293   3.012  10.835  0.5373  1.2848  0.4556
 1748SOL    HW216881   2.293   3.083  10.714  0.0495 -0.4527  0.7606
 1749SOL     OW16882   2.853   1.508   3.536 -0.0339  0.2809 -0.2286
 1749SOL    HW116883   2.931   1.564   3.545  0.2968 -0.3115  0.6138
 1749SOL    HW216884   2.894   1.436   3.488 -0.6860  1.1667 -2.1139
 1750SOL     OW16885   1.118   4.538   1.568 -0.1533  0.6515 -0.0091
 1750SOL    HW116886   1.158   4.451   1.567  0.2528  0.8038  1.9826
 1750SOL    HW216887   1.073   4.516   1.487  1.9654  1.0426 -1.3016
 1751SOL     OW16888   3.253   3.322   4.882 -0.1119  0.1889  0.2077
 1751SOL    HW116889   3.256   3.381   4.957  0.6654  0.0373  0.2911
 1751SOL    HW216890   3.196   3.372   4.824  0.6356 -0.3498 -0.9865
 1752SOL     OW16891   4.257   4.697   4.420 -0.1548  0.2509  0.1020
 1752SOL    HW116892   4.282   0.049   4.428 -0.1046  0.2494 -0.0349
 1752SOL    HW216893   4.185   4.691   4.483  0.5620  0.6661  0.9638
 1753SOL     OW16894   3.953   0.665   5.076  0.5225  0.2314  0.2271
 1753SOL    HW116895   4.027   0.627   5.029  1.9644  3.1687  0.0839
 1753SOL    HW216896   3.991   0.743   5.117 -2.6470  2.0421 -0.2310
 1754SOL     OW16897   0.943   4.006   8.356  0.0197  0.3180 -0.4030
 1754SOL    HW116898   1.030   3.966   8.350 -0.4531 -0.5319 -1.6506
 1754SOL    HW216899   0.958   4.090   8.312 -1.7042  1.2462  0.8079
 1755SOL     OW16900   0.347   4.172   3.224  0.2741  0.0270 -0.0034
 1755SOL    HW116901   0.301   4.197   3.144 -0.4792 -0.8395  0.1685
 1755SOL    HW216902   0.276   4.130   3.271 -1.8845  1.7342 -1.7279
 1756SOL     OW16903   1.724   2.521   2.215  0.0051  0.5275  0.0496
 1756SOL    HW116904   1.708   2.510   2.122  1.3825 -3.1864  0.2293
 1756SOL    HW216905   1.636   2.516   2.251 -0.1279  2.4737 -0.0319
 1757SOL     OW16906   1.037   1.583   3.995 -0.6314 -0.2134 -0.0562
 1757SOL    HW116907   1.010   1.572   3.904 -1.4875 -1.0038  0.2870
 1757SOL    HW216908   1.087   1.503   4.014 -0.6361  0.1054  1.2630
 1758SOL     OW16909   0.090   3.781   5.999  0.0429 -0.7882 -0.0314
 1758SOL    HW116910   0.127   3.831   5.926 -3.2016  1.8030  0.0813
 1758SOL    HW216911   0.080   3.699   5.949  1.7746 -2.3140  2.1274
 1759SOL     OW16912   3.579   3.221  11.321 -0.5123 -0.5623 -0.2583
 1759SOL    HW116913   3.519   3.260  11.257  1.0357 -1.2443 -2.1224
 1759SOL    HW216914   3.666   3.238  11.286  0.2274  0.0400  1.8413
 1760SOL     OW16915   3.690   3.989   9.136  0.0684  0.5598 -0.3947
 1760SOL    HW116916   3.622   4.051   9.110  1.3406  2.1238 -0.0035
 1760SOL    HW216917   3.659   3.916   9.084  1.2455  0.2683 -0.6825
 1761SOL     OW16918   2.828   1.638   5.957  0.1421 -0.3238  0.0688
 1761SOL    HW116919   2.758   1.689   5.997 -1.3948 -0.8801 -1.9117
 1761SOL    HW216920   2.893   1.629   6.027 -0.1196  1.5601  0.5603
 1762SOL     OW16921   0.430   0.853  12.255 -1.2399 -0.1701 -0.2255
 1762SOL    HW116922   0.385   0.785  12.203  0.4840 -1.4674 -0.0136
 1762SOL    HW216923   0.515   0.812  12.268 -2.0064 -1.7737 -0.2025
 1763SOL     OW16924   1.039   1.520   5.928  0.3296  0.0218  0.5731
 1763SOL    HW116925   1.077   1.460   5.864 -0.9296  1.1219 -1.2014
 1763SOL    HW216926   1.085   1.493   6.008  2.4642 -0.6944 -0.9022
 1764SOL     OW16927   3.859   0.031  11.317 -0.0696 -0.0257  0.1639
 1764SOL    HW116928   3.892   0.073  11.237 -0.1257  0.4070  0.3651
 1764SOL    HW216929   3.865   0.098  11.385  0.3385  0.5680 -0.4558
 1765SOL     OW16930   0.808   0.442  17.406 -0.2955 -0.1715 -0.0539
 1765SOL    HW116931   0.877   0.508  17.407  0.1091 -0.6014  0.0211
 1765SOL    HW216932   0.821   0.422  17.498 -2.1574  1.2681  0.5328
 1766SOL     OW16933   3.762   4.363   8.520 -0.3158 -0.2349 -0.0526
 1766SOL    HW116934   3.688   4.409   8.481 -0.3644  0.6220  1.0785
 1766SOL    HW216935   3.766   4.289   8.459 -1.0883 -0.6300  0.3850
 1767SOL     OW16936   2.631   0.407   4.964 -0.3272 -0.9010  0.2033
 1767SOL    HW116937   2.596   0.410   5.053 -0.0671  1.3424  0.2101
 1767SOL    HW216938   2.610   0.493   4.928  1.1582 -0.3926  0.5394
 1768SOL     OW16939   1.316   3.324  10.813 -0.7023  0.4093  0.4013
 1768SOL    HW116940   1.329   3.416  10.836  0.0087  0.4942 -0.3243
 1768SOL    HW216941   1.252   3.299  10.880 -1.2646 -0.3597 -0.4121
 1769SOL     OW16942   0.023   0.371   7.268  0.2841  0.2964 -0.2443
 1769SOL    HW116943   0.119   0.363   7.267  0.3461  1.0217 -0.0977
 1769SOL    HW216944   4.737   0.282   7.244  6.4982 -1.7767  0.3999
 1770SOL     OW16945   0.000   0.365  17.694  0.3556  0.7305 -0.6147
 1770SOL    HW116946   0.015   0.434  17.630  2.7049 -0.2013 -1.0917
 1770SOL    HW216947   4.719   0.411   0.014  0.1005 -0.0831 -0.2189
 1771SOL     OW16948   0.689   4.660   8.708  0.1131 -0.1449  0.1178
 1771SOL    HW116949   0.595   4.659   8.725  0.0953  0.2749  0.0563
 1771SOL    HW216950   0.698   0.009   8.674  1.5081 -0.0537  0.7388
 1772SOL     OW16951   2.350   4.024   7.462 -0.1182  0.2023 -0.2540
 1772SOL    HW116952   2.268   4.004   7.417 -0.5067  0.6494  0.2607
 1772SOL    HW216953   2.326   3.985   7.546  0.1270 -0.1584 -0.3507
 1773SOL     OW16954   2.725   0.319   2.866 -0.0384 -0.4382 -0.0864
 1773SOL    HW116955   2.782   0.257   2.912  1.0469  0.0820 -0.7519
 1773SOL    HW216956   2.783   0.395   2.870  0.0751 -0.5124 -0.3846
 1774SOL     OW16957   1.449   4.486   5.883  0.1291 -0.9451 -0.7914
 1774SOL    HW116958   1.466   4.516   5.793  1.2127  0.5485 -0.0852
 1774SOL    HW216959   1.378   4.428   5.857  0.4747 -1.0625 -1.4885
 1775SOL     OW16960   3.560   3.144   5.549  0.3674 -0.0360 -0.0753
 1775SOL    HW116961   3.624   3.095   5.601 -2.7825 -2.8002  1.2394
 1775SOL    HW216962   3.614   3.219   5.527 -1.5454  1.1061 -0.8734
 1776SOL     OW16963   2.830   3.429   0.312  0.3904 -0.6739 -0.1843
 1776SOL    HW116964   2.807   3.492   0.243 -2.2745 -3.2446 -1.6456
 1776SOL    HW216965   2.917   3.461   0.335 -0.0849 -0.5595  1.4795
 1777SOL     OW16966   3.430   1.459   7.579 -0.2985  0.3803  0.5161
 1777SOL    HW116967   3.514   1.465   7.624 -0.0209  3.3847 -0.4161
 1777SOL    HW216968   3.468   1.470   7.492  0.6063 -1.6469  0.6519
 1778SOL     OW16969   3.388   3.460   2.364  0.4659 -0.3135 -0.1293
 1778SOL    HW116970   3.327   3.531   2.342  1.0524  0.0193 -0.6516
 1778SOL    HW216971   3.420   3.500   2.445 -0.2497 -3.0463  1.4821
 1779SOL     OW16972   1.628   2.914   7.959  0.0772  0.3279  0.5404
 1779SOL    HW116973   1.615   2.995   7.909 -0.3139  0.8379  1.4816
 1779SOL    HW216974   1.723   2.908   7.950 -0.0278 -2.5524  1.2042
 1780SOL     OW16975   2.097   3.783   1.597  0.1865 -0.2539 -0.2308
 1780SOL    HW116976   2.056   3.836   1.665  0.2638 -0.5057  0.0111
 1780SOL    HW216977   2.187   3.812   1.604 -0.1458  0.6856  0.0999
 1781SOL     OW16978   1.183   4.293   7.150  0.5128 -0.1769 -0.7190
 1781SOL    HW116979   1.160   4.385   7.139 -0.5188 -0.4989 -1.1751
 1781SOL    HW216980   1.279   4.295   7.151  0.5300 -1.0109 -0.7315
 1782SOL     OW16981   1.139   3.238   4.248  0.2631  0.5913 -0.1607
 1782SOL    HW116982   1.075   3.212   4.182 -1.5354  2.0103  1.0446
 1782SOL    HW216983   1.198   3.162   4.250  0.6143  0.8974  0.9367
 1783SOL     OW16984   1.324   2.043  11.605  1.0646 -0.1172  0.5961
 1783SOL    HW116985   1.396   2.105  11.595  1.6170 -1.0282 -1.0353
 1783SOL    HW216986   1.252   2.088  11.561 -0.9614 -2.6692  1.2785
 1784SOL     OW16987   1.132   0.686   2.573  0.2423 -0.3835  0.6297
 1784SOL    HW116988   1.194   0.621   2.605  0.0739 -1.6333 -1.6234
 1784SOL    HW216989   1.181   0.696   2.492 -0.2136  0.8198  0.4981
 1785SOL     OW16990   1.316   3.870  17.570  0.2963  0.0669 -0.5903
 1785SOL    HW116991   1.314   3.829  17.483  0.1291  0.5384 -0.8059
 1785SOL    HW216992   1.233   3.918  17.567  0.8641  1.0475 -0.3441
 1786SOL     OW16993   1.790   3.310   8.398 -0.4459  0.0388 -0.3524
 1786SOL    HW116994   1.773   3.251   8.324 -0.7841  1.4855 -1.4382
 1786SOL    HW216995   1.867   3.269   8.437  0.1732  0.2435 -1.3334
 1787SOL     OW16996   0.131   2.216   4.218 -0.0557 -0.1683 -0.7563
 1787SOL    HW116997   0.224   2.192   4.215 -0.2782 -1.3963  2.0298
 1787SOL    HW216998   0.110   2.231   4.126 -0.3636 -0.7087 -0.7749
 1788SOL     OW16999   3.369   0.860   8.089  0.2953  0.1717  0.6997
 1788SOL    HW117000   3.456   0.861   8.051 -0.7185  0.9656 -1.5693
 1788SOL    HW217001   3.386   0.902   8.173  2.8408  1.0058 -0.2638
 1789SOL     OW17002   4.432   1.540   2.249 -0.0206 -0.1779 -0.3589
 1789SOL    HW117003   4.488   1.468   2.220 -0.1178 -0.3098 -0.2189
 1789SOL    HW217004   4.346   1.518   2.215  0.4410 -0.9849 -0.9914
 1790SOL     OW17005   0.597   2.558   8.212  0.1669 -0.2240 -0.1941
 1790SOL    HW117006   0.507   2.561   8.179  0.7196 -0.3692 -1.7450
 1790SOL    HW217007   0.592   2.628   8.276  0.1300  0.0122 -0.4536
 1791SOL     OW17008   0.256   2.441  12.516 -0.0575 -0.5475  0.3095
 1791SOL    HW117009   0.270   2.397  12.433  0.1195  0.4268 -0.1763
 1791SOL    HW217010   0.342   2.448  12.559  1.8627 -1.4611 -3.4406
 1792SOL     OW17011   3.724   1.380   9.145 -0.0358  0.0826  0.2070
 1792SOL    HW117012   3.772   1.412   9.069  1.0545  0.2302  0.9507
 1792SOL    HW217013   3.631   1.378   9.122 -0.4363  0.6337  1.7983
 1793SOL     OW17014   3.993   2.786  13.022 -0.3239  0.5719 -0.4639
 1793SOL    HW117015   3.907   2.748  13.040 -0.7214  2.1652  1.0093
 1793SOL    HW217016   4.050   2.750  13.089  0.1559 -0.2688 -1.3169
 1794SOL     OW17017   4.397   2.894  13.188  0.1010  0.3951  0.2454
 1794SOL    HW117018   4.344   2.923  13.114  1.4909  1.5597 -0.2953
 1794SOL    HW217019   4.390   2.799  13.180 -2.7496  0.4641  2.1615
 1795SOL     OW17020   1.734   3.758   6.143  0.2937 -0.4051 -0.3833
 1795SOL    HW117021   1.692   3.696   6.084  0.4900 -0.3534 -0.5755
 1795SOL    HW217022   1.665   3.817   6.174  0.6044  0.8969 -2.1560
 1796SOL     OW17023   0.375   1.950  13.951 -0.2534 -0.4800 -0.0098
 1796SOL    HW117024   0.378   1.855  13.939 -1.2107 -0.3647 -1.1384
 1796SOL    HW217025   0.331   1.936  14.035  1.7305  0.8249  1.2478
 1797SOL     OW17026   2.954   3.482  16.067 -0.1041  0.1764 -0.1214
 1797SOL    HW117027   2.994   3.428  16.000 -1.6664 -1.8873  0.6100
 1797SOL    HW217028   2.866   3.446  16.080 -0.3557  0.5308 -0.8161
 1798SOL     OW17029   0.684   1.884   2.525  0.1968  0.6023 -0.2759
 1798SOL    HW117030   0.686   1.826   2.448 -1.3711  0.3330 -0.1046
 1798SOL    HW217031   0.699   1.817   2.592 -0.2333  0.8817  0.0960
 1799SOL     OW17032   4.188   3.067   5.680  0.4304  0.4812  0.6437
 1799SOL    HW117033   4.283   3.055   5.670  0.2183 -0.6952  0.0702
 1799SOL    HW217034   4.168   3.010   5.754  0.0016  0.9997  0.9270
 1800SOL     OW17035   1.662   1.140   4.104 -0.2648  0.0449 -0.2649
 1800SOL    HW117036   1.722   1.174   4.038 -0.9554 -0.3748 -1.1039
 1800SOL    HW217037   1.697   1.187   4.180  1.4449 -2.1783  0.3169
 1801SOL     OW17038   3.837   0.141   3.466  0.0997  0.0524 -0.4522
 1801SOL    HW117039   3.772   0.198   3.506  1.4422  0.9501  0.4482
 1801SOL    HW217040   3.893   0.146   3.544 -0.9540 -1.2369  0.3860
 1802SOL     OW17041   4.705   3.068   8.808  0.4406  0.1190 -0.3660
 1802SOL    HW117042   4.668   3.137   8.753  0.4846 -0.6707 -1.3972
 1802SOL    HW217043   0.022   3.030   8.742 -0.4873 -1.2428 -0.3919
 1803SOL     OW17044   1.858   0.548   2.266  0.0708 -0.3477  0.2606
 1803SOL    HW117045   1.941   0.592   2.246 -0.8378  0.9480 -0.6750
 1803SOL    HW217046   1.822   0.553   2.177  3.4577  0.7601 -1.0770
 1804SOL     OW17047   4.190   0.312   9.978  0.2939 -0.7393 -0.5750
 1804SOL    HW117048   4.233   0.368  10.043 -0.3311 -0.6288 -0.2588
 1804SOL    HW217049   4.221   0.344   9.894  0.0191  2.4424  0.5524
 1805SOL     OW17050   4.092   3.901   6.443  0.3172  0.1610 -0.2857
 1805SOL    HW117051   4.052   3.817   6.422  1.5392 -0.2346 -1.0026
 1805SOL    HW217052   4.019   3.957   6.417 -0.7240 -0.5590  1.1046
 1806SOL     OW17053   1.698   1.757  16.189 -0.4597  0.1219  0.0705
 1806SOL    HW117054   1.715   1.844  16.154 -2.4723  0.7194  0.5720
 1806SOL    HW217055   1.738   1.692  16.132  0.0097 -0.3018  0.8856
 1807SOL     OW17056   4.477   0.269  11.273  0.0234  0.4332 -0.0865
 1807SOL    HW117057   4.447   0.354  11.306  1.0120  0.4549  0.7751
 1807SOL    HW217058   4.517   0.230  11.351 -1.8570 -0.8126  0.2611
 1808SOL     OW17059   0.210   2.752   2.558  0.0192 -0.3278  0.8380
 1808SOL    HW117060   0.244   2.679   2.505  0.4410 -1.1315  2.2122
 1808SOL    HW217061   0.252   2.729   2.641  3.4503  0.3085 -0.7138
 1809SOL     OW17062   1.356   2.964   1.991  0.3646  0.2443  0.0525
 1809SOL    HW117063   1.393   3.052   1.983  0.8412  0.3480  3.6097
 1809SOL    HW217064   1.295   2.983   2.061 -1.3516 -0.8150 -1.1692
 1810SOL     OW17065   0.590   3.494   5.246  0.1735 -0.6728 -0.3038
 1810SOL    HW117066   0.633   3.532   5.322  3.2282  2.4688 -3.6404
 1810SOL    HW217067   0.551   3.572   5.205 -0.5908 -1.8750 -1.8782
 1811SOL     OW17068   2.467   0.020   2.668 -0.3454  0.4810  0.5541
 1811SOL    HW117069   2.447   4.704   2.742  0.8681 -0.4827  0.1584
 1811SOL    HW217070   2.381   0.053   2.645 -1.0571 -1.9617 -0.2757
 1812SOL     OW17071   3.878   3.717   2.919  0.2131  0.2944  0.3555
 1812SOL    HW117072   3.933   3.786   2.882  0.8970  0.4650  1.6781
 1812SOL    HW217073   3.926   3.693   2.998 -1.2540  0.7790  1.3914
 1813SOL     OW17074   4.188   2.436   7.370  0.1873 -0.1348  0.3811
 1813SOL    HW117075   4.109   2.485   7.393  1.3644  1.5270  0.9132
 1813SOL    HW217076   4.256   2.491   7.410  0.7800  1.3057 -2.5710
 1814SOL     OW17077   2.912   1.828   4.578  0.4729  0.1766  0.0269
 1814SOL    HW117078   2.998   1.869   4.584  1.2968 -1.6902  1.1513
 1814SOL    HW217079   2.918   1.786   4.492 -0.1511 -0.2793  0.2035
 1815SOL     OW17080   3.645   4.140   6.729  0.4579  0.4053  0.6897
 1815SOL    HW117081   3.667   4.056   6.689  1.3065  1.0400 -0.1740
 1815SOL    HW217082   3.651   4.193   6.649 -0.3066  2.1863  1.8053
 1816SOL     OW17083   3.431   3.455   5.594  0.2921 -0.1084 -0.4733
 1816SOL    HW117084   3.525   3.435   5.589  1.0109  2.8136  1.4930
 1816SOL    HW217085   3.390   3.371   5.572  0.0320  0.0891 -0.7298
 1817SOL     OW17086   2.535   3.310  17.592 -0.2524 -0.0163 -0.1483
 1817SOL    HW117087   2.574   3.328  17.506 -2.6490  0.8129 -1.0702
 1817SOL    HW217088   2.462   3.250  17.575 -1.9668  1.5663  1.5798
 1818SOL     OW17089   2.809   1.876   7.462  0.3826 -0.3536 -0.7439
 1818SOL    HW117090   2.743   1.942   7.439 -0.0837 -1.2457 -1.9863
 1818SOL    HW217091   2.885   1.933   7.466 -0.7460  0.9656  2.2092
 1819SOL     OW17092   4.122   1.027   7.351  0.1125  0.7794 -0.2660
 1819SOL    HW117093   4.150   0.952   7.403 -1.0783  0.6699  0.2118
 1819SOL    HW217094   4.177   1.092   7.394  0.1065  0.1503  0.6863
 1820SOL     OW17095   2.939   3.367   4.115  0.2349 -0.2186 -0.4510
 1820SOL    HW117096   2.845   3.370   4.135 -0.2336  1.4070 -2.8301
 1820SOL    HW217097   2.970   3.383   4.204  0.5807 -1.0107 -0.4330
 1821SOL     OW17098   1.178   2.800   8.629 -0.0722  0.3736  0.1153
 1821SOL    HW117099   1.120   2.875   8.617 -1.2891 -0.6026 -0.1716
 1821SOL    HW217100   1.145   2.760   8.709  1.7226 -1.6693 -0.1512
 1822SOL     OW17101   0.683   0.128   2.499  0.0998  0.3518  0.4331
 1822SOL    HW117102   0.725   0.073   2.433  0.1454  0.6230  0.2386
 1822SOL    HW217103   0.761   0.141   2.553 -0.7301  1.6851  1.2862
 1823SOL     OW17104   3.339   2.568  13.314  0.1468 -0.2033 -0.3941
 1823SOL    HW117105   3.305   2.632  13.251  0.1833  0.8950  0.6894
 1823SOL    HW217106   3.385   2.627  13.373 -1.3911 -0.3934  1.0047
 1824SOL     OW17107   3.231   3.755   3.474 -0.0496  0.2288 -0.3814
 1824SOL    HW117108   3.221   3.681   3.414 -0.7532 -1.2371  1.5245
 1824SOL    HW217109   3.178   3.813   3.421  0.6075  0.1072 -1.1857
 1825SOL     OW17110   3.750   3.658   7.285  0.0357 -0.4533  0.5563
 1825SOL    HW117111   3.695   3.580   7.297 -0.2193 -0.3614 -0.0187
 1825SOL    HW217112   3.729   3.704   7.366  1.4999 -0.3660  0.8768
 1826SOL     OW17113   4.128   0.044  12.252 -0.1695  0.6530 -0.2033
 1826SOL    HW117114   4.049   0.095  12.268 -0.3766 -0.1313  1.3227
 1826SOL    HW217115   4.141   0.018  12.344  0.4346  1.5114 -0.0557
 1827SOL     OW17116   1.669   0.574   1.518  0.3292 -0.2300  0.0685
 1827SOL    HW117117   1.634   0.634   1.453  0.3171  0.6339  0.8681
 1827SOL    HW217118   1.760   0.603   1.519  0.1928  0.2382 -1.1202
 1828SOL     OW17119   4.163   1.904   7.758  0.6957 -0.1154  0.3967
 1828SOL    HW117120   4.240   1.864   7.799  2.1727  1.5760 -0.7358
 1828SOL    HW217121   4.109   1.825   7.763 -1.4931  1.3650 -0.0501
 1829SOL     OW17122   0.358   2.563  11.249 -0.0308 -0.9734 -0.0229
 1829SOL    HW117123   0.378   2.544  11.341 -0.9007  0.5808  0.4909
 1829SOL    HW217124   0.272   2.522  11.245 -0.8747  0.8771 -1.1489
 1830SOL     OW17125   4.690   3.597   4.567 -0.0686  0.3383  0.6698
 1830SOL    HW117126   4.701   3.547   4.648  1.6005  0.3636  0.4559
 1830SOL    HW217127   0.016   3.665   4.572 -0.6406  1.0174 -1.0168
 1831SOL     OW17128   4.644   4.636   5.330  0.1016 -0.4578  0.0867
 1831SOL    HW117129   4.691   4.636   5.246  1.1001 -0.4931  0.6580
 1831SOL    HW217130   4.643   4.542   5.347  1.9993 -0.7739 -1.5315
 1832SOL     OW17131   2.079   4.560   3.171  0.2522  0.1405  0.2723
 1832SOL    HW117132   2.162   4.586   3.212  0.0035 -3.5067  3.0965
 1832SOL    HW217133   2.020   4.570   3.246  0.6847  0.1411  0.6179
 1833SOL     OW17134   1.178   3.288   5.925 -0.0741  0.4054 -0.1223
 1833SOL    HW117135   1.103   3.232   5.903 -0.5088  0.2080  1.8704
 1833SOL    HW217136   1.153   3.329   6.008 -0.9366  0.9281 -0.6410
 1834SOL     OW17137   2.238   4.347   2.316  0.2451 -0.7498  0.1927
 1834SOL    HW117138   2.185   4.372   2.240  2.5224  0.6252 -0.9631
 1834SOL    HW217139   2.311   4.409   2.312  0.2582 -0.7813 -0.1196
 1835SOL     OW17140   1.212   0.871  14.148 -0.7042 -0.0258 -0.1068
 1835SOL    HW117141   1.307   0.857  14.142 -0.8541  0.5064 -3.8628
 1835SOL    HW217142   1.192   0.785  14.186 -1.5201  0.3679  0.3452
 1836SOL     OW17143   1.720   0.475   8.140  0.3613 -0.3726  0.0946
 1836SOL    HW117144   1.800   0.527   8.149  0.2187 -0.2150  0.4763
 1836SOL    HW217145   1.648   0.529   8.171 -0.6750 -1.9285  0.4217
 1837SOL     OW17146   0.344   4.451  15.050  0.7935 -0.4554 -0.7631
 1837SOL    HW117147   0.330   4.481  15.140  3.5091 -0.9179 -0.1763
 1837SOL    HW217148   0.432   4.418  15.069  0.7467  1.0235  1.9317
 1838SOL     OW17149   0.791   0.392  16.639  0.4751  0.1171 -0.0277
 1838SOL    HW117150   0.837   0.454  16.696 -2.0442  1.1162  0.9084
 1838SOL    HW217151   0.861   0.328  16.626  0.1211 -0.3079  0.1471
 1839SOL     OW17152   2.982   1.034   9.219  0.1905 -0.8360 -0.3629
 1839SOL    HW117153   3.037   0.993   9.153  0.5415 -0.6967 -0.1533
 1839SOL    HW217154   2.938   1.093   9.158  1.8881 -1.3196 -2.0438
 1840SOL     OW17155   2.348   3.512  12.861  0.0634 -0.1127 -0.6061
 1840SOL    HW117156   2.354   3.590  12.916 -0.2869 -2.0047  2.0814
 1840SOL    HW217157   2.351   3.437  12.920 -1.5037 -0.0801 -0.4997
 1841SOL     OW17158   3.524   2.345  13.680 -0.1931  0.4864  0.2253
 1841SOL    HW117159   3.431   2.322  13.672  0.3071 -0.0375 -3.9504
 1841SOL    HW217160   3.516   2.440  13.678  1.9377  0.6188 -1.9090
 1842SOL     OW17161   2.370   0.519   4.472 -0.0921 -0.4194 -0.3797
 1842SOL    HW117162   2.338   0.469   4.548 -0.3611  1.2557  0.6077
 1842SOL    HW217163   2.459   0.545   4.497 -1.3189  0.4360  3.1000
 1843SOL     OW17164   2.652   3.358   4.754 -0.3249  0.3088 -0.5464
 1843SOL    HW117165   2.719   3.418   4.720 -2.3608  2.0963 -1.4146
 1843SOL    HW217166   2.635   3.314   4.671  0.0530 -1.7286  0.4562
 1844SOL     OW17167   4.739   4.139   4.106  0.3196  0.2638 -0.2861
 1844SOL    HW117168   0.061   4.174   4.169  0.8060 -0.8744 -0.1252
 1844SOL    HW217169   0.061   4.074   4.073 -0.6486 -0.6441 -0.3249
 1845SOL     OW17170   3.700   4.725   6.767  0.2098  0.1795 -0.1325
 1845SOL    HW117171   3.781   4.727   6.715  1.9650 -1.5686  2.5095
 1845SOL    HW217172   3.651   0.052   6.720 -0.6707  0.3409  1.0247
 1846SOL     OW17173   2.159   1.947   6.724 -0.2766  0.3397 -0.1811
 1846SOL    HW117174   2.171   1.952   6.629 -1.0618 -1.0345 -0.3485
 1846SOL    HW217175   2.238   1.904   6.755 -0.3754  0.1081 -0.2529
 1847SOL     OW17176   3.479   4.343  15.844 -0.0205  0.5484 -0.3891
 1847SOL    HW117177   3.409   4.280  15.862 -0.3914  0.8992 -0.6186
 1847SOL    HW217178   3.485   4.389  15.928  0.7468 -0.6316  0.2057
 1848SOL     OW17179   3.292   3.752   8.317  0.6567 -0.5396 -0.7523
 1848SOL    HW117180   3.278   3.771   8.225  0.8690  1.2390 -0.4179
 1848SOL    HW217181   3.386   3.766   8.331  0.0691  0.8867  1.8024
 1849SOL     OW17182   4.663   1.031  14.062 -0.2941 -0.5883  0.0187
 1849SOL    HW117183   4.660   1.088  13.985  1.1589  1.3699  1.4085
 1849SOL    HW217184   0.005   0.985  14.064  0.2479  0.5429  2.3905
 1850SOL     OW17185   0.503   4.573   2.915 -0.1285 -0.1909 -0.4135
 1850SOL    HW117186   0.513   4.488   2.959  0.3580 -1.3905 -2.8138
 1850SOL    HW217187   0.567   4.566   2.844  0.0109 -0.9857 -0.2078
 1851SOL     OW17188   2.316   1.731  16.012 -0.6142  0.5197  0.1097
 1851SOL    HW117189   2.293   1.793  16.082  2.5226 -0.7400  2.2569
 1851SOL    HW217190   2.411   1.744  16.007 -0.4076 -0.2868  1.9833
 1852SOL     OW17191   3.474   2.282   9.351 -0.1239 -0.4097 -0.4974
 1852SOL    HW117192   3.379   2.279   9.337  0.1010 -0.2704 -2.0947
 1852SOL    HW217193   3.488   2.377   9.348  1.4577 -0.6900 -1.9019
 1853SOL     OW17194   2.475   3.694   7.927  0.3492  0.3115  0.3297
 1853SOL    HW117195   2.537   3.767   7.934  1.0825 -0.4590  1.8545
 1853SOL    HW217196   2.417   3.704   8.002 -0.5694 -1.2204 -0.1712
 1854SOL     OW17197   3.246   1.763   8.496 -0.4882  0.2377  0.0303
 1854SOL    HW117198   3.287   1.831   8.442 -0.1363 -0.1540 -0.1920
 1854SOL    HW217199   3.181   1.720   8.440 -2.0682  1.6540  0.7831
 1855SOL     OW17200   0.077   3.500   0.592 -0.1264  0.2433 -0.1932
 1855SOL    HW117201   0.040   3.510   0.504  0.1904  1.2781 -0.2176
 1855SOL    HW217202   0.003   3.550   0.627 -1.2810 -0.3952 -1.7615
 1856SOL     OW17203   0.274   4.467   2.771  0.5783 -0.0189  0.3863
 1856SOL    HW117204   0.350   4.471   2.828  0.4669  1.1248  0.4555
 1856SOL    HW217205   0.210   4.427   2.832 -1.0486 -1.1666 -2.0677
 1857SOL     OW17206   0.316   3.816   0.044 -0.4788 -0.0542  0.0132
 1857SOL    HW117207   0.317   3.775   0.130  1.9788  1.2448  0.5877
 1857SOL    HW217208   0.308   3.905   0.078  2.9193  0.1503  0.2147
 1858SOL     OW17209   3.419   0.190   5.874  0.0964 -0.1137 -0.1660
 1858SOL    HW117210   3.372   0.200   5.956  1.3798 -0.7378  0.6601
 1858SOL    HW217211   3.510   0.189   5.905  0.9565 -0.5946 -2.6872
 1859SOL     OW17212   4.394   1.076   7.422 -0.8530 -0.3498 -0.3633
 1859SOL    HW117213   4.394   1.077   7.326  2.3914 -4.5491 -0.4236
 1859SOL    HW217214   4.432   0.990   7.442 -0.0923  0.3982  1.3753
 1860SOL     OW17215   3.799   2.177   9.036  0.8745 -0.1536 -0.0584
 1860SOL    HW117216   3.794   2.089   9.073 -1.3169  0.7757  1.8919
 1860SOL    HW217217   3.876   2.166   8.981  0.7017 -0.4732 -0.2358
 1861SOL     OW17218   0.992   1.505   9.066 -0.5966  0.8495  0.4743
 1861SOL    HW117219   0.938   1.473   9.138 -0.1897 -2.8094 -0.8063
 1861SOL    HW217220   0.928   1.533   9.002 -0.6256  0.9527  0.5494
 1862SOL     OW17221   1.118   2.994   5.672  0.2547 -0.1183  0.1318
 1862SOL    HW117222   1.044   3.053   5.664  0.3608 -0.3459 -2.2910
 1862SOL    HW217223   1.175   3.030   5.604 -2.7274  3.6144 -0.3801
 1863SOL     OW17224   0.417   4.635   8.482 -0.0913 -0.6220  0.7807
 1863SOL    HW117225   0.359   4.656   8.409 -0.7749 -2.8442  0.6652
 1863SOL    HW217226   0.353   4.576   8.524 -0.2574 -0.3713  0.8803
 1864SOL     OW17227   2.404   3.346   4.229  0.0032 -0.0666 -0.4081
 1864SOL    HW117228   2.368   3.350   4.318  1.8101  2.1911  0.2194
 1864SOL    HW217229   2.366   3.424   4.189 -1.8331 -0.3154  0.8400
 1865SOL     OW17230   3.188   2.197   9.343  0.0835 -0.0366 -0.2266
 1865SOL    HW117231   3.138   2.194   9.424 -2.6221  0.0605 -1.8828
 1865SOL    HW217232   3.154   2.120   9.296  1.1765 -1.5814  1.5411
 1866SOL     OW17233   3.949   1.397   1.674  0.0684  0.4215  0.6771
 1866SOL    HW117234   3.937   1.373   1.766  0.5690 -1.3956  0.2832
 1866SOL    HW217235   3.878   1.460   1.662  0.1049  0.5221  1.0072
 1867SOL     OW17236   0.312   1.520   9.674  0.4251  0.1679 -0.6565
 1867SOL    HW117237   0.303   1.471   9.755 -0.5438  1.4145 -0.0136
 1867SOL    HW217238   0.407   1.510   9.671  0.7052  2.0205  2.1742
 1868SOL     OW17239   2.682   2.704   4.490 -0.0274  0.1216 -0.3055
 1868SOL    HW117240   2.760   2.660   4.524 -0.4756 -0.9178 -0.6001
 1868SOL    HW217241   2.628   2.686   4.567  0.7228  1.7317  0.5850
 1869SOL     OW17242   2.792   2.809  14.382  0.7580  0.1619  0.4344
 1869SOL    HW117243   2.727   2.879  14.379  0.4998  0.0285  2.7353
 1869SOL    HW217244   2.774   2.757  14.461  1.4811 -0.2519  0.3281
 1870SOL     OW17245   1.582   3.000   5.991  0.0722  0.2860  0.0636
 1870SOL    HW117246   1.655   2.939   5.989 -1.4130 -1.4432 -1.7533
 1870SOL    HW217247   1.532   2.972   5.914  1.1834 -0.3229 -0.4393
 1871SOL     OW17248   0.665   3.296   9.144  0.1788  0.0039  0.1117
 1871SOL    HW117249   0.696   3.315   9.056 -2.7429 -4.5986 -1.9335
 1871SOL    HW217250   0.682   3.382   9.183 -0.7479 -0.3909  1.3999
 1872SOL     OW17251   3.366   2.272   8.350 -0.4759  0.9052 -0.6070
 1872SOL    HW117252   3.445   2.326   8.359 -0.2037  0.1122  1.6004
 1872SOL    HW217253   3.388   2.229   8.267 -0.1573  1.2168 -0.6859
 1873SOL     OW17254   0.945   0.360  17.634  0.2372 -0.2698 -0.2557
 1873SOL    HW117255   1.023   0.368  17.689 -0.7490 -1.3698  1.2793
 1873SOL    HW217256   0.915   0.272  17.657 -2.1566  0.3833 -0.8377
 1874SOL     OW17257   3.147   1.838   1.920 -0.1270 -0.2898  0.4666
 1874SOL    HW117258   3.116   1.771   1.981  0.4026  0.7696  1.9158
 1874SOL    HW217259   3.237   1.855   1.949 -0.0412  0.6050 -0.3274
 1875SOL     OW17260   1.933   2.708   2.612 -0.3756 -0.2465 -0.4724
 1875SOL    HW117261   1.973   2.789   2.643 -1.2135  0.6774 -1.7981
 1875SOL    HW217262   1.916   2.669   2.697 -2.3861  1.2976 -0.1645
 1876SOL     OW17263   3.192   3.536  14.584 -0.0455  0.4842 -0.2949
 1876SOL    HW117264   3.163   3.504  14.670  1.2409 -1.3790 -0.5579
 1876SOL    HW217265   3.202   3.629  14.602  1.4557  0.4329 -0.8717
 1877SOL     OW17266   0.504   1.736   4.732  0.0888 -0.1136  0.2106
 1877SOL    HW117267   0.523   1.739   4.826  0.4861  0.6292  0.1055
 1877SOL    HW217268   0.565   1.799   4.692 -1.2942  0.4443 -0.9918
 1878SOL     OW17269   4.137   4.078  12.844  0.0004  0.0435  0.2473
 1878SOL    HW117270   4.097   4.165  12.848  2.2968  1.1322 -0.5673
 1878SOL    HW217271   4.213   4.090  12.902  1.5227  0.6246 -1.8736
 1879SOL     OW17272   0.052   1.617   3.743  0.2966  0.2287 -0.2787
 1879SOL    HW117273   0.088   1.656   3.823 -0.5466 -1.7630  1.0787
 1879SOL    HW217274   0.111   1.661   3.682  2.4145 -0.7202  1.0762
 1880SOL     OW17275   3.854   2.621   3.749  0.1890  0.1136  0.1161
 1880SOL    HW117276   3.848   2.650   3.840 -0.4405 -0.9804  0.4262
 1880SOL    HW217277   3.945   2.645   3.735 -0.3463  2.3262  0.5337
 1881SOL     OW17278   2.782   2.701  11.894 -0.1037 -0.3142 -0.1049
 1881SOL    HW117279   2.799   2.731  11.983 -0.7992  3.2387 -1.1620
 1881SOL    HW217280   2.817   2.612  11.891 -0.3849 -0.3430 -2.6432
 1882SOL     OW17281   1.087   1.780  13.509  0.2756  0.3585  0.3253
 1882SOL    HW117282   0.992   1.787  13.514  0.3394  1.1963  0.3824
 1882SOL    HW217283   1.112   1.792  13.601  0.0211 -0.4537  0.5025
 1883SOL     OW17284   0.449   4.726   3.497  0.2241  0.1355  0.0571
 1883SOL    HW117285   0.436   4.709   3.404 -0.2238 -2.1728  0.5360
 1883SOL    HW217286   0.387   0.055   3.521 -0.7436 -0.3096 -1.1400
 1884SOL     OW17287   1.546   2.012   7.547 -0.1064  0.0972  0.4224
 1884SOL    HW117288   1.634   1.988   7.518 -0.0342  1.0988 -0.1685
 1884SOL    HW217289   1.492   1.947   7.501  1.1027  1.7168 -3.2146
 1885SOL     OW17290   0.412   0.400  16.079 -0.0045 -0.0507 -0.0997
 1885SOL    HW117291   0.413   0.447  16.163 -1.5697  0.5505 -0.4229
 1885SOL    HW217292   0.325   0.362  16.080  0.7903 -1.8168  1.5310
 1886SOL     OW17293   3.801   2.964   3.415  0.1742 -0.0497 -0.2581
 1886SOL    HW117294   3.884   3.011   3.417  0.0166  0.2562 -0.9941
 1886SOL    HW217295   3.807   2.927   3.327  0.3276  1.3877 -0.8488
 1887SOL     OW17296   1.188   1.068  16.505 -0.4209 -0.1347  0.2885
 1887SOL    HW117297   1.255   1.131  16.478  1.3236 -1.0485  2.4854
 1887SOL    HW217298   1.138   1.117  16.571 -1.0021  0.4988 -0.6144
 1888SOL     OW17299   2.651   3.973  15.259 -0.0505  0.1897 -0.3629
 1888SOL    HW117300   2.608   3.956  15.343 -1.4575 -0.1198 -1.1479
 1888SOL    HW217301   2.695   4.057  15.276 -0.5953  0.4468 -0.1994
 1889SOL     OW17302   4.121   3.843   2.509  0.7344 -0.1765  0.0202
 1889SOL    HW117303   4.096   3.751   2.499  2.7860 -0.4916 -2.3736
 1889SOL    HW217304   4.099   3.887   2.426 -1.0011 -0.5525  0.2836
 1890SOL     OW17305   3.376   2.288   7.454  0.0662  0.1367 -0.5888
 1890SOL    HW117306   3.315   2.361   7.459 -0.4937 -0.3908  0.2214
 1890SOL    HW217307   3.358   2.254   7.366 -0.0456  0.2281 -0.6008
 1891SOL     OW17308   2.814   0.962   5.950 -0.4631  0.2295 -0.1808
 1891SOL    HW117309   2.829   0.912   6.029  0.2691  0.2972 -0.2807
 1891SOL    HW217310   2.901   1.002   5.953  0.0229 -0.8116 -0.3342
 1892SOL     OW17311   4.728   1.655   0.580 -0.1901 -0.6944  0.0726
 1892SOL    HW117312   0.032   1.735   0.552 -0.6791 -0.1507  0.8517
 1892SOL    HW217313   0.040   1.594   0.529  1.2073 -0.7030  1.5292
 1893SOL     OW17314   0.152   1.676   6.915  0.2929 -0.7198 -0.8756
 1893SOL    HW117315   0.240   1.686   6.879  1.3285 -1.3103  1.5288
 1893SOL    HW217316   0.138   1.582   6.902 -2.3829 -0.4494 -0.0615
 1894SOL     OW17317   3.030   1.244  10.896  0.1329  0.3471 -0.3973
 1894SOL    HW117318   3.036   1.162  10.847 -0.4786 -0.5152  0.9513
 1894SOL    HW217319   3.008   1.303  10.824 -1.1275 -0.4157 -0.6555
 1895SOL     OW17320   1.882   0.802   6.424 -0.4276  0.3575  0.2853
 1895SOL    HW117321   1.942   0.759   6.364 -1.0218 -1.0453  0.6700
 1895SOL    HW217322   1.882   0.883   6.374  0.3099 -0.0135 -0.3179
 1896SOL     OW17323   1.500   3.729   5.524  0.0741 -0.3945 -0.0542
 1896SOL    HW117324   1.471   3.705   5.612 -0.4628 -2.1169 -0.7112
 1896SOL    HW217325   1.496   3.646   5.477 -2.0309  1.2298 -2.7150
 1897SOL     OW17326   3.918   4.511   2.174 -0.0128  0.0115  0.3051
 1897SOL    HW117327   3.855   4.573   2.211  3.0018  2.2572  1.6490
 1897SOL    HW217328   3.919   4.547   2.085 -1.0127 -1.6532 -0.3764
 1898SOL     OW17329   0.031   2.256  14.333  0.0233 -0.0316  0.3989
 1898SOL    HW117330   0.026   2.274  14.427  0.0056  1.4934  0.1049
 1898SOL    HW217331   4.695   2.301  14.298  0.0124 -0.6580 -0.4021
 1899SOL     OW17332   3.076   1.858   5.291  0.2451  0.1414 -0.1720
 1899SOL    HW117333   3.111   1.936   5.334 -1.1929  0.8473 -0.2658
 1899SOL    HW217334   2.999   1.844   5.347  1.4018  1.1390  1.6583
 1900SOL     OW17335   3.407   2.849  16.209 -0.1964  0.0837  0.4265
 1900SOL    HW117336   3.350   2.856  16.133  0.8290 -0.3702 -0.3890
 1900SOL    HW217337   3.490   2.869  16.165  0.9394 -1.0465  2.0805
 1901SOL     OW17338   3.464   4.698   9.458  0.8721 -0.2191  0.6581
 1901SOL    HW117339   3.374   4.666   9.464  0.5142  0.9946  1.5880
 1901SOL    HW217340   3.481   4.709   9.551 -0.3214  0.9834  0.7345
 1902SOL     OW17341   4.385   1.170   2.513 -0.1101  0.4129  0.2970
 1902SOL    HW117342   4.343   1.084   2.518 -1.4242  0.8964 -2.2379
 1902SOL    HW217343   4.360   1.206   2.599  2.2143  0.8842  0.7653
 1903SOL     OW17344   1.056   1.965   1.589  0.2320  0.0020 -0.1157
 1903SOL    HW117345   1.136   1.924   1.622 -0.7622 -1.1819  0.8343
 1903SOL    HW217346   1.002   1.970   1.668 -1.1163  0.2386 -1.0466
 1904SOL     OW17347   2.341   2.938  16.979 -0.7422  0.3331 -0.1240
 1904SOL    HW117348   2.303   2.862  17.023  0.6819 -1.0379 -1.2236
 1904SOL    HW217349   2.316   3.016  17.029  0.5192  0.0967  0.8733
 1905SOL     OW17350   2.400   4.301   3.954  0.0227  0.2406  0.7413
 1905SOL    HW117351   2.349   4.347   4.021 -0.2644  0.8611  0.0929
 1905SOL    HW217352   2.391   4.363   3.882  2.3954 -1.0378 -0.6512
 1906SOL     OW17353   2.884   2.690   2.888 -0.2604  0.0952  0.1080
 1906SOL    HW117354   2.878   2.594   2.892 -1.4848  0.1618 -0.0707
 1906SOL    HW217355   2.966   2.696   2.839  0.6361 -0.2543  1.5640
 1907SOL     OW17356   0.823   1.621   8.875 -0.6216  0.4856 -0.3392
 1907SOL    HW117357   0.799   1.640   8.784  1.2845  0.7097 -0.8039
 1907SOL    HW217358   0.787   1.698   8.917  1.6591  1.2299  0.2586
 1908SOL     OW17359   3.998   1.172   4.943  0.1797 -0.0496  0.0748
 1908SOL    HW117360   3.921   1.205   4.898 -0.8197 -1.5227  0.7204
 1908SOL    HW217361   4.041   1.118   4.876 -1.3709 -0.2088 -0.7930
 1909SOL     OW17362   4.074   4.262  14.055 -0.1056 -0.0249 -0.4316
 1909SOL    HW117363   4.074   4.358  14.047  0.1255 -0.0821 -1.1109
 1909SOL    HW217364   4.066   4.254  14.150  0.5052  2.5646 -0.1674
 1910SOL     OW17365   4.215   1.792   2.515 -0.1924  0.3525  0.3159
 1910SOL    HW117366   4.207   1.837   2.600  1.6155 -1.1138  1.2679
 1910SOL    HW217367   4.290   1.740   2.544  0.7239  2.7089  2.2459
 1911SOL     OW17368   1.398   0.352  10.429  0.2175  0.3035 -0.0329
 1911SOL    HW117369   1.343   0.310  10.363  0.5742 -0.9280  0.4691
 1911SOL    HW217370   1.479   0.302  10.423  1.4630  2.0480  2.3171
 1912SOL     OW17371   2.094   3.909   4.235 -0.3766  0.1616 -0.0886
 1912SOL    HW117372   2.111   3.816   4.253  1.0989  0.1374 -1.5741
 1912SOL    HW217373   2.160   3.919   4.166 -0.5028  2.9225  0.1971
 1913SOL     OW17374   2.050   0.618   3.983 -0.1506 -0.2456 -0.3373
 1913SOL    HW117375   2.003   0.555   4.038 -0.2068  0.5388  0.5137
 1913SOL    HW217376   1.980   0.681   3.968  0.3007  0.0718 -1.0858
 1914SOL     OW17377   2.547   0.048   5.437 -0.7943 -0.5167  0.1772
 1914SOL    HW117378   2.629   4.740   5.446 -0.2575  0.1538 -1.0240
 1914SOL    HW217379   2.569   0.135   5.468  2.9895 -1.2226 -0.4870
 1915SOL     OW17380   4.559   3.250   9.814 -0.2778  0.1615 -0.4740
 1915SOL    HW117381   4.548   3.284   9.903  1.2272 -1.0786  0.1901
 1915SOL    HW217382   4.597   3.332   9.782  0.0326 -0.4548 -1.6696
 1916SOL     OW17383   2.524   3.882   5.251 -0.3504 -0.1372  0.6667
 1916SOL    HW117384   2.610   3.918   5.272  0.7886 -1.8354 -1.1411
 1916SOL    HW217385   2.481   3.914   5.331  0.8068  0.0314  1.2183
 1917SOL     OW17386   4.183   2.333   1.653 -0.2060 -0.0343  0.1106
 1917SOL    HW117387   4.229   2.296   1.729  1.5097  1.8952 -0.0207
 1917SOL    HW217388   4.252   2.377   1.604  0.2622  2.1382  2.7375
 1918SOL     OW17389   3.293   0.495   5.268 -0.3038 -0.4250  0.0754
 1918SOL    HW117390   3.387   0.473   5.271 -0.2408  0.1794  2.3595
 1918SOL    HW217391   3.259   0.413   5.304 -1.3838  0.1273  0.3103
 1919SOL     OW17392   4.302   1.258   2.039 -0.0260 -0.4031 -0.7576
 1919SOL    HW117393   4.326   1.312   1.964 -1.4611 -2.1992 -2.5091
 1919SOL    HW217394   4.240   1.193   2.006  1.5584 -1.3440 -1.8748
 1920SOL     OW17395   2.922   1.605  13.056 -0.0459  0.1397 -0.4827
 1920SOL    HW117396   2.879   1.573  13.135 -0.2233  2.3958  0.3321
 1920SOL    HW217397   2.967   1.684  13.088  0.3814  1.5139 -4.3936
 1921SOL     OW17398   3.240   1.445   2.701  0.6992  0.1504  0.6039
 1921SOL    HW117399   3.254   1.373   2.639  0.4109  0.1033  0.5953
 1921SOL    HW217400   3.285   1.402   2.773  3.8260  2.3037 -0.0540
 1922SOL     OW17401   0.139   2.966   5.300 -0.0207 -0.0929  0.2952
 1922SOL    HW117402   0.159   3.052   5.262  0.8408  0.9052  2.9492
 1922SOL    HW217403   0.139   2.908   5.224 -0.6192 -0.5414  0.6388
 1923SOL     OW17404   1.785   4.184   5.558 -0.3187  0.1229  0.3812
 1923SOL    HW117405   1.720   4.206   5.625  0.7683 -0.0476  1.4795
 1923SOL    HW217406   1.739   4.113   5.514 -2.8484  1.1022  1.4502
 1924SOL     OW17407   0.215   4.524  12.076 -0.5182  0.0649  0.4206
 1924SOL    HW117408   0.294   4.569  12.046 -0.3844 -0.0708  0.5676
 1924SOL    HW217409   0.154   4.598  12.087 -0.8427 -0.3324  1.3487
 1925SOL     OW17410   0.339   2.306  11.902  0.5612  0.0082  0.2166
 1925SOL    HW117411   0.419   2.314  11.851  1.2746 -0.2287  1.2933
 1925SOL    HW217412   0.281   2.361  11.849 -0.2241 -0.5012  0.5494
 1926SOL     OW17413   2.811   2.818   6.302 -0.4562 -0.8702  0.2693
 1926SOL    HW117414   2.722   2.794   6.280 -0.0884 -1.7810 -0.2090
 1926SOL    HW217415   2.864   2.745   6.270 -0.1275  0.0320 -1.2371
 1927SOL     OW17416   3.988   0.159   2.905  0.1792 -0.3221 -0.3748
 1927SOL    HW117417   4.012   0.251   2.901 -2.7771  0.5867  2.8251
 1927SOL    HW217418   3.999   0.133   2.997  0.6256  2.6897  0.4105
 1928SOL     OW17419   0.534   4.053   8.777  0.6380  0.0711  0.2721
 1928SOL    HW117420   0.549   4.028   8.686  0.0489 -1.2240  0.5289
 1928SOL    HW217421   0.590   3.988   8.821  1.1832  1.7217  2.0186
 1929SOL     OW17422   4.728   0.529   2.829 -0.1154  0.1070  0.0026
 1929SOL    HW117423   4.701   0.618   2.808 -1.2035 -0.2844 -0.2813
 1929SOL    HW217424   0.066   0.505   2.779 -1.2687 -2.4468 -0.6055
 1930SOL     OW17425   2.200   3.281   2.994 -0.6073  0.0468  0.1284
 1930SOL    HW117426   2.151   3.211   2.952 -2.0747 -0.4284  2.6595
 1930SOL    HW217427   2.289   3.250   2.976 -1.1062  0.1316 -2.3985
 1931SOL     OW17428   0.883   3.458   2.906 -0.0862  0.5262 -0.0117
 1931SOL    HW117429   0.930   3.375   2.903 -1.4408 -0.1109 -3.5851
 1931SOL    HW217430   0.947   3.523   2.879  1.3586  0.1391  2.4673
 1932SOL     OW17431   4.179   3.344   9.649  0.5683 -0.6359 -0.8569
 1932SOL    HW117432   4.088   3.315   9.648  0.9342 -1.8063 -0.2996
 1932SOL    HW217433   4.180   3.399   9.570 -0.6105 -0.7287 -0.9350
 1933SOL     OW17434   1.009   1.498  16.575  0.7472 -0.4770 -0.5085
 1933SOL    HW117435   0.960   1.416  16.582 -0.1253  0.0240 -0.6385
 1933SOL    HW217436   0.939   1.556  16.544  2.2024  0.5862 -1.7961
 1934SOL     OW17437   3.712   0.819   6.609  0.1347 -0.1925 -0.0267
 1934SOL    HW117438   3.777   0.807   6.678 -1.2032 -0.3135  1.2185
 1934SOL    HW217439   3.630   0.814   6.659 -0.6054 -1.3024 -1.3607
 1935SOL     OW17440   0.851   0.099   4.301 -0.3904 -0.0974  0.0818
 1935SOL    HW117441   0.809   0.022   4.339 -0.3562  0.9984  2.3381
 1935SOL    HW217442   0.936   0.094   4.344 -0.2526  0.1673 -0.1585
 1936SOL     OW17443   4.648   2.070   4.403 -0.5392 -0.6538 -0.2858
 1936SOL    HW117444   4.630   1.982   4.369 -0.2802 -0.0044 -2.1089
 1936SOL    HW217445   4.709   2.110   4.341 -0.5112  0.2417  0.3240
 1937SOL     OW17446   2.094   4.341   3.727  0.0882 -0.3392  0.0277
 1937SOL    HW117447   2.143   4.413   3.767  1.9051 -0.3087 -2.2762
 1937SOL    HW217448   2.004   4.365   3.749 -0.2735 -2.1914  0.5625
 1938SOL     OW17449   3.667   0.662   6.348  0.1899 -0.2809  0.2163
 1938SOL    HW117450   3.705   0.722   6.283 -0.0451  1.2581  1.4898
 1938SOL    HW217451   3.660   0.716   6.427  0.0068  0.8697 -0.5847
 1939SOL     OW17452   1.464   1.609  14.671  0.8637 -0.8333  0.0629
 1939SOL    HW117453   1.504   1.694  14.692  1.5729 -1.4349  1.1806
 1939SOL    HW217454   1.493   1.560  14.748  0.6871 -0.8217  0.1358
 1940SOL     OW17455   0.956   4.054   7.955 -0.3721  0.4029 -0.7465
 1940SOL    HW117456   1.023   4.009   8.007 -2.5666  0.3762  2.0747
 1940SOL    HW217457   0.894   3.982   7.942 -0.8269  0.4359  1.2984
 1941SOL     OW17458   1.134   3.459   0.918 -0.5301 -0.0012  0.1457
 1941SOL    HW117459   1.212   3.497   0.877 -0.6487  1.7286  1.5048
 1941SOL    HW217460   1.169   3.388   0.972 -2.3598 -0.5220  0.6405
 1942SOL     OW17461   4.110   4.160  13.682  0.4243  0.4082 -0.6030
 1942SOL    HW117462   4.199   4.126  13.695  0.3916 -0.8322 -3.7247
 1942SOL    HW217463   4.053   4.107  13.738 -1.1333  1.7000 -0.9645
 1943SOL     OW17464   3.696   1.421   4.471  0.6806 -0.1060  0.3360
 1943SOL    HW117465   3.611   1.381   4.487  1.8609 -1.5734  3.0916
 1943SOL    HW217466   3.736   1.361   4.408 -0.7377  0.0727 -0.7158
 1944SOL     OW17467   0.897   0.236  14.548  0.0421 -0.1915  0.0863
 1944SOL    HW117468   0.891   0.257  14.455 -3.0787 -1.3955  0.0354
 1944SOL    HW217469   0.885   0.141  14.544 -0.2026 -0.1246 -0.7787
 1945SOL     OW17470   4.087   2.111  11.830  0.2669 -0.5236  0.4476
 1945SOL    HW117471   4.082   2.202  11.861  1.7434 -0.1479 -0.3886
 1945SOL    HW217472   4.069   2.123  11.737 -0.4015 -0.1408  0.6245
 1946SOL     OW17473   2.603   0.695   2.194  0.1042  0.0661  0.5265
 1946SOL    HW117474   2.569   0.612   2.159  0.0140 -0.3473  1.5756
 1946SOL    HW217475   2.564   0.760   2.136 -1.1083  1.5023  2.9669
 1947SOL     OW17476   4.714   2.418   4.318 -0.6471 -0.7254  0.3412
 1947SOL    HW117477   0.036   2.465   4.373  1.2880 -2.1105 -0.7192
 1947SOL    HW217478   0.014   2.333   4.304  2.3543  0.5121  1.7666
 1948SOL     OW17479   1.491   0.047   7.064  0.3236  0.3406 -0.4567
 1948SOL    HW117480   1.511   0.102   6.988  0.8368 -1.3994 -1.5869
 1948SOL    HW217481   1.456   4.717   7.011 -1.7184  0.6209  0.5453
 1949SOL     OW17482   3.338   4.205   5.217  0.1998 -0.7489  0.1321
 1949SOL    HW117483   3.389   4.155   5.281  0.4082  2.1194  2.2399
 1949SOL    HW217484   3.262   4.239   5.266 -0.6122 -1.2995 -0.7540
 1950SOL     OW17485   1.306   3.922   2.917 -0.0049  0.2337  0.2090
 1950SOL    HW117486   1.305   3.843   2.863  1.2369 -0.1803  0.7789
 1950SOL    HW217487   1.211   3.934   2.918 -0.2660 -1.7851  0.1806
 1951SOL     OW17488   0.367   2.493   7.377 -0.2878 -0.2396 -0.3152
 1951SOL    HW117489   0.372   2.400   7.395 -0.8563 -0.6458 -2.2051
 1951SOL    HW217490   0.282   2.502   7.333  0.8897  0.0347 -2.5559
 1952SOL     OW17491   3.757   2.500   4.333  0.0052 -0.0742  0.3146
 1952SOL    HW117492   3.836   2.545   4.302  0.1533 -0.8261 -0.4274
 1952SOL    HW217493   3.735   2.447   4.256  1.8609  0.2315 -0.4514
 1953SOL     OW17494   3.672   0.793   2.450  0.3908  0.0148 -0.3814
 1953SOL    HW117495   3.659   0.869   2.506 -1.9046  0.4245 -1.4349
 1953SOL    HW217496   3.674   0.836   2.364 -0.1160 -0.0188 -0.4111
 1954SOL     OW17497   2.814   1.844  15.614  0.2914  0.0771 -0.2380
 1954SOL    HW117498   2.903   1.855  15.582  0.0827  0.9257 -0.5046
 1954SOL    HW217499   2.791   1.760  15.572 -2.6967  1.2766 -1.0178
 1955SOL     OW17500   4.373   2.524  16.535  0.0052  0.2011  0.1723
 1955SOL    HW117501   4.342   2.447  16.584 -0.8510 -0.6122 -1.6475
 1955SOL    HW217502   4.468   2.519  16.549  0.4291  2.4169 -1.8254
 1956SOL     OW17503   3.867   2.043   6.494 -0.5237  0.4019 -0.2591
 1956SOL    HW117504   3.963   2.042   6.495 -0.5350 -1.1265 -0.4467
 1956SOL    HW217505   3.849   1.982   6.423  1.2256 -1.0057  0.5009
 1957SOL     OW17506   4.424   0.085   4.927 -0.1355  0.1447 -0.1471
 1957SOL    HW117507   4.345   0.127   4.961  0.7618  1.2519  0.5777
 1957SOL    HW217508   4.397   0.052   4.841 -0.2975  1.4663 -0.6057
 1958SOL     OW17509   1.239   0.693  11.986 -0.0645  0.1573 -0.4127
 1958SOL    HW117510   1.241   0.784  12.016  0.0348  0.5074 -1.4785
 1958SOL    HW217511   1.311   0.703  11.923 -1.7897  1.8737 -2.1229
 1959SOL     OW17512   2.479   4.430   6.430  0.1583  0.4705 -0.3006
 1959SOL    HW117513   2.484   4.354   6.372 -1.1619 -0.6385  1.0343
 1959SOL    HW217514   2.409   4.398   6.486  0.1604  2.3511  0.7470
 1960SOL     OW17515   4.501   3.069   3.266 -0.1798  0.1002 -0.4683
 1960SOL    HW117516   4.440   3.111   3.205 -0.6815  0.6972  0.4366
 1960SOL    HW217517   4.436   3.023   3.319  0.4921 -0.6231 -0.2818
 1961SOL     OW17518   0.318   1.613   1.403  0.1337  0.4186 -0.1298
 1961SOL    HW117519   0.399   1.627   1.453  0.4457  1.3214 -0.8956
 1961SOL    HW217520   0.351   1.665   1.330  2.4437  1.2906  1.5202
 1962SOL     OW17521   4.304   1.615   7.164  0.9773 -0.2284 -0.5781
 1962SOL    HW117522   4.328   1.626   7.255 -2.0426 -0.5204  0.2717
 1962SOL    HW217523   4.341   1.529   7.142  3.5946  0.5955  0.6029
 1963SOL     OW17524   4.724   2.388  17.145 -0.1956 -0.0179 -0.2459
 1963SOL    HW117525   4.721   2.331  17.222 -1.2504 -2.2883 -1.9607
 1963SOL    HW217526   0.071   2.366  17.113  1.3496 -0.2614  4.1824
 1964SOL     OW17527   0.052   3.511   2.867  0.6779  0.7068 -1.0217
 1964SOL    HW117528   4.735   3.438   2.846 -0.1132  0.6003  1.4943
 1964SOL    HW217529   0.052   3.503   2.963 -1.7033  3.3893 -0.7962
 1965SOL     OW17530   0.618   2.694   8.756 -0.2468  0.4378 -0.7949
 1965SOL    HW117531   0.611   2.629   8.825  2.4790 -0.0815 -0.9969
 1965SOL    HW217532   0.540   2.749   8.763  1.6874  2.9899  0.5290
 1966SOL     OW17533   0.579   3.684   7.695  0.6050 -0.7309  0.1442
 1966SOL    HW117534   0.551   3.759   7.747  0.2447  0.1520 -1.3155
 1966SOL    HW217535   0.511   3.617   7.703 -0.1693 -0.1947 -1.9313
 1967SOL     OW17536   4.134   1.392  13.245 -0.4736 -0.2158 -0.1513
 1967SOL    HW117537   4.170   1.444  13.174  1.1127 -1.7985 -0.4953
 1967SOL    HW217538   4.185   1.311  13.249  0.2111  0.2249  0.0107
 1968SOL     OW17539   2.640   2.005   1.728 -0.1394  0.2941 -0.2584
 1968SOL    HW117540   2.687   2.077   1.687  0.3754  0.3197  0.3835
 1968SOL    HW217541   2.637   2.024   1.821  2.8454 -0.5394  0.0071
 1969SOL     OW17542   3.648   2.322   7.375 -0.4276 -0.1428  0.0130
 1969SOL    HW117543   3.562   2.294   7.407  0.9806 -2.9246  1.3219
 1969SOL    HW217544   3.655   2.408   7.417 -0.7871 -0.6626  1.1359
 1970SOL     OW17545   2.397   2.759   1.730  0.2504 -0.0692 -0.7286
 1970SOL    HW117546   2.417   2.682   1.784 -2.0291 -1.1164 -1.4062
 1970SOL    HW217547   2.302   2.748   1.729  0.3394 -0.7504 -1.6907
 1971SOL     OW17548   3.259   3.068   8.105  0.3830  0.2660  0.3221
 1971SOL    HW117549   3.333   3.007   8.093 -1.6368 -1.8674 -1.3421
 1971SOL    HW217550   3.288   3.148   8.061 -0.2211  1.1518  1.5303
 1972SOL     OW17551   3.070   3.453  14.813  0.0013 -0.1145 -0.6538
 1972SOL    HW117552   3.064   3.374  14.866  0.5982 -0.1165 -0.5835
 1972SOL    HW217553   3.077   3.508  14.890 -2.2735  1.3612 -1.5223
 1973SOL     OW17554   2.862   4.406   3.791 -0.7071 -0.1277  0.1484
 1973SOL    HW117555   2.926   4.340   3.764  0.5712  1.1638  0.0189
 1973SOL    HW217556   2.787   4.362   3.830 -0.6063  1.5540  2.2323
 1974SOL     OW17557   1.380   0.022   3.856 -0.0578 -0.5697  0.3393
 1974SOL    HW117558   1.468   4.735   3.883 -0.2519 -0.2332  1.3321
 1974SOL    HW217559   1.384   0.107   3.901 -0.7404  0.4584 -1.5773
 1975SOL     OW17560   3.244   3.022   2.285  0.1002 -0.9163  0.4370
 1975SOL    HW117561   3.164   2.978   2.315 -0.9137  0.2720 -0.5325
 1975SOL    HW217562   3.261   3.083   2.357  1.0192 -1.7613  0.9295
 1976SOL     OW17563   3.189   3.436   5.357  0.3074 -0.2240  0.2659
 1976SOL    HW117564   3.251   3.366   5.376 -2.5427 -2.6718  0.4987
 1976SOL    HW217565   3.106   3.394   5.382  0.1828  1.6869  3.0783
 1977SOL     OW17566   1.808   4.334   6.969 -0.0496 -0.2691  0.5786
 1977SOL    HW117567   1.843   4.399   7.030  0.1202 -0.8784  1.1448
 1977SOL    HW217568   1.886   4.298   6.926 -1.8932 -3.5382 -0.0571
 1978SOL     OW17569   0.204   1.252   8.029  0.0148  0.4158 -0.1916
 1978SOL    HW117570   0.172   1.198   7.957  0.4742 -2.0526  1.4441
 1978SOL    HW217571   0.125   1.292   8.067 -0.2481 -1.2499  1.0626
 1979SOL     OW17572   0.864   1.239   7.728 -0.3861 -0.2352  0.3060
 1979SOL    HW117573   0.870   1.245   7.823  0.4487  3.6140  0.0248
 1979SOL    HW217574   0.956   1.255   7.705 -0.4047  0.0813  0.4415
 1980SOL     OW17575   3.311   3.089   4.101 -0.3681 -0.1414 -0.1730
 1980SOL    HW117576   3.252   3.055   4.034 -1.6038  0.1830  0.7277
 1980SOL    HW217577   3.305   3.024   4.171 -1.7017 -0.1096 -0.2538
 1981SOL     OW17578   3.693   4.126   5.037 -0.4211 -0.1932 -0.4325
 1981SOL    HW117579   3.729   4.152   5.121 -3.7333  1.5753  0.3976
 1981SOL    HW217580   3.620   4.071   5.064 -0.4426  0.9040  1.6916
 1982SOL     OW17581   4.483   1.294   9.868 -0.1963  0.3282  0.2090
 1982SOL    HW117582   4.508   1.286   9.776 -0.2447 -1.0369  0.3145
 1982SOL    HW217583   4.555   1.253   9.916 -0.2562  0.4658  0.4151
 1983SOL     OW17584   3.331   4.094   2.202 -0.3502 -0.0252 -0.6175
 1983SOL    HW117585   3.373   4.008   2.205  0.0318  0.2505  1.9721
 1983SOL    HW217586   3.384   4.143   2.138 -0.2776 -1.6893 -1.8099
 1984SOL     OW17587   1.649   0.929   3.282  0.2708  0.1808 -0.1652
 1984SOL    HW117588   1.598   1.010   3.280 -0.7623 -0.4616  0.0050
 1984SOL    HW217589   1.650   0.894   3.371 -1.3218 -2.2049 -1.0739
 1985SOL     OW17590   3.407   4.427  12.380  0.2472 -0.3211 -0.2073
 1985SOL    HW117591   3.406   4.507  12.433  1.1714 -1.7990  2.0362
 1985SOL    HW217592   3.500   4.428  12.360  0.8749  0.6851  2.7019
 1986SOL     OW17593   3.189   4.013   9.684 -0.2981  0.0667 -0.2455
 1986SOL    HW117594   3.270   3.964   9.669 -0.9653 -0.9612 -0.5241
 1986SOL    HW217595   3.123   3.951   9.652  0.6058 -1.8359  1.5750
 1987SOL     OW17596   4.625   0.049   7.761  0.0504  0.5614  0.6757
 1987SOL    HW117597   4.629   0.048   7.665  1.6799 -0.2352  0.7490
 1987SOL    HW217598   4.633   4.698   7.785 -0.1740  0.7378  1.4080
 1988SOL     OW17599   3.153   2.849   0.537  0.2757  0.5069  0.1138
 1988SOL    HW117600   3.211   2.913   0.495 -1.3430  1.3557 -0.8390
 1988SOL    HW217601   3.203   2.767   0.532  0.0083  0.4520 -1.4884
 1989SOL     OW17602   0.913   1.169   2.315  0.2217 -0.3464  0.0977
 1989SOL    HW117603   0.880   1.116   2.388 -0.5973  0.8430  0.6026
 1989SOL    HW217604   0.837   1.142   2.263 -1.4931  2.8901  0.8822
 1990SOL     OW17605   4.548   0.297   9.677 -0.3486 -0.1336  0.1342
 1990SOL    HW117606   4.549   0.387   9.646 -1.9292  0.3642  1.5388
 1990SOL    HW217607   4.458   0.276   9.652  0.0301 -1.3533 -0.2278
 1991SOL     OW17608   0.315   0.159  12.507 -0.5815  0.0711  0.2659
 1991SOL    HW117609   0.303   0.195  12.419 -2.8879 -0.2109  0.4415
 1991SOL    HW217610   0.393   0.200  12.544  0.1194 -0.8749 -0.1834
 1992SOL     OW17611   1.262   0.785   4.950 -0.7509  0.3263  0.2112
 1992SOL    HW117612   1.347   0.828   4.960  0.5942 -1.6734 -2.5696
 1992SOL    HW217613   1.212   0.859   4.984  1.4699  1.7394  0.4344
 1993SOL     OW17614   2.168   3.482  12.606 -0.1387  0.3784 -0.3595
 1993SOL    HW117615   2.256   3.498  12.640 -0.6465 -0.9452  1.6032
 1993SOL    HW217616   2.170   3.548  12.538  0.3975  0.8361  0.0961
 1994SOL     OW17617   3.456   2.063   8.879 -0.0316 -0.1068 -0.2240
 1994SOL    HW117618   3.513   1.991   8.853  1.1481  0.7162  0.0557
 1994SOL    HW217619   3.469   2.059   8.974  0.1330 -1.2225 -0.2976
 1995SOL     OW17620   3.231   2.780  15.260 -0.2505 -0.0521  0.5209
 1995SOL    HW117621   3.297   2.800  15.327 -0.8669  2.1702  0.4612
 1995SOL    HW217622   3.274   2.706  15.218  0.4263 -0.1856  1.4455
 1996SOL     OW17623   1.138   1.332   7.705  0.4728 -0.4836 -0.0639
 1996SOL    HW117624   1.188   1.272   7.649 -1.1510 -0.6652 -1.3297
 1996SOL    HW217625   1.207   1.394   7.730  0.1346  0.2120 -0.8569
 1997SOL     OW17626   1.974   4.089  13.010 -0.4761  0.4726 -0.1710
 1997SOL    HW117627   1.918   4.165  13.026  1.4875  1.5422  1.4989
 1997SOL    HW217628   2.031   4.089  13.086  1.8875 -1.6012 -1.9524
 1998SOL     OW17629   0.210   4.237   2.983 -0.5761  0.1838  0.0501
 1998SOL    HW117630   0.131   4.189   2.959 -0.9273  1.2803 -0.9789
 1998SOL    HW217631   0.163   4.320   2.986 -0.8515  0.0639 -0.9157
 1999SOL     OW17632   2.536   1.970   8.141  0.0164 -0.3242 -0.3336
 1999SOL    HW117633   2.468   1.907   8.120 -0.4337 -0.2335  0.8992
 1999SOL    HW217634   2.503   2.028   8.209 -0.9618  0.3385 -1.3782
 2000SOL     OW17635   0.717   2.887  16.051 -0.1048 -0.8054  0.1111
 2000SOL    HW117636   0.721   2.964  15.995  0.8401 -0.1282  1.1253
 2000SOL    HW217637   0.764   2.924  16.126 -0.2072  0.9833 -0.7088
 2001SOL     OW17638   4.019   4.234   5.037  0.0987 -0.0771  0.3491
 2001SOL    HW117639   3.988   4.153   4.996 -0.2274  1.0519 -1.6212
 2001SOL    HW217640   4.037   4.188   5.119 -1.0646 -2.3803 -0.6902
 2002SOL     OW17641   2.007   1.262  12.688 -0.1693 -0.4028 -0.3404
 2002SOL    HW117642   2.014   1.177  12.644  0.4642 -1.3748  1.6069
 2002SOL    HW217643   2.021   1.311  12.608 -0.2428  1.6269  0.9064
 2003SOL     OW17644   1.043   0.742   6.619  0.2916  0.1669 -0.2670
 2003SOL    HW117645   1.034   0.808   6.550  1.2392  2.1593  1.5304
 2003SOL    HW217646   0.951   0.719   6.624 -0.3932  2.9118 -0.2892
 2004SOL     OW17647   2.746   3.000   3.878  0.3814  0.0483  0.2104
 2004SOL    HW117648   2.656   3.034   3.877  0.1695 -0.5120 -0.3290
 2004SOL    HW217649   2.785   3.086   3.890  1.0686 -0.5132  2.0686
 2005SOL     OW17650   3.272   3.810  11.496 -0.4059  0.1076 -0.5511
 2005SOL    HW117651   3.367   3.800  11.497 -0.4015  0.2106  0.1214
 2005SOL    HW217652   3.259   3.896  11.537 -0.1942 -0.3364  0.4480
 2006SOL     OW17653   2.836   0.921   6.847 -0.2648 -0.4465  0.1793
 2006SOL    HW117654   2.896   0.893   6.778 -1.4055  1.3679 -1.5639
 2006SOL    HW217655   2.821   0.844   6.901 -3.9135  1.7108  2.2496
 2007SOL     OW17656   3.729   2.762   7.270 -0.1059  0.4849  0.3099
 2007SOL    HW117657   3.707   2.835   7.329  0.4095  1.8574 -1.1895
 2007SOL    HW217658   3.721   2.685   7.326  0.0536  0.8615  0.8633
 2008SOL     OW17659   0.260   4.481   7.356 -0.2614  0.4907  0.3668
 2008SOL    HW117660   0.349   4.499   7.385  0.5282 -1.7379 -0.6632
 2008SOL    HW217661   0.268   4.458   7.263 -0.4973  0.1319  0.4361
 2009SOL     OW17662   1.235   2.608  17.231 -0.3095  0.4486 -0.0171
 2009SOL    HW117663   1.163   2.659  17.268 -0.3862  1.4407 -1.4999
 2009SOL    HW217664   1.300   2.678  17.231 -0.0367  0.1956  0.7177
 2010SOL     OW17665   3.196   1.318   6.034 -0.3108  0.2470 -0.1666
 2010SOL    HW117666   3.174   1.317   5.941 -0.0716  0.2322 -0.2216
 2010SOL    HW217667   3.115   1.353   6.071 -0.6962  0.7364 -1.4583
 2011SOL     OW17668   4.108   3.732   3.635  0.3032  0.0408 -0.0616
 2011SOL    HW117669   4.117   3.796   3.706  1.6626 -0.6883  0.4314
 2011SOL    HW217670   4.092   3.778   3.553  1.1267 -0.6924 -0.6413
 2012SOL     OW17671   2.266   4.166  16.404  0.1756 -0.7896 -0.4511
 2012SOL    HW117672   2.254   4.082  16.448  1.1183 -1.5382 -1.6071
 2012SOL    HW217673   2.212   4.147  16.328  1.2118  0.0323 -1.3967
 2013SOL     OW17674   0.200   0.593   2.667  0.2332 -0.0676 -0.2226
 2013SOL    HW117675   0.200   0.503   2.636  0.9466 -0.4710  0.9405
 2013SOL    HW217676   0.295   0.603   2.673  0.0683  1.8753 -0.7529
 2014SOL     OW17677   4.612   3.426   3.600  0.4695  0.7869 -0.6891
 2014SOL    HW117678   4.540   3.481   3.569 -1.0993 -1.1830 -0.5728
 2014SOL    HW217679   4.574   3.339   3.590  0.3764  0.7429  0.0618
 2015SOL     OW17680   2.189   4.204  11.236  0.2031  0.0935 -0.4635
 2015SOL    HW117681   2.117   4.146  11.260 -0.5509  0.7978 -0.9967
 2015SOL    HW217682   2.171   4.278  11.295  1.8501  1.1234 -1.2464
 2016SOL     OW17683   1.683   4.353   8.739  0.5618 -0.9060 -0.4195
 2016SOL    HW117684   1.717   4.401   8.814 -1.3414 -0.5367  0.2195
 2016SOL    HW217685   1.637   4.289   8.794 -1.7276 -0.3655 -1.6888
 2017SOL     OW17686   1.936   0.374   6.176  0.4597  0.4691 -0.4238
 2017SOL    HW117687   1.849   0.356   6.211  0.2419 -0.8532 -1.6176
 2017SOL    HW217688   1.940   0.469   6.176  0.6604  0.4549  0.7458
 2018SOL     OW17689   1.654   4.219  11.778  0.0850 -0.4451 -0.0111
 2018SOL    HW117690   1.659   4.137  11.729 -0.4422 -1.2656  1.2959
 2018SOL    HW217691   1.615   4.191  11.861 -2.2212 -0.5405 -1.1536
 2019SOL     OW17692   4.480   0.303   2.586  0.2392  0.0373  0.5052
 2019SOL    HW117693   4.481   0.363   2.511  2.0911  0.4921  0.8881
 2019SOL    HW217694   4.517   0.224   2.546 -0.3092  0.1891 -0.3029
 2020SOL     OW17695   4.705   4.141   7.305 -0.2048 -0.2838 -0.2573
 2020SOL    HW117696   0.036   4.079   7.320  0.8550  0.8578 -0.5558
 2020SOL    HW217697   4.717   4.164   7.213 -1.9620  1.2542 -0.0962
 2021SOL     OW17698   2.523   1.622   2.792 -0.4348  0.2504 -0.2091
 2021SOL    HW117699   2.434   1.588   2.794  0.0207 -0.8598  1.1534
 2021SOL    HW217700   2.582   1.553   2.762  0.9697  1.1246  0.5178
 2022SOL     OW17701   2.751   2.262   1.674  0.0661 -0.3379  0.7370
 2022SOL    HW117702   2.829   2.317   1.677 -0.4383  0.3548  1.1522
 2022SOL    HW217703   2.717   2.291   1.759 -1.1088 -0.4388  0.3019
 2023SOL     OW17704   1.961   1.789   7.753  0.1571  0.3559 -0.1072
 2023SOL    HW117705   1.970   1.728   7.680 -0.2983  1.4661 -1.0888
 2023SOL    HW217706   1.870   1.773   7.777  0.3697  0.8404  1.0847
 2024SOL     OW17707   2.351   3.662  12.499 -0.4803  0.0570  0.9023
 2024SOL    HW117708   2.337   3.757  12.507 -0.9135 -0.0239  1.1011
 2024SOL    HW217709   2.403   3.655  12.418  0.5287 -0.3063  1.5763
 2025SOL     OW17710   0.598   3.512   6.979  0.2021 -0.0697  0.2543
 2025SOL    HW117711   0.648   3.589   7.005  1.4314 -0.9072  0.3825
 2025SOL    HW217712   0.641   3.445   7.033 -0.2552 -0.4321  0.1628
 2026SOL     OW17713   1.748   3.563   4.047 -0.6662  0.0510 -0.2785
 2026SOL    HW117714   1.771   3.545   3.956  1.1220 -0.9693  0.3716
 2026SOL    HW217715   1.764   3.656   4.058 -1.4150  0.0160  1.1081
 2027SOL     OW17716   3.382   0.348  10.916  0.0289 -0.2540  0.1252
 2027SOL    HW117717   3.423   0.266  10.889  1.5487  0.1870  1.0767
 2027SOL    HW217718   3.451   0.401  10.877 -0.1035  0.4530  0.8343
 2028SOL     OW17719   2.121   4.720   5.499 -0.6603 -0.2622 -0.3652
 2028SOL    HW117720   2.210   4.685   5.505 -0.4377  0.7028  2.0435
 2028SOL    HW217721   2.128   0.018   5.412 -3.0253  2.7351  0.7684
 2029SOL     OW17722   1.316   3.023   4.325 -0.0011  0.4179 -0.1300
 2029SOL    HW117723   1.394   3.072   4.351  0.0493 -0.3315  1.1257
 2029SOL    HW217724   1.280   3.003   4.412  2.4892 -0.9051  0.5912
 2030SOL     OW17725   3.583   3.326  13.702  0.3285 -0.0585 -0.5508
 2030SOL    HW117726   3.538   3.368  13.775  1.4072  2.4596 -1.3254
 2030SOL    HW217727   3.625   3.398  13.656 -0.0831  0.9611  0.6846
 2031SOL     OW17728   1.195   3.682   0.492  0.4120 -0.1373 -0.7944
 2031SOL    HW117729   1.244   3.763   0.510  0.6184 -0.2087 -1.0400
 2031SOL    HW217730   1.236   3.640   0.416 -0.3147 -0.0255 -1.2493
 2032SOL     OW17731   2.119   0.794   5.312 -0.1869 -0.2391 -0.3325
 2032SOL    HW117732   2.058   0.727   5.281 -0.3603 -0.5306  0.6255
 2032SOL    HW217733   2.201   0.774   5.267  1.1174  1.2216  1.4265
 2033SOL     OW17734   3.985   2.086   5.139 -0.2356  0.1222  0.3009
 2033SOL    HW117735   3.912   2.067   5.198 -2.7485  5.8953 -0.9283
 2033SOL    HW217736   3.969   2.168   5.093  2.2555  0.1589 -0.5158
 2034SOL     OW17737   3.004   2.912   3.002 -0.7712 -0.0870  0.4721
 2034SOL    HW117738   2.956   2.829   3.001  0.4372 -0.7955  1.4152
 2034SOL    HW217739   2.962   2.970   2.938 -0.3581  0.2168  0.4762
 2035SOL     OW17740   3.321   4.235  16.779  0.0139 -0.1084  0.5692
 2035SOL    HW117741   3.245   4.284  16.811 -0.1751 -1.5378  2.3404
 2035SOL    HW217742   3.320   4.159  16.837  2.1260 -1.1685 -0.7759
 2036SOL     OW17743   2.115   1.359  17.100 -0.4350 -0.2452 -0.2775
 2036SOL    HW117744   2.140   1.433  17.044 -1.4694 -0.1021 -0.5364
 2036SOL    HW217745   2.022   1.377  17.104 -0.3005  0.1300  1.0006
 2037SOL     OW17746   3.657   3.180   3.517 -0.0139 -0.1471  0.0215
 2037SOL    HW117747   3.671   3.163   3.610  1.8891  1.3465  0.0027
 2037SOL    HW217748   3.719   3.119   3.476  0.3099 -0.1964  0.5825
 2038SOL     OW17749   2.735   2.004  13.938 -0.4397  0.1473 -0.0659
 2038SOL    HW117750   2.648   1.984  13.902  0.3899  0.1965 -2.0449
 2038SOL    HW217751   2.739   2.099  13.931  1.3317 -0.0536 -1.6071
 2039SOL     OW17752   0.206   4.090   9.138 -0.0271  0.6883 -0.3753
 2039SOL    HW117753   0.132   4.118   9.191 -0.4024  1.7430 -1.4595
 2039SOL    HW217754   0.208   4.010   9.191 -0.2464 -0.7686 -2.5673
 2040SOL     OW17755   0.214   4.634   6.637 -0.5338  0.5571 -0.1750
 2040SOL    HW117756   0.245   4.725   6.643  1.0692 -0.0804  1.3150
 2040SOL    HW217757   0.238   4.613   6.547  2.8111  1.1897  0.5692
 2041SOL     OW17758   2.786   4.454   6.797 -0.1878 -0.0020 -0.3749
 2041SOL    HW117759   2.806   4.365   6.827 -0.2133  0.3327  0.6502
 2041SOL    HW217760   2.836   4.509   6.858 -2.1689  0.5790  0.6990
 2042SOL     OW17761   2.410   1.229   5.583  0.5477  0.3496  0.6602
 2042SOL    HW117762   2.417   1.320   5.557  1.1038 -0.3744 -1.7018
 2042SOL    HW217763   2.468   1.181   5.523 -3.5006 -1.6096 -1.6441
 2043SOL     OW17764   0.492   1.263   4.174 -0.0013 -0.2256 -0.1085
 2043SOL    HW117765   0.552   1.262   4.099 -0.5586 -1.6515 -0.5395
 2043SOL    HW217766   0.541   1.200   4.225  0.3372  0.5373  0.5071
 2044SOL     OW17767   3.781   3.551  15.988  0.2310 -0.3517 -0.0144
 2044SOL    HW117768   3.854   3.514  16.038  0.1958  0.0058  0.3035
 2044SOL    HW217769   3.714   3.490  16.019 -1.4944  1.4514 -0.1997
 2045SOL     OW17770   1.865   3.098   7.491  0.4608  0.0758  0.0943
 2045SOL    HW117771   1.936   3.148   7.450 -0.4541 -0.5021 -2.1797
 2045SOL    HW217772   1.822   3.062   7.413 -0.8979 -0.5457  1.1522
 2046SOL     OW17773   4.034   2.594   6.947 -0.1505  0.5380  0.7991
 2046SOL    HW117774   4.086   2.553   6.877 -1.5689  0.9678 -0.5311
 2046SOL    HW217775   3.957   2.537   6.952 -0.2025  0.5115 -0.2776
 2047SOL     OW17776   3.111   3.436   2.378  0.0954 -0.4897  0.7340
 2047SOL    HW117777   3.083   3.380   2.305  0.5749  0.7691 -0.4234
 2047SOL    HW217778   3.127   3.522   2.337 -1.5926  0.7360  2.6644
 2048SOL     OW17779   1.747   4.088   3.597  0.2665 -0.1983 -0.2985
 2048SOL    HW117780   1.756   4.039   3.515 -2.0794 -0.4834 -0.3803
 2048SOL    HW217781   1.837   4.120   3.607 -0.1097  1.3142 -1.7241
 2049SOL     OW17782   4.234   2.350  12.767  0.1059  0.2810  0.2609
 2049SOL    HW117783   4.164   2.413  12.786 -0.4887  0.4278 -2.2974
 2049SOL    HW217784   4.216   2.339  12.673 -1.0546  3.1368  0.1461
 2050SOL     OW17785   0.304   2.860   0.928  0.4300  0.1863  0.1739
 2050SOL    HW117786   0.266   2.946   0.910 -1.5213 -0.4334  1.3823
 2050SOL    HW217787   0.379   2.868   0.870 -0.4865 -1.4757 -1.2564
 2051SOL     OW17788   3.090   1.952  15.660 -0.0132  0.0812 -0.2049
 2051SOL    HW117789   3.169   1.951  15.714  0.0968  0.6748 -0.3537
 2051SOL    HW217790   3.042   2.022  15.705  0.4931  0.5227 -0.3546
 2052SOL     OW17791   3.043   3.798   6.603 -0.2247 -0.1320  0.0405
 2052SOL    HW117792   3.030   3.729   6.668 -0.2750 -1.2527 -1.1455
 2052SOL    HW217793   3.134   3.818   6.625 -0.0717  0.6376 -1.2783
 2053SOL     OW17794   0.118   2.375   4.780  0.5519 -0.5962 -0.0550
 2053SOL    HW117795   0.095   2.454   4.829  1.8350  0.7857 -1.6699
 2053SOL    HW217796   0.038   2.347   4.735 -0.2080 -0.4348  1.1816
 2054SOL     OW17797   3.134   2.874   1.758 -0.3443  0.0998  0.2706
 2054SOL    HW117798   3.048   2.910   1.738  0.2831  2.6884  2.3250
 2054SOL    HW217799   3.127   2.791   1.711  2.1889 -0.3575  0.6816
 2055SOL     OW17800   1.178   0.941  11.194  0.1610  0.3162 -0.0498
 2055SOL    HW117801   1.089   0.921  11.223  0.1157 -0.6015 -0.8217
 2055SOL    HW217802   1.200   0.859  11.150  1.0255  0.5814 -0.1044
 2056SOL     OW17803   1.073   3.391   3.810 -0.6055  0.4209 -0.4154
 2056SOL    HW117804   1.066   3.475   3.764  0.1212  0.4288 -0.5074
 2056SOL    HW217805   1.033   3.405   3.896  2.5324  1.6756  0.8186
 2057SOL     OW17806   4.496   2.666  15.611  0.4662  0.3210  0.2311
 2057SOL    HW117807   4.470   2.574  15.623  0.0917  0.7365  2.5664
 2057SOL    HW217808   4.510   2.697  15.700  0.2024 -2.0547  1.1051
 2058SOL     OW17809   3.641   1.732   0.289  0.8747 -0.2404 -0.4299
 2058SOL    HW117810   3.562   1.782   0.273  0.0111 -1.5772 -0.3751
 2058SOL    HW217811   3.643   1.694   0.201 -1.3664 -3.6062  0.9846
 2059SOL     OW17812   3.871   2.864   0.754 -0.2014  0.0989  0.1340
 2059SOL    HW117813   3.862   2.958   0.740  1.7537  0.0679 -1.3464
 2059SOL    HW217814   3.939   2.837   0.692 -0.5007  0.0382 -0.1677
 2060SOL     OW17815   3.303   0.032   1.629 -0.3765 -0.3857 -0.4221
 2060SOL    HW117816   3.241   0.070   1.568 -1.2515 -0.6588  0.2981
 2060SOL    HW217817   3.266   4.687   1.651  0.3999  0.0935  2.8579
 2061SOL     OW17818   1.047   0.975   6.177  0.0845 -0.3075 -0.4820
 2061SOL    HW117819   1.056   0.989   6.271 -1.1984 -0.0779 -0.3924
 2061SOL    HW217820   1.118   1.033   6.148 -1.4624  1.7071 -0.2438
 2062SOL     OW17821   3.080   1.711   7.466  0.3282  0.4565  0.2190
 2062SOL    HW117822   3.097   1.803   7.451 -0.2101  0.3726 -0.8620
 2062SOL    HW217823   2.985   1.711   7.454  0.4964 -3.4573 -1.1217
 2063SOL     OW17824   0.023   0.576  17.498  0.1900  0.7399  0.2513
 2063SOL    HW117825   0.113   0.584  17.467  0.1378  3.1300  0.7193
 2063SOL    HW217826   4.733   0.666  17.488  2.9518  1.6239 -0.2665
 2064SOL     OW17827   3.397   2.120   3.177  0.5151  0.3047 -0.0168
 2064SOL    HW117828   3.377   2.061   3.250  0.1077 -0.1984 -0.5392
 2064SOL    HW217829   3.440   2.067   3.110  1.0326  2.6055 -1.5237
 2065SOL     OW17830   2.051   2.982  14.132  0.5310 -0.4575  0.2875
 2065SOL    HW117831   2.034   3.039  14.057 -0.8135 -0.3248  0.6860
 2065SOL    HW217832   1.981   2.924  14.102  1.8945 -2.1893  0.5105
 2066SOL     OW17833   0.968   3.583   7.027 -0.3217  0.0365 -0.4539
 2066SOL    HW117834   1.046   3.541   7.063  1.7106  2.0872 -2.4374
 2066SOL    HW217835   0.907   3.557   7.097 -0.6654  3.8947  0.7084
 2067SOL     OW17836   0.647   3.629   5.518  0.3132 -0.2693 -0.1327
 2067SOL    HW117837   0.720   3.600   5.574  1.6180  1.2062 -1.0703
 2067SOL    HW217838   0.694   3.702   5.478 -0.1389  0.2072  0.2157
 2068SOL     OW17839   3.522   2.697   6.438 -0.3348 -1.0459 -0.3024
 2068SOL    HW117840   3.439   2.660   6.410 -0.7802 -1.1443  1.1402
 2068SOL    HW217841   3.539   2.769   6.377  0.3064 -0.2735  0.7860
 2069SOL     OW17842   1.090   3.192   7.376 -0.1295  0.1329 -0.3800
 2069SOL    HW117843   1.105   3.284   7.399 -1.4156 -0.2400  1.9379
 2069SOL    HW217844   1.044   3.193   7.292 -2.2548  3.3524  0.8028
 2070SOL     OW17845   0.439   1.014   3.342 -0.1060  0.4452  0.2405
 2070SOL    HW117846   0.468   0.948   3.405  0.1652 -0.1739 -0.5392
 2070SOL    HW217847   0.523   1.033   3.302 -0.7078 -1.1664 -1.7802
 2071SOL     OW17848   0.467   0.343   6.638  0.1696  0.0210  0.0115
 2071SOL    HW117849   0.557   0.327   6.609  0.1769  0.5277 -0.2611
 2071SOL    HW217850   0.460   0.437   6.623  0.6711  0.1207  0.4126
 2072SOL     OW17851   1.918   2.612   3.367  0.1314 -0.3319 -0.3141
 2072SOL    HW117852   1.979   2.553   3.412  0.7072  1.1460  0.8414
 2072SOL    HW217853   1.866   2.550   3.316  0.6683 -2.6398  1.9424
 2073SOL     OW17854   1.603   4.496  11.829 -0.5605  0.2465 -0.3913
 2073SOL    HW117855   1.675   4.522  11.886 -0.3230  0.9465 -1.0133
 2073SOL    HW217856   1.625   4.407  11.802  0.3915 -0.8583  4.0906
 2074SOL     OW17857   1.263   2.089   4.959 -0.2129 -0.2941 -0.2002
 2074SOL    HW117858   1.303   2.090   5.046  0.5665 -1.9688 -0.5333
 2074SOL    HW217859   1.237   1.997   4.947 -1.5132 -0.1476  1.3539
 2075SOL     OW17860   1.409   1.943  15.117 -0.2737  0.1641 -0.2043
 2075SOL    HW117861   1.421   1.866  15.173 -0.5224  1.1164  1.1517
 2075SOL    HW217862   1.314   1.947  15.108 -0.3786  0.7312  1.0851
 2076SOL     OW17863   4.334   3.799   6.971  0.7463  0.3763 -0.0486
 2076SOL    HW117864   4.387   3.866   7.015 -1.0781 -0.1072  2.8629
 2076SOL    HW217865   4.333   3.733   7.039 -0.0878 -0.2356 -0.6674
 2077SOL     OW17866   1.018   1.006   9.795 -0.1278  0.3529 -0.1022
 2077SOL    HW117867   0.946   1.043   9.744 -1.9110  0.3111  2.4111
 2077SOL    HW217868   1.055   0.944   9.732  1.6829 -0.0966  1.4063
 2078SOL     OW17869   0.831   0.834  10.273  0.5913  0.0513  0.3301
 2078SOL    HW117870   0.866   0.803  10.189 -1.1245  1.8170 -1.0409
 2078SOL    HW217871   0.739   0.817  10.256  0.3000  1.6294  0.3523
 2079SOL     OW17872   4.727   1.278   0.595  0.3148 -0.0053  0.1146
 2079SOL    HW117873   4.650   1.301   0.544  1.5722 -0.6848 -2.1089
 2079SOL    HW217874   4.702   1.306   0.683 -0.4905 -1.0377  0.2179
 2080SOL     OW17875   3.422   3.595  10.508 -0.1815  0.1113 -0.4422
 2080SOL    HW117876   3.351   3.658  10.521 -0.4249 -0.7931  2.7251
 2080SOL    HW217877   3.379   3.538  10.444  1.5122 -0.1287 -1.3549
 2081SOL     OW17878   1.955   2.543   9.031  0.8036  0.3691 -0.0884
 2081SOL    HW117879   1.948   2.496   8.948  0.3150 -1.7339  1.1435
 2081SOL    HW217880   1.862   2.554   9.051  0.5797  0.1614 -1.0463
 2082SOL     OW17881   3.445   3.541   5.843 -0.0811  0.2396  0.4038
 2082SOL    HW117882   3.409   3.461   5.882 -0.5275  0.2321 -0.0179
 2082SOL    HW217883   3.424   3.519   5.752  1.8782  0.9546 -0.2130
 2083SOL     OW17884   2.459   3.070   7.621 -0.7194 -0.2750 -0.7771
 2083SOL    HW117885   2.411   3.009   7.565  0.4310 -1.7575 -0.1670
 2083SOL    HW217886   2.458   3.029   7.708  0.8457 -0.8335 -1.0092
 2084SOL     OW17887   4.722   1.344  15.093 -0.6420 -0.2895  0.0975
 2084SOL    HW117888   4.724   1.249  15.095  1.5567 -0.2141  1.1783
 2084SOL    HW217889   0.041   1.377  15.027 -1.4536 -0.9031 -0.9415
 2085SOL     OW17890   0.772   1.775   3.463  0.2660 -0.3374  0.3943
 2085SOL    HW117891   0.789   1.772   3.369  1.4377 -1.7876  0.6621
 2085SOL    HW217892   0.677   1.773   3.477 -0.2072  2.6708 -2.2131
 2086SOL     OW17893   3.417   0.629   5.975 -0.3841  0.2215 -0.0913
 2086SOL    HW117894   3.424   0.628   5.879  0.5907  1.0783 -0.0260
 2086SOL    HW217895   3.508   0.624   6.003 -0.9200 -0.5562  1.4888
 2087SOL     OW17896   0.691   3.924   0.585 -0.9958 -0.0844  0.3095
 2087SOL    HW117897   0.777   3.919   0.545 -0.7483  1.5362  0.6567
 2087SOL    HW217898   0.703   3.866   0.661 -0.1558 -0.0730  0.1795
 2088SOL     OW17899   4.384   3.609   4.281 -0.1515 -0.0758  0.3101
 2088SOL    HW117900   4.322   3.592   4.210  0.4287 -1.1941  0.0740
 2088SOL    HW217901   4.355   3.536   4.336  0.0753  1.8479  2.9892
 2089SOL     OW17902   4.384   3.780   2.614  0.0012  0.0745 -0.4302
 2089SOL    HW117903   4.390   3.758   2.707 -0.2525 -0.5956 -0.5724
 2089SOL    HW217904   4.298   3.823   2.611  1.0410  2.0963 -1.4491
 2090SOL     OW17905   3.595   3.890  16.047  0.7505 -0.2069  0.2448
 2090SOL    HW117906   3.546   3.818  16.007 -1.1834  0.8710  0.6928
 2090SOL    HW217907   3.523   3.941  16.084  2.5379  0.6747  2.4993
 2091SOL     OW17908   2.717   1.775  10.765  0.7548 -0.9138  0.1179
 2091SOL    HW117909   2.727   1.798  10.858  1.3989 -1.2247  0.1248
 2091SOL    HW217910   2.696   1.857  10.721  0.7908 -0.5718  0.7417
 2092SOL     OW17911   3.258   0.787  11.792  0.6196  0.3398 -0.2591
 2092SOL    HW117912   3.193   0.780  11.863 -1.4304 -1.0104 -2.2831
 2092SOL    HW217913   3.205   0.746  11.724 -1.3841  3.7499 -0.7128
 2093SOL     OW17914   3.336   3.720  13.044 -0.7364 -0.4522  0.4958
 2093SOL    HW117915   3.317   3.684  12.957  0.7546  0.3194 -0.1616
 2093SOL    HW217916   3.263   3.684  13.093 -2.5537  0.6376 -1.4014
 2094SOL     OW17917   2.791   2.441  13.290 -0.3284 -0.2242  0.0701
 2094SOL    HW117918   2.778   2.415  13.199 -0.7980 -0.9317  0.3426
 2094SOL    HW217919   2.846   2.518  13.277  2.6540 -2.3574  0.0356
 2095SOL     OW17920   3.193   1.333   7.286 -0.1650 -0.1751 -0.1895
 2095SOL    HW117921   3.104   1.368   7.276  0.7677  2.9982  2.6837
 2095SOL    HW217922   3.244   1.377   7.219  0.7410  0.6170  1.0272
 2096SOL     OW17923   4.662   0.082   7.214  0.1686 -0.1729  0.3473
 2096SOL    HW117924   4.670   4.730   7.190 -0.4790 -0.1831  0.1556
 2096SOL    HW217925   4.644   0.068   7.307  1.5139  0.0192  0.6328
 2097SOL     OW17926   3.224   1.947  14.976  0.0565  0.7817  0.2842
 2097SOL    HW117927   3.204   2.039  14.959  1.0183  0.9987  0.3478
 2097SOL    HW217928   3.254   1.913  14.892 -0.5155  0.6495  0.1312
 2098SOL     OW17929   2.687   4.369   0.187  0.3016  0.4126 -0.2758
 2098SOL    HW117930   2.631   4.302   0.146 -0.3217  0.7579  0.0214
 2098SOL    HW217931   2.656   4.453   0.154  1.1716  1.0631  0.5683
 2099SOL     OW17932   3.474   4.592   8.740  0.4270 -0.2317 -0.0115
 2099SOL    HW117933   3.523   4.515   8.770  0.4379  0.1131  0.8521
 2099SOL    HW217934   3.539   4.635   8.683 -0.3947 -0.7647 -1.3535
 2100SOL     OW17935   3.436   4.299   2.655  0.3463  0.2981 -0.0346
 2100SOL    HW117936   3.530   4.302   2.673  0.2794 -0.4052  0.4441
 2100SOL    HW217937   3.430   4.314   2.561  2.2880 -0.0504 -0.2114
 2101SOL     OW17938   2.023   2.186  12.443 -0.0527 -0.0001 -0.8459
 2101SOL    HW117939   1.964   2.123  12.401 -1.2025  0.1462  0.5390
 2101SOL    HW217940   1.970   2.254  12.486 -1.5580 -1.0053 -1.1034
 2102SOL     OW17941   0.848   1.685   1.963 -0.5384  0.2076 -0.0033
 2102SOL    HW117942   0.759   1.652   1.954 -0.6797  0.3035  1.0415
 2102SOL    HW217943   0.834   1.750   2.031  0.7336 -1.3586  1.7667
 2103SOL     OW17944   2.797   2.947   5.005  0.2873 -0.3361 -0.7592
 2103SOL    HW117945   2.725   2.964   4.944 -1.6904 -0.9474  1.4033
 2103SOL    HW217946   2.868   2.980   4.950 -0.8816  1.0496 -1.4625
 2104SOL     OW17947   2.617   3.395  11.616 -0.5145 -0.0762 -0.6881
 2104SOL    HW117948   2.595   3.364  11.704 -0.1770 -0.0976 -0.6105
 2104SOL    HW217949   2.565   3.334  11.565 -0.3780 -0.6047 -0.1877
 2105SOL     OW17950   3.303   2.957   8.609  0.7347 -0.0808  0.0424
 2105SOL    HW117951   3.279   3.022   8.543  1.1989 -0.4557 -0.4936
 2105SOL    HW217952   3.225   2.901   8.614  1.9904 -1.8379  0.1707
 2106SOL     OW17953   3.398   0.194   2.399 -0.3360 -0.2090 -0.4751
 2106SOL    HW117954   3.441   0.228   2.477 -2.2548  1.3926 -0.1231
 2106SOL    HW217955   3.446   0.247   2.335  2.8386 -1.3412  0.9460
 2107SOL     OW17956   3.043   2.169  15.809 -0.1030 -0.0117  0.9268
 2107SOL    HW117957   3.097   2.232  15.858  0.1480  1.8178 -1.6364
 2107SOL    HW217958   2.951   2.193  15.820  0.3553  1.4039  1.6600
 2108SOL     OW17959   0.541   0.094   1.209  0.1787  0.1546 -0.1097
 2108SOL    HW117960   0.506   0.032   1.145  1.6388  1.3526 -2.0917
 2108SOL    HW217961   0.510   0.172   1.163 -1.3060 -1.5123 -1.9016
 2109SOL     OW17962   1.679   0.679   2.882  0.3286  0.5587  0.2731
 2109SOL    HW117963   1.595   0.718   2.858  0.7905  0.3235 -1.7206
 2109SOL    HW217964   1.699   0.738   2.954 -0.6441  1.0592  0.1320
 2110SOL     OW17965   0.103   2.614   7.984  0.2176  0.3699 -0.5041
 2110SOL    HW117966   0.017   2.630   8.022 -0.7232 -0.2417 -2.3685
 2110SOL    HW217967   0.122   2.701   7.948  0.9748  2.2229  4.4000
 2111SOL     OW17968   3.157   0.714   8.288  0.5804 -0.6633 -0.1853
 2111SOL    HW117969   3.152   0.757   8.203 -4.2610  1.1845  1.0357
 2111SOL    HW217970   3.224   0.649   8.266  2.8233  0.6951  2.5730
 2112SOL     OW17971   3.013   4.155   6.137  0.3313  0.1843  0.4821
 2112SOL    HW117972   2.959   4.233   6.125  0.9860  0.2746 -2.0633
 2112SOL    HW217973   3.022   4.151   6.232 -0.9234 -0.8057  0.5585
 2113SOL     OW17974   2.202   4.015   6.253 -0.0167 -0.0293  0.0267
 2113SOL    HW117975   2.258   4.034   6.328  0.1258 -1.5314  0.3080
 2113SOL    HW217976   2.208   3.922   6.232 -0.8067 -0.3414  1.1897
 2114SOL     OW17977   4.004   0.514  13.529  0.5246 -0.3710  0.0758
 2114SOL    HW117978   3.933   0.454  13.553  1.9409 -1.6927  1.0273
 2114SOL    HW217979   4.017   0.558  13.613  0.1443  0.5576 -0.3524
 2115SOL     OW17980   0.871   2.739   1.916 -0.2577  0.7368 -0.2384
 2115SOL    HW117981   0.856   2.664   1.858  1.2599  0.1912  0.0679
 2115SOL    HW217982   0.781   2.761   1.942 -0.0952 -0.4459  1.2847
 2116SOL     OW17983   2.671   3.516   4.330 -0.0148  0.0022 -0.2164
 2116SOL    HW117984   2.652   3.555   4.245 -0.3983 -1.7901 -0.9430
 2116SOL    HW217985   2.586   3.518   4.375 -0.6697 -0.3946 -1.4481
 2117SOL     OW17986   1.426   3.956   7.047 -0.2679 -0.5496  0.1918
 2117SOL    HW117987   1.519   3.962   7.067 -0.5370  1.7619  0.7631
 2117SOL    HW217988   1.393   3.988   7.131 -2.8975 -1.3869 -0.5063
 2118SOL     OW17989   1.595   1.196   6.344  0.4125 -0.0852 -0.1843
 2118SOL    HW117990   1.528   1.130   6.358 -0.2317  0.1581 -2.0157
 2118SOL    HW217991   1.572   1.271   6.398  3.8538  1.1201 -0.4078
 2119SOL     OW17992   3.415   3.695   4.970  0.0746 -0.2521  0.1766
 2119SOL    HW117993   3.373   3.624   5.018  2.8253 -3.0400 -1.5561
 2119SOL    HW217994   3.470   3.658   4.901 -0.5310  0.2465 -0.5892
 2120SOL     OW17995   3.302   4.390   9.070 -0.4564  0.0864  0.7272
 2120SOL    HW117996   3.280   4.424   8.983 -0.8345 -0.1018  0.7506
 2120SOL    HW217997   3.295   4.468   9.124  2.4329  1.3689 -0.7475
 2121SOL     OW17998   1.382   3.020   5.794  0.4899 -0.1561 -0.1885
 2121SOL    HW117999   1.292   3.018   5.827 -0.0339  2.5022 -1.5022
 2121SOL    HW218000   1.378   3.051   5.704 -1.2833  0.1090 -0.0189
 2122SOL     OW18001   3.576   1.500   7.357 -0.0759  0.6815 -0.4132
 2122SOL    HW118002   3.535   1.463   7.279 -1.3565  2.2585 -0.5041
 2122SOL    HW218003   3.627   1.573   7.322 -0.3359  0.9504 -0.2425
 2123SOL     OW18004   0.304   1.760   6.353 -0.0170 -0.6314 -0.6757
 2123SOL    HW118005   0.267   1.674   6.332 -1.5123 -0.3597  0.8007
 2123SOL    HW218006   0.257   1.820   6.295  3.7943  2.1175 -0.8662
 2124SOL     OW18007   3.976   0.989  14.277  0.2911 -0.0666  0.4515
 2124SOL    HW118008   3.954   0.919  14.338  3.0742 -1.4734 -0.1254
 2124SOL    HW218009   3.958   0.962  14.187 -0.7039  0.2959  0.5476
 2125SOL     OW18010   4.421   4.324   7.692  0.6562 -0.0611 -0.2250
 2125SOL    HW118011   4.501   4.305   7.643  1.3489  1.6431  0.2338
 2125SOL    HW218012   4.406   4.416   7.671 -1.8554 -0.4698 -0.1836
 2126SOL     OW18013   1.599   4.652   3.604 -0.4027  0.2657 -0.0578
 2126SOL    HW118014   1.616   4.684   3.692  0.8442  1.7157 -0.8224
 2126SOL    HW218015   1.539   4.721   3.573  0.1847  0.9319  0.2869
 2127SOL     OW18016   0.693   2.119   8.755 -0.3956 -0.1000  0.7427
 2127SOL    HW118017   0.713   2.073   8.674  0.2952 -0.5088  1.1474
 2127SOL    HW218018   0.782   2.142   8.783  0.6901  1.3255 -3.9723
 2128SOL     OW18019   2.234   4.450   4.123 -0.0838 -0.0742  0.5113
 2128SOL    HW118020   2.215   4.380   4.186  0.3722 -1.1315 -0.5237
 2128SOL    HW218021   2.291   4.501   4.180 -0.3280  0.0941  0.6041
 2129SOL     OW18022   4.111   2.831   6.150  0.2931 -0.3779 -0.4218
 2129SOL    HW118023   4.184   2.769   6.154 -0.5403 -1.4211 -1.4386
 2129SOL    HW218024   4.045   2.812   6.218 -0.1840 -0.9886 -1.0553
 2130SOL     OW18025   4.624   4.469   1.864  0.0451  0.3714  0.2309
 2130SOL    HW118026   4.582   4.406   1.807 -1.0665  1.3035  0.0116
 2130SOL    HW218027   4.654   4.417   1.939 -0.9647  0.2860  0.5669
 2131SOL     OW18028   3.418   4.166   6.038 -0.1445 -0.5475  0.3953
 2131SOL    HW118029   3.411   4.144   6.131 -0.2427  1.4677  0.8674
 2131SOL    HW218030   3.505   4.205   6.043 -0.6733  0.8971 -1.8671
 2132SOL     OW18031   4.080   1.438   2.577  0.2501  0.4202  0.3066
 2132SOL    HW118032   4.172   1.466   2.575  0.6948 -1.0336  0.1761
 2132SOL    HW218033   4.031   1.494   2.517 -1.5369  0.2942  1.6460
 2133SOL     OW18034   3.564   0.144  11.070 -0.5334 -0.4592  0.5322
 2133SOL    HW118035   3.552   0.116  11.161  3.4135 -0.7586  0.9879
 2133SOL    HW218036   3.479   0.127  11.030 -1.5600  2.5925  1.3887
 2134SOL     OW18037   1.314   4.457   8.691  0.1347 -0.0089 -0.2698
 2134SOL    HW118038   1.228   4.496   8.679 -0.3958 -0.6245  1.5270
 2134SOL    HW218039   1.310   4.399   8.767  0.6190 -1.2197 -1.1672
 2135SOL     OW18040   1.055   0.333  16.074 -0.0884  0.2731 -0.3572
 2135SOL    HW118041   1.082   0.267  16.010 -1.6810 -0.8027  0.0871
 2135SOL    HW218042   0.968   0.306  16.104  0.1846  1.1816  1.2531
 2136SOL     OW18043   1.271   2.666   8.961  0.2273 -0.4983  0.1555
 2136SOL    HW118044   1.313   2.594   8.915  2.0749  0.3421  0.4979
 2136SOL    HW218045   1.315   2.734   8.909 -0.8397  0.7699  0.8953
 2137SOL     OW18046   1.742   2.501   3.174  0.2681  0.7831 -0.4610
 2137SOL    HW118047   1.790   2.430   3.133 -2.3090 -1.7769  0.9305
 2137SOL    HW218048   1.663   2.495   3.121 -2.0953 -0.4604  3.1831
 2138SOL     OW18049   2.679   1.173   6.078  0.0368  0.3335  0.5150
 2138SOL    HW118050   2.712   1.133   6.158 -0.4712  0.3627  0.7387
 2138SOL    HW218051   2.731   1.124   6.014  0.9757  0.4046  1.2190
 2139SOL     OW18052   0.317   2.421   5.087  0.1622  0.2488 -0.0718
 2139SOL    HW118053   0.263   2.495   5.113  3.9865  2.2064  2.3139
 2139SOL    HW218054   0.361   2.396   5.168  0.3214  0.9047  0.0474
 2140SOL     OW18055   1.130   2.522  16.987 -0.1810  0.1816  0.0842
 2140SOL    HW118056   1.097   2.439  17.022 -1.6750 -0.0715 -1.8894
 2140SOL    HW218057   1.174   2.563  17.061 -0.4475  0.2837  0.1882
 2141SOL     OW18058   0.688   1.264  16.241 -0.1187 -0.3379 -0.4871
 2141SOL    HW118059   0.747   1.250  16.315 -0.3363 -1.3615 -0.5015
 2141SOL    HW218060   0.711   1.192  16.181  1.5058 -0.6688  0.5320
 2142SOL     OW18061   4.263   4.420   1.006 -0.7334 -0.4775 -0.6098
 2142SOL    HW118062   4.327   4.491   1.000 -1.4226 -0.1308 -3.8325
 2142SOL    HW218063   4.316   4.341   1.002  2.5091  1.7254 -0.8039
 2143SOL     OW18064   4.289   1.842   6.719  0.1180  0.3660 -0.4714
 2143SOL    HW118065   4.329   1.847   6.806 -0.8323 -3.1476  0.1391
 2143SOL    HW218066   4.281   1.747   6.711 -1.9339  0.5826 -0.9190
 2144SOL     OW18067   3.944   3.940   5.720 -0.4432 -0.0480  0.0004
 2144SOL    HW118068   3.990   3.856   5.714 -0.0599  0.0327  1.9507
 2144SOL    HW218069   3.870   3.917   5.776 -0.8674 -0.7281 -0.8445
 2145SOL     OW18070   0.454   0.516   4.097  0.3076  0.1880  0.5733
 2145SOL    HW118071   0.426   0.492   4.186  1.3362  2.0310  1.3852
 2145SOL    HW218072   0.544   0.483   4.090  1.0241  1.9286  1.5674
 2146SOL     OW18073   1.970   2.055   2.182  0.1071 -0.4482 -0.3722
 2146SOL    HW118074   1.991   2.061   2.089 -0.6596 -1.9187 -0.6444
 2146SOL    HW218075   2.053   2.014   2.206 -0.3943  0.1809  2.4567
 2147SOL     OW18076   4.408   2.647  10.063  0.6243 -0.4012  0.4656
 2147SOL    HW118077   4.386   2.575  10.004  0.9886 -0.5435  0.5081
 2147SOL    HW218078   4.328   2.699  10.058  0.7292 -0.2685  0.1524
 2148SOL     OW18079   2.970   4.017  15.452 -0.5396 -0.5830  0.6991
 2148SOL    HW118080   2.979   3.926  15.424  0.6562 -0.0065 -0.7851
 2148SOL    HW218081   2.906   4.062  15.395  0.8638  0.8798  0.2805
 2149SOL     OW18082   1.504   3.960   6.205 -0.0947 -0.2897 -0.0695
 2149SOL    HW118083   1.439   3.898   6.237 -1.1575  0.4708 -0.7294
 2149SOL    HW218084   1.471   4.046   6.229  2.2146  0.7354 -0.5109
 2150SOL     OW18085   1.431   0.870   9.892 -0.9718 -0.2329 -0.7463
 2150SOL    HW118086   1.517   0.893   9.858 -0.6901 -2.0372 -1.2002
 2150SOL    HW218087   1.420   0.784   9.852  3.1104 -1.3114  0.4116
 2151SOL     OW18088   0.755   3.120   8.380  0.0386  0.0060  0.7795
 2151SOL    HW118089   0.697   3.073   8.440 -2.0109  0.4918 -0.8291
 2151SOL    HW218090   0.737   3.076   8.297 -0.7769  1.2295  0.3036
 2152SOL     OW18091   0.251   3.892   9.368  0.5058 -0.1449 -0.5036
 2152SOL    HW118092   0.275   3.802   9.343  1.6530  0.0830 -0.2452
 2152SOL    HW218093   0.184   3.877   9.435  1.5800 -1.2895  0.3244
 2153SOL     OW18094   0.926   4.110   3.873  0.0145 -0.3851 -1.0323
 2153SOL    HW118095   0.941   4.015   3.873  1.6304 -0.1379  2.5958
 2153SOL    HW218096   0.861   4.118   3.803 -1.5463  2.5595  0.7934
 2154SOL     OW18097   3.470   1.509   6.061  0.2059  0.1005 -0.1652
 2154SOL    HW118098   3.515   1.548   6.136 -0.8673 -0.5445  0.8183
 2154SOL    HW218099   3.386   1.555   6.055 -0.9235 -2.2631 -2.0177
 2155SOL     OW18100   2.660   0.617   2.898 -0.4414  0.2142 -0.4423
 2155SOL    HW118101   2.648   0.644   2.807  1.0887 -2.0614 -1.3273
 2155SOL    HW218102   2.750   0.650   2.907  0.1042 -0.1231 -4.9285
 2156SOL     OW18103   2.065   4.633  15.878 -0.3936 -0.0822 -0.0425
 2156SOL    HW118104   2.092   4.632  15.970 -0.2559 -0.0892 -0.0828
 2156SOL    HW218105   2.145   4.661  15.834 -0.0294 -1.7767 -0.4434
 2157SOL     OW18106   3.057   3.807  13.490 -0.5672  0.2304  0.7202
 2157SOL    HW118107   3.011   3.796  13.573  0.1109 -0.7215  0.9660
 2157SOL    HW218108   3.102   3.890  13.509 -0.3178  0.3644 -0.4351
 2158SOL     OW18109   0.607   0.985   2.920 -0.0921 -0.1424 -0.4166
 2158SOL    HW118110   0.569   0.974   2.833  1.7252 -2.1406 -0.9407
 2158SOL    HW218111   0.659   0.907   2.940 -0.3166 -0.2434 -0.2196
 2159SOL     OW18112   3.875   3.230   8.985  0.0410 -0.7425 -0.3590
 2159SOL    HW118113   3.820   3.308   8.989 -0.5078 -1.1433 -0.0577
 2159SOL    HW218114   3.869   3.199   9.076  2.8852  1.2046  0.4926
 2160SOL     OW18115   0.164   0.018   3.999  0.1742  0.3241  0.3963
 2160SOL    HW118116   0.085   0.072   4.000 -0.7898 -1.0886  0.4200
 2160SOL    HW218117   0.170   4.726   3.910 -0.1171  1.8735 -0.1912
 2161SOL     OW18118   2.741   4.173   8.000  0.3295 -0.6530 -0.4334
 2161SOL    HW118119   2.824   4.208   7.967 -0.5853  3.3602  1.5038
 2161SOL    HW218120   2.760   4.164   8.094 -0.3571 -1.4347 -0.3751
 2162SOL     OW18121   4.156   3.982   5.497  0.0431 -0.3684  0.2560
 2162SOL    HW118122   4.130   3.952   5.584 -0.7634  0.6964  0.3742
 2162SOL    HW218123   4.194   3.898   5.471  2.0980  0.2149  1.3927
 2163SOL     OW18124   0.731   1.518   7.683  0.0572 -0.1609 -0.2629
 2163SOL    HW118125   0.694   1.541   7.598  1.9118  1.9035 -0.5151
 2163SOL    HW218126   0.723   1.423   7.694 -2.6337  0.1819  0.6986
 2164SOL     OW18127   3.129   3.331   3.698 -0.2670  0.6219  0.4338
 2164SOL    HW118128   3.210   3.372   3.729  0.7355 -0.5792 -0.6191
 2164SOL    HW218129   3.092   3.402   3.646  0.8189 -0.9858 -2.5154
 2165SOL     OW18130   1.027   3.956   2.994  0.1626 -0.0380  0.7928
 2165SOL    HW118131   1.059   4.001   3.072 -0.5536  0.7306  0.6399
 2165SOL    HW218132   0.937   3.988   3.001  0.3010  0.3420  0.8133
 2166SOL     OW18133   1.276   2.601  11.523  0.3474 -0.3962 -0.4352
 2166SOL    HW118134   1.282   2.549  11.603  1.0815  2.9071  1.6438
 2166SOL    HW218135   1.370   2.616  11.511 -0.1511  2.1817 -1.1406
 2167SOL     OW18136   0.674   0.661   7.466  0.8628  0.5297  0.0288
 2167SOL    HW118137   0.694   0.731   7.404 -0.1632 -0.9159 -1.9353
 2167SOL    HW218138   0.604   0.696   7.522  0.3935  0.0439 -0.2521
 2168SOL     OW18139   3.353   4.603   2.151 -0.1696  0.1648  0.3164
 2168SOL    HW118140   3.260   4.612   2.132 -0.5164  1.9029  2.7662
 2168SOL    HW218141   3.358   4.637   2.241 -1.5669  2.4413 -0.4667
 2169SOL     OW18142   3.836   2.918   4.192 -0.2120 -0.2600 -0.3999
 2169SOL    HW118143   3.746   2.932   4.161 -0.1078 -0.0024 -0.5865
 2169SOL    HW218144   3.880   2.957   4.116 -0.6413  0.1499 -0.4411
 2170SOL     OW18145   3.609   2.683   5.601  0.4671 -0.1912 -0.3184
 2170SOL    HW118146   3.574   2.769   5.577  0.1712 -0.0078  0.7809
 2170SOL    HW218147   3.526   2.635   5.606  0.5497 -0.6019 -2.8884
 2171SOL     OW18148   1.524   2.574   9.791  0.4979 -0.1533  0.1531
 2171SOL    HW118149   1.544   2.651   9.738 -1.0453 -0.1704 -0.4488
 2171SOL    HW218150   1.547   2.592   9.882 -1.8217  1.6267  0.3757
 2172SOL     OW18151   4.293   2.305  10.181 -0.3685  0.0767 -0.1421
 2172SOL    HW118152   4.211   2.291  10.134  0.0382  1.7524 -1.3465
 2172SOL    HW218153   4.294   2.396  10.154 -5.0051 -0.8925 -3.4897
 2173SOL     OW18154   4.049   4.242  14.315  0.2723 -0.4944  0.2640
 2173SOL    HW118155   3.977   4.212  14.369 -1.0611 -1.5168 -2.0920
 2173SOL    HW218156   4.094   4.302  14.374  0.3379  0.3747 -0.6670
 2174SOL     OW18157   2.748   3.008  13.253 -0.1007 -0.7257 -0.3982
 2174SOL    HW118158   2.760   3.060  13.332  1.8917  0.4589 -1.4808
 2174SOL    HW218159   2.837   2.989  13.224  0.7096  2.7159 -0.1610
 2175SOL     OW18160   1.008   4.096   7.003 -0.4461 -0.1212 -0.3948
 2175SOL    HW118161   1.062   4.143   7.066  0.4399 -0.8423 -0.6132
 2175SOL    HW218162   1.033   4.005   7.018 -0.9865 -0.0660  0.8262
 2176SOL     OW18163   1.593   1.886   9.208  0.2318 -0.4321 -0.0638
 2176SOL    HW118164   1.512   1.835   9.208  0.0751 -0.1527 -2.0555
 2176SOL    HW218165   1.666   1.825   9.217  1.9722  1.3645 -1.8988
 2177SOL     OW18166   2.886   2.244   3.448  0.2621 -0.4164 -0.1767
 2177SOL    HW118167   2.942   2.297   3.392  0.7964  0.4665  1.1903
 2177SOL    HW218168   2.960   2.190   3.477 -0.5772 -0.9824  0.9098
 2178SOL     OW18169   0.809   4.735   6.079  0.3802 -0.3331 -0.2888
 2178SOL    HW118170   0.732   4.689   6.111  0.5782  0.1802  0.9196
 2178SOL    HW218171   0.796   4.705   5.989  1.2589  0.1287 -0.5706
 2179SOL     OW18172   4.146   3.803   5.018  0.1156 -0.0275  0.4482
 2179SOL    HW118173   4.085   3.734   4.992  0.0689  0.4348 -0.6720
 2179SOL    HW218174   4.090   3.875   5.046 -1.1040 -0.5105 -0.7754
 2180SOL     OW18175   3.220   3.577  11.630 -0.6868 -0.3276  0.1185
 2180SOL    HW118176   3.259   3.661  11.606  0.3210 -0.5089  1.0755
 2180SOL    HW218177   3.296   3.518  11.627  0.0919  0.7503 -1.3502
 2181SOL     OW18178   4.108   3.262  16.284 -0.3462 -0.5969 -0.4623
 2181SOL    HW118179   4.148   3.232  16.366  1.7204 -0.4528 -1.4292
 2181SOL    HW218180   4.178   3.282  16.222 -0.9367 -1.0833 -1.2867
 2182SOL     OW18181   3.445   2.526  15.986 -0.2642  0.2159 -0.2916
 2182SOL    HW118182   3.493   2.460  16.036  1.1989  0.9550 -0.7297
 2182SOL    HW218183   3.510   2.536  15.917 -0.7943  0.4726 -0.7585
 2183SOL     OW18184   4.025   3.370   6.538  0.4402  0.0453 -0.3223
 2183SOL    HW118185   4.084   3.411   6.474 -0.7547 -0.5999 -1.8459
 2183SOL    HW218186   4.010   3.434   6.607  0.2909 -2.4971  2.0443
 2184SOL     OW18187   4.084   0.144  10.957  0.5495 -0.2398  0.0116
 2184SOL    HW118188   4.007   0.171  11.006  1.0145 -1.7986  1.5998
 2184SOL    HW218189   4.089   0.207  10.886 -0.2807 -0.3899 -0.1729
 2185SOL     OW18190   3.739   0.613   0.867  0.0427 -0.0858 -0.3545
 2185SOL    HW118191   3.674   0.673   0.831  0.3562 -1.1909 -2.7521
 2185SOL    HW218192   3.768   0.656   0.947  1.3563  0.0812 -0.9196
 2186SOL     OW18193   1.923   3.381   4.159 -0.0258 -0.1442 -0.7936
 2186SOL    HW118194   1.925   3.406   4.252  2.6091  1.2280 -1.2348
 2186SOL    HW218195   1.879   3.457   4.120 -3.5150 -1.1885  1.0761
 2187SOL     OW18196   3.704   2.832   8.744 -0.3717 -0.2022 -0.1261
 2187SOL    HW118197   3.609   2.826   8.740 -0.3754 -0.5591  0.5243
 2187SOL    HW218198   3.724   2.925   8.743 -1.3902  0.0343  2.7368
 2188SOL     OW18199   2.668   0.998   4.010  0.0258 -0.1993  0.3335
 2188SOL    HW118200   2.601   1.066   4.015 -2.1079 -2.1442 -1.4543
 2188SOL    HW218201   2.610   0.922   4.000  1.2228 -1.0830  0.1556
 2189SOL     OW18202   1.995   0.529  16.716 -0.1526  0.6117 -0.5391
 2189SOL    HW118203   2.088   0.540  16.695  0.2326 -1.0795  0.2586
 2189SOL    HW218204   2.006   0.502  16.807  0.8156  0.6159 -0.6567
 2190SOL     OW18205   3.963   2.388   5.307  0.2986  0.2150  0.3365
 2190SOL    HW118206   4.047   2.353   5.277  0.2499  0.4364 -0.0633
 2190SOL    HW218207   3.967   2.479   5.278  0.4436  0.5430  1.4032
 2191SOL     OW18208   0.104   1.916   5.863 -0.1414 -0.3320  0.2259
 2191SOL    HW118209   0.077   2.007   5.854  2.1098  0.0527 -2.4110
 2191SOL    HW218210   0.056   1.885   5.786 -0.9653 -0.3066  0.7228
 2192SOL     OW18211   4.223   4.625   4.175 -0.3946  0.1773 -0.0463
 2192SOL    HW118212   4.269   4.697   4.132  1.6840 -1.8004 -1.1174
 2192SOL    HW218213   4.219   4.663   4.263 -0.0037  3.1443 -1.3270
 2193SOL     OW18214   0.212   0.018   2.200 -0.4873  0.0227 -0.1971
 2193SOL    HW118215   0.175   0.098   2.240 -1.1666  0.0628 -0.8999
 2193SOL    HW218216   0.230   0.045   2.110  1.0364 -4.8093 -1.2938
 2194SOL     OW18217   2.359   0.735   1.884  0.5047 -0.9877 -0.4781
 2194SOL    HW118218   2.305   0.694   1.816 -0.1861 -1.5337  0.3900
 2194SOL    HW218219   2.347   0.664   1.947  0.8651  0.9474  1.7327
 2195SOL     OW18220   4.095   2.992  16.115 -0.0110  0.9335  0.3519
 2195SOL    HW118221   4.186   2.997  16.145 -0.5569  0.6651  2.0563
 2195SOL    HW218222   4.099   3.077  16.073  1.8099  1.3049  1.2708
 2196SOL     OW18223   0.904   3.152   0.729 -0.1190 -0.2155  0.5721
 2196SOL    HW118224   0.894   3.245   0.708 -0.1162 -0.0575  1.2888
 2196SOL    HW218225   0.942   3.113   0.650 -2.3894  0.2953 -0.7754
 2197SOL     OW18226   3.145   2.762   2.785  0.0150  0.3228 -0.2385
 2197SOL    HW118227   3.141   2.843   2.734 -1.6188  0.3516 -0.0640
 2197SOL    HW218228   3.217   2.717   2.740 -0.4374  0.9487 -1.5782
 2198SOL     OW18229   2.545   3.750   2.208 -0.5163  0.2303 -0.0926
 2198SOL    HW118230   2.556   3.764   2.114 -1.2256 -1.0386 -0.3748
 2198SOL    HW218231   2.461   3.704   2.202 -1.0956  1.2942 -0.0396
 2199SOL     OW18232   4.515   1.176   5.178 -0.2520 -0.1820  0.0022
 2199SOL    HW118233   4.436   1.129   5.205  0.2231 -1.4776 -0.8998
 2199SOL    HW218234   4.584   1.128   5.223  0.3307  0.0068 -0.6944
 2200SOL     OW18235   4.663   2.098   1.879  0.2968  0.3463 -0.7710
 2200SOL    HW118236   4.676   2.104   1.973  1.9365  0.3569 -0.9870
 2200SOL    HW218237   4.579   2.142   1.870 -0.8885 -1.3011  2.0630
 2201SOL     OW18238   0.143   2.802   7.056 -0.3082 -0.6737 -0.0433
 2201SOL    HW118239   0.233   2.825   7.079 -0.1889 -1.6645  0.4919
 2201SOL    HW218240   0.142   2.782   6.962 -0.1312 -2.6518  0.3762
 2202SOL     OW18241   4.078   0.510  12.461 -0.3448 -0.1741  0.1385
 2202SOL    HW118242   4.162   0.466  12.452  0.8417  2.0629  0.4046
 2202SOL    HW218243   4.080   0.550  12.548 -2.9346  1.0661 -0.3551
 2203SOL     OW18244   2.584   0.049   6.694 -0.3001  0.2281  0.3923
 2203SOL    HW118245   2.619   0.076   6.778  0.6687 -0.5037  0.2172
 2203SOL    HW218246   2.525   4.717   6.713  1.7261 -1.4731  0.0849
 2204SOL     OW18247   0.029   1.883  11.631  0.6673 -0.1570  0.2198
 2204SOL    HW118248   0.106   1.848  11.585  1.1378  1.2207 -0.0255
 2204SOL    HW218249   0.060   1.912  11.717 -1.5208  0.8145  0.6738
 2205SOL     OW18250   2.856   3.759   2.604 -0.1022  0.0128 -0.7193
 2205SOL    HW118251   2.941   3.791   2.573 -0.0273 -1.5323 -2.1197
 2205SOL    HW218252   2.835   3.701   2.531  0.1536 -1.4106  0.3328
 2206SOL     OW18253   3.069   3.598   8.415 -0.1745 -0.5338 -0.2787
 2206SOL    HW118254   3.058   3.645   8.498  0.7908 -1.5210  0.4117
 2206SOL    HW218255   3.136   3.652   8.374 -1.2234  2.3693  1.8629
 2207SOL     OW18256   1.125   3.239   6.787  0.1326  0.2113  0.2597
 2207SOL    HW118257   1.175   3.320   6.781  1.5044 -0.8420 -2.6068
 2207SOL    HW218258   1.133   3.211   6.696  1.4615  1.1241  0.1032
 2208SOL     OW18259   0.560   4.348  15.177 -0.5090  0.4612 -0.1672
 2208SOL    HW118260   0.622   4.397  15.232  0.6132  1.8989 -2.7130
 2208SOL    HW218261   0.548   4.264  15.222 -1.7488  0.1234 -1.1273
 2209SOL     OW18262   2.347   2.771  13.581 -0.0947  0.2472 -0.2020
 2209SOL    HW118263   2.287   2.777  13.655  1.9521 -0.0606  1.4955
 2209SOL    HW218264   2.412   2.718  13.628  0.2900  0.3504 -0.6240
 2210SOL     OW18265   1.595   1.586   8.581  0.2686 -0.4656  0.4809
 2210SOL    HW118266   1.579   1.571   8.488 -0.2892  3.1062 -0.0022
 2210SOL    HW218267   1.511   1.628   8.600  0.4499  0.7323 -1.3472
 2211SOL     OW18268   2.258   3.132   6.694  0.2015 -0.2863  0.0092
 2211SOL    HW118269   2.294   3.219   6.676  0.6600 -0.4299  0.2380
 2211SOL    HW218270   2.254   3.092   6.608 -0.1990 -2.7880  1.2061
 2212SOL     OW18271   0.964   2.945   8.975 -0.0572  0.2523 -0.6363
 2212SOL    HW118272   0.893   2.899   8.930 -0.7834  0.9407 -0.1948
 2212SOL    HW218273   0.953   3.031   8.934 -0.4703 -0.1354 -1.3462
 2213SOL     OW18274   0.775   0.040   2.060  0.3440 -0.8450 -0.1362
 2213SOL    HW118275   0.756   0.011   2.149 -0.7479 -0.3041 -0.1912
 2213SOL    HW218276   0.706   0.010   2.000 -1.6440 -0.6327  2.0479
 2214SOL     OW18277   2.431   4.325  10.508 -0.3676  0.2030 -0.2801
 2214SOL    HW118278   2.521   4.346  10.482 -0.2721  0.9240  0.6568
 2214SOL    HW218279   2.432   4.306  10.602 -2.0921  0.5508 -0.2074
 2215SOL     OW18280   4.458   0.340  12.135  0.2212 -0.1561 -0.6467
 2215SOL    HW118281   4.452   0.292  12.053 -0.5687 -0.4207 -0.4314
 2215SOL    HW218282   4.478   0.271  12.198  0.8243  2.1094  1.6934
 2216SOL     OW18283   3.326   3.528   0.610  0.8217 -0.1187 -0.3780
 2216SOL    HW118284   3.246   3.500   0.653 -1.2826  0.0820 -4.1189
 2216SOL    HW218285   3.308   3.503   0.519 -2.6600  2.5706 -0.4569
 2217SOL     OW18286   3.065   0.908  10.957 -0.6300  0.0790 -0.5352
 2217SOL    HW118287   3.068   0.818  10.925  1.0003  0.5287 -1.6465
 2217SOL    HW218288   2.984   0.897  11.006  0.2917 -0.0478  0.9874
 2218SOL     OW18289   2.288   1.089   6.853 -0.4579  0.2809  0.2712
 2218SOL    HW118290   2.303   1.011   6.799 -1.2731  0.1320  0.2523
 2218SOL    HW218291   2.262   1.048   6.936  0.0542 -2.0433 -0.7086
 2219SOL     OW18292   1.495   0.882   1.536 -0.4667  0.4942 -0.0501
 2219SOL    HW118293   1.585   0.896   1.564 -1.0491  2.6291  0.7838
 2219SOL    HW218294   1.448   0.945   1.591  2.1387 -1.4346  4.4037
 2220SOL     OW18295   2.650   0.223   9.096  0.4663  0.4278 -0.4197
 2220SOL    HW118296   2.705   0.147   9.115  0.4051  0.6025  0.4943
 2220SOL    HW218297   2.562   0.189   9.112  1.0783 -2.2490 -2.7294
 2221SOL     OW18298   1.899   4.609   4.626 -0.0352 -0.5787 -0.0017
 2221SOL    HW118299   1.978   4.563   4.594  0.1616 -1.0981  1.2116
 2221SOL    HW218300   1.924   4.699   4.605 -2.8292  0.1537 -0.1448
 2222SOL     OW18301   1.046   4.408   3.473 -0.0700  0.0762  0.2121
 2222SOL    HW118302   1.040   4.393   3.567 -0.4485  0.8925  0.3159
 2222SOL    HW218303   1.118   4.469   3.456 -0.7165  0.5638 -0.7576
 2223SOL     OW18304   3.735   4.126   7.816  0.4602  0.0526  0.6428
 2223SOL    HW118305   3.658   4.136   7.760  1.8239  1.7762 -0.9072
 2223SOL    HW218306   3.716   4.039   7.851  0.6120 -0.1834  0.1359
 2224SOL     OW18307   2.673   0.225   3.826 -0.0399 -0.0538 -0.2916
 2224SOL    HW118308   2.643   0.156   3.766  1.5176  0.4041 -1.6115
 2224SOL    HW218309   2.699   0.171   3.900 -1.4711 -0.0532  0.2225
 2225SOL     OW18310   4.073   2.474   9.384 -0.2375  0.1079  0.2580
 2225SOL    HW118311   3.978   2.466   9.384 -0.3878  1.8005 -1.8367
 2225SOL    HW218312   4.090   2.568   9.383 -1.5654  0.3169 -3.1762
 2226SOL     OW18313   1.466   1.735   6.998  0.7045  0.6777  0.0528
 2226SOL    HW118314   1.393   1.790   6.969 -1.2609 -0.7664  2.3243
 2226SOL    HW218315   1.502   1.705   6.914  2.0834 -0.7061  1.1406
 2227SOL     OW18316   3.785   0.701   4.806  0.3965  0.2303  0.1062
 2227SOL    HW118317   3.772   0.721   4.713  0.9051  2.3599  0.4925
 2227SOL    HW218318   3.881   0.696   4.812  0.5051  0.7882 -1.1324
 2228SOL     OW18319   4.240   1.339   8.850 -0.2735  0.5164 -0.0040
 2228SOL    HW118320   4.295   1.346   8.928  0.1512  0.6147 -0.3117
 2228SOL    HW218321   4.184   1.271   8.887 -0.4518  0.9483  0.5094
 2229SOL     OW18322   2.388   3.488   9.120 -0.4651 -0.6776 -0.5217
 2229SOL    HW118323   2.448   3.481   9.194  0.8726  0.9628 -1.4346
 2229SOL    HW218324   2.439   3.533   9.052  1.3896  0.6862  1.7923
 2230SOL     OW18325   3.237   4.264   6.493 -0.0552 -0.1282 -0.6178
 2230SOL    HW118326   3.286   4.226   6.566 -0.0242 -0.3672 -0.7665
 2230SOL    HW218327   3.146   4.237   6.504 -0.0004  0.2081  0.7023
 2231SOL     OW18328   0.994   1.938   5.716  0.2799  0.2380 -0.1222
 2231SOL    HW118329   1.071   1.887   5.688  0.5216  0.7021 -0.3021
 2231SOL    HW218330   0.941   1.886   5.776  0.4807  1.4428  1.0953
 2232SOL     OW18331   4.517   4.146  11.281  0.4431 -0.0890 -0.3295
 2232SOL    HW118332   4.457   4.140  11.356 -0.8107  3.4672 -1.0555
 2232SOL    HW218333   4.488   4.231  11.250  0.3009 -0.1057 -0.2457
 2233SOL     OW18334   2.195   3.123  10.216 -0.0002 -0.6107 -0.2889
 2233SOL    HW118335   2.156   3.036  10.209  0.4453 -1.0361  2.1903
 2233SOL    HW218336   2.121   3.178  10.241  1.2905  0.2394  1.6834
 2234SOL     OW18337   4.025   0.254   6.201  0.5148  0.0886 -0.0672
 2234SOL    HW118338   4.113   0.234   6.232  0.5569  2.6917  1.5318
 2234SOL    HW218339   3.980   0.271   6.285  2.0012 -0.4436  0.8274
 2235SOL     OW18340   3.281   0.485  15.739  0.3384  0.3110 -0.0734
 2235SOL    HW118341   3.195   0.450  15.719  0.0266  0.9112  0.2210
 2235SOL    HW218342   3.337   0.428  15.687  1.9837  0.9121  1.0388
 2236SOL     OW18343   1.270   0.129   2.280 -0.0088 -0.0634 -0.7813
 2236SOL    HW118344   1.335   0.183   2.325 -1.0765  0.1833  0.4587
 2236SOL    HW218345   1.308   0.106   2.195  0.2257 -0.0125 -0.6888
 2237SOL     OW18346   2.036   0.981   5.803 -0.1814  0.3953 -0.6860
 2237SOL    HW118347   2.035   0.920   5.729 -0.8437  1.8558 -1.9014
 2237SOL    HW218348   2.010   1.065   5.765 -1.8660  0.4847  0.7025
 2238SOL     OW18349   0.642   1.583   8.211  0.6283  0.3902  0.5985
 2238SOL    HW118350   0.692   1.525   8.154 -0.5957 -1.1815  1.1301
 2238SOL    HW218351   0.553   1.558   8.186  1.3182 -1.4737 -0.0292
 2239SOL     OW18352   2.981   4.023   5.098 -0.6501  0.9255 -0.3222
 2239SOL    HW118353   3.042   3.968   5.049 -1.0445  0.9504 -0.8392
 2239SOL    HW218354   2.897   4.012   5.053 -1.1801  1.1234  0.6166
 2240SOL     OW18355   2.741   2.726  15.255 -0.1063 -0.0366 -0.5858
 2240SOL    HW118356   2.675   2.754  15.191 -0.0491  0.3145 -0.4947
 2240SOL    HW218357   2.828   2.752  15.223 -0.0441  0.9063  0.3445
 2241SOL     OW18358   0.120   1.678   4.020 -0.3826  0.4100  0.0343
 2241SOL    HW118359   0.059   1.605   4.028  0.0616 -0.0076 -0.3969
 2241SOL    HW218360   0.148   1.678   4.111  0.4534 -1.7742 -0.2288
 2242SOL     OW18361   0.025   0.390   2.524  0.0739  0.1510  0.9759
 2242SOL    HW118362   0.036   0.337   2.445  0.2103  1.5360  0.0508
 2242SOL    HW218363   4.681   0.363   2.560  0.0592 -1.0488  0.0290
 2243SOL     OW18364   3.568   1.720   6.547 -0.1698 -0.1706  0.2146
 2243SOL    HW118365   3.492   1.687   6.595  0.2886 -0.8037  0.4990
 2243SOL    HW218366   3.541   1.809   6.523  1.1087  0.5412  1.3632
 2244SOL     OW18367   0.898   0.771   1.929 -0.4639  0.0405 -0.5236
 2244SOL    HW118368   0.991   0.747   1.927 -0.2202  1.0000 -0.8342
 2244SOL    HW218369   0.856   0.713   1.866  3.0092  0.3242 -3.0807
 2245SOL     OW18370   1.995   1.633   1.621 -0.3822  0.3563 -0.2028
 2245SOL    HW118371   1.962   1.713   1.580  0.2967  0.2721 -0.9090
 2245SOL    HW218372   2.060   1.600   1.559  0.0343 -0.2732  0.5743
 2246SOL     OW18373   1.935   3.039   5.994 -0.3654 -0.2756  0.2467
 2246SOL    HW118374   1.908   2.967   5.936  1.7053  0.2061 -1.3562
 2246SOL    HW218375   1.903   3.109   5.937 -0.1221 -1.7782 -1.7459
 2247SOL     OW18376   1.900   1.348  10.288  0.4248 -0.3385  0.4184
 2247SOL    HW118377   1.920   1.259  10.316  0.2355  0.2250  2.3277
 2247SOL    HW218378   1.873   1.386  10.371 -2.0867  0.4452 -0.7397
 2248SOL     OW18379   3.307   4.436   3.834 -0.3034 -0.0259 -0.1422
 2248SOL    HW118380   3.335   4.454   3.745 -0.7837 -1.2699 -0.5444
 2248SOL    HW218381   3.292   4.342   3.839  0.6336 -0.1842 -0.4294
 2249SOL     OW18382   4.699   1.261   3.914  0.6281  0.0026 -0.4170
 2249SOL    HW118383   4.649   1.313   3.977 -0.8536 -3.2277  1.0801
 2249SOL    HW218384   4.634   1.237   3.847 -1.1811  0.1161  1.2843
 2250SOL     OW18385   4.696   4.162   8.120  0.1929  0.4176 -0.0406
 2250SOL    HW118386   4.740   4.245   8.102 -1.4098  1.9404  3.0395
 2250SOL    HW218387   4.727   4.103   8.052  0.8581 -0.7982  1.3102
 2251SOL     OW18388   2.366   1.185   5.839 -0.4745  1.1102 -0.3365
 2251SOL    HW118389   2.387   1.092   5.847  1.7590  1.7452  1.1812
 2251SOL    HW218390   2.381   1.200   5.746 -1.5625 -1.0092 -0.8674
 2252SOL     OW18391   1.581   0.332   8.580  0.4374 -0.1994 -0.3695
 2252SOL    HW118392   1.617   0.278   8.510 -0.4021 -2.2523  0.7921
 2252SOL    HW218393   1.493   0.298   8.594  0.1663  0.5050 -0.3721
 2253SOL     OW18394   3.723   1.546   9.382 -0.0991 -0.2973 -0.3590
 2253SOL    HW118395   3.812   1.575   9.401 -0.4771  0.7773 -0.1764
 2253SOL    HW218396   3.738   1.497   9.301  1.4300 -0.3575 -0.0457
 2254SOL     OW18397   1.418   4.113  17.311 -0.5043 -0.0480 -0.0050
 2254SOL    HW118398   1.394   4.175  17.242  0.1570  1.3223  1.0044
 2254SOL    HW218399   1.486   4.066  17.263 -1.0953 -1.8083  0.8713
 2255SOL     OW18400   2.079   4.014  12.791 -0.7190 -0.0352 -0.4426
 2255SOL    HW118401   2.040   4.045  12.873 -2.2908 -2.9559 -0.0906
 2255SOL    HW218402   2.018   4.048  12.725 -0.4982 -2.1423 -1.7220
 2256SOL     OW18403   1.672   4.092  13.113 -0.1900 -0.0638  0.4489
 2256SOL    HW118404   1.583   4.075  13.144 -0.6584 -1.1677 -1.4767
 2256SOL    HW218405   1.677   4.043  13.031 -0.4750  0.3157  0.2069
 2257SOL     OW18406   2.769   3.782   8.519 -0.2233  0.3454 -0.1729
 2257SOL    HW118407   2.723   3.698   8.521 -2.0746  1.3494 -1.3789
 2257SOL    HW218408   2.843   3.771   8.579 -1.7353 -1.8730  1.2884
 2258SOL     OW18409   0.357   0.808   8.503 -0.2334 -0.0065 -0.5310
 2258SOL    HW118410   0.367   0.718   8.475  2.9388  0.9278 -2.3193
 2258SOL    HW218411   0.277   0.826   8.453  0.3278  0.8573 -1.1310
 2259SOL     OW18412   0.200   1.858   7.952 -0.7390 -0.3085 -0.3293
 2259SOL    HW118413   0.280   1.884   7.998 -1.0552  0.3574 -0.1605
 2259SOL    HW218414   0.201   1.763   7.935  0.9735 -0.3677  0.0753
 2260SOL     OW18415   4.570   0.133  11.510  0.5446  0.2293  0.0096
 2260SOL    HW118416   4.480   0.109  11.533  0.6861  0.9927  1.3441
 2260SOL    HW218417   4.611   0.103  11.591  0.5881 -2.8963 -1.1687
 2261SOL     OW18418   0.816   1.148   9.666 -0.2129 -0.3655  0.8155
 2261SOL    HW118419   0.839   1.097   9.588  2.7363  2.7440 -0.3050
 2261SOL    HW218420   0.750   1.209   9.633  0.7351  0.2656  0.1076
 2262SOL     OW18421   2.549   4.105  13.309  0.4138 -0.3900 -0.5540
 2262SOL    HW118422   2.578   4.148  13.228 -0.2816 -2.8669 -2.1158
 2262SOL    HW218423   2.631   4.111  13.359 -1.0287  1.0342  1.6324
 2263SOL     OW18424   1.199   4.517   2.136 -0.0733  0.3776 -0.8496
 2263SOL    HW118425   1.231   4.478   2.054  2.0292  1.1661 -0.3953
 2263SOL    HW218426   1.132   4.575   2.100  0.2191  1.1166 -0.1937
 2264SOL     OW18427   2.445   3.962   0.202 -0.2745  0.2324 -0.5947
 2264SOL    HW118428   2.393   3.904   0.146 -1.7162  2.3707 -1.5054
 2264SOL    HW218429   2.497   3.895   0.245 -0.5661 -0.6252 -1.5726
 2265SOL     OW18430   2.443   3.526   2.895  0.1796 -0.4086 -0.4264
 2265SOL    HW118431   2.512   3.518   2.961  0.6263  2.8646 -0.5130
 2265SOL    HW218432   2.449   3.441   2.850 -0.6274 -0.3328 -0.6826
 2266SOL     OW18433   0.183   2.105  14.144 -0.2748  0.2970 -0.2207
 2266SOL    HW118434   0.117   2.126  14.210 -1.3228 -3.4902 -0.0345
 2266SOL    HW218435   0.124   2.076  14.073  1.2403 -0.5823 -1.1078
 2267SOL     OW18436   2.597   2.947  15.365 -0.3959 -0.1658  0.8745
 2267SOL    HW118437   2.603   2.852  15.373  1.2989  0.1236  3.0069
 2267SOL    HW218438   2.507   2.949  15.332 -0.3746  1.7607  0.9238
 2268SOL     OW18439   1.360   3.631   9.036 -0.2322  0.5233 -0.0930
 2268SOL    HW118440   1.405   3.688   9.099 -1.6336  0.9436  0.5314
 2268SOL    HW218441   1.335   3.554   9.088  3.0195  0.4227  1.3122
 2269SOL     OW18442   2.988   3.569   3.958 -0.2562  0.1067 -0.1684
 2269SOL    HW118443   3.045   3.634   3.999 -2.0935  1.4964  0.2047
 2269SOL    HW218444   2.976   3.505   4.029 -0.4190  1.8419  1.3935
 2270SOL     OW18445   3.914   2.434   9.072  0.4409  0.3454  0.4704
 2270SOL    HW118446   3.848   2.488   9.029  0.0943 -2.4131 -2.4756
 2270SOL    HW218447   3.857   2.357   9.074 -0.1372  0.7818  0.7780
 2271SOL     OW18448   1.634   3.601   6.459 -0.1225 -0.6857 -0.1052
 2271SOL    HW118449   1.642   3.568   6.370 -0.5492  3.8077 -1.8168
 2271SOL    HW218450   1.624   3.696   6.453 -1.4221 -0.4787  4.9436
 2272SOL     OW18451   0.842   3.481   1.824  0.0440  0.1661  0.1065
 2272SOL    HW118452   0.860   3.494   1.917  1.7927  1.2404 -0.3767
 2272SOL    HW218453   0.928   3.470   1.785  0.8833  2.1480  1.4319
 2273SOL     OW18454   2.440   4.041   3.469  0.1141 -0.1125 -0.0798
 2273SOL    HW118455   2.366   4.009   3.418  0.6850  0.6411 -1.3914
 2273SOL    HW218456   2.483   4.086   3.396 -0.7691 -0.0709 -0.5731
 2274SOL     OW18457   1.742   3.720   1.796  0.0175  0.4215 -0.1511
 2274SOL    HW118458   1.770   3.780   1.865 -0.2861 -0.9411  1.1491
 2274SOL    HW218459   1.822   3.668   1.784  0.0139  0.2248  0.6608
 2275SOL     OW18460   3.900   0.468   3.250 -0.2596 -0.7224 -0.3619
 2275SOL    HW118461   3.949   0.476   3.332 -4.2640  0.6646  1.9104
 2275SOL    HW218462   3.947   0.527   3.191 -1.1302 -0.4896 -0.8256
 2276SOL     OW18463   3.236   1.263   3.611  0.0954  0.6249  0.4116
 2276SOL    HW118464   3.188   1.310   3.543  2.5722 -0.2172 -1.9128
 2276SOL    HW218465   3.176   1.277   3.684  0.5166  4.2212  0.0891
 2277SOL     OW18466   0.739   3.314   7.116 -0.1196 -0.6720 -0.4413
 2277SOL    HW118467   0.813   3.258   7.139 -0.0162  0.1252  1.2241
 2277SOL    HW218468   0.700   3.245   7.062 -2.6477  0.8542 -0.5840
 2278SOL     OW18469   3.760   4.092   3.168  0.5505  0.3864  0.2094
 2278SOL    HW118470   3.781   4.034   3.241 -1.9918  2.0676  2.2561
 2278SOL    HW218471   3.843   4.139   3.171  1.1968 -0.8455  1.5446
 2279SOL     OW18472   1.694   2.295   1.389 -0.1062 -0.3872  0.8138
 2279SOL    HW118473   1.689   2.220   1.448 -0.6796 -0.4830  0.6361
 2279SOL    HW218474   1.747   2.353   1.443  0.7084  0.3145 -0.7227
 2280SOL     OW18475   0.572   2.312   9.845 -0.0039  0.1780  0.0591
 2280SOL    HW118476   0.660   2.277   9.831  0.0170  0.6348 -0.9406
 2280SOL    HW218477   0.547   2.366   9.770  1.3412 -0.4694 -0.8711
 2281SOL     OW18478   4.604   4.556   7.061 -0.2132  0.4773  0.7648
 2281SOL    HW118479   4.515   4.589   7.054 -0.4860 -1.0707 -2.6985
 2281SOL    HW218480   4.640   4.572   6.974 -0.1449  0.6673  0.8289
 2282SOL     OW18481   2.496   3.253  11.424  0.6208  0.4312 -0.0170
 2282SOL    HW118482   2.532   3.272  11.337  2.3954 -0.6417  0.4761
 2282SOL    HW218483   2.543   3.171  11.438  0.5913  0.0692 -2.0569
 2283SOL     OW18484   0.186   1.444   5.527  0.1245  0.2806 -0.2718
 2283SOL    HW118485   0.136   1.397   5.593  0.5984 -0.7738 -0.6698
 2283SOL    HW218486   0.195   1.532   5.565 -1.7249  0.5836 -0.5285
 2284SOL     OW18487   4.006   3.194   2.751 -0.0035  0.3654 -0.4952
 2284SOL    HW118488   3.915   3.177   2.726  0.0601 -0.7076 -0.0081
 2284SOL    HW218489   4.039   3.105   2.765 -1.1066  0.2645  1.4757
 2285SOL     OW18490   3.086   3.268   3.305 -0.3306  0.3571  0.2548
 2285SOL    HW118491   3.020   3.206   3.274 -0.8855  1.1123 -0.0794
 2285SOL    HW218492   3.116   3.226   3.385  0.4783 -1.9183 -1.2555
 2286SOL     OW18493   2.752   2.281   8.710 -0.3156 -0.0533  0.0056
 2286SOL    HW118494   2.817   2.337   8.753  0.8861  2.0672 -4.5808
 2286SOL    HW218495   2.744   2.213   8.777  2.3687  0.4412  0.8584
 2287SOL     OW18496   2.142   4.108  17.742  0.4748 -0.5931  0.6013
 2287SOL    HW118497   2.081   4.182  17.748 -0.2386 -1.1414  0.2056
 2287SOL    HW218498   2.167   4.102  17.650  0.9106 -0.5361  0.7187
 2288SOL     OW18499   2.670   0.558   7.286 -0.0216  0.3159 -0.6670
 2288SOL    HW118500   2.752   0.519   7.255  1.1590  2.3277 -0.0758
 2288SOL    HW218501   2.665   0.650   7.258  0.4170  0.4041 -0.4663
 2289SOL     OW18502   1.823   1.507  14.979 -0.6204  0.3754  0.0638
 2289SOL    HW118503   1.858   1.426  15.014 -1.1721  0.6359  1.2159
 2289SOL    HW218504   1.830   1.501  14.884 -0.5128  0.5571  0.0601
 2290SOL     OW18505   3.699   0.400   9.587  0.2085 -0.0305 -0.1380
 2290SOL    HW118506   3.760   0.327   9.580 -1.0547 -1.0975 -0.0343
 2290SOL    HW218507   3.638   0.374   9.656  0.3090  0.1969  0.0352
 2291SOL     OW18508   3.976   0.693   0.422  0.2277 -0.4379 -0.0407
 2291SOL    HW118509   3.980   0.744   0.342  1.0083  1.3729  1.1541
 2291SOL    HW218510   4.069   0.674   0.436 -0.0051 -2.6701 -1.4492
 2292SOL     OW18511   2.598   1.337   3.302  0.4509  0.2453  0.1785
 2292SOL    HW118512   2.608   1.379   3.387  1.4842 -1.3242  0.8198
 2292SOL    HW218513   2.607   1.411   3.242  0.0641  0.0492 -0.1286
 2293SOL     OW18514   4.206   3.354   7.585 -0.2961 -0.0547  0.1270
 2293SOL    HW118515   4.271   3.350   7.515 -1.3109  0.3686 -0.8494
 2293SOL    HW218516   4.180   3.446   7.583 -1.7328 -0.4662 -0.3049
 2294SOL     OW18517   3.636   3.396  12.708 -0.0467 -0.1072 -0.6979
 2294SOL    HW118518   3.692   3.444  12.647 -1.7808  0.5563 -1.7680
 2294SOL    HW218519   3.603   3.331  12.646  0.8416 -1.2544  0.0306
 2295SOL     OW18520   4.335   4.491   6.279 -0.0997 -0.4611  0.6376
 2295SOL    HW118521   4.411   4.458   6.231 -0.2359  1.9205 -1.2307
 2295SOL    HW218522   4.275   4.416   6.278 -1.5031  0.6587 -0.1846
 2296SOL     OW18523   1.813   1.898   1.903 -0.9189  0.4565 -0.2515
 2296SOL    HW118524   1.817   1.971   1.841 -2.9557 -0.0423 -0.9719
 2296SOL    HW218525   1.769   1.829   1.853 -0.6230  0.9159 -1.1478
 2297SOL     OW18526   1.497   4.284   3.651 -0.0391  0.1275 -0.2534
 2297SOL    HW118527   1.468   4.290   3.560 -1.8405  1.0260  0.3784
 2297SOL    HW218528   1.585   4.246   3.646  1.8316  4.2994  0.8642
 2298SOL     OW18529   0.753   1.167   5.212  0.7214 -0.7469  0.3964
 2298SOL    HW118530   0.815   1.239   5.204  0.5237 -0.7060 -0.8116
 2298SOL    HW218531   0.669   1.199   5.179  0.3911  1.4281  3.3240
 2299SOL     OW18532   1.922   4.332   1.170  0.3399 -0.1456 -0.0371
 2299SOL    HW118533   1.887   4.307   1.085  1.1571  0.2056 -0.4712
 2299SOL    HW218534   1.931   4.420   1.132  0.0240 -0.8667 -1.7761
 2300SOL     OW18535   3.905   1.600   7.610  0.3156  0.4600  0.1878
 2300SOL    HW118536   3.948   1.574   7.691 -0.2664  0.1429  0.3892
 2300SOL    HW218537   3.977   1.609   7.547  0.4202 -2.1392 -0.0638
 2301SOL     OW18538   4.504   0.693   7.175  0.3366 -0.1920 -0.1672
 2301SOL    HW118539   4.555   0.745   7.114  0.8595 -1.4648 -0.7954
 2301SOL    HW218540   4.417   0.734   7.172 -0.2807 -1.5529 -0.6385
 2302SOL     OW18541   0.383   4.354   3.442 -0.4968  0.0415 -0.2158
 2302SOL    HW118542   0.422   4.289   3.384 -1.8662 -0.5415 -0.4801
 2302SOL    HW218543   0.295   4.354   3.405 -0.6376  1.1555  0.1176
 2303SOL     OW18544   4.016   2.903   2.423  0.0249 -0.1768  0.1261
 2303SOL    HW118545   3.925   2.929   2.442  0.0311  0.0590 -0.1486
 2303SOL    HW218546   4.038   2.964   2.352 -1.4431  1.0008  0.6646
 2304SOL     OW18547   2.078   1.701  14.701 -0.6213 -0.4518 -0.3950
 2304SOL    HW118548   2.045   1.777  14.749 -1.7292 -1.1938  0.0185
 2304SOL    HW218549   2.004   1.641  14.691 -0.8980 -0.0601 -0.6822
 2305SOL     OW18550   4.291   1.228   9.589  0.1083  0.0939 -0.4720
 2305SOL    HW118551   4.385   1.230   9.608 -0.1687 -0.3906  1.0134
 2305SOL    HW218552   4.285   1.170   9.514  0.5989 -0.0257 -0.4211
 2306SOL     OW18553   2.148   2.107   2.996  0.2463  0.1748  0.5353
 2306SOL    HW118554   2.140   2.040   3.065  0.3902 -2.1945 -1.7662
 2306SOL    HW218555   2.102   2.057   2.929  2.5557 -1.2838  0.0028
 2307SOL     OW18556   3.697   2.489  15.854  0.3327  0.0295 -0.4593
 2307SOL    HW118557   3.754   2.539  15.912 -1.8586  0.8508  0.9680
 2307SOL    HW218558   3.757   2.426  15.813 -0.9747 -1.0600 -0.7078
 2308SOL     OW18559   4.285   1.070   5.296  0.0702  0.5207  0.7177
 2308SOL    HW118560   4.232   1.136   5.251  2.1254  0.9876 -1.0297
 2308SOL    HW218561   4.250   1.080   5.384  0.2382  0.6694  0.7689
 2309SOL     OW18562   4.344   3.750   2.085 -0.2920  0.0907  0.1487
 2309SOL    HW118563   4.362   3.746   2.179  1.0518 -0.7118 -0.1396
 2309SOL    HW218564   4.285   3.677   2.066 -0.4822  0.3494 -0.2380
 2310SOL     OW18565   3.953   2.498   6.503  0.0373  0.5494 -0.0979
 2310SOL    HW118566   3.903   2.570   6.465 -0.5811  0.7932  1.1684
 2310SOL    HW218567   4.042   2.533   6.508 -0.4639  1.4748  2.3892
 2311SOL     OW18568   0.081   1.483  14.881  0.1345  0.4130  0.2944
 2311SOL    HW118569   0.176   1.477  14.872 -0.0848 -1.4440 -0.7612
 2311SOL    HW218570   0.056   1.534  14.805  1.2777  0.4531 -0.0599
 2312SOL     OW18571   4.149   0.725   0.726  0.2771  0.3586  0.2801
 2312SOL    HW118572   4.235   0.744   0.765 -0.0653  3.1463 -0.2797
 2312SOL    HW218573   4.161   0.798   0.666 -0.6961  0.5629  0.3370
 2313SOL     OW18574   3.001   2.857   9.736 -0.2376 -0.6370 -0.3951
 2313SOL    HW118575   2.941   2.807   9.681 -2.1757  1.8628 -0.5730
 2313SOL    HW218576   3.060   2.788   9.765  1.3303  0.3301 -1.2912
 2314SOL     OW18577   0.545   2.389  14.278 -0.0040 -0.0935  0.0959
 2314SOL    HW118578   0.566   2.483  14.276 -2.3385  0.4430  0.8793
 2314SOL    HW218579   0.451   2.388  14.296  0.6033 -2.6844  2.9898
 2315SOL     OW18580   3.233   3.989   5.660 -0.1137  0.5656  0.2608
 2315SOL    HW118581   3.305   4.052   5.670  0.7496 -0.3109 -0.5769
 2315SOL    HW218582   3.278   3.925   5.605  1.0955  0.4989  1.3285
 2316SOL     OW18583   1.515   2.398  15.031 -0.5489 -0.3014  0.1504
 2316SOL    HW118584   1.569   2.319  15.022  0.6885  0.5171  0.3641
 2316SOL    HW218585   1.458   2.379  15.105 -0.1192 -1.7734  0.0972
 2317SOL     OW18586   3.403   1.668   3.802  0.4766 -0.7372  0.6036
 2317SOL    HW118587   3.429   1.597   3.743  0.8905  0.3627 -0.5342
 2317SOL    HW218588   3.412   1.626   3.887 -0.3839  0.0720  1.0788
 2318SOL     OW18589   1.087   2.854  17.201 -0.1191 -0.2832 -0.1313
 2318SOL    HW118590   1.044   2.847  17.115  0.5028 -2.4750 -0.2423
 2318SOL    HW218591   1.017   2.836  17.264  0.6858 -2.7369  0.0340
 2319SOL     OW18592   3.743   0.510   9.327 -0.1103 -0.3905  0.3234
 2319SOL    HW118593   3.824   0.461   9.345 -0.7692 -1.5418  0.1337
 2319SOL    HW218594   3.690   0.470   9.395 -1.1877  0.1005 -0.2295
 2320SOL     OW18595   2.224   1.189   6.619 -0.0494 -0.1338 -0.6522
 2320SOL    HW118596   2.317   1.169   6.608  0.4709  1.7691  0.4188
 2320SOL    HW218597   2.201   1.149   6.703 -0.7449  1.1207 -0.2516
 2321SOL     OW18598   1.290   1.674  15.169 -0.2226  0.1311 -0.1370
 2321SOL    HW118599   1.226   1.619  15.213 -2.2078  0.5124 -2.5750
 2321SOL    HW218600   1.360   1.609  15.177  2.3804  2.7945 -0.8463
 2322SOL     OW18601   2.893   4.130   8.230 -0.0087 -0.2231  0.3233
 2322SOL    HW118602   2.836   4.089   8.295  1.4006 -0.9457  1.1196
 2322SOL    HW218603   2.959   4.061   8.218  0.1628  0.0941 -0.5538
 2323SOL     OW18604   1.040   3.341   0.088 -0.0207 -0.4078 -0.7424
 2323SOL    HW118605   0.989   3.276   0.137 -0.6512 -0.0682 -0.9511
 2323SOL    HW218606   1.129   3.325   0.118 -1.0371 -1.7835  1.4983
 2324SOL     OW18607   2.013   0.018   2.847  0.4604  0.0570 -0.0951
 2324SOL    HW118608   2.078   0.087   2.836  0.9436 -0.7336 -2.0367
 2324SOL    HW218609   2.057   4.705   2.913 -1.0409  1.7035  2.2462
 2325SOL     OW18610   2.558   3.073   0.792 -0.6154 -0.4600 -0.3227
 2325SOL    HW118611   2.640   3.121   0.786  1.0586 -3.0708  1.7054
 2325SOL    HW218612   2.569   3.012   0.865  0.6785  0.6115  0.3764
 2326SOL     OW18613   0.829   0.100   4.033 -0.0631  0.4022 -0.0450
 2326SOL    HW118614   0.915   0.058   4.023 -0.8649 -1.4812  1.2916
 2326SOL    HW218615   0.846   0.098   4.127 -1.5661 -1.2394  0.1789
 2327SOL     OW18616   3.448   1.309   4.502 -0.5675  0.0272 -0.5617
 2327SOL    HW118617   3.415   1.262   4.425 -0.2715 -1.8339  0.4664
 2327SOL    HW218618   3.438   1.238   4.565  0.5552 -0.1581 -0.5978
 2328SOL     OW18619   3.885   2.086   5.684 -0.1857 -0.2266  0.0876
 2328SOL    HW118620   3.936   2.024   5.736  1.3658  2.6520  1.9542
 2328SOL    HW218621   3.916   2.072   5.594  1.0024  0.6814  0.3584
 2329SOL     OW18622   2.221   2.856  11.116  0.5075 -0.2852 -0.1925
 2329SOL    HW118623   2.315   2.873  11.124  0.6092 -0.4454 -1.0383
 2329SOL    HW218624   2.205   2.925  11.051  1.0017  1.6294  1.7183
 2330SOL     OW18625   0.260   1.937   9.407 -0.1744 -0.3062 -0.1411
 2330SOL    HW118626   0.311   1.905   9.481  0.5334 -1.2261 -1.0203
 2330SOL    HW218627   0.171   1.935   9.443 -0.1281 -1.4309 -0.1083
 2331SOL     OW18628   4.112   0.912   8.747 -0.0972  0.0717  0.1169
 2331SOL    HW118629   4.123   0.997   8.705  1.0023  0.1297  0.5091
 2331SOL    HW218630   4.024   0.910   8.785  0.3052  1.3494  1.1062
 2332SOL     OW18631   2.749   3.860   7.288  1.0527  0.2097  0.3997
 2332SOL    HW118632   2.830   3.857   7.339  1.0090  3.6044  0.7232
 2332SOL    HW218633   2.689   3.815   7.347  0.4214  0.2652 -0.1978
 2333SOL     OW18634   1.832   1.567   6.133  0.1667 -0.2719 -0.4400
 2333SOL    HW118635   1.876   1.564   6.218 -2.4866  1.9216  1.0520
 2333SOL    HW218636   1.799   1.477   6.139  1.3256 -0.6784 -0.2651
 2334SOL     OW18637   0.524   1.117   6.496 -0.3924 -0.4030 -0.7101
 2334SOL    HW118638   0.457   1.177   6.529 -0.6436 -1.7043  1.1035
 2334SOL    HW218639   0.470   1.068   6.434 -0.2848 -0.7307 -0.5429
 2335SOL     OW18640   2.677   2.262  11.245  0.1472  0.0932  0.0816
 2335SOL    HW118641   2.721   2.191  11.292  2.8110 -0.1652 -2.7445
 2335SOL    HW218642   2.644   2.215  11.169  0.5669 -0.9490  0.5474
 2336SOL     OW18643   3.505   4.494   3.368  0.0383 -0.0579 -0.1726
 2336SOL    HW118644   3.444   4.487   3.295 -1.5239 -0.8387  1.2204
 2336SOL    HW218645   3.584   4.538   3.335  0.3296 -1.4890 -1.4009
 2337SOL     OW18646   3.114   3.836   2.542  0.0689  0.5227  0.1793
 2337SOL    HW118647   3.165   3.916   2.536  0.0119  0.4314 -1.5505
 2337SOL    HW218648   3.099   3.808   2.452 -0.0934  4.9222 -1.1352
 2338SOL     OW18649   3.070   1.405   0.451  0.3654 -0.0756 -0.3202
 2338SOL    HW118650   3.133   1.341   0.485  1.6975  0.3756 -1.9484
 2338SOL    HW218651   3.030   1.352   0.381  0.2889  0.2481 -0.5206
 2339SOL     OW18652   3.637   2.991   6.553  0.4454  0.4288 -0.3418
 2339SOL    HW118653   3.697   2.929   6.594 -0.8502 -0.0901  0.7825
 2339SOL    HW218654   3.557   2.951   6.587  0.8702 -0.1368 -0.0174
 2340SOL     OW18655   2.057   4.021  15.385  0.0433  0.0054 -0.0452
 2340SOL    HW118656   2.018   4.086  15.444  0.4279 -0.8973  1.2201
 2340SOL    HW218657   1.996   4.010  15.313 -0.3417  0.8507  0.1589
 2341SOL     OW18658   2.137   2.604  17.345  0.0544  0.2202 -0.0950
 2341SOL    HW118659   2.114   2.518  17.309  2.6820 -0.6581  0.3727
 2341SOL    HW218660   2.153   2.646  17.260 -1.6927  1.1990  0.0724
 2342SOL     OW18661   4.059   4.121  10.906 -0.1057 -0.0390  0.0511
 2342SOL    HW118662   4.083   4.205  10.945  0.3413 -1.3225  2.5435
 2342SOL    HW218663   4.099   4.054  10.962 -0.2982 -0.5024 -0.3666
 2343SOL     OW18664   3.897   2.738  16.714  0.1981 -0.1422 -0.3967
 2343SOL    HW118665   3.816   2.708  16.754  0.9531 -2.0855 -0.3246
 2343SOL    HW218666   3.952   2.664  16.737  0.5519 -0.8324 -3.5093
 2344SOL     OW18667   3.195   2.515   5.547 -0.0045  0.5111  0.5596
 2344SOL    HW118668   3.268   2.453   5.535 -0.5080 -0.1013  0.6745
 2344SOL    HW218669   3.222   2.584   5.486 -0.8350  1.2388  1.0265
 2345SOL     OW18670   4.285   4.304   5.810  0.1663 -0.1078  0.0726
 2345SOL    HW118671   4.337   4.239   5.764  0.5199  1.1006 -1.2069
 2345SOL    HW218672   4.194   4.286   5.784  1.0488 -1.7684 -1.8211
 2346SOL     OW18673   1.067   0.017   4.445 -0.3032 -0.8086 -0.4700
 2346SOL    HW118674   1.036   0.009   4.535  0.3094 -1.1516 -0.2898
 2346SOL    HW218675   1.144   4.702   4.452  0.0820 -0.4727 -1.9365
 2347SOL     OW18676   3.430   4.053   5.425 -0.1192  0.3648  0.3026
 2347SOL    HW118677   3.429   4.118   5.496 -0.0178 -0.1979  0.8197
 2347SOL    HW218678   3.517   4.017   5.440  0.0608  0.1031 -1.3719
 2348SOL     OW18679   2.586   1.174   4.684 -0.2794  0.2527 -0.1260
 2348SOL    HW118680   2.555   1.242   4.625  2.7350  1.6403 -0.1466
 2348SOL    HW218681   2.681   1.187   4.683 -0.1881 -0.3895  0.1513
 2349SOL     OW18682   1.169   4.338  10.704 -0.0164 -0.1960 -0.0251
 2349SOL    HW118683   1.083   4.299  10.720  0.3154 -1.1777 -0.6318
 2349SOL    HW218684   1.133   4.427  10.704 -0.4796 -0.3793  0.6886
 2350SOL     OW18685   1.036   2.551   9.075  0.0771  0.2656  0.0259
 2350SOL    HW118686   1.053   2.457   9.065 -0.9679  0.1928 -1.0257
 2350SOL    HW218687   1.110   2.579   9.021  0.5799 -1.2950 -0.1069
 2351SOL     OW18688   1.559   3.850   4.968  0.1997 -0.6475  0.2030
 2351SOL    HW118689   1.645   3.883   4.992  0.4043 -0.8387 -0.2616
 2351SOL    HW218690   1.509   3.913   5.020  0.1662  0.0914 -0.7263
 2352SOL     OW18691   4.412   3.244  13.285 -0.0282  0.2122  0.2137
 2352SOL    HW118692   4.449   3.312  13.342  1.3498  0.1428 -0.5889
 2352SOL    HW218693   4.455   3.259  13.201  1.1902 -3.0280  0.2462
 2353SOL     OW18694   3.154   2.381   8.958  0.1761 -0.2655  0.0596
 2353SOL    HW118695   3.126   2.337   9.038  1.7855 -0.9536  0.2521
 2353SOL    HW218696   3.077   2.428   8.928 -0.1115 -1.4902 -1.1504
 2354SOL     OW18697   0.541   4.440   7.973 -0.3016  0.0737 -0.0450
 2354SOL    HW118698   0.566   4.523   8.013  2.0159 -2.0614  2.9278
 2354SOL    HW218699   0.606   4.387   8.019 -0.6973 -1.3696 -1.1537
 2355SOL     OW18700   1.451   2.243   2.994 -0.2748 -0.2873  0.6124
 2355SOL    HW118701   1.356   2.229   3.001 -0.5608  1.3689  0.1035
 2355SOL    HW218702   1.470   2.248   3.087 -3.0241 -0.6074  1.2082
 2356SOL     OW18703   3.952   3.244  12.574 -0.1315 -0.1397  0.0540
 2356SOL    HW118704   4.002   3.280  12.647 -0.7550  1.0084 -0.0889
 2356SOL    HW218705   3.914   3.329  12.551 -2.0719 -0.8006  0.8161
 2357SOL     OW18706   1.390   4.045  13.191 -0.2254 -0.4545 -0.7725
 2357SOL    HW118707   1.351   3.958  13.203  1.2118 -1.1687 -1.2840
 2357SOL    HW218708   1.385   4.066  13.284  1.6589 -0.6720 -0.6222
 2358SOL     OW18709   4.393   2.193   4.010  0.0417 -0.2616  0.1787
 2358SOL    HW118710   4.366   2.227   3.925 -0.9552 -1.3681  0.0532
 2358SOL    HW218711   4.489   2.199   4.009  0.0238 -0.0015  0.0753
 2359SOL     OW18712   4.102   3.147  11.314 -1.0163  0.0109 -0.0124
 2359SOL    HW118713   4.151   3.130  11.233 -1.1922 -1.9579  0.3023
 2359SOL    HW218714   4.159   3.216  11.349 -0.4994  0.3693 -1.5516
 2360SOL     OW18715   0.587   3.106   5.842  0.2485 -0.0532  0.5141
 2360SOL    HW118716   0.513   3.070   5.794 -0.0944 -0.4345  1.3383
 2360SOL    HW218717   0.665   3.055   5.818  2.1288  2.1127  1.9469
 2361SOL     OW18718   1.898   1.565   8.821 -0.0809  0.5259  0.0535
 2361SOL    HW118719   1.921   1.478   8.854  0.6380  0.6635 -0.1018
 2361SOL    HW218720   1.978   1.615   8.834  0.4111  0.4321 -2.5020
 2362SOL     OW18721   4.590   0.894  17.094 -0.1878  0.2860  0.2558
 2362SOL    HW118722   4.651   0.824  17.117  0.9947  1.5554  1.0490
 2362SOL    HW218723   4.648   0.953  17.044  1.0967  1.5515  3.2394
 2363SOL     OW18724   0.563   4.139   5.467  0.1814 -0.1417 -0.2559
 2363SOL    HW118725   0.499   4.184   5.413  0.8418  0.9795 -0.1136
 2363SOL    HW218726   0.632   4.206   5.472 -1.3825  1.3661  0.8036
 2364SOL     OW18727   1.680   2.100   8.242  0.3737 -0.0361 -0.2770
 2364SOL    HW118728   1.710   2.078   8.330  0.3128  0.0660 -0.2319
 2364SOL    HW218729   1.629   2.021   8.225 -1.2555  1.3765 -1.9076
 2365SOL     OW18730   0.128   4.362  12.550  0.2223  0.6087  0.5214
 2365SOL    HW118731   0.200   4.406  12.504  1.5405  0.4483  2.4465
 2365SOL    HW218732   0.056   4.425  12.554 -0.7221 -0.5353  1.2335
 2366SOL     OW18733   2.696   0.088   1.633  0.7804  0.9571  0.3529
 2366SOL    HW118734   2.696   0.148   1.708  3.3876 -0.7456  1.6801
 2366SOL    HW218735   2.789   0.088   1.610  0.4031  1.1895 -1.1782
 2367SOL     OW18736   2.709   3.325  16.090 -0.1421  0.6128 -0.1129
 2367SOL    HW118737   2.727   3.289  16.004 -1.5101 -0.2944 -0.0031
 2367SOL    HW218738   2.622   3.287  16.101  0.0825 -0.3033 -1.5507
 2368SOL     OW18739   1.038   2.089   4.750 -0.5430 -0.4129  0.1810
 2368SOL    HW118740   1.101   2.149   4.711 -0.3214  0.6272  2.1373
 2368SOL    HW218741   0.963   2.147   4.764 -0.2834  0.5844 -2.5598
 2369SOL     OW18742   4.493   2.018   7.562 -0.2532  0.7803 -0.2012
 2369SOL    HW118743   4.414   1.975   7.527 -0.2565  0.4153  0.2690
 2369SOL    HW218744   4.560   1.951   7.566 -0.3236  0.7300  0.1229
 2370SOL     OW18745   1.071   4.282   7.857 -0.9134 -0.3839 -0.6624
 2370SOL    HW118746   1.000   4.346   7.856  0.8368  1.5543 -0.2592
 2370SOL    HW218747   1.020   4.204   7.882  1.0120 -0.7290  2.1187
 2371SOL     OW18748   4.572   1.514   1.244 -0.1468 -0.1245  0.2506
 2371SOL    HW118749   4.540   1.440   1.296  1.8724  0.6457  2.5971
 2371SOL    HW218750   4.650   1.483   1.199  1.0848  0.1169  2.2261
 2372SOL     OW18751   2.604   2.133   2.719 -0.1355 -0.2367  0.0171
 2372SOL    HW118752   2.531   2.159   2.774 -0.0412 -0.9456  0.4760
 2372SOL    HW218753   2.592   2.040   2.740 -3.1447  0.1384 -0.1580
 2373SOL     OW18754   2.004   3.079  11.983 -0.1632 -0.2164 -0.2722
 2373SOL    HW118755   2.089   3.097  12.022 -0.6295  0.1128  0.5787
 2373SOL    HW218756   1.969   3.054  12.068 -1.7299 -0.8922 -1.1146
 2374SOL     OW18757   2.051   2.466   7.153 -0.2961  0.4214 -0.1027
 2374SOL    HW118758   1.970   2.419   7.131 -1.0655  1.2451  0.9976
 2374SOL    HW218759   2.067   2.498   7.064  1.6205  1.7202  0.7154
 2375SOL     OW18760   3.734   1.916  11.279 -0.1823 -0.3432 -0.0560
 2375SOL    HW118761   3.754   1.905  11.372 -2.0623  0.5945  0.4651
 2375SOL    HW218762   3.680   1.994  11.292  2.7842  1.4398  1.4427
 2376SOL     OW18763   2.825   0.875  11.904 -0.0152  0.2796  0.3009
 2376SOL    HW118764   2.776   0.830  11.972  0.6392 -1.7165 -0.5560
 2376SOL    HW218765   2.914   0.861  11.937  0.0508  0.4607  0.2025
 2377SOL     OW18766   0.724   3.813   4.381  0.0734 -0.0602  0.3686
 2377SOL    HW118767   0.724   3.734   4.328  0.2881  0.1950 -0.0110
 2377SOL    HW218768   0.653   3.796   4.443  0.0170  1.2051  0.6443
 2378SOL     OW18769   0.143   0.032   9.005 -0.5849 -0.3663 -0.9773
 2378SOL    HW118770   0.118   0.124   8.998  1.4058  0.2846  0.3077
 2378SOL    HW218771   0.125   4.736   8.919  0.1015  0.5195 -1.5037
 2379SOL     OW18772   1.428   0.925   0.783  0.5141  0.3944 -0.3471
 2379SOL    HW118773   1.372   0.955   0.855 -2.1062  0.8246 -2.5434
 2379SOL    HW218774   1.514   0.930   0.824  0.4071 -1.2056  0.0703
 2380SOL     OW18775   4.681   4.725  13.301 -0.0664 -0.5650 -0.3017
 2380SOL    HW118776   4.648   4.682  13.380 -2.2816  2.4645  0.4163
 2380SOL    HW218777   0.032   4.698  13.307  0.1005  0.3948  1.6678
 2381SOL     OW18778   1.641   3.559   9.172 -0.0021  0.2311  0.2522
 2381SOL    HW118779   1.693   3.509   9.108 -0.9982 -0.4420 -0.0260
 2381SOL    HW218780   1.642   3.497   9.244  1.8778  2.2900  2.0090
 2382SOL     OW18781   4.680   4.642  11.241  0.2167  0.5354  0.1624
 2382SOL    HW118782   4.660   4.549  11.229 -1.5145  1.1324 -1.4245
 2382SOL    HW218783   4.589   4.671  11.246 -0.6413 -2.1568  0.5268
 2383SOL     OW18784   3.702   0.906   8.761  0.1231 -0.0533  0.2289
 2383SOL    HW118785   3.695   0.999   8.781 -1.4300  0.0606 -0.8889
 2383SOL    HW218786   3.616   0.872   8.786 -0.2146  1.0459  0.5378
 2384SOL     OW18787   0.177   4.363   5.210  0.3710  0.3210 -0.3227
 2384SOL    HW118788   0.160   4.318   5.128  1.1126  2.8914 -1.8814
 2384SOL    HW218789   0.159   4.453   5.183  2.0212  0.8332  0.2784
 2385SOL     OW18790   4.575   3.334   2.707 -0.2132 -0.3561  0.5104
 2385SOL    HW118791   4.616   3.372   2.629  1.4892 -3.7629 -0.2297
 2385SOL    HW218792   4.585   3.240   2.693  1.4699  0.1031 -1.3807
 2386SOL     OW18793   1.651   3.973   3.848  0.6086  0.2935  0.0621
 2386SOL    HW118794   1.699   4.027   3.786  0.2185  1.6323  0.9123
 2386SOL    HW218795   1.581   4.035   3.870  0.6314  0.0822  0.7368
 2387SOL     OW18796   2.778   2.924   7.794  1.0951 -0.4818  0.0981
 2387SOL    HW118797   2.824   2.925   7.877 -1.3953  4.4102  1.4310
 2387SOL    HW218798   2.692   2.898   7.828  0.1448  0.2163 -1.7571
 2388SOL     OW18799   1.536   3.473  16.003  0.4310  0.2276  0.4721
 2388SOL    HW118800   1.442   3.490  15.995  1.1937  2.3001 -4.3197
 2388SOL    HW218801   1.533   3.390  16.050 -0.8348 -0.7820 -1.3906
 2389SOL     OW18802   3.154   4.249   3.406 -0.5087 -0.1237 -0.0105
 2389SOL    HW118803   3.095   4.324   3.412  1.1156  1.0936  0.5883
 2389SOL    HW218804   3.181   4.267   3.316  0.1488 -1.7075 -0.1253
 2390SOL     OW18805   0.093   0.754   3.532  0.3762  0.3992 -0.1939
 2390SOL    HW118806   0.058   0.677   3.488  1.8240 -0.9360  0.9966
 2390SOL    HW218807   0.073   0.738   3.624  1.6118 -0.0858 -0.0113
 2391SOL     OW18808   3.592   0.064   9.673  0.5621 -0.0696 -0.2555
 2391SOL    HW118809   3.601   0.042   9.766 -0.1445  1.2721  0.1290
 2391SOL    HW218810   3.516   0.122   9.675 -1.1254 -2.3168  0.6243
 2392SOL     OW18811   2.753   3.920  14.502 -0.1726  0.0698 -0.9598
 2392SOL    HW118812   2.770   4.014  14.506  0.2198 -0.0398 -0.2144
 2392SOL    HW218813   2.834   3.899  14.455 -0.6971  2.9079 -3.1615
 2393SOL     OW18814   1.483   1.740   5.449 -0.1415  0.2057  0.7476
 2393SOL    HW118815   1.454   1.659   5.491  0.9158 -1.5765 -1.9580
 2393SOL    HW218816   1.577   1.737   5.467  0.0573  0.0600 -0.3229
 2394SOL     OW18817   1.192   2.294   2.958 -0.1993 -0.2779  0.4266
 2394SOL    HW118818   1.166   2.253   2.876  0.3709  0.6852 -0.2280
 2394SOL    HW218819   1.242   2.373   2.938 -0.4749 -0.3904 -0.6565
 2395SOL     OW18820   0.789   0.144   5.511  0.1012  0.1497 -0.3417
 2395SOL    HW118821   0.793   0.180   5.599  1.8014  1.2657 -0.8683
 2395SOL    HW218822   0.789   0.052   5.537 -0.4341  0.0491 -0.6814
 2396SOL     OW18823   4.009   2.995   7.292  0.4531  0.6107 -0.1557
 2396SOL    HW118824   3.917   3.009   7.315  0.6940 -1.9266  2.4454
 2396SOL    HW218825   4.000   2.905   7.258  0.4157  1.2908 -1.9700
 2397SOL     OW18826   2.072   4.280   2.565  0.0191 -0.3658 -0.4302
 2397SOL    HW118827   2.102   4.326   2.487  0.7931 -3.0517 -1.6867
 2397SOL    HW218828   2.006   4.342   2.597  0.7695  0.3505 -0.2715
 2398SOL     OW18829   4.073   2.398   4.689  0.2760  0.7776  0.2960
 2398SOL    HW118830   4.128   2.440   4.624  1.4018 -0.0514  0.7068
 2398SOL    HW218831   3.987   2.437   4.674  0.3471  0.6313 -0.4893
 2399SOL     OW18832   0.709   1.876   8.212 -0.0793 -0.1090  0.3839
 2399SOL    HW118833   0.667   1.791   8.200  1.8391 -0.9259 -0.6004
 2399SOL    HW218834   0.767   1.870   8.136 -1.9395 -1.0594 -0.9477
 2400SOL     OW18835   3.547   3.186   4.809  0.2141  0.1820  0.1623
 2400SOL    HW118836   3.487   3.115   4.830 -0.9370  1.3193  0.6841
 2400SOL    HW218837   3.519   3.211   4.721 -0.6120  1.9173  0.9182
 2401SOL     OW18838   4.065   1.449   5.785 -0.6045 -0.0284 -0.3697
 2401SOL    HW118839   3.989   1.454   5.843 -0.8721 -3.0056 -0.4883
 2401SOL    HW218840   4.114   1.391   5.844  2.0548  3.0932  0.4795
 2402SOL     OW18841   3.957   2.957   5.380  0.1331  0.5892 -0.1685
 2402SOL    HW118842   3.941   2.922   5.293  0.8342 -0.8313  0.2771
 2402SOL    HW218843   4.015   2.895   5.425 -0.6206 -0.8748 -1.2229
 2403SOL     OW18844   1.874   1.200   6.774  0.1857 -0.7120 -0.1295
 2403SOL    HW118845   1.855   1.172   6.685 -0.8534 -2.5950  0.6886
 2403SOL    HW218846   1.786   1.209   6.810  0.5508 -1.6931  0.9979
 2404SOL     OW18847   0.284   4.500   6.131  0.0052  0.0300  0.7351
 2404SOL    HW118848   0.306   4.462   6.046  2.1763  1.6995  0.5539
 2404SOL    HW218849   0.193   4.523   6.116  0.0678 -0.7389 -0.7582
 2405SOL     OW18850   4.364   0.895   4.504  0.0211  0.1479  0.9765
 2405SOL    HW118851   4.379   0.976   4.552  0.3405 -0.8006  2.4706
 2405SOL    HW218852   4.410   0.830   4.557 -2.3268 -3.6277 -1.4953
 2406SOL     OW18853   2.697   3.528  10.485 -0.1228  0.3929 -0.2631
 2406SOL    HW118854   2.618   3.479  10.463 -0.7406  1.4060 -0.3110
 2406SOL    HW218855   2.741   3.520  10.400 -0.6439 -2.6311 -0.2333
 2407SOL     OW18856   3.446   3.416  11.559  0.1573  0.0476  0.6253
 2407SOL    HW118857   3.503   3.343  11.582 -1.3685 -0.9293  1.2867
 2407SOL    HW218858   3.387   3.368  11.501 -0.0813  0.1876  0.7495
 2408SOL     OW18859   0.787   1.382  13.080 -0.3903 -0.1115  0.4323
 2408SOL    HW118860   0.710   1.438  13.080  0.0086  0.4449 -1.7179
 2408SOL    HW218861   0.832   1.412  13.159  1.1420  0.8108 -0.7828
 2409SOL     OW18862   2.252   1.462   8.496 -0.1700  0.8444 -0.2688
 2409SOL    HW118863   2.194   1.524   8.451 -1.0580  1.2167  1.3802
 2409SOL    HW218864   2.321   1.529   8.505  1.0895 -0.7637  2.1041
 2410SOL     OW18865   4.719   1.065   4.180  0.1676  0.6363  0.1225
 2410SOL    HW118866   0.030   1.130   4.227  2.9064  0.4708 -2.6664
 2410SOL    HW218867   0.052   1.019   4.139 -2.4311 -1.2185 -2.4646
 2411SOL     OW18868   2.620   1.854   5.440  0.1522 -0.2728 -0.6428
 2411SOL    HW118869   2.581   1.899   5.365  0.4232  0.1788 -0.5160
 2411SOL    HW218870   2.558   1.782   5.452  1.5674 -1.1176  1.6267
 2412SOL     OW18871   3.042   1.892   9.653 -0.2824  0.5268 -0.1180
 2412SOL    HW118872   2.973   1.885   9.718 -0.0017  2.1189  0.3442
 2412SOL    HW218873   2.991   1.861   9.577 -2.9491 -0.1766  1.9571
 2413SOL     OW18874   4.242   3.466  16.644 -0.0669 -1.0954  0.2306
 2413SOL    HW118875   4.172   3.401  16.636  0.7118 -1.7221 -1.4830
 2413SOL    HW218876   4.300   3.439  16.714  0.6976  1.1285  0.4428
 2414SOL     OW18877   1.378   1.778   0.488  0.1162  0.0640  0.0220
 2414SOL    HW118878   1.423   1.860   0.511 -0.6898  0.0467  1.6277
 2414SOL    HW218879   1.307   1.784   0.552 -1.4193 -0.6038 -1.6274
 2415SOL     OW18880   4.327   2.760   3.071  0.4856  0.3298  0.5147
 2415SOL    HW118881   4.241   2.800   3.079  0.2574 -0.0931  0.1586
 2415SOL    HW218882   4.375   2.832   3.029  2.4320 -1.1898  0.0927
 2416SOL     OW18883   2.936   2.471   8.770 -0.7677 -0.0698 -0.0751
 2416SOL    HW118884   2.998   2.500   8.703  1.0014 -0.8452  1.2177
 2416SOL    HW218885   2.894   2.553   8.794 -0.7116  0.5184 -1.9889
 2417SOL     OW18886   3.144   2.755   1.179 -0.1086  1.1282  0.5328
 2417SOL    HW118887   3.175   2.834   1.134  0.5716  0.1578 -0.7235
 2417SOL    HW218888   3.118   2.697   1.107 -0.2830  1.3003  0.4562
 2418SOL     OW18889   3.803   4.409   6.720 -0.5276  0.1500  0.3658
 2418SOL    HW118890   3.871   4.458   6.767  1.2542 -0.0235 -2.0544
 2418SOL    HW218891   3.765   4.475   6.663 -1.1530 -1.1796 -0.7321
 2419SOL     OW18892   3.537   4.643   4.696 -0.0183 -0.3104 -0.1116
 2419SOL    HW118893   3.454   4.611   4.732 -0.1874  0.5919  0.3191
 2419SOL    HW218894   3.508   4.674   4.610  0.3624  1.7027  0.4788
 2420SOL     OW18895   1.124   4.682   0.516 -0.1060 -0.3473  0.3093
 2420SOL    HW118896   1.202   4.704   0.464  0.5612 -1.4666  0.8559
 2420SOL    HW218897   1.162   4.646   0.596  0.0215 -0.0970  0.3612
 2421SOL     OW18898   2.202   4.739  14.776  0.2024 -0.1317 -0.0418
 2421SOL    HW118899   2.134   0.060  14.801  1.5375  1.4871 -0.4215
 2421SOL    HW218900   2.218   0.034  14.688 -3.2196 -1.5357 -1.2370
 2422SOL     OW18901   1.943   2.505  10.005 -0.5028  0.3212  0.1310
 2422SOL    HW118902   1.956   2.542   9.918  2.2971  1.4369  0.9950
 2422SOL    HW218903   2.006   2.561  10.051  0.7303 -1.4990  0.6647
 2423SOL     OW18904   4.650   2.536   4.020  0.5757 -0.4366  0.9207
 2423SOL    HW118905   4.694   2.615   3.989  2.8017 -2.3184 -0.7419
 2423SOL    HW218906   4.607   2.570   4.099  0.7291 -0.0501  0.8382
 2424SOL     OW18907   4.208   0.358   3.014  0.6714 -0.4678  0.1021
 2424SOL    HW118908   4.254   0.439   3.039 -2.6562  1.2444  0.6231
 2424SOL    HW218909   4.125   0.388   2.977  2.4433  0.9050 -2.7419
 2425SOL     OW18910   1.813   3.821  15.318 -0.2429  0.2632  1.0907
 2425SOL    HW118911   1.787   3.729  15.309 -1.0749  0.8055 -1.9949
 2425SOL    HW218912   1.781   3.857  15.401 -0.9431  0.5467  0.6933
 2426SOL     OW18913   4.100   1.241   5.193 -0.1053  0.3778  0.3622
 2426SOL    HW118914   4.022   1.241   5.248 -0.1693 -0.6037  0.2836
 2426SOL    HW218915   4.067   1.211   5.108  1.3876  1.2369 -0.5128
 2427SOL     OW18916   3.924   0.081   7.798  0.0595 -0.0473 -0.0347
 2427SOL    HW118917   4.009   0.122   7.787 -0.8202  2.0265  0.8544
 2427SOL    HW218918   3.950   4.732   7.782 -1.7991 -0.9365  1.9419
 2428SOL     OW18919   2.076   2.484   9.569  0.0160  0.0568 -0.4654
 2428SOL    HW118920   2.154   2.530   9.538 -0.3172  0.2230 -1.0503
 2428SOL    HW218921   2.039   2.541   9.636 -1.4784 -3.0744  1.3684
 2429SOL     OW18922   0.557   4.730   1.906 -0.3134  0.3438 -0.0219
 2429SOL    HW118923   0.558   4.636   1.887  0.7524  0.4597 -0.5458
 2429SOL    HW218924   0.522   0.031   1.827 -1.1713 -0.8576 -0.2694
 2430SOL     OW18925   0.295   3.816   6.172 -0.6992 -0.2810 -0.0677
 2430SOL    HW118926   0.234   3.770   6.115 -2.0119  1.9783 -0.4853
 2430SOL    HW218927   0.274   3.780   6.258 -0.0395 -2.8527 -0.9834
 2431SOL     OW18928   1.027   1.679  17.267 -0.0208  0.0637  0.0007
 2431SOL    HW118929   1.024   1.589  17.299  0.5288 -0.2484 -0.8054
 2431SOL    HW218930   0.946   1.724  17.290 -0.7776 -1.0458 -0.4931
 2432SOL     OW18931   1.858   2.170   1.787 -0.6409 -0.0748  0.2749
 2432SOL    HW118932   1.939   2.162   1.836  0.2937  2.7630 -0.8120
 2432SOL    HW218933   1.833   2.262   1.796  1.0970  0.5211 -1.0513
 2433SOL     OW18934   2.931   4.719   2.351  0.1783 -0.1589  0.1290
 2433SOL    HW118935   2.986   4.661   2.299 -1.6637 -2.0887  0.3480
 2433SOL    HW218936   2.996   0.042   2.382 -0.3793  0.5961 -0.2395
 2434SOL     OW18937   2.150   1.348  10.029  0.4151 -0.5633 -0.4516
 2434SOL    HW118938   2.078   1.406  10.053  1.4455  0.7743 -0.6228
 2434SOL    HW218939   2.199   1.344  10.112 -0.0381 -1.6152 -0.2307
 2435SOL     OW18940   1.983   3.059   1.417  0.0395 -0.6095  0.0102
 2435SOL    HW118941   1.958   3.039   1.507  0.0321 -2.7370 -0.4416
 2435SOL    HW218942   1.901   3.060   1.368  0.4164  1.6778 -0.5517
 2436SOL     OW18943   3.964   3.211   4.204  0.4904  0.2721  0.2768
 2436SOL    HW118944   3.984   3.155   4.129  0.4920  0.0027  0.4784
 2436SOL    HW218945   3.870   3.226   4.191  0.2619 -2.3303 -0.9311
 2437SOL     OW18946   0.316   3.361   1.933  0.0439 -0.1339  0.0363
 2437SOL    HW118947   0.280   3.275   1.953  0.6482 -0.1302  1.1576
 2437SOL    HW218948   0.409   3.342   1.924  0.1566  0.0932  0.7322
 2438SOL     OW18949   0.165   3.453   4.406 -0.3019  0.3727  0.2920
 2438SOL    HW118950   0.173   3.361   4.384  1.7511  0.5237  0.3374
 2438SOL    HW218951   0.082   3.445   4.452  1.0269  0.5981  2.7466
 2439SOL     OW18952   4.095   1.531   3.827  0.2510  0.5512  0.5865
 2439SOL    HW118953   4.088   1.626   3.841 -1.3820  0.4815  0.2569
 2439SOL    HW218954   4.170   1.530   3.769 -1.1913  1.2243 -1.2998
 2440SOL     OW18955   1.747   3.186   3.124  0.2368  0.2172  0.2237
 2440SOL    HW118956   1.717   3.245   3.193  0.7227  2.0408 -1.1432
 2440SOL    HW218957   1.759   3.102   3.169 -1.6270 -0.1171  0.1036
 2441SOL     OW18958   0.387   0.599   0.677  0.1646 -0.3868 -0.2541
 2441SOL    HW118959   0.315   0.541   0.651 -0.7515  0.5404  0.1968
 2441SOL    HW218960   0.379   0.667   0.610 -1.1255 -1.3314 -1.0547
 2442SOL     OW18961   0.763   3.936   7.406  0.0841 -0.4564 -0.0670
 2442SOL    HW118962   0.728   3.975   7.486  0.0623  0.4931 -0.5410
 2442SOL    HW218963   0.772   3.847   7.439 -0.2981 -0.0810  1.0361
 2443SOL     OW18964   0.979   3.272  11.726 -0.0247  0.5442 -0.0971
 2443SOL    HW118965   0.942   3.314  11.804  0.6522  0.9494  0.0001
 2443SOL    HW218966   0.904   3.263  11.667 -0.9057 -0.6233  1.2088
 2444SOL     OW18967   2.954   4.421   3.395 -0.2512 -0.8181  0.1355
 2444SOL    HW118968   2.867   4.388   3.418 -1.5393  3.0431  0.7975
 2444SOL    HW218969   2.942   4.509   3.430  2.2353  0.0321 -1.1643
 2445SOL     OW18970   1.032   3.178   0.463 -0.1901 -0.3052  0.0047
 2445SOL    HW118971   0.954   3.179   0.408 -1.0371 -3.1294  1.1196
 2445SOL    HW218972   1.055   3.270   0.452  1.0073 -0.7330 -1.0729
 2446SOL     OW18973   1.992   2.450   3.779  0.1145  0.2379 -0.4733
 2446SOL    HW118974   1.969   2.540   3.802  0.9976  0.9095 -2.2382
 2446SOL    HW218975   2.077   2.458   3.736  0.7872  0.6357  0.9369
 2447SOL     OW18976   4.286   2.478   5.644  0.2724  0.4147  0.3883
 2447SOL    HW118977   4.210   2.531   5.617  1.0027  1.2814  0.0224
 2447SOL    HW218978   4.247   2.393   5.623 -0.0471  0.1085  2.2295
 2448SOL     OW18979   3.804   4.636   8.607  0.4307  0.1407 -0.2315
 2448SOL    HW118980   3.783   4.543   8.609 -0.3670  0.2574 -4.2564
 2448SOL    HW218981   3.840   4.649   8.520  1.3791 -0.9345 -0.0017
 2449SOL     OW18982   1.512   3.114   4.959 -0.1260 -0.5301 -0.2348
 2449SOL    HW118983   1.462   3.164   4.894 -0.4422  0.8305  1.0487
 2449SOL    HW218984   1.599   3.153   4.952  1.2732 -3.2676  1.9707
 2450SOL     OW18985   0.002   1.023   6.608 -0.4670 -0.9921 -0.5013
 2450SOL    HW118986   0.016   0.946   6.552 -1.3171 -1.0988 -0.5586
 2450SOL    HW218987   4.682   1.077   6.558  0.3165  0.0891 -0.2939
 2451SOL     OW18988   3.089   0.858   6.375  0.0999 -0.2821  0.4714
 2451SOL    HW118989   3.138   0.859   6.458  0.0981  1.0683  0.4552
 2451SOL    HW218990   3.114   0.771   6.342  0.4008  0.0620 -0.1969
 2452SOL     OW18991   3.036   0.077   7.479  0.6602  0.1652  0.2682
 2452SOL    HW118992   3.107   0.085   7.542 -1.6125 -0.2554  2.8934
 2452SOL    HW218993   2.961   0.059   7.536  0.6887 -3.7267 -0.9149
 2453SOL     OW18994   4.172   2.305  13.916  0.0824 -0.2859  0.2324
 2453SOL    HW118995   4.222   2.224  13.921  4.0134  1.8821 -3.2770
 2453SOL    HW218996   4.083   2.274  13.929  0.6063 -1.0866  1.9774
 2454SOL     OW18997   3.767   0.864   9.481  0.7835  0.8175 -0.2101
 2454SOL    HW118998   3.847   0.915   9.497  1.9236 -0.6643 -1.2517
 2454SOL    HW218999   3.760   0.813   9.562  3.2234 -1.1340 -1.2416
 2455SOL     OW19000   4.604   3.906  15.086  0.0418  0.1320 -0.2872
 2455SOL    HW119001   4.689   3.936  15.055 -0.5078  0.3086 -1.6457
 2455SOL    HW219002   4.628   3.874  15.173 -0.4394  0.1581 -0.1420
 2456SOL     OW19003   0.662   4.255   2.747 -0.3835  0.3962  0.6762
 2456SOL    HW119004   0.643   4.262   2.653 -2.9914  0.9929  1.2637
 2456SOL    HW219005   0.685   4.162   2.743 -0.2841  0.4046  1.0154
 2457SOL     OW19006   1.486   4.253   3.373  0.3994 -0.2362 -0.1830
 2457SOL    HW119007   1.488   4.161   3.348  0.5991  0.0650 -1.2759
 2457SOL    HW219008   1.450   4.287   3.291 -0.2340 -1.2140 -0.3197
 2458SOL     OW19009   0.300   1.060   5.330  0.4043 -0.4146 -0.2716
 2458SOL    HW119010   0.338   1.049   5.417 -0.8779 -1.8869  0.1117
 2458SOL    HW219011   0.283   1.154   5.331  3.8202  0.2046 -0.3109
 2459SOL     OW19012   2.759   0.740  12.471  0.4469  0.0539 -0.4178
 2459SOL    HW119013   2.840   0.694  12.452 -0.2490 -1.3484  0.0115
 2459SOL    HW219014   2.754   0.804  12.399  2.4882  1.5276  0.7555
 2460SOL     OW19015   3.049   2.114   2.095  0.7201  0.5163 -0.3160
 2460SOL    HW119016   3.134   2.153   2.116  1.3272 -0.6522 -0.5405
 2460SOL    HW219017   3.072   2.021   2.099 -1.0083  0.0093 -2.2847
 2461SOL     OW19018   3.775   0.185  11.795 -0.2198  0.4902  0.2058
 2461SOL    HW119019   3.733   0.151  11.717  4.8131  0.4404 -2.4922
 2461SOL    HW219020   3.860   0.213  11.760  0.7064 -1.2038  1.0718
 2462SOL     OW19021   0.926   2.174  14.359 -0.3630 -0.6241 -0.5658
 2462SOL    HW119022   0.935   2.269  14.368 -1.4727 -0.6368  0.6253
 2462SOL    HW219023   0.831   2.163  14.359 -0.6035  1.4934 -1.6606
 2463SOL     OW19024   3.342   2.447  15.230  0.7212  0.1083  0.9464
 2463SOL    HW119025   3.385   2.365  15.255 -1.0203 -1.8264 -2.4502
 2463SOL    HW219026   3.408   2.494  15.179  0.3524 -0.4346 -0.0358
 2464SOL     OW19027   0.247   3.583  17.682 -0.2027  0.0190 -0.2259
 2464SOL    HW119028   0.265   3.672  17.711  1.7018 -1.0308  1.8262
 2464SOL    HW219029   0.328   3.548  17.647  0.7339 -0.8544  2.8045
 2465SOL     OW19030   2.160   1.452  16.000 -0.2132 -0.7103 -0.5477
 2465SOL    HW119031   2.140   1.540  15.968 -0.4936 -0.5615  0.0458
 2465SOL    HW219032   2.158   1.406  15.916 -1.5427 -1.2692 -0.2082
 2466SOL     OW19033   4.587   0.820   8.424 -0.0886 -0.3779  0.2419
 2466SOL    HW119034   4.531   0.895   8.401 -0.5627 -0.8604 -0.1627
 2466SOL    HW219035   4.602   0.841   8.516 -0.9060 -0.5879  0.4249
 2467SOL     OW19036   0.827   0.169  15.324 -0.3899 -0.0976  0.3327
 2467SOL    HW119037   0.763   0.235  15.300 -4.1261 -4.4248 -1.5804
 2467SOL    HW219038   0.762   0.101  15.342  0.9054 -1.8907 -1.6498
 2468SOL     OW19039   4.012   1.852   8.724 -0.4155  0.4085  0.1302
 2468SOL    HW119040   4.060   1.864   8.806 -0.3587  1.5862 -0.0759
 2468SOL    HW219041   3.972   1.937   8.709  0.5520  0.4381 -2.2024
 2469SOL     OW19042   4.277   4.275   5.244 -0.3748 -0.0808 -0.0483
 2469SOL    HW119043   4.322   4.202   5.201  0.8487 -0.2417  1.5134
 2469SOL    HW219044   4.314   4.270   5.332  0.2081  1.5420 -0.2129
 2470SOL     OW19045   1.648   3.444   2.418  0.4477 -0.6397 -0.0342
 2470SOL    HW119046   1.613   3.370   2.369  0.7225 -0.6008 -0.2867
 2470SOL    HW219047   1.600   3.444   2.501  0.9209 -1.6080  0.2480
 2471SOL     OW19048   0.515   3.840   3.648  0.2249  0.0915 -0.1069
 2471SOL    HW119049   0.499   3.886   3.730 -0.0951  0.7647 -0.5425
 2471SOL    HW219050   0.585   3.892   3.609 -0.4137  2.6190  2.1154
 2472SOL     OW19051   0.805   1.057   2.555 -0.1600 -0.0311 -0.1423
 2472SOL    HW119052   0.741   0.986   2.549 -0.3087  0.0002  1.0958
 2472SOL    HW219053   0.863   1.017   2.620  1.6250  2.7777 -0.0061
 2473SOL     OW19054   3.724   2.122   0.552  0.2361 -0.3585  0.7005
 2473SOL    HW119055   3.703   2.062   0.623 -1.0504  1.0092  1.4870
 2473SOL    HW219056   3.726   2.203   0.603  0.5137 -0.4907  0.8965
 2474SOL     OW19057   4.236   2.229   2.799 -0.2922 -0.5806  0.4981
 2474SOL    HW119058   4.230   2.224   2.895 -0.3119 -0.5413  0.4986
 2474SOL    HW219059   4.330   2.235   2.782 -0.0529  0.7762  2.2996
 2475SOL     OW19060   1.717   3.004   7.299 -0.1045 -0.1533  0.1589
 2475SOL    HW119061   1.631   3.046   7.303 -0.8369 -1.5579 -0.8134
 2475SOL    HW219062   1.740   3.008   7.206 -1.0267 -0.0797 -0.0674
 2476SOL     OW19063   1.088   0.347   6.906  0.2450 -0.6449  0.8043
 2476SOL    HW119064   1.138   0.403   6.848  0.6607  0.2023  1.9743
 2476SOL    HW219065   1.080   0.276   6.842 -2.5095  0.3609  0.0094
 2477SOL     OW19066   0.673   1.378   8.469  0.1545 -0.2237 -0.1984
 2477SOL    HW119067   0.755   1.341   8.502 -0.7416 -0.3022  1.9449
 2477SOL    HW219068   0.697   1.373   8.376 -0.0164  0.9267 -0.2978
 2478SOL     OW19069   1.008   0.740  11.284 -1.0498 -0.2233  0.0279
 2478SOL    HW119070   0.992   0.651  11.316  0.4836 -0.6500 -0.3814
 2478SOL    HW219071   0.941   0.748  11.216 -0.3957  0.6867 -0.5023
 2479SOL     OW19072   0.646   2.367  10.581 -0.0413  0.4928  0.4110
 2479SOL    HW119073   0.620   2.338  10.668  0.1543  4.5023  1.8260
 2479SOL    HW219074   0.699   2.445  10.596 -0.5667  1.0489 -0.6221
 2480SOL     OW19075   4.644   1.374   8.624 -0.0543 -0.0364 -0.3459
 2480SOL    HW119076   4.624   1.348   8.714  1.0085  0.4121  0.0180
 2480SOL    HW219077   4.737   1.350   8.623 -0.6052 -2.2053 -0.3218
 2481SOL     OW19078   1.993   0.971   6.076 -0.0487  0.5425 -0.5993
 2481SOL    HW119079   2.070   0.915   6.090 -0.2594  0.7782  1.5536
 2481SOL    HW219080   2.004   0.978   5.981  0.3476 -0.1883 -0.6112
 2482SOL     OW19081   0.568   3.080   4.799 -0.3617 -0.0935 -0.1026
 2482SOL    HW119082   0.529   3.158   4.839  0.4311 -0.3731  1.2231
 2482SOL    HW219083   0.487   3.029   4.787 -0.7115  0.7108 -1.1473
 2483SOL     OW19084   4.041   0.549   4.373  0.1241 -0.2594  0.0262
 2483SOL    HW119085   3.964   0.591   4.411 -1.4127 -1.1287 -2.1463
 2483SOL    HW219086   4.002   0.486   4.313  1.5522  1.5269 -2.8043
 2484SOL     OW19087   1.906   4.259   3.236 -0.1015 -0.3014  0.0299
 2484SOL    HW119088   1.827   4.305   3.266 -0.8358  0.0405 -2.4028
 2484SOL    HW219089   1.982   4.316   3.251 -0.0909  0.2705 -2.1452
 2485SOL     OW19090   3.450   4.733   5.672  0.1697  0.0800 -0.2640
 2485SOL    HW119091   3.512   0.019   5.605 -0.4991  0.8794 -0.5533
 2485SOL    HW219092   3.432   0.061   5.735  1.0325  1.5624 -1.6518
 2486SOL     OW19093   2.916   1.752   5.079  0.8075  0.6403  0.4900
 2486SOL    HW119094   2.956   1.752   5.166 -0.5540 -0.5194  1.1281
 2486SOL    HW219095   2.908   1.846   5.064  0.0472  0.4132 -0.5342
 2487SOL     OW19096   4.436   1.103   8.825 -0.3919 -0.3668  0.3381
 2487SOL    HW119097   4.408   1.136   8.740  0.6892  2.3003  1.0147
 2487SOL    HW219098   4.518   1.147   8.847 -1.0904  1.1872 -0.2101
 2488SOL     OW19099   4.476   0.595  12.216 -0.2040  0.3391  0.0072
 2488SOL    HW119100   4.436   0.509  12.205  1.1259 -0.1863 -0.6951
 2488SOL    HW219101   4.557   0.579  12.167 -0.8499 -0.8833 -0.6451
 2489SOL     OW19102   2.941   3.870   7.828  0.4393 -0.1206 -0.0470
 2489SOL    HW119103   2.944   3.781   7.862 -2.4503  0.2710  1.2325
 2489SOL    HW219104   2.849   3.894   7.840  0.4499 -0.2491  0.2892
 2490SOL     OW19105   3.635   1.086   9.165 -0.5538 -0.4158  0.0877
 2490SOL    HW119106   3.643   1.178   9.140  0.2715 -0.0934  1.5305
 2490SOL    HW219107   3.665   1.041   9.086 -0.9072  0.2987 -0.4510
 2491SOL     OW19108   3.452   0.117   4.183 -0.1290 -0.7771 -0.0118
 2491SOL    HW119109   3.456   0.028   4.147  0.9122 -1.1575  1.0591
 2491SOL    HW219110   3.395   0.152   4.114  1.8528 -1.0222 -1.7693
 2492SOL     OW19111   4.133   3.515  15.735  0.5493  0.1729  0.4615
 2492SOL    HW119112   4.170   3.565  15.807  0.6678 -0.5288  0.8920
 2492SOL    HW219113   4.088   3.585  15.688  0.3948 -0.5136 -0.4139
 2493SOL     OW19114   3.573   0.216   6.485 -0.2174  0.2815  0.7170
 2493SOL    HW119115   3.504   0.177   6.539 -1.4006  0.4547 -0.6942
 2493SOL    HW219116   3.574   0.308   6.511 -0.4517  0.2202  0.9400
 2494SOL     OW19117   3.941   4.626  11.691 -0.1658 -0.1172 -0.7071
 2494SOL    HW119118   3.968   4.536  11.707  1.4926  1.0326  2.7405
 2494SOL    HW219119   3.999   4.686  11.737 -2.7075  0.7412  1.3799
 2495SOL     OW19120   1.658   3.273  12.735  0.2863 -0.5210 -0.0465
 2495SOL    HW119121   1.659   3.357  12.781  0.5782 -1.0527  0.9177
 2495SOL    HW219122   1.634   3.204  12.797  1.8616  0.7332  1.9416
 2496SOL     OW19123   2.399   3.567   8.514 -0.0504  0.3988 -0.2946
 2496SOL    HW119124   2.375   3.596   8.426 -0.3021 -1.2366 -0.7569
 2496SOL    HW219125   2.431   3.651   8.547 -0.9530 -0.5026  2.9441
 2497SOL     OW19126   3.275   1.592  11.537  0.2536 -0.1816 -0.4195
 2497SOL    HW119127   3.295   1.544  11.617  0.1789 -1.5094 -1.1901
 2497SOL    HW219128   3.355   1.614  11.488 -1.1124 -2.6223 -3.7764
 2498SOL     OW19129   2.288   1.330   3.661 -0.6720  0.0659  0.6897
 2498SOL    HW119130   2.263   1.413   3.622  1.2915 -0.9854 -2.8117
 2498SOL    HW219131   2.208   1.288   3.691 -0.7158 -2.7617 -3.4175
 2499SOL     OW19132   3.785   4.473   1.245 -0.1538 -0.5191  0.2094
 2499SOL    HW119133   3.789   4.552   1.299 -0.3126 -1.1461  1.1444
 2499SOL    HW219134   3.859   4.478   1.185 -0.8341 -0.6630 -0.6258
 2500SOL     OW19135   1.366   1.600   6.670 -0.1545  0.7514  0.2675
 2500SOL    HW119136   1.414   1.531   6.715  0.4810  1.2350  0.3433
 2500SOL    HW219137   1.426   1.670   6.696  0.5788  0.2878 -0.1906
 2501SOL     OW19138   0.244   4.062   3.740  0.7014  0.2961 -0.3874
 2501SOL    HW119139   0.339   4.063   3.732  0.6423 -1.7357 -1.4161
 2501SOL    HW219140   0.228   4.012   3.820  0.7054  0.2821 -0.3955
 2502SOL     OW19141   4.541   1.220  11.917 -0.0258  0.4843  0.3814
 2502SOL    HW119142   4.538   1.314  11.932 -0.2695  0.3110  1.4245
 2502SOL    HW219143   4.604   1.201  11.848 -1.6966 -0.8806 -0.7817
 2503SOL     OW19144   2.306   4.714   3.290 -0.0546 -0.5691 -0.2075
 2503SOL    HW119145   2.351   4.740   3.371 -0.1814  1.4121 -0.7726
 2503SOL    HW219146   2.322   0.048   3.234  0.9457  0.5971  1.6422
 2504SOL     OW19147   4.027   2.310   1.916  0.1931  0.1624  0.2397
 2504SOL    HW119148   3.945   2.359   1.920 -0.1187 -0.3481  0.1907
 2504SOL    HW219149   4.052   2.303   1.824  1.5137 -0.8217  0.6788
 2505SOL     OW19150   0.956   2.448  14.448 -0.0748  0.4624  0.1755
 2505SOL    HW119151   0.903   2.520  14.415 -0.3524 -0.1767 -0.7985
 2505SOL    HW219152   0.982   2.470  14.537  3.2270  0.8626 -0.8943
 2506SOL     OW19153   2.946   0.571  15.215 -0.0073 -0.1834  0.0088
 2506SOL    HW119154   2.890   0.647  15.228  1.1557  0.6074  0.4453
 2506SOL    HW219155   3.012   0.581  15.284 -1.3178  0.7726  1.1181
 2507SOL     OW19156   3.252   0.223  12.983 -0.6932 -0.2504  0.5793
 2507SOL    HW119157   3.260   0.174  13.065 -1.0090  1.7249  1.8107
 2507SOL    HW219158   3.182   0.173  12.942 -1.7484  0.4736  1.5237
 2508SOL     OW19159   1.001   2.661   6.864  0.4321  0.2548 -0.4078
 2508SOL    HW119160   0.928   2.687   6.808  1.0773 -0.5048 -1.6200
 2508SOL    HW219161   0.951   2.673   6.944 -1.7864  0.9586 -1.8894
 2509SOL     OW19162   2.763   1.217  16.849 -0.1084  0.0411 -0.9476
 2509SOL    HW119163   2.719   1.200  16.933  1.3889 -0.6322 -0.3013
 2509SOL    HW219164   2.814   1.291  16.879  1.1780 -1.2789  0.1511
 2510SOL     OW19165   4.538   3.281   1.097  0.1239  0.4313 -0.0574
 2510SOL    HW119166   4.517   3.208   1.155  0.0414 -0.7511 -1.5719
 2510SOL    HW219167   4.533   3.348   1.165  0.9274 -1.3499  1.7496
 2511SOL     OW19168   1.405   3.449   2.968  0.2275 -0.1750 -0.2360
 2511SOL    HW119169   1.444   3.366   2.942  1.7581  1.1578 -2.2921
 2511SOL    HW219170   1.481   3.489   3.010  1.8172 -0.4056 -2.8729
 2512SOL     OW19171   0.484   2.772   4.084 -0.4338  0.3487  0.2629
 2512SOL    HW119172   0.551   2.705   4.101 -0.3559  0.1825 -0.6721
 2512SOL    HW219173   0.412   2.722   4.123 -0.0928 -2.1237 -2.2206
 2513SOL     OW19174   2.648   0.517  11.678 -0.0211  0.4364 -0.4667
 2513SOL    HW119175   2.555   0.508  11.657 -1.1158 -2.1556  5.6126
 2513SOL    HW219176   2.651   0.549  11.768 -0.9761 -0.7651 -0.0104
 2514SOL     OW19177   1.953   2.287   0.128  0.4579 -0.5756 -0.3270
 2514SOL    HW119178   2.014   2.350   0.165  0.3456 -0.6432 -0.0279
 2514SOL    HW219179   1.869   2.330   0.143 -0.0744 -1.0123 -2.0548
 2515SOL     OW19180   3.543   0.803   0.866  0.2944 -0.1215  0.3343
 2515SOL    HW119181   3.510   0.866   0.930  0.2594 -0.4559  0.6438
 2515SOL    HW219182   3.497   0.829   0.785 -2.8759  0.0021  2.1882
 2516SOL     OW19183   0.818   2.379   3.232  0.8921  0.0566 -0.0463
 2516SOL    HW119184   0.793   2.342   3.317 -0.7507  2.2136  0.4011
 2516SOL    HW219185   0.904   2.340   3.218 -0.7131 -3.3021 -0.5088
 2517SOL     OW19186   3.080   0.509   2.669  0.4423 -0.0822  0.2484
 2517SOL    HW119187   3.034   0.578   2.717  0.4160  1.0471 -1.3746
 2517SOL    HW219188   3.012   0.446   2.645 -1.3525  2.0021 -0.0802
 2518SOL     OW19189   1.009   0.370  13.113  0.3754 -0.3170  0.0273
 2518SOL    HW119190   0.966   0.398  13.032  2.1834 -3.0777 -1.8684
 2518SOL    HW219191   0.942   0.409  13.170  1.2740  2.0813 -0.5332
 2519SOL     OW19192   0.250   4.138   7.560  0.2858  0.1586  0.5102
 2519SOL    HW119193   0.278   4.081   7.631  0.9323 -0.8330 -0.5261
 2519SOL    HW219194   0.177   4.184   7.601 -0.8674 -1.2507  0.0419
 2520SOL     OW19195   3.919   2.880   9.803 -0.0750  0.1707  0.3904
 2520SOL    HW119196   3.999   2.828   9.816  0.7470  1.4751  0.5105
 2520SOL    HW219197   3.932   2.940   9.876 -1.7339 -0.8103  1.5000
 2521SOL     OW19198   1.224   1.549  13.435 -0.3464  0.1806 -0.1411
 2521SOL    HW119199   1.233   1.643  13.453 -3.7191  0.5084 -0.2116
 2521SOL    HW219200   1.145   1.522  13.481  2.6968 -2.5700  3.4166
 2522SOL     OW19201   3.231   1.913  16.513 -0.6869  0.0411  0.1152
 2522SOL    HW119202   3.177   1.992  16.516  0.2475  0.7187 -0.7579
 2522SOL    HW219203   3.170   1.853  16.471  0.2795 -0.0851 -1.0981
 2523SOL     OW19204   1.296   3.207   2.427 -0.5459 -0.0667 -0.1956
 2523SOL    HW119205   1.313   3.218   2.521  0.9508 -4.0609  0.0167
 2523SOL    HW219206   1.216   3.259   2.421 -0.9779 -0.6826  0.1400
 2524SOL     OW19207   1.662   4.410   9.374 -0.4479  0.2429 -0.0453
 2524SOL    HW119208   1.749   4.447   9.361 -0.0176 -0.5906  0.4530
 2524SOL    HW219209   1.668   4.389   9.467  2.2505  1.4493  0.0440
 2525SOL     OW19210   0.577   1.722   4.375  0.3718 -0.0928  0.3780
 2525SOL    HW119211   0.641   1.753   4.439  0.8489 -0.8592  0.2680
 2525SOL    HW219212   0.600   1.764   4.292 -2.3890  2.1278  0.7178
 2526SOL     OW19213   0.838   0.447   3.644  0.1397 -0.5885 -0.4193
 2526SOL    HW119214   0.903   0.379   3.657  0.2640 -0.6943 -1.5791
 2526SOL    HW219215   0.891   0.525   3.630  0.0869 -0.3249  0.9138
 2527SOL     OW19216   2.406   3.251  10.800 -0.2357  0.0875 -0.0761
 2527SOL    HW119217   2.393   3.339  10.766 -0.8351 -0.4486 -1.2353
 2527SOL    HW219218   2.499   3.246  10.822  0.1134 -0.5060 -1.6460
 2528SOL     OW19219   2.069   1.300  14.261 -0.4536 -0.4526 -0.5290
 2528SOL    HW119220   2.105   1.372  14.313 -0.2015 -0.2943 -0.9256
 2528SOL    HW219221   2.005   1.342  14.204 -1.0384 -1.1548 -0.3897
 2529SOL     OW19222   0.428   0.821   9.976  0.5425  0.4783  0.3108
 2529SOL    HW119223   0.477   0.901   9.955  1.1759  0.2543  0.9476
 2529SOL    HW219224   0.357   0.836   9.914  1.5432  1.1186 -0.6909
 2530SOL     OW19225   2.562   3.773   6.127  0.2595  0.0763  0.2216
 2530SOL    HW119226   2.624   3.714   6.085 -1.1132  0.2862 -2.1088
 2530SOL    HW219227   2.609   3.855   6.119  2.0187 -1.0256 -0.7693
 2531SOL     OW19228   4.079   2.372  11.910  0.1833 -0.3888 -0.0063
 2531SOL    HW119229   4.150   2.388  11.972 -0.6608  1.8983  0.3819
 2531SOL    HW219230   4.057   2.464  11.896  1.2961 -0.2071 -0.4819
 2532SOL     OW19231   1.415   4.631  15.539  0.2742  0.4083  0.1498
 2532SOL    HW119232   1.354   4.574  15.586  0.5566 -0.3232 -0.3688
 2532SOL    HW219233   1.476   4.565  15.505  1.5588  1.4304  0.4603
 2533SOL     OW19234   3.667   2.539   7.563  0.7870  0.0487  0.1636
 2533SOL    HW119235   3.742   2.591   7.592  0.3472 -0.4375  2.1652
 2533SOL    HW219236   3.608   2.614   7.552 -0.0359 -0.6286 -0.0257
 2534SOL     OW19237   2.872   0.211  13.534  0.8488 -0.2394 -0.3739
 2534SOL    HW119238   2.816   0.143  13.498  2.3318 -1.9481  0.5817
 2534SOL    HW219239   2.800   0.270  13.560  0.7123 -0.8665  0.6846
 2535SOL     OW19240   0.999   1.211  16.238 -0.5470 -0.2433 -0.0128
 2535SOL    HW119241   1.069   1.275  16.257 -1.5937  1.0223 -0.4293
 2535SOL    HW219242   0.935   1.239  16.303  0.5034  1.1602  0.4375
 2536SOL     OW19243   3.828   3.912   3.397 -0.0908  0.1808 -0.1189
 2536SOL    HW119244   3.923   3.911   3.397 -0.0863  0.9306 -0.8075
 2536SOL    HW219245   3.813   3.824   3.362 -1.2887 -0.1621  1.2109
 2537SOL     OW19246   2.573   1.633   3.685 -0.3903 -0.9269  0.5271
 2537SOL    HW119247   2.641   1.619   3.619  0.8337 -0.6344  1.7250
 2537SOL    HW219248   2.583   1.727   3.703  3.2277 -0.9422 -1.2591
 2538SOL     OW19249   1.861   0.575   8.931 -0.7969  0.5864 -0.1462
 2538SOL    HW119250   1.900   0.546   8.849  0.4428 -0.8255  0.9396
 2538SOL    HW219251   1.775   0.537   8.915 -0.7432  0.3189  0.1871
 2539SOL     OW19252   2.543   1.885   2.841 -0.0068  0.4320  0.3107
 2539SOL    HW119253   2.493   1.896   2.922  0.7319  3.8341  0.2955
 2539SOL    HW219254   2.538   1.790   2.825  0.1620  0.5690 -0.6012
 2540SOL     OW19255   2.071   4.696   3.954  0.0944 -0.0291 -0.4778
 2540SOL    HW119256   2.022   4.663   4.029 -1.0877  0.8250 -0.8610
 2540SOL    HW219257   2.160   4.694   3.989 -0.9602  1.3374  2.2320
 2541SOL     OW19258   3.527   4.396   2.965 -0.1639 -0.2509 -0.2404
 2541SOL    HW119259   3.524   4.327   3.031 -0.1279  1.0981  1.1853
 2541SOL    HW219260   3.571   4.353   2.892  0.3243 -0.8570  0.4200
 2542SOL     OW19261   3.735   0.514   2.610  0.2156  0.1863 -1.0427
 2542SOL    HW119262   3.706   0.490   2.698  2.0766  0.2745 -0.4267
 2542SOL    HW219263   3.654   0.500   2.559 -1.9587  1.4309  2.1071
 2543SOL     OW19264   0.132   1.026   9.151  0.0496  0.7035 -1.0085
 2543SOL    HW119265   0.133   1.086   9.076  0.1604  3.9712  1.6001
 2543SOL    HW219266   0.042   0.995   9.143 -0.0148  1.9346 -5.1277
 2544SOL     OW19267   0.087   0.188  12.981  0.6386  0.2656  0.0782
 2544SOL    HW119268   0.127   0.153  13.061 -0.2830 -1.7580 -0.3298
 2544SOL    HW219269   0.121   0.118  12.924  0.2522  0.1206  0.0252
 2545SOL     OW19270   4.083   1.648   1.872 -0.0073  0.2793  0.0511
 2545SOL    HW119271   4.165   1.696   1.883 -0.3235 -0.0494  3.8906
 2545SOL    HW219272   4.108   1.578   1.812  0.0223 -2.1403  2.8948
 2546SOL     OW19273   2.825   4.084   2.523 -0.4826 -0.6563 -0.7125
 2546SOL    HW119274   2.763   4.029   2.475 -0.9444 -0.4695 -0.3339
 2546SOL    HW219275   2.769   4.140   2.577 -1.0700 -0.4402 -1.5342
 2547SOL     OW19276   3.636   4.235   1.283 -0.2502  0.2149  0.5821
 2547SOL    HW119277   3.689   4.303   1.242 -0.9239  1.0996  1.1694
 2547SOL    HW219278   3.569   4.206   1.221  2.9484 -0.6646 -2.4762
 2548SOL     OW19279   1.234   1.409   8.864 -0.3139  0.2514  0.1101
 2548SOL    HW119280   1.302   1.396   8.797 -1.4741 -2.0681 -0.6279
 2548SOL    HW219281   1.297   1.439   8.929 -0.0883  0.3065 -0.1366
 2549SOL     OW19282   1.017   2.838   4.838 -0.4982  0.7866 -0.2460
 2549SOL    HW119283   0.944   2.875   4.789 -2.9129 -0.6085  2.3164
 2549SOL    HW219284   1.001   2.893   4.914 -0.9379  1.4121 -0.7948
 2550SOL     OW19285   2.254   1.763   5.292 -0.5413 -0.1501  0.4751
 2550SOL    HW119286   2.208   1.764   5.376 -3.0167  0.2624 -0.8996
 2550SOL    HW219287   2.330   1.709   5.316 -1.1537 -0.8266  0.8970
 2551SOL     OW19288   1.856   1.178  13.585 -0.4543 -0.3251 -0.1058
 2551SOL    HW119289   1.801   1.105  13.616  1.3918 -1.7339 -0.1186
 2551SOL    HW219290   1.941   1.156  13.622 -0.6479 -0.1871  0.4276
 2552SOL     OW19291   3.134   2.825   7.719 -0.1759  0.1459 -0.3525
 2552SOL    HW119292   3.064   2.800   7.780 -1.4531  0.6441 -1.6344
 2552SOL    HW219293   3.166   2.910   7.748 -0.6400  0.1554  0.1336
 2553SOL     OW19294   1.941   0.172   8.559 -0.4671  0.3646  0.4987
 2553SOL    HW119295   1.871   0.223   8.518  0.3143  0.3072 -0.9256
 2553SOL    HW219296   2.017   0.223   8.530 -1.0879  0.3767 -1.1362
 2554SOL     OW19297   2.387   1.805   8.737 -0.2894 -0.2923  0.0165
 2554SOL    HW119298   2.449   1.854   8.684  1.8757 -1.0898  1.7807
 2554SOL    HW219299   2.445   1.780   8.809 -0.4165 -3.2863 -0.9198
 2555SOL     OW19300   2.105   3.000   5.403  0.3799 -0.5602  0.6718
 2555SOL    HW119301   2.145   3.043   5.478  0.7258  1.3000 -0.5934
 2555SOL    HW219302   2.014   3.027   5.410  0.0220 -1.2784 -1.2838
 2556SOL     OW19303   1.622   3.249   9.044  0.2022  0.1512 -0.1805
 2556SOL    HW119304   1.693   3.312   9.030  0.3163  0.6889  2.7403
 2556SOL    HW219305   1.636   3.200   8.963 -1.3306  0.4945 -0.6427
 2557SOL     OW19306   3.794   1.218   8.542 -0.0670 -0.4563 -0.2485
 2557SOL    HW119307   3.767   1.236   8.452 -0.0966  1.5937  0.1655
 2557SOL    HW219308   3.858   1.288   8.554 -2.0031  0.9518  1.7953
 2558SOL     OW19309   4.698   0.638   7.519 -0.0983 -0.1779  0.8169
 2558SOL    HW119310   0.029   0.649   7.456  1.2671  1.4443  2.6768
 2558SOL    HW219311   4.672   0.729   7.534  2.0041  0.3979  0.9953
 2559SOL     OW19312   2.892   0.985   6.217  0.2321 -0.1865  0.2411
 2559SOL    HW119313   2.913   1.077   6.232 -0.3929  0.1460 -0.9127
 2559SOL    HW219314   2.981   0.955   6.231  0.8863  0.9211 -1.6017
 2560SOL     OW19315   0.162   1.690   7.199 -0.7518 -0.4812  0.1311
 2560SOL    HW119316   0.159   1.669   7.106  2.3185  2.6244 -0.6827
 2560SOL    HW219317   0.227   1.628   7.233  2.5436  3.2143  0.5524
 2561SOL     OW19318   1.426   4.708   8.755  0.3403  0.4402 -0.5031
 2561SOL    HW119319   1.386   4.630   8.714 -0.5054  1.2667 -1.2491
 2561SOL    HW219320   1.353   0.029   8.762 -0.6608 -0.8080  0.1716
 2562SOL     OW19321   3.226   2.743   9.082 -0.3618 -0.6868 -0.4100
 2562SOL    HW119322   3.180   2.670   9.124 -1.7874  0.3862 -0.1237
 2562SOL    HW219323   3.151   2.788   9.044 -0.4062  0.1697  0.7134
 2563SOL     OW19324   4.446   0.835   3.785 -0.1915  0.8378 -0.1580
 2563SOL    HW119325   4.479   0.845   3.874 -1.1904 -0.7279  0.3989
 2563SOL    HW219326   4.463   0.922   3.750  0.7679  0.8753  0.3989
 2564SOL     OW19327   2.131   0.943  10.218  0.2005  0.2006  0.6414
 2564SOL    HW119328   2.156   0.894  10.297 -1.7772 -3.4013 -0.9293
 2564SOL    HW219329   2.068   0.877  10.188  0.2497  1.0703 -1.3248
 2565SOL     OW19330   4.398   1.059   2.225  0.3413 -1.0877  0.0592
 2565SOL    HW119331   4.401   1.118   2.301 -1.5634  1.5669 -1.9460
 2565SOL    HW219332   4.367   1.118   2.157  1.0696 -0.8534 -0.0779
 2566SOL     OW19333   1.357   0.268   5.707 -0.0682 -0.0673  0.5074
 2566SOL    HW119334   1.304   0.204   5.755 -0.8718 -0.2853 -0.6669
 2566SOL    HW219335   1.286   0.330   5.691 -1.7479 -2.6172 -2.0151
 2567SOL     OW19336   2.879   0.769   5.090  0.2153  0.4616  0.3182
 2567SOL    HW119337   2.971   0.750   5.073 -0.3360 -1.0135 -1.0150
 2567SOL    HW219338   2.858   0.676   5.091 -0.0275  0.5207  0.7680
 2568SOL     OW19339   1.012   2.151   1.923 -0.2742  0.0217  0.2036
 2568SOL    HW119340   1.079   2.085   1.941 -1.0783 -0.8936 -0.1664
 2568SOL    HW219341   1.059   2.211   1.866 -0.1314  1.1179  1.4670
 2569SOL     OW19342   2.317   3.861   4.098  0.9038 -0.4296  0.4191
 2569SOL    HW119343   2.379   3.926   4.065 -0.0394 -0.2210 -0.9247
 2569SOL    HW219344   2.341   3.875   4.190  2.1618 -1.0027  0.1811
 2570SOL     OW19345   2.639   0.495   3.959  0.4089 -0.5956  0.3236
 2570SOL    HW119346   2.663   0.428   4.023 -1.2423  0.2766  1.8419
 2570SOL    HW219347   2.590   0.440   3.898 -1.1210  1.5198 -0.3097
 2571SOL     OW19348   1.224   2.401   8.254 -0.3390  0.5531  0.0616
 2571SOL    HW119349   1.175   2.483   8.244  0.4180  1.0447  0.3784
 2571SOL    HW219350   1.304   2.433   8.296  0.1186  2.1948 -2.0352
 2572SOL     OW19351   0.673   0.966   7.460  0.2525  0.5200  0.2461
 2572SOL    HW119352   0.579   0.966   7.440  0.3867  4.2271 -0.3192
 2572SOL    HW219353   0.692   1.035   7.396 -1.1758  0.0654 -0.6807
 2573SOL     OW19354   1.603   3.194   1.990 -0.9030 -0.2683 -0.3988
 2573SOL    HW119355   1.588   3.195   2.085  2.4870  3.8738  0.0737
 2573SOL    HW219356   1.662   3.268   1.979  1.1588 -1.9843 -0.8990
 2574SOL     OW19357   1.429   0.607   8.285 -0.4087 -0.1402  0.4062
 2574SOL    HW119358   1.427   0.514   8.264  0.6520  0.1313 -0.9147
 2574SOL    HW219359   1.353   0.640   8.237  0.7559  1.6391 -0.2459
 2575SOL     OW19360   0.597   1.749   4.979 -0.3746 -0.6339 -0.6152
 2575SOL    HW119361   0.629   1.712   5.062 -0.6718 -0.7902 -0.5731
 2575SOL    HW219362   0.571   1.839   5.000  2.5167 -0.0700  0.6334
 2576SOL     OW19363   1.485   4.552  12.408  0.3753 -0.4292  0.5097
 2576SOL    HW119364   1.468   4.458  12.412 -1.7640 -0.1433 -2.2616
 2576SOL    HW219365   1.439   4.572  12.490 -0.9510  1.6166 -0.7352
 2577SOL     OW19366   4.135   4.186   6.765  0.0372  0.1361 -0.1210
 2577SOL    HW119367   4.229   4.193   6.749  0.2796  0.9369  1.5396
 2577SOL    HW219368   4.136   4.225   6.853  1.1125 -1.9457  0.7699
 2578SOL     OW19369   2.109   1.104   4.695  0.2931  0.4068  0.1390
 2578SOL    HW119370   2.115   1.126   4.602  0.1563 -1.2909 -0.2657
 2578SOL    HW219371   2.200   1.081   4.712  0.2588  0.3236  0.2081
 2579SOL     OW19372   1.553   3.285   5.871 -0.6268 -1.0087  0.1260
 2579SOL    HW119373   1.492   3.317   5.805 -0.2825 -0.6293 -0.0058
 2579SOL    HW219374   1.532   3.192   5.881  3.3591 -1.8082  1.0511
 2580SOL     OW19375   1.575   0.139   6.526  0.8194  0.7315 -0.2813
 2580SOL    HW119376   1.612   0.225   6.547 -0.4425  1.3543 -0.5765
 2580SOL    HW219377   1.572   0.138   6.431  1.5259 -0.2879 -0.2867
 2581SOL     OW19378   2.002   1.409   4.487 -0.0876  0.0781  0.7724
 2581SOL    HW119379   2.060   1.478   4.522 -0.7428  1.1313 -0.2468
 2581SOL    HW219380   1.931   1.467   4.459  1.8096  1.5922 -0.9077
 2582SOL     OW19381   4.406   4.103   5.636  0.0194  0.8154  0.1219
 2582SOL    HW119382   4.497   4.080   5.617  0.4747  1.6937  1.2512
 2582SOL    HW219383   4.388   4.020   5.679  0.2141  1.0276  0.6157
 2583SOL     OW19384   4.303   0.119   2.907 -0.0048 -0.1647 -0.2381
 2583SOL    HW119385   4.293   0.200   2.957 -1.3758  1.3847 -3.0059
 2583SOL    HW219386   4.265   0.055   2.966 -2.0428  1.0112 -0.2905
 2584SOL     OW19387   1.669   2.253   3.773  0.0355  0.7751  0.4465
 2584SOL    HW119388   1.579   2.227   3.755  0.5371 -2.6434  2.7379
 2584SOL    HW219389   1.652   2.258   3.867 -2.5153  1.5456 -0.0479
 2585SOL     OW19390   2.310   3.904  11.934 -0.3482 -0.1678 -0.0204
 2585SOL    HW119391   2.355   3.853  12.002  0.1423 -0.9554 -0.9407
 2585SOL    HW219392   2.353   3.990  11.938  1.5376 -1.1365  0.8974
 2586SOL     OW19393   0.704   3.950   3.473  0.1757  0.8020  0.0744
 2586SOL    HW119394   0.675   3.965   3.383 -0.9235  0.9947  0.4577
 2586SOL    HW219395   0.729   3.859   3.461 -2.4211 -0.1318  1.7083
 2587SOL     OW19396   2.108   2.569  16.889  0.9606 -0.1769  0.5862
 2587SOL    HW119397   2.154   2.565  16.805  0.6981  2.3562  0.3135
 2587SOL    HW219398   2.019   2.567  16.856  1.0501 -1.7125  0.4407
 2588SOL     OW19399   4.600   4.737   5.714  0.5101  0.1593  0.4956
 2588SOL    HW119400   4.650   0.078   5.707  1.9391 -0.9474 -2.3033
 2588SOL    HW219401   4.520   0.016   5.667  0.9981  0.0132 -0.3939
 2589SOL     OW19402   1.603   4.013   0.320 -0.5468 -0.2187  0.6009
 2589SOL    HW119403   1.609   4.109   0.319  0.4536 -0.2872 -0.6718
 2589SOL    HW219404   1.695   3.992   0.303 -0.7936 -0.6531 -0.2032
 2590SOL     OW19405   1.542   4.082  15.351  0.3451 -0.4729 -0.7182
 2590SOL    HW119406   1.593   4.162  15.364 -0.9602  0.5245 -1.7079
 2590SOL    HW219407   1.572   4.030  15.426  1.0115 -0.9983 -1.3562
 2591SOL     OW19408   2.924   2.210   4.823 -0.3047  0.5811 -0.3421
 2591SOL    HW119409   3.014   2.210   4.790 -0.9602  1.6676 -2.0885
 2591SOL    HW219410   2.929   2.300   4.854  0.8717  0.2432  0.4632
 2592SOL     OW19411   3.814   1.521   0.344  0.2986 -0.4059 -0.4645
 2592SOL    HW119412   3.758   1.596   0.326  0.9336  0.8540  2.8025
 2592SOL    HW219413   3.903   1.553   0.330  1.1249 -2.9113 -1.0088
 2593SOL     OW19414   3.588   1.928   3.634  0.6477  0.1755  0.2318
 2593SOL    HW119415   3.561   1.851   3.583 -1.1040  2.3144 -2.0837
 2593SOL    HW219416   3.663   1.905   3.689  0.1457 -1.1337  0.3793
 2594SOL     OW19417   4.511   3.186   3.524 -0.4987  0.1591  0.0771
 2594SOL    HW119418   4.493   3.191   3.430 -1.0672  0.5289  0.2059
 2594SOL    HW219419   4.597   3.145   3.534 -0.2474  0.9339  1.0317
 2595SOL     OW19420   2.428   3.214  15.373 -0.1450 -0.0944  0.0115
 2595SOL    HW119421   2.388   3.138  15.331 -0.4657 -0.1190  0.3534
 2595SOL    HW219422   2.373   3.276  15.324 -0.5483  0.5809  1.3031
 2596SOL     OW19423   2.789   2.817   7.213  0.5100  0.0938  0.2161
 2596SOL    HW119424   2.703   2.846   7.242 -1.1879 -2.0673 -2.6482
 2596SOL    HW219425   2.848   2.879   7.257 -0.6454  1.7900 -0.6426
 2597SOL     OW19426   0.118   2.850   5.032 -0.1281 -0.1404 -0.2699
 2597SOL    HW119427   0.207   2.871   5.003 -0.0193 -0.8072 -0.4105
 2597SOL    HW219428   0.066   2.862   4.953 -2.8576 -3.8010  0.9634
 2598SOL     OW19429   2.564   0.560   6.099 -0.2151 -0.2794 -0.1994
 2598SOL    HW119430   2.554   0.614   6.021 -1.8413  0.8319  0.7757
 2598SOL    HW219431   2.576   0.629   6.165 -1.8426  0.6029 -0.8393
 2599SOL     OW19432   2.330   4.392   7.917 -0.3385  0.8276 -0.4082
 2599SOL    HW119433   2.370   4.404   7.830 -0.5107 -0.6523 -0.7044
 2599SOL    HW219434   2.314   4.483   7.939  3.4281  1.5063 -0.4932
 2600SOL     OW19435   0.919   2.821   9.557  0.1352 -0.3897 -0.0255
 2600SOL    HW119436   0.901   2.727   9.556 -1.7299 -0.0355 -0.6057
 2600SOL    HW219437   1.010   2.820   9.529  0.1723 -0.5013  0.0984
 2601SOL     OW19438   1.542   0.781   2.180  0.6069 -0.1365 -0.4325
 2601SOL    HW119439   1.503   0.817   2.259  1.8727 -0.2860  0.2508
 2601SOL    HW219440   1.623   0.831   2.170 -0.5948  1.8290 -0.2901
 2602SOL     OW19441   2.220   3.229  17.259 -0.3231 -0.1276  0.0371
 2602SOL    HW119442   2.246   3.242  17.351 -0.9060  1.4938 -0.0117
 2602SOL    HW219443   2.179   3.143  17.266 -1.5887  0.4753  0.0220
 2603SOL     OW19444   1.150   3.466  12.291 -0.4216 -0.3810 -0.5477
 2603SOL    HW119445   1.207   3.393  12.267  2.0911  0.6606  2.2105
 2603SOL    HW219446   1.178   3.486  12.380 -2.0225  1.3441 -0.4254
 2604SOL     OW19447   1.775   1.889   7.432  0.3674 -0.3857  0.0034
 2604SOL    HW119448   1.745   1.865   7.345  0.5661 -0.7250  0.0276
 2604SOL    HW219449   1.870   1.894   7.420  0.2966  2.7209  0.8467
 2605SOL     OW19450   2.177   1.624   8.854 -0.3134  0.1684 -0.3087
 2605SOL    HW119451   2.232   1.550   8.829  0.2375  1.2354 -2.2121
 2605SOL    HW219452   2.236   1.700   8.854 -0.7047  0.4706  2.2865
 2606SOL     OW19453   3.796   0.349   7.788  0.3241 -0.0344  0.5077
 2606SOL    HW119454   3.770   0.353   7.880 -0.9440 -1.4114  0.2127
 2606SOL    HW219455   3.850   0.271   7.801  0.1874 -0.2791 -0.3913
 2607SOL     OW19456   1.760   0.485   4.449 -0.6446  0.5301 -0.8129
 2607SOL    HW119457   1.747   0.542   4.373 -0.0278  0.6502 -0.8282
 2607SOL    HW219458   1.671   0.455   4.467 -1.3045  2.2996 -1.1041
 2608SOL     OW19459   2.190   1.550   8.198  0.0684 -0.0336 -0.6804
 2608SOL    HW119460   2.247   1.607   8.146  1.5730 -0.8811  0.0171
 2608SOL    HW219461   2.135   1.518   8.126  0.4512 -1.8221 -0.1815
 2609SOL     OW19462   0.193   2.372   2.988  0.2558  0.2490 -0.0447
 2609SOL    HW119463   0.183   2.364   2.893 -1.7834  0.9128  0.1106
 2609SOL    HW219464   0.250   2.449   2.994 -0.9808  1.1872 -0.1171
 2610SOL     OW19465   0.042   3.906   5.002  0.1754 -0.5332 -0.3839
 2610SOL    HW119466   0.117   3.848   5.011  1.0152  0.4161 -1.2376
 2610SOL    HW219467   4.741   3.857   4.932  0.8071 -0.1729 -1.0127
 2611SOL     OW19468   4.598   2.446   2.188 -0.3128 -0.3797  0.3002
 2611SOL    HW119469   4.537   2.514   2.217  0.3463 -0.2785  1.4709
 2611SOL    HW219470   4.579   2.391   2.264  2.6061  0.6166  1.7493
 2612SOL     OW19471   3.939   1.943   7.072 -0.0355  0.0931  0.4206
 2612SOL    HW119472   4.000   1.995   7.020  1.4572  0.2081  2.2918
 2612SOL    HW219473   3.945   1.972   7.163 -1.1874  0.4039  0.3984
 2613SOL     OW19474   0.181   4.378   7.087  0.5312 -0.2570  0.6778
 2613SOL    HW119475   0.221   4.304   7.041 -0.5143  0.7227 -1.7747
 2613SOL    HW219476   0.088   4.360   7.073  1.1629 -1.4491 -2.0451
 2614SOL     OW19477   1.490   1.463   5.539  0.2664  0.1156  0.5366
 2614SOL    HW119478   1.500   1.430   5.628 -0.8438  1.4017  1.1357
 2614SOL    HW219479   1.581   1.471   5.509 -0.1922 -0.1113 -0.9510
 2615SOL     OW19480   3.295   2.749   7.113  0.9193  1.2131  0.2543
 2615SOL    HW119481   3.265   2.659   7.129  0.9851  1.5796  2.4677
 2615SOL    HW219482   3.388   2.732   7.098  0.2910 -0.6367 -1.6880
 2616SOL     OW19483   1.495   0.470   7.074 -0.0264 -0.1161 -0.1999
 2616SOL    HW119484   1.482   0.523   6.995  0.1747 -0.4952 -0.4946
 2616SOL    HW219485   1.458   0.384   7.052 -1.2132 -0.2807  2.4918
 2617SOL     OW19486   2.097   4.557   8.476 -0.3903 -0.5708 -0.0633
 2617SOL    HW119487   2.036   4.484   8.483  1.3438 -1.9442  0.7654
 2617SOL    HW219488   2.075   4.600   8.394  0.2444  1.0587  0.6184
 2618SOL     OW19489   2.942   3.885  16.278  0.1324  0.2486  0.1353
 2618SOL    HW119490   3.019   3.938  16.259 -0.7130  1.7676  0.9542
 2618SOL    HW219491   2.901   3.947  16.339  0.5675 -0.2886  0.9637
 2619SOL     OW19492   0.751   3.423  16.774  0.1096 -0.0360 -0.5746
 2619SOL    HW119493   0.764   3.347  16.830 -1.4433  1.7280  2.1538
 2619SOL    HW219494   0.695   3.382  16.708  0.2335 -2.7275  1.0020
 2620SOL     OW19495   1.260   3.840  15.659 -0.1874  0.0001  0.2468
 2620SOL    HW119496   1.212   3.791  15.725 -0.3901  3.6867  2.8581
 2620SOL    HW219497   1.344   3.795  15.654 -0.4501 -0.2542 -1.7252
 2621SOL     OW19498   0.059   1.923   7.320 -0.5969 -0.2007 -0.0551
 2621SOL    HW119499   0.135   1.977   7.297 -0.9606 -0.1082 -1.0191
 2621SOL    HW219500   0.093   1.835   7.303  0.5857 -0.3778  3.0836
 2622SOL     OW19501   3.464   0.177   5.059 -0.0469 -0.1602 -0.2252
 2622SOL    HW119502   3.489   0.085   5.053 -0.0559 -0.0449 -2.0466
 2622SOL    HW219503   3.436   0.171   5.151 -0.1446  2.9494 -0.0429
 2623SOL     OW19504   4.203   3.722  16.329  0.2686 -1.0048 -0.3471
 2623SOL    HW119505   4.171   3.635  16.304 -1.7014 -0.4829  0.4306
 2623SOL    HW219506   4.147   3.761  16.396  0.3771 -2.4062  0.5512
 2624SOL     OW19507   2.201   2.810   5.627 -0.3499  0.0960 -0.3828
 2624SOL    HW119508   2.198   2.803   5.532 -1.8018 -0.0936 -0.3211
 2624SOL    HW219509   2.131   2.755   5.663  0.9024 -0.2875  1.4540
 2625SOL     OW19510   3.515   1.823   5.861  0.2569  0.8518  0.0095
 2625SOL    HW119511   3.610   1.819   5.863  0.1568 -1.6080 -0.8663
 2625SOL    HW219512   3.496   1.807   5.768 -2.6655  2.6647  0.2731
 2626SOL     OW19513   4.203   3.407  14.929  0.9476 -0.1320  0.4649
 2626SOL    HW119514   4.262   3.463  14.979  1.7884  0.3441 -1.0503
 2626SOL    HW219515   4.116   3.441  14.949 -0.2954 -2.3406 -1.1467
 2627SOL     OW19516   2.764   0.107  13.877  0.0129 -0.2473 -0.3997
 2627SOL    HW119517   2.763   0.022  13.833 -2.5396 -0.6051  0.3406
 2627SOL    HW219518   2.723   0.162  13.811 -0.3751  0.4216  0.3987
 2628SOL     OW19519   2.139   4.275  14.632 -0.4117  0.2769 -0.0467
 2628SOL    HW119520   2.192   4.282  14.711  0.5834  0.1228 -0.6998
 2628SOL    HW219521   2.181   4.200  14.591 -1.2900 -0.1921 -0.0912
 2629SOL     OW19522   1.281   0.838   6.751 -0.5451 -0.1301  0.0122
 2629SOL    HW119523   1.196   0.827   6.708 -2.1118  0.7498  2.8940
 2629SOL    HW219524   1.309   0.922   6.715 -1.2896  0.2415  0.2946
 2630SOL     OW19525   0.905   2.786  12.298  0.5702  0.3918 -0.0931
 2630SOL    HW119526   0.888   2.770  12.205  0.7952 -1.6802  0.2124
 2630SOL    HW219527   1.000   2.770  12.304 -0.0088 -2.7554  0.8200
 2631SOL     OW19528   4.552   0.068   4.281 -0.1403 -0.2106 -0.6711
 2631SOL    HW119529   4.643   0.097   4.283 -0.4860  0.9082 -1.2798
 2631SOL    HW219530   4.544   0.046   4.374  0.2401  0.7649 -0.4140
 2632SOL     OW19531   4.156   1.374   1.132  0.1198 -0.4654 -0.3839
 2632SOL    HW119532   4.110   1.292   1.115 -0.9474  0.1137 -0.3122
 2632SOL    HW219533   4.104   1.421   1.067 -1.3088  0.1937  1.2292
 2633SOL     OW19534   3.367   2.702   2.138 -0.2782  0.3344 -0.2844
 2633SOL    HW119535   3.291   2.740   2.094 -1.3162 -1.0797  0.2984
 2633SOL    HW219536   3.331   2.686   2.226 -0.0607  2.0221  0.1297
 2634SOL     OW19537   3.808   4.308   8.999 -0.1615 -0.6139 -0.4124
 2634SOL    HW119538   3.728   4.261   9.021  0.4547 -1.5869 -0.2373
 2634SOL    HW219539   3.811   4.362   9.078  0.7133  0.7919 -1.4156
 2635SOL     OW19540   3.712   3.850   4.576  0.3462  0.0943  0.0290
 2635SOL    HW119541   3.636   3.899   4.607  0.0410 -1.0277  1.0289
 2635SOL    HW219542   3.770   3.918   4.541 -1.5503  1.4936 -0.4080
 2636SOL     OW19543   2.998   3.922   5.383  0.1358 -0.0721 -0.2684
 2636SOL    HW119544   3.035   3.834   5.376 -1.0929 -0.5032 -1.2755
 2636SOL    HW219545   3.013   3.964   5.298  0.2085 -0.7613 -0.5899
 2637SOL     OW19546   4.310   1.156   7.913 -0.0237  0.7057  0.1584
 2637SOL    HW119547   4.255   1.195   7.845 -2.5569 -0.9980  1.2464
 2637SOL    HW219548   4.269   1.197   7.989 -0.2226  3.7222 -1.5582
 2638SOL     OW19549   4.487   1.985   5.616  0.5875  0.1214 -0.1870
 2638SOL    HW119550   4.567   1.938   5.592  1.2842  1.3494 -0.2255
 2638SOL    HW219551   4.502   2.068   5.570  0.1352  0.8494  0.9892
 2639SOL     OW19552   3.066   0.394   0.647 -0.3200 -0.1786  0.1894
 2639SOL    HW119553   2.971   0.406   0.638 -0.3258 -2.4228 -2.9103
 2639SOL    HW219554   3.073   0.450   0.724 -1.5677 -1.5570  1.3011
 2640SOL     OW19555   3.565   1.616   6.310  0.0854 -0.6795 -0.3738
 2640SOL    HW119556   3.516   1.693   6.280  1.3330 -0.0616 -0.8559
 2640SOL    HW219557   3.583   1.639   6.401  0.0704 -1.2134 -0.2379
 2641SOL     OW19558   0.625   2.065   7.453 -0.2783  0.5224  0.4136
 2641SOL    HW119559   0.649   2.147   7.409 -1.9472  0.1054 -1.2856
 2641SOL    HW219560   0.548   2.098   7.500 -0.5429 -1.9420  1.7164
 2642SOL     OW19561   2.110   0.623   2.195  0.0138  0.2914  0.4188
 2642SOL    HW119562   2.097   0.693   2.130  1.0778 -1.4618 -1.6680
 2642SOL    HW219563   2.183   0.570   2.165 -0.9221 -0.5444 -0.4041
 2643SOL     OW19564   0.253   2.734  15.170  0.1357 -0.0184  0.2657
 2643SOL    HW119565   0.317   2.684  15.221  0.4887  2.0113  1.8247
 2643SOL    HW219566   0.309   2.812  15.175 -0.0540  0.0942  0.6792
 2644SOL     OW19567   3.854   4.705   4.138  0.7219  0.3047 -0.9038
 2644SOL    HW119568   3.910   0.017   4.195  0.5089  1.2281 -1.5440
 2644SOL    HW219569   3.787   0.027   4.111 -0.8215 -0.8688  0.2651
 2645SOL     OW19570   4.406   3.994  17.632  0.1065  0.4638 -0.1016
 2645SOL    HW119571   4.475   4.053  17.662 -0.9280  0.6704  1.8799
 2645SOL    HW219572   4.331   4.051  17.648 -0.3780  0.0062 -0.7582
 2646SOL     OW19573   2.141   3.652   4.596  0.1351 -0.0007 -0.6206
 2646SOL    HW119574   2.148   3.739   4.636 -1.3939  0.1403 -0.6792
 2646SOL    HW219575   2.221   3.616   4.633 -0.6935 -0.1549  1.0293
 2647SOL     OW19576   3.596   0.345   4.870 -0.5194  0.0357 -0.4712
 2647SOL    HW119577   3.625   0.398   4.944 -0.0745 -1.4987  0.4694
 2647SOL    HW219578   3.546   0.277   4.916  0.0048  0.0126  0.0645
 2648SOL     OW19579   0.349   2.742   3.199  0.2542  0.0469 -0.0433
 2648SOL    HW119580   0.379   2.824   3.159 -2.0363  0.4934 -0.8402
 2648SOL    HW219581   0.346   2.767   3.292  1.4045  0.8457 -0.2216
 2649SOL     OW19582   2.843   4.670   3.443 -0.0680 -0.0988  0.2393
 2649SOL    HW119583   2.777   4.616   3.486 -0.9514  0.6218 -0.2140
 2649SOL    HW219584   2.795   4.704   3.367  0.0520  0.3443  0.3627
 2650SOL     OW19585   1.105   3.140   9.238  0.2292 -0.6932 -0.1122
 2650SOL    HW119586   1.074   3.197   9.168  1.5156  1.2139  0.8639
 2650SOL    HW219587   1.157   3.075   9.190 -1.5996 -1.6162 -0.8485
 2651SOL     OW19588   3.563   3.609  16.213 -0.0739  0.2091  0.2523
 2651SOL    HW119589   3.524   3.616  16.126  0.8862  1.1254 -0.1080
 2651SOL    HW219590   3.502   3.543  16.246  0.1081  1.0557  2.2514
 2652SOL     OW19591   2.092   4.580   5.924  0.4859 -0.0098  0.6500
 2652SOL    HW119592   2.109   4.576   5.829 -0.5494 -0.8171  0.5020
 2652SOL    HW219593   2.042   4.662   5.931 -1.6061 -1.1328 -1.0891
 2653SOL     OW19594   3.262   4.082   2.718  0.0590 -0.4666 -0.0824
 2653SOL    HW119595   3.318   4.157   2.734  0.5705 -0.8122 -0.2599
 2653SOL    HW219596   3.247   4.090   2.623  0.5697 -0.8027 -0.1931
 2654SOL     OW19597   2.081   2.701  17.623  0.1806 -0.7150  0.0798
 2654SOL    HW119598   2.104   2.646  17.548  0.8178 -0.6424  0.2179
 2654SOL    HW219599   2.037   2.776  17.583  1.9946 -0.2730 -1.0995
 2655SOL     OW19600   4.690   4.305   6.492 -0.4948 -0.1661 -0.2549
 2655SOL    HW119601   0.032   4.288   6.447 -0.5000  1.8081 -1.0151
 2655SOL    HW219602   4.632   4.270   6.424  0.6902  0.3137 -1.5335
 2656SOL     OW19603   1.310   1.517  17.162  0.0912 -0.3454  0.4667
 2656SOL    HW119604   1.336   1.563  17.083 -0.0659 -1.3798 -0.1777
 2656SOL    HW219605   1.377   1.450  17.171  0.5112  0.3313  2.5217
 2657SOL     OW19606   0.200   3.129   1.983 -0.1309 -0.0136 -0.1026
 2657SOL    HW119607   0.248   3.080   1.916 -2.7875  1.7776 -3.3050
 2657SOL    HW219608   0.203   3.072   2.060 -0.6054 -0.4848 -0.4280
 2658SOL     OW19609   1.903   3.002   2.585  0.3595 -0.1950 -0.1324
 2658SOL    HW119610   1.990   2.984   2.551  0.5909  0.1976  0.2589
 2658SOL    HW219611   1.919   3.095   2.601  0.8117 -0.2188 -0.4442
 2659SOL     OW19612   3.950   2.767   2.124 -0.1629  0.2263  0.0428
 2659SOL    HW119613   3.958   2.839   2.063 -1.8152  0.7658  0.4669
 2659SOL    HW219614   3.870   2.791   2.171  0.1666 -0.5043  0.9941
 2660SOL     OW19615   0.655   3.362   4.865  0.0048 -0.1007 -0.3624
 2660SOL    HW119616   0.565   3.363   4.896 -0.0565 -0.7825 -0.5265
 2660SOL    HW219617   0.705   3.345   4.944 -0.7332 -1.4914 -0.2034
 2661SOL     OW19618   1.315   2.443   3.873  0.4919  0.0828  0.2587
 2661SOL    HW119619   1.330   2.524   3.826  0.2762 -0.4906 -0.8037
 2661SOL    HW219620   1.340   2.459   3.964 -0.6526  1.0759  0.4103
 2662SOL     OW19621   2.163   2.693   8.638  0.1589 -0.7253  0.2032
 2662SOL    HW119622   2.147   2.741   8.719 -0.1672 -0.2402 -0.1527
 2662SOL    HW219623   2.078   2.648   8.638 -0.3175  0.1890  0.5356
 2663SOL     OW19624   3.198   1.574   3.300  0.3053 -0.4894 -0.3166
 2663SOL    HW119625   3.255   1.560   3.225  1.1529  0.3733  0.1769
 2663SOL    HW219626   3.264   1.537   3.358 -1.2487 -3.3696 -0.3824
 2664SOL     OW19627   3.134   2.726   8.706 -0.2847 -0.2280  0.5326
 2664SOL    HW119628   3.040   2.708   8.702 -0.2622  0.1055 -1.3327
 2664SOL    HW219629   3.150   2.758   8.795  1.0772  0.7611 -0.0579
 2665SOL     OW19630   3.854   3.198  11.709 -0.1019 -0.3983 -0.0527
 2665SOL    HW119631   3.901   3.138  11.651 -0.4432 -0.2827 -0.4483
 2665SOL    HW219632   3.772   3.204  11.661 -0.4750  0.2690  0.6675
 2666SOL     OW19633   3.065   4.473   1.166 -0.3287  0.5378 -0.6651
 2666SOL    HW119634   3.132   4.445   1.228 -0.2278 -0.5780 -1.2832
 2666SOL    HW219635   3.060   4.397   1.108 -0.3511  0.1559 -0.1606
 2667SOL     OW19636   3.078   4.602   2.104  0.0757  0.1875  0.1569
 2667SOL    HW119637   2.995   4.637   2.073 -1.0681 -1.9700  0.7711
 2667SOL    HW219638   3.066   4.512   2.073  2.1669 -0.8403  2.3205
 2668SOL     OW19639   1.722   0.206  11.145  0.5909  0.2218 -0.0275
 2668SOL    HW119640   1.683   0.191  11.231 -2.9124 -0.1710 -1.7077
 2668SOL    HW219641   1.807   0.248  11.156  0.7661 -0.0878 -0.1679
 2669SOL     OW19642   3.308   2.271   3.451 -0.1136  0.5189 -0.4848
 2669SOL    HW119643   3.266   2.200   3.501 -0.3691  2.6505  2.3368
 2669SOL    HW219644   3.328   2.223   3.371 -0.1714 -1.0292  0.4314
 2670SOL     OW19645   4.197   3.292  13.080  1.0899 -0.8618 -0.1197
 2670SOL    HW119646   4.184   3.201  13.054  0.8175 -0.7726 -0.2867
 2670SOL    HW219647   4.224   3.271  13.170 -2.7109 -2.1914  0.7267
 2671SOL     OW19648   1.794   3.169   3.585 -0.3298 -0.7331  0.2788
 2671SOL    HW119649   1.749   3.126   3.512 -1.1866  0.8514 -0.1356
 2671SOL    HW219650   1.776   3.261   3.566 -0.1267 -0.3312  1.9950
 2672SOL     OW19651   3.565   0.665   2.035 -0.8629 -0.4536  0.2639
 2672SOL    HW119652   3.639   0.644   1.977  0.4944  0.1070  1.7932
 2672SOL    HW219653   3.528   0.579   2.016 -2.3440  0.3812 -0.6199
 2673SOL     OW19654   2.880   1.477   7.985 -0.3922 -0.3987  0.1756
 2673SOL    HW119655   2.924   1.396   8.010  1.1019  0.8142  1.4188
 2673SOL    HW219656   2.939   1.501   7.913  0.1462 -1.5310  0.2353
 2674SOL     OW19657   1.799   1.827  12.762  0.1159  0.2645 -0.4628
 2674SOL    HW119658   1.851   1.752  12.790 -2.8331 -0.8211  2.0810
 2674SOL    HW219659   1.748   1.784  12.693  1.8106  0.2139 -1.6750
 2675SOL     OW19660   2.902   0.340   8.488 -0.2169  0.5423  0.6436
 2675SOL    HW119661   2.946   0.305   8.565  0.5615 -1.8535 -0.8624
 2675SOL    HW219662   2.956   0.416   8.466  0.3203  0.4653  1.7263
 2676SOL     OW19663   4.302   4.110  14.320 -0.3233 -0.0741  0.1616
 2676SOL    HW119664   4.226   4.169  14.315 -0.1351  0.1829  0.3647
 2676SOL    HW219665   4.294   4.085  14.412  0.4008 -1.3922 -0.1316
 2677SOL     OW19666   4.446   4.445  15.169  0.4572  0.3178 -0.2044
 2677SOL    HW119667   4.483   4.524  15.129 -0.5795 -0.4774 -2.7217
 2677SOL    HW219668   4.384   4.419  15.101 -0.3419 -1.0893  1.0696
 2678SOL     OW19669   4.689   0.274   9.398  0.8500  0.4803 -0.0538
 2678SOL    HW119670   0.021   0.216   9.421  1.4309  1.3688  0.3447
 2678SOL    HW219671   4.738   0.352   9.373 -0.6163  1.4441  0.1225
 2679SOL     OW19672   1.613   2.925   4.497  0.3265  0.0302  0.4146
 2679SOL    HW119673   1.532   2.960   4.533  0.5320  1.8692 -0.9461
 2679SOL    HW219674   1.613   2.854   4.561  0.8221 -0.7018 -0.3962
 2680SOL     OW19675   4.628   3.523   8.333  0.2073  0.3257 -0.0305
 2680SOL    HW119676   4.606   3.545   8.423 -1.2902  1.6145 -0.7345
 2680SOL    HW219677   4.661   3.434   8.347 -1.4995 -0.3192 -0.1059
 2681SOL     OW19678   4.086   4.617  12.871  0.0353  0.2661  0.3231
 2681SOL    HW119679   4.029   4.694  12.882  0.0828  0.3216  0.1853
 2681SOL    HW219680   4.021   4.551  12.894 -2.5807  2.2369 -1.3009
 2682SOL     OW19681   0.605   3.522   4.646  0.2504 -0.5170  0.2794
 2682SOL    HW119682   0.697   3.528   4.620  0.2106  1.7579  0.6170
 2682SOL    HW219683   0.615   3.492   4.736  0.0822 -2.2953 -0.3055
 2683SOL     OW19684   2.355   4.295  11.012 -0.1079 -0.2694  0.2056
 2683SOL    HW119685   2.289   4.257  11.070 -0.5298  0.4245  0.1842
 2683SOL    HW219686   2.381   4.380  11.047 -0.4796 -1.0058  2.2650
 2684SOL     OW19687   2.774   3.007   1.471 -0.8008  0.3741 -0.5891
 2684SOL    HW119688   2.820   3.023   1.389 -1.8764  1.2107 -1.0316
 2684SOL    HW219689   2.700   2.953   1.446 -0.9229  0.8154 -1.1946
 2685SOL     OW19690   4.171   0.704   1.197  0.1272 -0.1988 -0.3238
 2685SOL    HW119691   4.204   0.780   1.151  1.1037 -0.7255 -0.4939
 2685SOL    HW219692   4.150   0.652   1.120 -0.5166 -1.5052  0.7350
 2686SOL     OW19693   2.437   4.509  15.915 -0.2000  0.2152 -0.3418
 2686SOL    HW119694   2.374   4.580  15.904 -1.3418 -0.4982  1.7385
 2686SOL    HW219695   2.387   4.428  15.917 -1.2411  0.8659  0.0132
 2687SOL     OW19696   1.520   2.653  14.978  0.4940 -0.4287  0.5333
 2687SOL    HW119697   1.537   2.559  14.979  0.1135 -0.5002  0.6715
 2687SOL    HW219698   1.437   2.661  14.930  0.1806 -0.9255  0.9832
 2688SOL     OW19699   2.024   2.263   6.426 -0.4913 -0.0193  0.2595
 2688SOL    HW119700   2.061   2.269   6.337 -0.7033  0.9921  0.2434
 2688SOL    HW219701   2.068   2.181   6.449  0.6343 -0.3847 -3.0412
 2689SOL     OW19702   3.483   3.615   3.395 -0.1520  0.4278  0.5791
 2689SOL    HW119703   3.500   3.640   3.304 -1.2244 -2.2193 -0.3718
 2689SOL    HW219704   3.431   3.691   3.421  0.9405  1.0060  1.0488
 2690SOL     OW19705   3.715   0.710   5.341 -0.7539 -0.1918 -0.1077
 2690SOL    HW119706   3.784   0.655   5.377 -0.1712 -1.2354 -2.8025
 2690SOL    HW219707   3.721   0.785   5.400 -1.9894  0.5238 -0.9007
 2691SOL     OW19708   1.274   2.287   9.391 -0.5251  0.0537  0.2406
 2691SOL    HW119709   1.227   2.208   9.419 -0.7817  0.1674  0.1346
 2691SOL    HW219710   1.339   2.241   9.339 -1.0389 -1.5280  0.9984
 2692SOL     OW19711   1.839   2.572  17.422  0.5806 -0.3898 -0.0116
 2692SOL    HW119712   1.878   2.541  17.503  0.5583 -0.1579  0.0865
 2692SOL    HW219713   1.880   2.518  17.354 -2.7413 -2.1453 -0.6776
 2693SOL     OW19714   4.132   0.767   8.067  0.6691 -0.5718  0.1767
 2693SOL    HW119715   4.050   0.738   8.028 -0.3594  0.8115  1.3352
 2693SOL    HW219716   4.101   0.852   8.097  1.8013  0.4787 -1.6980
 2694SOL     OW19717   0.642   4.356   3.566 -0.2557 -0.1776  0.1552
 2694SOL    HW119718   0.559   4.371   3.520  0.3240 -1.2982 -1.2813
 2694SOL    HW219719   0.694   4.434   3.548  0.4442 -1.0747 -1.8253
 2695SOL     OW19720   2.561   2.581   8.865 -0.1335 -0.0703  0.4037
 2695SOL    HW119721   2.639   2.622   8.826  0.6200  0.1500  2.1095
 2695SOL    HW219722   2.597   2.495   8.887 -1.0204 -0.2017  1.3242
 2696SOL     OW19723   2.531   4.383   6.863 -0.1310 -0.2716 -0.8871
 2696SOL    HW119724   2.504   4.473   6.876 -3.0612 -1.2603 -0.1286
 2696SOL    HW219725   2.615   4.398   6.818  1.5826 -0.6924  2.2008
 2697SOL     OW19726   0.910   1.956   5.043 -0.5012 -0.0537  0.3242
 2697SOL    HW119727   0.937   1.933   5.132  0.3388  1.4574  0.4660
 2697SOL    HW219728   0.838   2.015   5.065 -0.3593  0.6269 -1.0057
 2698SOL     OW19729   4.612   2.080  15.240  0.4198  0.4233  0.0895
 2698SOL    HW119730   4.702   2.092  15.273 -0.3498 -1.0946  2.7545
 2698SOL    HW219731   4.582   2.017  15.306 -1.6317  2.0743  0.7437
 2699SOL     OW19732   0.215   1.150   0.908  0.2426 -0.3120 -0.0772
 2699SOL    HW119733   0.280   1.220   0.899  2.1154 -1.9082  0.9999
 2699SOL    HW219734   0.213   1.114   0.820  1.1866  0.0227 -0.2304
 2700SOL     OW19735   3.811   4.490   4.315 -0.1756 -0.3430  0.3789
 2700SOL    HW119736   3.830   4.564   4.257 -0.2474 -1.3282 -0.8976
 2700SOL    HW219737   3.718   4.471   4.305 -0.2679  0.7231 -0.6906
 2701SOL     OW19738   3.458   2.339  13.252 -0.0170 -0.4876  0.4345
 2701SOL    HW119739   3.420   2.423  13.278  1.2044 -0.2437  1.4060
 2701SOL    HW219740   3.486   2.362  13.163 -0.4153  2.1592  0.9791
 2702SOL     OW19741   1.540   1.005   5.521 -0.2945  0.6085  0.1227
 2702SOL    HW119742   1.602   0.932   5.516  1.6191  2.3863 -2.2336
 2702SOL    HW219743   1.492   0.978   5.599 -2.4994  1.2511 -1.0103
 2703SOL     OW19744   2.020   1.347  14.567  0.1069  0.2943 -0.4322
 2703SOL    HW119745   2.089   1.391  14.516 -0.4257  0.7563 -0.7554
 2703SOL    HW219746   2.071   1.269  14.589  1.3395  0.6737 -1.9119
 2704SOL     OW19747   1.400   1.952  15.488  0.1766 -0.4498  0.3374
 2704SOL    HW119748   1.394   2.020  15.421 -2.4342 -2.5715 -1.5457
 2704SOL    HW219749   1.437   1.994  15.565  1.8933  1.1673 -1.3671
 2705SOL     OW19750   1.792   3.748   5.462  0.1453 -0.0470 -0.4948
 2705SOL    HW119751   1.776   3.694   5.384  1.7371 -1.0051 -0.1665
 2705SOL    HW219752   1.700   3.762   5.485 -0.1488  1.8513 -2.8385
 2706SOL     OW19753   3.603   2.048   5.058  0.4710 -0.8196 -0.2498
 2706SOL    HW119754   3.637   1.971   5.104  1.9255 -0.5786 -0.9206
 2706SOL    HW219755   3.515   2.013   5.043 -0.4204  1.2206  0.1506
 2707SOL     OW19756   3.641   3.964  14.048  0.1859  0.1688 -0.1848
 2707SOL    HW119757   3.666   3.908  13.974 -2.8654  0.6087 -1.5569
 2707SOL    HW219758   3.717   4.021  14.056 -0.5019  1.1729 -0.7641
 2708SOL     OW19759   1.925   2.990  10.154  0.0904  0.1813 -0.4046
 2708SOL    HW119760   1.950   3.078  10.124  1.0396  0.5364  1.4074
 2708SOL    HW219761   1.829   2.990  10.154  0.0905 -2.0466 -0.9947
 2709SOL     OW19762   1.392   2.696   1.987 -0.6136  0.0786 -0.2404
 2709SOL    HW119763   1.365   2.780   1.951 -1.3800  0.4914  1.3322
 2709SOL    HW219764   1.316   2.682   2.043 -0.6034 -1.9551 -0.7397
 2710SOL     OW19765   0.343   4.030   2.632  0.1174  0.3503 -0.4818
 2710SOL    HW119766   0.380   4.052   2.547  0.8110 -2.4744 -0.9036
 2710SOL    HW219767   0.328   4.118   2.668  0.4853 -0.8388  2.5685
 2711SOL     OW19768   2.507   0.730   3.958  0.3541  0.2702 -0.2233
 2711SOL    HW119769   2.536   0.640   3.967  1.0773  0.5933  0.6565
 2711SOL    HW219770   2.460   0.739   4.041 -0.0152  1.1624 -0.5176
 2712SOL     OW19771   0.449   3.127   9.242 -0.0393 -0.3052 -0.3605
 2712SOL    HW119772   0.495   3.044   9.254  0.7515  0.4971  2.1695
 2712SOL    HW219773   0.513   3.190   9.207  0.3718 -1.9534 -2.6250
 2713SOL     OW19774   1.415   2.947   1.665  0.2039 -0.1176  0.0142
 2713SOL    HW119775   1.420   3.039   1.690  1.4951  0.1352 -1.1327
 2713SOL    HW219776   1.325   2.925   1.689  0.8597 -1.3009  1.3896
 2714SOL     OW19777   1.816   0.103  10.885 -0.8935 -0.4958  0.1839
 2714SOL    HW119778   1.777   0.016  10.890  0.4778 -1.1122  0.2497
 2714SOL    HW219779   1.816   0.147  10.969 -1.0397  1.0495 -0.6266
 2715SOL     OW19780   2.625   0.883   4.913  0.4054 -0.3245  0.2954
 2715SOL    HW119781   2.688   0.850   4.977  1.9071 -0.9945 -1.5474
 2715SOL    HW219782   2.678   0.879   4.834  0.7312 -0.7418  0.5324
 2716SOL     OW19783   2.475   3.199   2.168 -0.4490 -0.2178  0.2236
 2716SOL    HW119784   2.540   3.136   2.198 -0.6420  0.1688  1.4435
 2716SOL    HW219785   2.430   3.152   2.098 -1.3104 -1.2124  1.4439
 2717SOL     OW19786   4.526   0.736   2.580  0.0712  0.0677  0.1996
 2717SOL    HW119787   4.556   0.740   2.671  0.5131 -0.0879  0.0611
 2717SOL    HW219788   4.614   0.733   2.542  0.4210  0.7612  0.9470
 2718SOL     OW19789   3.649   2.922  12.323 -0.2624  0.1620 -0.4326
 2718SOL    HW119790   3.614   2.979  12.254  1.9206  0.8864 -0.9351
 2718SOL    HW219791   3.606   2.958  12.400 -0.1944  0.5366 -0.5679
 2719SOL     OW19792   3.409   1.508   5.761  0.2073 -0.2882 -0.1931
 2719SOL    HW119793   3.331   1.484   5.712  1.3478 -0.1251 -2.0995
 2719SOL    HW219794   3.373   1.554   5.837  0.5461 -0.4209  0.0492
 2720SOL     OW19795   4.704   3.001   9.816  0.6264 -0.0861  0.3676
 2720SOL    HW119796   0.011   2.957   9.887 -0.5657  1.6424  2.2050
 2720SOL    HW219797   4.631   3.054   9.846 -0.3177 -0.8887 -0.4921
 2721SOL     OW19798   1.472   3.966  12.787  0.7566 -0.0415 -0.0934
 2721SOL    HW119799   1.465   3.917  12.705  1.6764  1.0504 -0.8250
 2721SOL    HW219800   1.567   3.975  12.796  0.7153  0.0952  0.2172
 2722SOL     OW19801   1.060   2.706  15.933  0.0414 -0.3388 -0.0992
 2722SOL    HW119802   1.062   2.801  15.922  0.9930 -0.2892  0.5542
 2722SOL    HW219803   1.153   2.683  15.933 -0.3715 -1.9396 -2.4688
 2723SOL     OW19804   3.937   4.290   2.356  0.4520  0.4155  0.4749
 2723SOL    HW119805   3.841   4.281   2.353  0.5857 -0.1767 -1.9186
 2723SOL    HW219806   3.939   4.380   2.323  1.9226  0.7623  1.5166
 2724SOL     OW19807   4.706   2.961   4.820  0.6117  0.1585  0.4218
 2724SOL    HW119808   4.732   3.007   4.740 -1.7698 -0.7296 -0.8634
 2724SOL    HW219809   4.618   2.993   4.840  0.0619 -1.0000 -0.1716
 2725SOL     OW19810   0.523   2.606   9.330  0.6523 -0.4320  0.8161
 2725SOL    HW119811   0.458   2.619   9.262  0.3505  0.2722  1.2422
 2725SOL    HW219812   0.550   2.517   9.305 -1.9574 -0.4083 -2.0156
 2726SOL     OW19813   2.485   3.336   8.436  0.3675 -0.0729  0.4135
 2726SOL    HW119814   2.468   3.291   8.518 -1.7785 -0.9184 -0.5171
 2726SOL    HW219815   2.473   3.426   8.466  0.1793  0.0250  0.0446
 2727SOL     OW19816   0.096   1.517   6.654 -0.3960  0.8509  0.2037
 2727SOL    HW119817   0.017   1.494   6.606  0.0500 -0.0493 -0.0971
 2727SOL    HW219818   0.127   1.601   6.620  0.1794  1.2468  1.6772
 2728SOL     OW19819   1.150   1.337   3.748 -0.0476  0.4526  0.5949
 2728SOL    HW119820   1.181   1.348   3.658 -0.8910 -2.7323 -0.0879
 2728SOL    HW219821   1.227   1.365   3.797 -0.3716 -0.9101  1.8701
 2729SOL     OW19822   0.470   3.742   5.190 -0.0802 -0.3916 -0.0585
 2729SOL    HW119823   0.532   3.814   5.196  1.0646 -1.3364 -0.5179
 2729SOL    HW219824   0.423   3.755   5.272 -1.0616  2.4344 -1.0803
 2730SOL     OW19825   3.442   0.175   6.237  0.2205  0.5516  0.0348
 2730SOL    HW119826   3.453   0.269   6.248  0.9697  0.1564  2.9336
 2730SOL    HW219827   3.507   0.159   6.307  1.2656 -1.1798 -1.3177
 2731SOL     OW19828   0.707   3.861   9.517  0.6373 -0.1226  0.7848
 2731SOL    HW119829   0.742   3.950   9.525  1.4936 -0.3143 -0.9406
 2731SOL    HW219830   0.747   3.829   9.437 -0.2723 -0.6186  0.5199
 2732SOL     OW19831   3.938   3.416   2.019 -0.2270 -0.0490  0.7350
 2732SOL    HW119832   3.870   3.348   2.021  2.6399 -2.8759  0.6425
 2732SOL    HW219833   3.902   3.486   2.074  0.8981  0.7081  0.5023
 2733SOL     OW19834   1.170   1.757   3.452 -0.1417  0.5658 -0.0038
 2733SOL    HW119835   1.255   1.752   3.408 -0.6654 -2.0041 -0.6804
 2733SOL    HW219836   1.112   1.803   3.392  1.0512  1.2808 -0.6143
 2734SOL     OW19837   1.059   0.036   3.224 -0.5124 -0.2981 -0.4485
 2734SOL    HW119838   1.002   0.096   3.271  0.4252  1.8468 -2.0597
 2734SOL    HW219839   0.998   4.703   3.225  0.5272 -1.1848 -2.1806
 2735SOL     OW19840   2.382   2.713   7.629  0.0919 -0.1422 -0.5396
 2735SOL    HW119841   2.360   2.790   7.681  1.8736 -1.5805  2.2905
 2735SOL    HW219842   2.307   2.661   7.656 -1.5692  2.0284 -0.9975
 2736SOL     OW19843   2.658   3.388  17.363 -0.0013 -0.3918 -0.0482
 2736SOL    HW119844   2.587   3.370  17.301 -1.2263  2.0231  0.6470
 2736SOL    HW219845   2.655   3.483  17.367  0.5388 -0.3761 -0.0456
 2737SOL     OW19846   2.258   4.094  14.190  0.2387  0.0096  0.5294
 2737SOL    HW119847   2.203   4.022  14.161 -1.7759  1.2285  1.2770
 2737SOL    HW219848   2.277   4.143  14.110 -0.9837 -1.4296 -0.6326
 2738SOL     OW19849   2.731   0.258  11.608 -0.0381  0.3166 -0.3216
 2738SOL    HW119850   2.650   0.207  11.605  0.6626 -0.7638 -0.8381
 2738SOL    HW219851   2.700   0.341  11.642 -0.5707 -0.3216  0.7640
 2739SOL     OW19852   1.289   2.959  10.047 -0.5660 -0.1593 -0.3661
 2739SOL    HW119853   1.292   2.940   9.954  1.5735 -0.1632 -0.2927
 2739SOL    HW219854   1.365   2.905  10.067  1.2711  2.1343 -1.1315
 2740SOL     OW19855   3.445   1.033   6.785  0.2886 -0.4767 -0.5331
 2740SOL    HW119856   3.397   1.107   6.747  2.0655  0.7448 -0.4171
 2740SOL    HW219857   3.517   1.079   6.829  0.3738  0.9664 -2.1357
 2741SOL     OW19858   1.408   4.702   0.360  0.1814  0.2586 -0.1020
 2741SOL    HW119859   1.452   0.002   0.286 -0.2649  2.0737  0.6488
 2741SOL    HW219860   1.455   4.618   0.354 -3.0902 -1.5203 -0.9984
 2742SOL     OW19861   4.377   1.750   1.335  0.2189  0.4356 -0.1600
 2742SOL    HW119862   4.466   1.715   1.348  0.0452  0.3646  0.8733
 2742SOL    HW219863   4.393   1.801   1.256 -0.2605 -0.4104 -0.7938
 2743SOL     OW19864   2.640   0.608   6.939  0.7474  0.3490  0.5491
 2743SOL    HW119865   2.619   0.653   7.021  1.1660 -0.4835  1.1087
 2743SOL    HW219866   2.647   0.516   6.965 -2.6880 -0.3442 -0.9991
 2744SOL     OW19867   0.325   0.326  12.282 -0.0971 -0.6840  0.7822
 2744SOL    HW119868   0.350   0.332  12.190  1.2516  1.3686  1.2835
 2744SOL    HW219869   0.347   0.414  12.312  0.9198 -0.8515  0.5414
 2745SOL     OW19870   3.256   1.217   2.550 -0.0428  0.1203 -0.0597
 2745SOL    HW119871   3.188   1.201   2.485 -0.0431  1.4445 -0.3899
 2745SOL    HW219872   3.275   1.138   2.602 -0.2884  1.0566  1.4725
 2746SOL     OW19873   3.893   0.762   8.870  0.1656 -0.0981 -0.1726
 2746SOL    HW119874   3.819   0.814   8.840  1.6788  1.4925 -1.2216
 2746SOL    HW219875   3.899   0.797   8.959  2.3232 -1.8326  0.3719
 2747SOL     OW19876   1.677   0.483  10.068  0.9932  0.2246  0.2462
 2747SOL    HW119877   1.669   0.536  10.147  0.4105  1.0174 -0.3360
 2747SOL    HW219878   1.732   0.542  10.016 -0.5561 -1.4354 -3.2798
 2748SOL     OW19879   2.125   3.430   6.482  0.0687 -0.3646 -0.0465
 2748SOL    HW119880   2.184   3.385   6.422  1.3954  1.2709  0.0201
 2748SOL    HW219881   2.153   3.521   6.479 -0.1471 -0.3494 -1.2648
 2749SOL     OW19882   1.201   2.723  15.395 -0.2390  0.3013  0.5857
 2749SOL    HW119883   1.124   2.668  15.406 -1.3149  1.5846 -0.5295
 2749SOL    HW219884   1.223   2.724  15.488  0.8756 -1.3905  0.3421
 2750SOL     OW19885   4.545   4.412   6.128  0.4022 -0.0659  0.1668
 2750SOL    HW119886   4.611   4.444   6.067 -2.6342  0.6127 -2.7745
 2750SOL    HW219887   4.577   4.329   6.162  2.9079  0.0803 -1.8719
 2751SOL     OW19888   1.634   3.653  10.421 -0.2999  0.4630 -0.4026
 2751SOL    HW119889   1.628   3.573  10.369 -2.4422  0.9854 -0.9773
 2751SOL    HW219890   1.709   3.630  10.475 -0.2471 -2.3226 -1.6648
 2752SOL     OW19891   4.059   0.623   3.120  0.1857 -0.1002 -0.7102
 2752SOL    HW119892   4.153   0.607   3.132 -0.1611  0.2711  2.4795
 2752SOL    HW219893   4.044   0.716   3.132 -1.5775 -0.5420  0.4841
 2753SOL     OW19894   0.563   4.424   5.115 -0.2353  0.0717  0.5102
 2753SOL    HW119895   0.615   4.495   5.077  0.3523 -0.0014  1.1936
 2753SOL    HW219896   0.482   4.438   5.066 -0.0770  1.6563  0.6870
 2754SOL     OW19897   3.821   0.757   4.448  0.3209 -0.0630 -0.3392
 2754SOL    HW119898   3.727   0.748   4.432  0.2902 -0.1593 -0.0897
 2754SOL    HW219899   3.850   0.837   4.403 -0.8096  0.9673  0.7714
 2755SOL     OW19900   1.490   1.102  11.569  0.5232 -0.4752  0.5693
 2755SOL    HW119901   1.504   1.023  11.517 -0.8325 -0.8340  0.7436
 2755SOL    HW219902   1.418   1.141  11.519  0.0666  0.4829  1.9614
 2756SOL     OW19903   2.844   1.614   4.034  0.2577  0.3195  0.0623
 2756SOL    HW119904   2.885   1.537   4.074  3.1052  2.8959  2.1405
 2756SOL    HW219905   2.888   1.613   3.950 -1.1029 -1.3744 -0.6197
 2757SOL     OW19906   2.743   0.128   2.669 -0.0294 -0.1871  0.2479
 2757SOL    HW119907   2.669   0.085   2.711  0.3854  0.6229  1.8197
 2757SOL    HW219908   2.785   0.051   2.631 -0.2875  0.2629 -0.9651
 2758SOL     OW19909   2.661   1.614   5.171 -0.3791  0.1099 -0.4598
 2758SOL    HW119910   2.670   1.552   5.098 -2.1670 -0.6384 -0.0448
 2758SOL    HW219911   2.735   1.673   5.159 -0.2043  0.1722  0.9316
 2759SOL     OW19912   2.523   1.306  11.627  0.0504  0.5732  0.4629
 2759SOL    HW119913   2.432   1.285  11.609  0.6561  0.0216 -1.9384
 2759SOL    HW219914   2.513   1.354  11.710  1.3605 -0.3154  1.1440
 2760SOL     OW19915   0.779   1.293   6.237  0.1901 -0.3032 -0.1182
 2760SOL    HW119916   0.700   1.334   6.269  0.4693  0.2687 -0.1656
 2760SOL    HW219917   0.741   1.214   6.199  0.1696 -0.7136  0.7602
 2761SOL     OW19918   1.795   1.135   6.534  0.8736 -0.8504  0.4808
 2761SOL    HW119919   1.852   1.132   6.457 -0.8805 -2.8876 -0.7623
 2761SOL    HW219920   1.738   1.062   6.506  0.0825 -0.1838  0.3549
 2762SOL     OW19921   4.648   2.844   3.627 -0.0050  0.2048 -0.3877
 2762SOL    HW119922   4.572   2.786   3.638 -0.1623  0.2423 -1.3051
 2762SOL    HW219923   4.712   2.777   3.648  0.3785  1.5307  2.6613
 2763SOL     OW19924   0.006   3.946   0.900  0.2155  0.0356 -0.7015
 2763SOL    HW119925   0.072   3.907   0.841 -1.1061 -1.2297 -1.3558
 2763SOL    HW219926   0.006   3.896   0.981 -3.1890  0.8175 -0.2126
 2764SOL     OW19927   4.625   3.658   0.707  0.2808 -0.1389  0.1448
 2764SOL    HW119928   4.618   3.587   0.770  0.2197  0.0741  0.3746
 2764SOL    HW219929   4.703   3.701   0.742 -0.8419  0.3435  2.0290
 2765SOL     OW19930   2.665   3.257   1.566  0.1876  0.0983 -0.5235
 2765SOL    HW119931   2.584   3.208   1.579 -0.5078  1.6001  0.7013
 2765SOL    HW219932   2.721   3.193   1.521  1.9042  0.6834  0.7828
 2766SOL     OW19933   0.520   1.528   7.118 -0.3953  0.2162 -0.2916
 2766SOL    HW119934   0.448   1.552   7.176  0.2320 -1.6409  1.2389
 2766SOL    HW219935   0.588   1.587   7.152  1.9959 -1.7358 -1.7063
 2767SOL     OW19936   1.443   2.740   9.167 -0.6990  0.1278 -0.5891
 2767SOL    HW119937   1.489   2.811   9.121 -0.5921  0.8014  0.5645
 2767SOL    HW219938   1.383   2.711   9.099  0.0305  0.4997 -1.3937
 2768SOL     OW19939   2.387   3.261   7.189 -0.2135  0.0207 -0.3047
 2768SOL    HW119940   2.313   3.238   7.245 -1.5550 -2.6653 -3.1821
 2768SOL    HW219941   2.357   3.224   7.106  1.5140  1.1203 -1.4272
 2769SOL     OW19942   3.708   2.384   8.812 -0.0804 -0.5520 -0.1243
 2769SOL    HW119943   3.632   2.366   8.756 -1.0848 -2.2061  1.7764
 2769SOL    HW219944   3.761   2.444   8.760  0.0662 -1.1428 -0.6585
 2770SOL     OW19945   1.427   4.209   6.297  0.4533 -0.6546 -0.1845
 2770SOL    HW119946   1.485   4.285   6.295  3.3486 -2.9251 -1.7781
 2770SOL    HW219947   1.396   4.210   6.387 -0.9869 -1.9177 -0.6622
 2771SOL     OW19948   3.149   1.654  12.101 -0.1249  0.1614 -0.0365
 2771SOL    HW119949   3.242   1.654  12.077  0.1004 -0.9836  0.7899
 2771SOL    HW219950   3.161   1.600  12.180  0.4355  2.2482  1.2931
 2772SOL     OW19951   2.492   0.966   8.103  0.1278 -0.4870 -0.7429
 2772SOL    HW119952   2.519   0.998   8.017  2.5541  0.2027  0.2725
 2772SOL    HW219953   2.575   0.978   8.148  0.8098 -0.6184 -1.9846
 2773SOL     OW19954   2.647   3.509   3.057 -0.3773 -0.3527 -0.1853
 2773SOL    HW119955   2.670   3.416   3.060 -2.3811 -0.9258 -2.9293
 2773SOL    HW219956   2.605   3.509   3.143  1.2169 -1.4483  0.6023
 2774SOL     OW19957   1.340   4.681   7.455 -0.2950  0.0292  0.1884
 2774SOL    HW119958   1.301   4.597   7.431 -1.0479  0.6347 -0.7252
 2774SOL    HW219959   1.310   4.726   7.376  1.8554  1.1009 -0.0366
 2775SOL     OW19960   2.752   1.865   7.122  0.0006 -0.0811 -0.3644
 2775SOL    HW119961   2.709   1.949   7.105 -0.0372 -0.5658 -2.7719
 2775SOL    HW219962   2.746   1.818   7.039  0.8017 -1.4374  0.3464
 2776SOL     OW19963   1.716   3.448   2.970  0.2147  0.4524  0.0378
 2776SOL    HW119964   1.703   3.444   3.065  0.9272  1.5354  0.1653
 2776SOL    HW219965   1.757   3.365   2.946 -0.8329  0.1511 -0.7035
 2777SOL     OW19966   2.418   3.958   7.754  0.2580 -0.0232 -0.3434
 2777SOL    HW119967   2.461   4.041   7.771  0.5907 -0.9283  3.2877
 2777SOL    HW219968   2.490   3.895   7.756 -0.9096 -1.3803 -0.9700
 2778SOL     OW19969   0.643   0.847  16.665  0.5356 -0.2498  0.6176
 2778SOL    HW119970   0.638   0.941  16.650  0.0576 -0.4211 -0.3122
 2778SOL    HW219971   0.736   0.833  16.645  0.5886  1.8400 -0.5771
 2779SOL     OW19972   3.227   4.128   8.327  0.0289  0.2578 -0.1877
 2779SOL    HW119973   3.164   4.056   8.319 -0.8486  1.2460 -2.1274
 2779SOL    HW219974   3.232   4.158   8.236  1.0908 -0.4637 -0.3741
 2780SOL     OW19975   0.033   4.598   2.531 -0.5097 -0.0242  0.5302
 2780SOL    HW119976   4.722   4.667   2.490 -0.7355  0.5134  1.7364
 2780SOL    HW219977   0.080   4.564   2.455  0.0408  0.4305  0.6644
 2781SOL     OW19978   1.486   2.694   4.284 -0.3911  0.1088  0.3234
 2781SOL    HW119979   1.519   2.745   4.210  0.6582  1.3358  1.6530
 2781SOL    HW219980   1.567   2.655   4.318  0.3194  0.0218 -1.4671
 2782SOL     OW19981   0.036   4.057   5.235 -0.0148 -0.1403  0.3584
 2782SOL    HW119982   0.043   3.981   5.177  0.8817  1.3250 -1.4664
 2782SOL    HW219983   0.127   4.073   5.261  0.2426  0.5091 -0.9401
 2783SOL     OW19984   0.628   0.073   3.205  0.2419 -0.1880 -0.7627
 2783SOL    HW119985   0.538   0.056   3.230  0.8252 -2.4799 -0.2005
 2783SOL    HW219986   0.605   0.105   3.118 -3.8150  1.5183  0.9706
 2784SOL     OW19987   2.678   3.273   0.499 -0.4138 -0.0626 -0.1275
 2784SOL    HW119988   2.722   3.329   0.435 -2.1523  0.4113 -0.9029
 2784SOL    HW219989   2.718   3.188   0.479  1.7042  1.0220 -0.5305
 2785SOL     OW19990   2.735   2.162   6.630 -0.0570 -0.2216 -0.4302
 2785SOL    HW119991   2.652   2.124   6.661 -0.5418  0.4218 -0.9488
 2785SOL    HW219992   2.729   2.256   6.646 -1.3958 -0.3956  0.0919
 2786SOL     OW19993   3.135   2.539  13.534  0.0012  0.1098  0.1560
 2786SOL    HW119994   3.138   2.529  13.439  1.8181 -0.8247  0.3133
 2786SOL    HW219995   3.228   2.553  13.551  0.1448  0.0854 -0.6079
 2787SOL     OW19996   3.419   1.656  12.024  0.3438  0.8119  0.4743
 2787SOL    HW119997   3.495   1.685  11.975 -0.8171  0.8447 -1.2907
 2787SOL    HW219998   3.455   1.575  12.060 -2.0482 -1.0612 -1.3372
 2788SOL     OW19999   3.766   1.321  10.411  0.4188 -0.6115  0.4502
 2788SOL    HW120000   3.700   1.364  10.356 -0.0044 -1.3690  0.3634
 2788SOL    HW220001   3.731   1.239  10.444 -0.3096  0.7643  3.0575
 2789SOL     OW20002   2.180   2.363   8.672 -0.2790 -0.4463  0.1068
 2789SOL    HW120003   2.260   2.312   8.687  0.0416  0.4477  1.3697
 2789SOL    HW220004   2.196   2.406   8.588  1.1264  0.0906  0.6587
 2790SOL     OW20005   3.271   0.231   7.634  0.1576  0.1508  0.6186
 2790SOL    HW120006   3.356   0.223   7.590 -0.6354  0.4594 -0.9511
 2790SOL    HW220007   3.295   0.207   7.724 -0.8739 -0.5930  0.6970
 2791SOL     OW20008   4.683   4.520   3.841  0.5405 -0.1898 -0.0187
 2791SOL    HW120009   4.647   4.581   3.906  0.9981 -0.5882  0.6163
 2791SOL    HW220010   0.003   4.583   3.801  0.0414  0.0850 -0.3373
 2792SOL     OW20011   3.170   0.891   4.740 -0.0659 -0.3891 -0.1890
 2792SOL    HW120012   3.085   0.863   4.706 -0.0177  1.1255 -1.5325
 2792SOL    HW220013   3.202   0.811   4.781 -0.0912  0.6300  1.8196
 2793SOL     OW20014   0.294   4.306   7.922 -0.2846  0.0073 -0.0359
 2793SOL    HW120015   0.297   4.241   7.992 -1.1355 -1.0998 -1.0311
 2793SOL    HW220016   0.375   4.354   7.941 -0.6131  0.4620  0.2220
 2794SOL     OW20017   2.021   2.659   9.790  0.1373 -0.7471 -0.8615
 2794SOL    HW120018   2.107   2.700   9.789 -0.5791  0.6879 -2.9440
 2794SOL    HW220019   1.969   2.725   9.837  0.0446 -0.6020 -1.1690
 2795SOL     OW20020   0.108   4.436  11.838  0.4729  0.3774 -0.1103
 2795SOL    HW120021   0.174   4.392  11.784  0.1280 -1.9489  1.3379
 2795SOL    HW220022   0.159   4.438  11.919 -2.8496  0.5831  1.9701
 2796SOL     OW20023   1.049   2.230  11.734 -0.5757  0.5031 -0.1435
 2796SOL    HW120024   1.056   2.150  11.785 -1.5657 -1.3274 -2.8910
 2796SOL    HW220025   1.107   2.293  11.777 -2.0900  0.7359  1.5710
 2797SOL     OW20026   1.951   0.843   3.840 -0.9122  0.2394 -0.5247
 2797SOL    HW120027   1.858   0.823   3.848 -0.3296 -1.5461  1.7027
 2797SOL    HW220028   1.962   0.854   3.745 -0.7429  1.2942 -0.3796
 2798SOL     OW20029   0.588   2.375   1.693 -0.4643  0.2153  0.0415
 2798SOL    HW120030   0.625   2.315   1.758 -0.6025 -0.5617 -0.5992
 2798SOL    HW220031   0.620   2.322   1.619  2.0497  1.3996  0.2886
 2799SOL     OW20032   3.703   0.181   8.397 -0.1809  0.3742  0.0292
 2799SOL    HW120033   3.762   0.242   8.440  1.5896 -0.9826 -0.4983
 2799SOL    HW220034   3.621   0.225   8.419 -0.8286 -0.2862 -1.0494
 2800SOL     OW20035   4.303   0.588  11.116 -0.0022 -0.4024 -0.5584
 2800SOL    HW120036   4.333   0.518  11.057  2.3212 -0.7695  1.0290
 2800SOL    HW220037   4.209   0.576  11.122 -0.1135  0.6568 -0.1218
 2801SOL     OW20038   1.851   3.436   9.036  0.1887  0.1534 -0.0824
 2801SOL    HW120039   1.897   3.505   8.989  2.6619 -1.1128  0.5071
 2801SOL    HW220040   1.919   3.395   9.089  1.2983  0.1399 -1.5460
 2802SOL     OW20041   1.340   3.056   8.443 -0.0428  0.2556  0.0523
 2802SOL    HW120042   1.296   2.985   8.396  1.4682  0.6693 -1.9468
 2802SOL    HW220043   1.430   3.033   8.421  0.4861 -0.6934  3.1680
 2803SOL     OW20044   0.362   3.405   2.267  0.0147  0.1554 -0.1392
 2803SOL    HW120045   0.297   3.356   2.317  0.5265  0.8173  1.1771
 2803SOL    HW220046   0.435   3.344   2.257 -0.0796  0.3072 -1.7734
 2804SOL     OW20047   2.573   4.162   6.263 -0.0525  0.1825 -0.1141
 2804SOL    HW120048   2.631   4.134   6.192 -0.7602  0.5224 -0.8177
 2804SOL    HW220049   2.499   4.180   6.205 -0.1761  0.7807  0.2211
 2805SOL     OW20050   4.431   0.937   6.328  0.0496  0.2140  0.6113
 2805SOL    HW120051   4.339   0.956   6.347  0.2876  1.2770  0.6972
 2805SOL    HW220052   4.436   0.951   6.233  0.2151  0.6205  0.6788
 2806SOL     OW20053   4.320   3.431   8.030  0.2057 -0.0528 -0.0714
 2806SOL    HW120054   4.289   3.366   7.967 -3.0176  1.2111  0.2214
 2806SOL    HW220055   4.237   3.478   8.033 -0.9955 -2.2492  0.1969
 2807SOL     OW20056   0.125   3.661   8.266  0.1096  0.3918  0.4173
 2807SOL    HW120057   0.048   3.607   8.279  0.7633 -0.2656  1.5092
 2807SOL    HW220058   0.082   3.732   8.218  0.6139  0.4149 -0.0064
 2808SOL     OW20059   1.038   0.757   7.609  0.3367 -0.5139  0.0691
 2808SOL    HW120060   0.964   0.817   7.617  0.4543 -0.3485 -0.1011
 2808SOL    HW220061   1.027   0.713   7.525  0.1572  0.0617 -0.2096
 2809SOL     OW20062   0.586   0.055   7.106 -0.0607  0.1924  0.4878
 2809SOL    HW120063   0.524   0.076   7.037  0.5914 -0.6420 -0.3608
 2809SOL    HW220064   0.643   0.001   7.051  0.7107  3.7214 -2.1627
 2810SOL     OW20065   2.253   2.718   7.375 -0.3995  0.0797 -0.7174
 2810SOL    HW120066   2.173   2.666   7.379  0.3420 -0.9488  0.6922
 2810SOL    HW220067   2.281   2.720   7.466  0.8805 -0.0724 -1.1132
 2811SOL     OW20068   0.885   1.415   8.302 -0.2089  0.1517  0.0178
 2811SOL    HW120069   0.932   1.498   8.301 -0.9608  0.5374 -2.5305
 2811SOL    HW220070   0.911   1.371   8.221  0.8662  1.1626 -0.1877
 2812SOL     OW20071   3.202   0.833   9.443 -0.2019 -0.4096  0.0914
 2812SOL    HW120072   3.245   0.898   9.387  0.0797 -2.6584 -2.3037
 2812SOL    HW220073   3.158   0.896   9.501 -3.4432  0.1111 -2.9129
 2813SOL     OW20074   0.211   4.697   0.538  0.4959 -0.1537  0.3406
 2813SOL    HW120075   0.235   0.030   0.483  2.2190  0.3049  1.7380
 2813SOL    HW220076   0.161   0.005   0.603  0.8518 -0.1681  0.6190
 2814SOL     OW20077   1.064   1.563   8.709 -0.2851  0.4074  0.5604
 2814SOL    HW120078   1.122   1.507   8.760 -0.0315 -0.6780 -0.9451
 2814SOL    HW220079   0.985   1.578   8.761 -1.7612 -2.1158 -0.9777
 2815SOL     OW20080   3.668   1.422   5.363  0.2009  0.2852 -0.4965
 2815SOL    HW120081   3.620   1.436   5.445 -2.2001  1.7907 -2.1310
 2815SOL    HW220082   3.588   1.432   5.311 -0.0748 -0.0312 -0.1331
 2816SOL     OW20083   4.668   4.399   2.194  0.0405 -0.2928 -0.7285
 2816SOL    HW120084   4.574   4.380   2.188  0.5299 -2.9187 -0.2764
 2816SOL    HW220085   4.675   4.427   2.285  0.1681 -0.9047 -0.5490
 2817SOL     OW20086   0.309   0.315   7.284 -0.0956  0.0352  0.3752
 2817SOL    HW120087   0.370   0.365   7.230 -2.1968  1.4312 -0.7201
 2817SOL    HW220088   0.282   0.241   7.230  0.5290  0.2004 -0.1695
 2818SOL     OW20089   3.173   1.443   3.909 -0.6143  0.2095  0.5198
 2818SOL    HW120090   3.262   1.454   3.944 -0.1279 -1.6261 -0.1450
 2818SOL    HW220091   3.180   1.349   3.896  0.5226  0.2960  0.4697
 2819SOL     OW20092   4.099   3.375   3.401 -0.1912 -1.0174  0.5856
 2819SOL    HW120093   4.148   3.427   3.465  0.8113  0.7647 -1.6182
 2819SOL    HW220094   4.146   3.387   3.319  0.5900 -0.2009  1.1552
 2820SOL     OW20095   4.667   2.272   4.616 -0.3543  0.2940  0.2929
 2820SOL    HW120096   4.580   2.237   4.595  2.3300 -4.0906 -3.4854
 2820SOL    HW220097   4.699   2.288   4.527 -0.8332  0.5537  0.1667
 2821SOL     OW20098   0.598   2.571  11.993  0.0332  0.1017 -0.1410
 2821SOL    HW120099   0.509   2.600  11.972 -0.4668 -0.0215  1.8117
 2821SOL    HW220100   0.583   2.480  12.017  1.8317 -0.1694 -0.0361
 2822SOL     OW20101   0.061   4.719  10.498 -0.3319 -0.7541  0.4573
 2822SOL    HW120102   0.112   4.709  10.578 -0.6798  1.3640  0.9365
 2822SOL    HW220103   0.142   4.733  10.448  1.0240  1.1572  3.2164
 2823SOL     OW20104   2.347   2.494   2.530 -0.0356  0.2186 -0.2723
 2823SOL    HW120105   2.303   2.412   2.507 -0.3563 -0.0040  1.1874
 2823SOL    HW220106   2.280   2.522   2.592  1.7812  2.3948  0.6811
 2824SOL     OW20107   1.113   0.890   5.421  0.4581  0.1009 -0.3665
 2824SOL    HW120108   1.051   0.952   5.458  0.6472 -0.6111  1.1411
 2824SOL    HW220109   1.170   0.946   5.368 -0.6981  1.7789  0.1647
 2825SOL     OW20110   0.562   1.329  16.499  0.1495 -0.3233  0.1916
 2825SOL    HW120111   0.473   1.308  16.470  0.4288 -0.1078 -0.8084
 2825SOL    HW220112   0.607   1.294  16.423  0.3183  2.9515 -1.2162
 2826SOL     OW20113   3.853   0.454   0.469 -0.4570 -0.5711  0.2711
 2826SOL    HW120114   3.881   0.540   0.440  1.6489 -2.4546 -3.2525
 2826SOL    HW220115   3.873   0.462   0.562  2.9435  0.1142 -0.5206
 2827SOL     OW20116   2.165   3.478   2.801  0.1644  0.3041  0.2609
 2827SOL    HW120117   2.231   3.444   2.741  0.4693 -0.2228  0.9025
 2827SOL    HW220118   2.193   3.438   2.883 -1.0190  1.1819  1.0959
 2828SOL     OW20119   2.762   2.590   4.010  0.2416  0.6627  0.4838
 2828SOL    HW120120   2.669   2.571   4.001  0.4317 -0.2827  0.5020
 2828SOL    HW220121   2.769   2.593   4.106  1.0888 -2.9202  0.5053
 2829SOL     OW20122   0.016   3.185   6.248 -0.0620  0.3387  0.4850
 2829SOL    HW120123   4.712   3.164   6.330 -0.7675  0.0316  0.0268
 2829SOL    HW220124   4.692   3.246   6.212 -0.8520  0.4790  2.1487
 2830SOL     OW20125   3.559   4.488   8.373  0.4687  0.9633 -0.0073
 2830SOL    HW120126   3.515   4.572   8.385  0.1345  0.7938 -0.0144
 2830SOL    HW220127   3.553   4.484   8.278 -1.7072 -1.2436  0.2217
 2831SOL     OW20128   0.572   0.525   3.744  0.1154  0.6443  0.3572
 2831SOL    HW120129   0.633   0.582   3.697  0.4889 -0.6634 -0.7031
 2831SOL    HW220130   0.627   0.448   3.757  0.9856  1.2344  0.1547
 2832SOL     OW20131   1.151   0.982   7.931 -0.2909 -0.4747 -0.0119
 2832SOL    HW120132   1.190   0.955   7.848  0.6990 -0.4768  0.4510
 2832SOL    HW220133   1.233   1.004   7.974 -0.1990 -0.7627 -0.0383
 2833SOL     OW20134   2.961   3.195   1.867 -0.1488  0.4698 -0.1846
 2833SOL    HW120135   2.939   3.120   1.813  0.5136 -0.7575  1.2669
 2833SOL    HW220136   3.054   3.200   1.846  0.1801 -1.3798  0.9244
 2834SOL     OW20137   3.877   3.916   6.935 -0.0047  0.1330  0.6006
 2834SOL    HW120138   3.809   3.860   6.973  0.6825 -1.3965 -0.4115
 2834SOL    HW220139   3.876   3.883   6.845  1.5748  1.2658  0.1711
 2835SOL     OW20140   0.976   3.962  11.204  0.7225 -0.0941 -0.1226
 2835SOL    HW120141   0.952   3.901  11.274  1.0744 -1.1667 -0.9384
 2835SOL    HW220142   1.068   3.986  11.220  0.3975  0.6903  0.6344
 2836SOL     OW20143   4.370   4.393   7.280  0.0684 -0.0253 -0.1181
 2836SOL    HW120144   4.314   4.469   7.295  0.5330  0.6317 -1.6913
 2836SOL    HW220145   4.417   4.417   7.200  0.3081 -1.0657 -0.2934
 2837SOL     OW20146   3.103   4.424   5.997 -0.2725  0.0663  0.5724
 2837SOL    HW120147   3.176   4.368   5.969 -0.8871  0.6447 -2.2545
 2837SOL    HW220148   3.137   4.442   6.084 -1.6745 -0.1052  1.1481
 2838SOL     OW20149   1.264   4.553   3.368 -0.5507  0.1147  0.4751
 2838SOL    HW120150   1.239   4.627   3.312 -0.7597 -0.2376  0.1033
 2838SOL    HW220151   1.289   4.487   3.304  0.3136  1.6698 -0.7710
 2839SOL     OW20152   3.079   2.206   8.568  0.4773  0.1921 -0.5668
 2839SOL    HW120153   3.020   2.248   8.631  1.1691 -1.0809  0.9235
 2839SOL    HW220154   3.037   2.120   8.566 -0.3432  0.5463  0.8608
 2840SOL     OW20155   1.515   0.189  15.520 -0.4556 -0.4724  0.1506
 2840SOL    HW120156   1.519   0.094  15.526  3.1151 -0.2549  1.1336
 2840SOL    HW220157   1.537   0.208  15.429 -0.4694  0.6705  0.3786
 2841SOL     OW20158   0.117   4.633   5.124  0.6658 -0.7054  0.1731
 2841SOL    HW120159   0.053   4.664   5.059  0.7398  3.9113  2.3072
 2841SOL    HW220160   0.192   4.627   5.065 -1.4175  2.3593 -2.8243
 2842SOL     OW20161   2.913   2.944   0.190 -0.9382  0.2765  0.5647
 2842SOL    HW120162   2.887   2.926   0.100 -0.4970  2.1028  0.0852
 2842SOL    HW220163   2.861   3.024   0.199  0.2116  0.8245  2.3063
 2843SOL     OW20164   2.211   1.482   2.393  0.2794  0.1457  0.3520
 2843SOL    HW120165   2.159   1.534   2.454 -0.7142  1.5403 -1.7133
 2843SOL    HW220166   2.167   1.398   2.406  0.1897 -0.3259 -2.9607
 2844SOL     OW20167   0.713   4.242   8.088 -0.0097 -0.3357  0.5798
 2844SOL    HW120168   0.805   4.219   8.100  0.1341 -0.4952 -0.8898
 2844SOL    HW220169   0.679   4.233   8.178  1.4303  0.8659  1.2412
 2845SOL     OW20170   2.564   2.278  13.071 -0.3696  0.1369  0.3579
 2845SOL    HW120171   2.482   2.229  13.072 -0.2762 -0.0138  0.6170
 2845SOL    HW220172   2.550   2.352  13.011  1.5481  0.2764  0.0816
 2846SOL     OW20173   2.221   2.000  12.573  0.1061 -1.1443 -0.1217
 2846SOL    HW120174   2.162   2.067  12.540  1.2415 -0.1493 -0.1436
 2846SOL    HW220175   2.286   2.023  12.507  1.3834 -2.2123  0.7673
 2847SOL     OW20176   2.497   4.130   3.721  0.2416 -0.4616  0.2229
 2847SOL    HW120177   2.451   4.115   3.639 -0.8123 -0.5654  0.8272
 2847SOL    HW220178   2.581   4.092   3.694  1.5656  1.8110  1.1109
 2848SOL     OW20179   0.765   3.687   3.039 -0.2363 -0.4312  0.4171
 2848SOL    HW120180   0.812   3.615   2.996 -0.8101  0.2373 -1.3467
 2848SOL    HW220181   0.810   3.766   3.007  1.3385 -1.3948  0.2425
 2849SOL     OW20182   2.606   1.862   6.847 -0.1586 -0.1680 -0.0356
 2849SOL    HW120183   2.555   1.889   6.923 -0.0457  0.5409 -0.2136
 2849SOL    HW220184   2.660   1.937   6.821  1.3495 -1.0633  0.4919
 2850SOL     OW20185   1.542   0.976   7.625 -0.2713 -0.0414 -0.2131
 2850SOL    HW120186   1.609   1.011   7.567 -0.1960  0.9440  0.4894
 2850SOL    HW220187   1.523   0.902   7.566  1.6753  0.8946 -2.0050
 2851SOL     OW20188   0.070   4.469  13.306  0.2259  0.2537  0.1770
 2851SOL    HW120189   0.157   4.433  13.326 -0.6998 -2.0404  0.0867
 2851SOL    HW220190   0.029   4.421  13.378 -0.9621 -1.2917 -1.5216
 2852SOL     OW20191   3.403   1.741   2.281 -0.0213  0.0416 -0.0979
 2852SOL    HW120192   3.363   1.691   2.352 -0.7317 -1.6260 -1.6790
 2852SOL    HW220193   3.473   1.784   2.330 -1.7563  2.3459  0.4044
 2853SOL     OW20194   3.250   4.286   3.145  0.6407  0.0741 -0.0248
 2853SOL    HW120195   3.332   4.235   3.144  0.8689  0.4491 -0.5554
 2853SOL    HW220196   3.186   4.241   3.091  1.5860 -0.1952 -0.9119
 2854SOL     OW20197   3.315   0.004   7.416  0.3239  0.1505 -0.7257
 2854SOL    HW120198   3.342   0.047   7.335 -0.4341 -1.2869 -1.7333
 2854SOL    HW220199   3.222   0.017   7.397  0.2678  1.2106  0.2772
 2855SOL     OW20200   4.294   1.390  16.585 -0.2378  0.4220  0.1286
 2855SOL    HW120201   4.350   1.339  16.644 -0.0289  0.8000  0.2633
 2855SOL    HW220202   4.345   1.471  16.584  1.2816 -0.4913  2.5088
 2856SOL     OW20203   1.405   0.841   1.164  0.0717 -0.6723 -0.0573
 2856SOL    HW120204   1.381   0.880   1.080 -1.1309 -0.4668  0.3864
 2856SOL    HW220205   1.363   0.895   1.231 -1.0799  2.0444 -2.9581
 2857SOL     OW20206   0.382   1.038   8.951 -0.2412 -0.1959  0.2294
 2857SOL    HW120207   0.477   1.033   8.951 -0.0583  2.6258  3.1783
 2857SOL    HW220208   0.362   0.968   8.889  0.7300  1.0195 -1.4575
 2858SOL     OW20209   4.560   4.144   4.604 -0.1703  0.3208 -0.3255
 2858SOL    HW120210   4.465   4.154   4.604 -0.2588 -0.4462  2.3038
 2858SOL    HW220211   4.581   4.111   4.692 -2.4717 -2.7337 -0.9180
 2859SOL     OW20212   0.911   4.323  11.743  0.4081  0.3029  0.2264
 2859SOL    HW120213   0.840   4.347  11.684  0.9590 -0.9065 -0.9374
 2859SOL    HW220214   0.979   4.340  11.679 -0.9586 -0.2935 -1.3733
 2860SOL     OW20215   2.200   0.669   3.755 -0.2957 -0.2657 -0.6347
 2860SOL    HW120216   2.170   0.755   3.725 -1.5315  0.0875  1.6244
 2860SOL    HW220217   2.144   0.655   3.831  1.6797 -0.2985  0.8009
 2861SOL     OW20218   0.828   4.378   5.263  0.1611  0.0569 -0.0284
 2861SOL    HW120219   0.735   4.388   5.240  0.4316  1.9970 -0.2867
 2861SOL    HW220220   0.850   4.290   5.234 -0.4395  0.7044 -2.4676
 2862SOL     OW20221   0.858   2.547   2.154  0.0731  0.3716  0.0351
 2862SOL    HW120222   0.942   2.526   2.196  0.0371  0.8070  0.3225
 2862SOL    HW220223   0.879   2.585   2.068 -2.0203  1.4836  0.0383
 2863SOL     OW20224   2.018   2.901  16.775 -0.2456  0.0221 -0.1385
 2863SOL    HW120225   2.003   2.878  16.867 -1.1801  1.8436  0.1591
 2863SOL    HW220226   2.113   2.903  16.773 -0.2490  0.2312 -0.0453
 2864SOL     OW20227   0.107   0.319   4.784  0.5505  0.3500 -0.4879
 2864SOL    HW120228   0.029   0.316   4.839  1.8013  1.2615  1.3369
 2864SOL    HW220229   0.180   0.320   4.846  1.7944  1.4082 -1.9755
 2865SOL     OW20230   2.440   3.438  10.401  0.1458  0.5560  0.2872
 2865SOL    HW120231   2.420   3.411  10.312 -0.9463  2.3219 -0.0046
 2865SOL    HW220232   2.385   3.516  10.405 -0.1435  0.2522  2.1153
 2866SOL     OW20233   4.676   1.733  16.996  0.1556 -0.0517  0.5170
 2866SOL    HW120234   4.652   1.812  17.044 -0.0888 -0.0069  0.3228
 2866SOL    HW220235   4.688   1.673  17.070 -1.0885 -0.7039  0.1925
 2867SOL     OW20236   0.603   1.535   9.709 -0.8812 -0.3319  0.1829
 2867SOL    HW120237   0.560   1.597   9.768  0.8846  2.3241 -1.3939
 2867SOL    HW220238   0.610   1.454   9.761 -0.6055 -1.2911 -1.3420
 2868SOL     OW20239   3.777   1.850   2.984 -0.2969  0.2885  0.4208
 2868SOL    HW120240   3.871   1.861   2.975 -0.6457  1.4453 -1.8900
 2868SOL    HW220241   3.759   1.774   2.928 -0.1156  0.6348 -0.1108
 2869SOL     OW20242   3.280   3.738   1.937 -0.6583 -0.1023 -0.7443
 2869SOL    HW120243   3.184   3.744   1.933 -0.8280  0.4768  3.7744
 2869SOL    HW220244   3.302   3.699   1.853 -1.0461 -1.0069 -0.4314
 2870SOL     OW20245   4.537   4.119   1.945 -0.4777 -0.0728  0.4160
 2870SOL    HW120246   4.612   4.178   1.936 -0.2355 -0.0547  2.6005
 2870SOL    HW220247   4.568   4.044   1.995 -0.1346  0.8243  1.5491
 2871SOL     OW20248   3.763   3.906   5.912 -0.0019 -0.5383  0.4854
 2871SOL    HW120249   3.673   3.933   5.892  1.0620  0.7180 -2.6753
 2871SOL    HW220250   3.748   3.846   5.985 -0.6093 -1.7816 -0.6805
 2872SOL     OW20251   2.519   1.462   6.933 -0.6230  0.2084  0.4004
 2872SOL    HW120252   2.520   1.382   6.987 -3.2728 -1.1442 -1.5506
 2872SOL    HW220253   2.427   1.451   6.909 -0.6017 -0.5033  0.6391
 2873SOL     OW20254   2.719   0.045   5.077  0.0602  0.2291 -0.2124
 2873SOL    HW120255   2.739   4.693   5.067  0.5811  0.3753 -0.5419
 2873SOL    HW220256   2.635   0.048   5.122  0.1197  2.3003 -0.2357
 2874SOL     OW20257   3.599   2.502   8.073  0.1680 -0.3463 -0.1260
 2874SOL    HW120258   3.622   2.496   7.980  0.6054 -0.9403  0.0251
 2874SOL    HW220259   3.503   2.507   8.068  0.3092  2.4880 -0.2511
 2875SOL     OW20260   0.732   1.639  12.158 -0.1384 -0.5685 -0.0531
 2875SOL    HW120261   0.798   1.571  12.171  1.7429  1.3041  0.0508
 2875SOL    HW220262   0.652   1.587  12.143  0.1507 -0.9228 -0.3758
 2876SOL     OW20263   3.771   2.435   1.917 -0.8133 -0.3302 -0.1991
 2876SOL    HW120264   3.733   2.437   1.829 -1.8453 -1.4111  0.2274
 2876SOL    HW220265   3.722   2.501   1.966  0.5498  1.6845 -1.5701
 2877SOL     OW20266   1.494   4.541   9.195 -0.4331 -0.5665  0.0098
 2877SOL    HW120267   1.560   4.505   9.254 -0.5217 -0.1961  0.3322
 2877SOL    HW220268   1.436   4.578   9.261  1.0638  0.5748  0.6867
 2878SOL     OW20269   4.339   3.167   3.074  0.0285  0.1929 -0.1649
 2878SOL    HW120270   4.336   3.248   3.024 -1.8337 -1.2355 -2.3624
 2878SOL    HW220271   4.390   3.112   3.015 -0.0693 -0.4998  0.3991
 2879SOL     OW20272   0.450   3.972   2.370  0.5861  0.1796 -0.0079
 2879SOL    HW120273   0.384   3.930   2.315  1.4098 -1.0958 -0.0428
 2879SOL    HW220274   0.461   4.052   2.318 -0.8699 -0.3616 -1.1400
 2880SOL     OW20275   0.157   0.681   4.889 -0.0432 -0.3030  0.6080
 2880SOL    HW120276   0.124   0.612   4.946  1.8676 -1.0557  0.8210
 2880SOL    HW220277   0.243   0.699   4.927 -1.1237  1.8908  2.0292
 2881SOL     OW20278   3.179   1.243  10.237  0.7083 -0.7709 -0.3240
 2881SOL    HW120279   3.164   1.167  10.181  0.0305  0.9010 -2.4286
 2881SOL    HW220280   3.256   1.286  10.200  1.3618 -0.6465  1.2103
 2882SOL     OW20281   2.424   4.350   3.506 -0.2220 -0.0038 -0.5488
 2882SOL    HW120282   2.413   4.256   3.488  0.2409 -0.5571  2.0378
 2882SOL    HW220283   2.441   4.382   3.418  1.1863  1.7884  0.3809
 2883SOL     OW20284   2.428   3.468  15.538  0.3019  0.3522  0.2698
 2883SOL    HW120285   2.379   3.525  15.479 -0.4172  1.6282  2.1257
 2883SOL    HW220286   2.433   3.384  15.491 -0.5085 -0.0825  0.9793
 2884SOL     OW20287   1.544   1.384   3.117 -0.3202  0.1359 -0.0896
 2884SOL    HW120288   1.513   1.401   3.206  0.1721 -1.1832  0.3341
 2884SOL    HW220289   1.622   1.335   3.143  0.0305  0.4461 -0.5747
 2885SOL     OW20290   1.692   0.351   3.285  0.1386  0.0979  0.2511
 2885SOL    HW120291   1.714   0.433   3.329 -0.4811  0.9703 -1.0584
 2885SOL    HW220292   1.683   0.380   3.194  2.7466 -1.1884 -0.3929
 2886SOL     OW20293   4.360   1.812   2.996  0.0671  0.1441  0.4606
 2886SOL    HW120294   4.380   1.894   2.951 -1.0947  0.7589  1.0579
 2886SOL    HW220295   4.447   1.794   3.030  1.1940  0.5680 -2.1913
 2887SOL     OW20296   1.971   0.836   8.942  0.8723 -0.3535  0.8730
 2887SOL    HW120297   1.933   0.880   9.018 -1.8512 -1.1736  0.0160
 2887SOL    HW220298   1.920   0.755   8.955  3.3427 -2.7334 -4.4324
 2888SOL     OW20299   0.524   3.267   6.403  0.6919  0.0278 -0.3200
 2888SOL    HW120300   0.608   3.303   6.433  2.2815 -3.6347 -0.4642
 2888SOL    HW220301   0.554   3.226   6.322 -0.8496 -3.4659  0.9084
 2889SOL     OW20302   2.321   3.857  14.829 -0.1665 -1.1388 -0.2086
 2889SOL    HW120303   2.335   3.830  14.920 -1.2107  1.0791  0.6179
 2889SOL    HW220304   2.378   3.804  14.773  1.3468  0.1868  0.0723
 2890SOL     OW20305   3.405   0.659   3.739  0.4298 -0.0954  0.6298
 2890SOL    HW120306   3.348   0.584   3.759 -0.6191  0.2368 -1.1484
 2890SOL    HW220307   3.455   0.628   3.664 -0.5619  0.5569 -0.3040
 2891SOL     OW20308   1.324   4.702  12.228 -1.0315 -0.2330 -0.1222
 2891SOL    HW120309   1.394   4.664  12.281  0.8465  0.2878 -2.2088
 2891SOL    HW220310   1.373   4.739  12.155  0.2487 -0.5905  0.5552
 2892SOL     OW20311   3.637   4.677  17.070  0.0252 -0.0514 -0.0863
 2892SOL    HW120312   3.718   4.626  17.071  0.9030  1.3749  1.6261
 2892SOL    HW220313   3.670   0.024  17.090 -0.9180  0.8714 -2.6185
 2893SOL     OW20314   2.339   0.280   6.291  0.0878  0.2377 -0.4585
 2893SOL    HW120315   2.289   0.246   6.365  2.4706 -1.0742  0.5468
 2893SOL    HW220316   2.311   0.237   6.210  2.9165 -0.6088 -0.9815
 2894SOL     OW20317   0.853   4.366   3.987  0.1266  0.4188 -0.6671
 2894SOL    HW120318   0.881   4.429   3.921 -1.4015  1.2957 -0.4714
 2894SOL    HW220319   0.851   4.277   3.952 -2.2163  0.3868 -0.4313
 2895SOL     OW20320   2.211   4.258   8.755  0.1610  1.1150  0.7686
 2895SOL    HW120321   2.174   4.224   8.674 -3.4980  0.8376  2.5554
 2895SOL    HW220322   2.300   4.274   8.723  0.5465 -1.4594  0.5484
 2896SOL     OW20323   3.931   2.356  15.799  0.4390 -0.4097 -0.0647
 2896SOL    HW120324   3.886   2.272  15.791  2.8650 -1.6921 -0.5373
 2896SOL    HW220325   4.015   2.339  15.755 -0.1335 -0.9801 -0.9308
 2897SOL     OW20326   1.853   0.961  17.011 -0.7242 -0.0538  0.1156
 2897SOL    HW120327   1.866   0.868  16.990 -0.4588  0.8324 -3.5772
 2897SOL    HW220328   1.768   0.964  17.056 -1.0859  0.4762 -0.6014
 2898SOL     OW20329   0.115   1.575   3.224  0.1769 -0.3139 -0.5043
 2898SOL    HW120330   0.084   1.493   3.263  0.9542 -0.2770  0.1973
 2898SOL    HW220331   0.077   1.578   3.137 -0.4955  0.6471 -0.1724
 2899SOL     OW20332   3.377   2.451  14.682  0.0893  0.2632 -0.0177
 2899SOL    HW120333   3.448   2.438  14.620 -0.2089 -0.9726 -0.1090
 2899SOL    HW220334   3.333   2.526  14.643 -0.6282  0.1151  0.4961
 2900SOL     OW20335   3.831   1.049   7.268 -0.5832  0.1899  0.4728
 2900SOL    HW120336   3.805   1.085   7.353 -0.9409  3.0460 -0.8507
 2900SOL    HW220337   3.919   1.022   7.292 -1.3114 -1.9309  0.7646
 2901SOL     OW20338   1.239   0.650   1.693  0.2322  0.0845  0.0237
 2901SOL    HW120339   1.331   0.641   1.667  1.0917  1.6669  2.5098
 2901SOL    HW220340   1.231   0.568   1.742  0.9731 -1.0653 -1.8040
 2902SOL     OW20341   0.111   1.390   6.906  0.1858 -0.4835 -0.1334
 2902SOL    HW120342   0.096   1.407   6.813  0.6089 -1.1349 -0.3215
 2902SOL    HW220343   0.207   1.387   6.904  0.1761 -0.5810 -0.4804
 2903SOL     OW20344   0.302   3.327   5.973  0.2354  0.3929 -0.0605
 2903SOL    HW120345   0.266   3.239   5.967 -0.9606  0.8971 -0.1616
 2903SOL    HW220346   0.241   3.375   6.028 -0.5043  0.7333 -1.1788
 2904SOL     OW20347   0.637   2.926  14.816 -0.1507 -0.1192  0.5608
 2904SOL    HW120348   0.602   3.013  14.800  0.9390  0.4204  1.1441
 2904SOL    HW220349   0.566   2.886  14.866 -0.3184  0.6195  0.9017
 2905SOL     OW20350   4.415   0.532  11.349 -0.4939  0.4141 -0.5212
 2905SOL    HW120351   4.369   0.573  11.276 -2.2515  0.5495  0.6613
 2905SOL    HW220352   4.362   0.561  11.424  1.1150  1.3971  0.2423
 2906SOL     OW20353   0.041   0.971   3.349 -0.2523 -0.1481  0.1706
 2906SOL    HW120354   4.696   1.002   3.377 -0.5076  1.3158 -2.2271
 2906SOL    HW220355   0.061   0.909   3.419 -0.4644 -1.8507 -1.2553
 2907SOL     OW20356   4.601   2.830   5.691 -0.4384  0.9249  0.1662
 2907SOL    HW120357   4.569   2.749   5.731  3.3191 -0.3707  0.4981
 2907SOL    HW220358   4.573   2.813   5.601 -1.2320  1.0346  0.3910
 2908SOL     OW20359   1.078   0.631   6.058 -0.1896 -0.3321  0.2480
 2908SOL    HW120360   1.050   0.701   6.000 -0.6722 -1.8249 -1.3245
 2908SOL    HW220361   1.171   0.637   6.035 -0.0405 -2.0220  0.4338
 2909SOL     OW20362   3.351   1.955   9.387 -0.3523  0.3365  0.3843
 2909SOL    HW120363   3.322   1.999   9.307  0.9962 -1.4714 -1.0729
 2909SOL    HW220364   3.376   1.867   9.359  3.2434  1.2507  0.7654
 2910SOL     OW20365   1.971   0.578   7.806 -0.0575 -0.6712 -0.3036
 2910SOL    HW120366   2.011   0.616   7.728 -1.1270  0.1832 -0.4361
 2910SOL    HW220367   1.966   0.486   7.780  1.6727 -0.8239 -0.0694
 2911SOL     OW20368   2.354   1.474  17.661  0.4501 -0.2580  0.2301
 2911SOL    HW120369   2.350   1.397  17.604  0.2390 -0.9651  1.2072
 2911SOL    HW220370   2.447   1.495  17.656  0.0197  1.1325 -1.8487
 2912SOL     OW20371   4.021   0.941   9.566 -0.8177 -0.2005  0.3557
 2912SOL    HW120372   4.105   0.952   9.521 -1.9589 -3.0989 -2.5247
 2912SOL    HW220373   4.041   1.008   9.631  0.8388  0.5803 -0.9662
 2913SOL     OW20374   0.079   3.162   6.842  0.0866 -0.0933  0.0466
 2913SOL    HW120375   0.035   3.204   6.767 -0.1341  3.3507  2.0940
 2913SOL    HW220376   0.129   3.097   6.793 -0.8148 -0.6258 -0.1782
 2914SOL     OW20377   3.783   0.629   3.774 -0.3351 -0.0362  0.4142
 2914SOL    HW120378   3.759   0.716   3.808  2.3865  0.1170  1.9213
 2914SOL    HW220379   3.868   0.611   3.815 -0.2185 -1.5737 -0.5214
 2915SOL     OW20380   2.956   3.577   7.173 -0.6820  0.4372 -0.3380
 2915SOL    HW120381   2.928   3.496   7.129  0.9200  1.0796 -2.5084
 2915SOL    HW220382   2.878   3.575   7.229  0.7257 -3.4758  1.5188
 2916SOL     OW20383   0.659   1.516  16.051  0.5343 -0.4538 -0.2154
 2916SOL    HW120384   0.681   1.462  16.127  1.1437 -2.3688 -1.7812
 2916SOL    HW220385   0.668   1.445  15.988 -0.2377 -1.5017  0.8538
 2917SOL     OW20386   2.409   3.951   5.616 -0.5554 -0.1602  0.4231
 2917SOL    HW120387   2.417   4.045   5.629  2.2375 -0.8821  4.0059
 2917SOL    HW220388   2.496   3.930   5.648 -0.9371 -0.7159  1.1021
 2918SOL     OW20389   4.493   1.985   2.370 -0.0074 -0.5123 -0.0759
 2918SOL    HW120390   4.458   1.914   2.424 -1.4844  0.9165  0.8406
 2918SOL    HW220391   4.431   1.986   2.297 -0.3389  1.1245  0.2239
 2919SOL     OW20392   3.286   2.593   7.706 -0.5216  0.4941  0.3076
 2919SOL    HW120393   3.364   2.628   7.748 -0.8665 -0.0318  1.3724
 2919SOL    HW220394   3.232   2.672   7.707 -2.5371 -0.8418 -1.9995
 2920SOL     OW20395   1.420   0.621   2.728 -0.8755 -0.3921  0.1742
 2920SOL    HW120396   1.444   0.714   2.732  0.4095 -0.7584  0.7221
 2920SOL    HW220397   1.440   0.605   2.820  0.5010 -0.2961 -0.1070
 2921SOL     OW20398   2.545   1.160   1.383 -0.3106 -0.4656 -0.5865
 2921SOL    HW120399   2.471   1.197   1.335 -0.9695 -1.0548 -0.0308
 2921SOL    HW220400   2.589   1.242   1.408 -0.7573 -0.2744 -0.4156
 2922SOL     OW20401   1.776   2.391   5.380 -0.5184  0.2179 -0.6768
 2922SOL    HW120402   1.712   2.395   5.309  0.2149  2.7652 -1.2128
 2922SOL    HW220403   1.857   2.387   5.328 -1.1671 -4.7051 -1.2768
 2923SOL     OW20404   2.183   4.603  16.153  0.0516 -0.1865 -0.2064
 2923SOL    HW120405   2.135   4.591  16.235 -1.6917  1.6228 -0.9591
 2923SOL    HW220406   2.263   4.561  16.183  0.5761 -0.4580 -2.0013
 2924SOL     OW20407   1.947   0.639  13.108  0.7158 -0.3875 -0.1474
 2924SOL    HW120408   1.933   0.734  13.114 -0.3949 -0.4826 -1.2238
 2924SOL    HW220409   1.885   0.612  13.040 -0.2523  1.9236 -0.2026
 2925SOL     OW20410   1.777   3.584   8.416 -0.5135  0.7163 -0.0387
 2925SOL    HW120411   1.686   3.606   8.396 -0.5415  0.8944  0.2918
 2925SOL    HW220412   1.767   3.490   8.431 -2.5477  0.8173 -0.6932
 2926SOL     OW20413   1.551   2.223  16.335 -0.3271  0.3365  0.0363
 2926SOL    HW120414   1.508   2.246  16.417 -0.7504  1.9432 -0.6300
 2926SOL    HW220415   1.498   2.255  16.262 -2.5081 -1.6316  0.7889
 2927SOL     OW20416   3.539   2.266   0.154 -0.0714  0.5746 -0.3170
 2927SOL    HW120417   3.623   2.226   0.179 -0.8880 -0.2791  1.0659
 2927SOL    HW220418   3.525   2.227   0.068 -0.8020 -2.2745  1.1049
 2928SOL     OW20419   3.337   2.480   6.680  0.4918  0.1635  0.2029
 2928SOL    HW120420   3.423   2.503   6.717  1.2379  0.9907 -2.0469
 2928SOL    HW220421   3.370   2.404   6.633  0.2028  0.8678 -1.1546
 2929SOL     OW20422   4.473   1.280   8.272  0.0615  0.0015 -0.1096
 2929SOL    HW120423   4.424   1.298   8.192  0.7297  0.2687 -0.4653
 2929SOL    HW220424   4.444   1.357   8.321 -0.1910 -1.1457  1.5289
 2930SOL     OW20425   3.935   1.935   3.395 -0.2511 -0.6043  0.2098
 2930SOL    HW120426   3.922   1.969   3.307 -1.4725  0.5268  0.8153
 2930SOL    HW220427   3.869   1.865   3.394 -2.1349  1.1725 -0.7223
 2931SOL     OW20428   2.792   0.561   5.853 -0.2282  0.2641 -0.2796
 2931SOL    HW120429   2.809   0.635   5.911 -0.1892 -1.2792  1.6709
 2931SOL    HW220430   2.709   0.533   5.892 -0.3976  1.4140  0.1863
 2932SOL     OW20431   0.366   2.575   3.005 -0.2472 -0.1508 -0.0268
 2932SOL    HW120432   0.360   2.624   3.087 -0.2646 -2.1591  1.1766
 2932SOL    HW220433   0.459   2.582   2.984 -0.7027  1.0053 -1.6480
 2933SOL     OW20434   4.169   2.222   2.378 -0.1154 -0.0461 -0.4527
 2933SOL    HW120435   4.172   2.278   2.300 -0.1005 -0.4910 -0.7754
 2933SOL    HW220436   4.136   2.139   2.343  1.0651 -1.7105  2.3572
 2934SOL     OW20437   1.198   4.151  17.474 -0.5408  0.0139  0.0863
 2934SOL    HW120438   1.145   4.116  17.403  0.4130 -0.7313 -0.2546
 2934SOL    HW220439   1.276   4.155  17.418  0.0257  1.7758  0.9718
 2935SOL     OW20440   1.814   3.376   7.742 -0.0932  0.4622  0.2079
 2935SOL    HW120441   1.733   3.386   7.692  0.4129  1.7149 -0.3490
 2935SOL    HW220442   1.866   3.453   7.720  0.9614 -0.7277 -1.5389
 2936SOL     OW20443   4.346   2.652   9.609  0.0530  0.2498 -0.2437
 2936SOL    HW120444   4.439   2.654   9.632  0.2335  0.3904 -1.0032
 2936SOL    HW220445   4.331   2.580   9.548 -1.1706 -0.1350  0.4981
 2937SOL     OW20446   4.719   0.997   3.727 -0.0887  0.0616  0.0772
 2937SOL    HW120447   4.740   0.925   3.788 -0.0341 -0.1234 -0.1594
 2937SOL    HW220448   0.068   1.022   3.704  0.9374 -1.6395  2.1314
 2938SOL     OW20449   1.055   2.596  14.735  0.4287 -0.3432 -0.5995
 2938SOL    HW120450   1.044   2.688  14.710  1.6506  0.4468  1.7894
 2938SOL    HW220451   1.019   2.597  14.824 -0.7990 -1.5154 -1.0819
 2939SOL     OW20452   0.261   2.327   0.084  0.2624 -0.0885  0.4213
 2939SOL    HW120453   0.337   2.381   0.107 -0.2049  0.5505  0.4504
 2939SOL    HW220454   0.231   2.297   0.170 -1.3587  0.6398  0.0866
 2940SOL     OW20455   4.234   3.551   6.781 -0.0655 -0.0944 -0.3112
 2940SOL    HW120456   4.249   3.611   6.854 -0.3093  1.7970 -1.8109
 2940SOL    HW220457   4.226   3.474   6.837  1.0889 -1.4676 -2.0803
 2941SOL     OW20458   1.143   0.180  12.176  0.5117 -0.3548  0.4286
 2941SOL    HW120459   1.080   0.156  12.244  0.7395  0.0699  0.7905
 2941SOL    HW220460   1.211   0.113  12.184  0.7901 -0.5534 -3.5264
 2942SOL     OW20461   2.246   0.094   8.963 -0.6197  0.0032  0.3844
 2942SOL    HW120462   2.167   0.045   8.941  0.2170  0.0638 -2.7456
 2942SOL    HW220463   2.283   0.119   8.878 -0.3638  0.5611  0.6622
 2943SOL     OW20464   0.679   3.850   8.633 -0.1172 -0.0711 -0.2570
 2943SOL    HW120465   0.671   3.902   8.553  1.7132 -1.3636 -1.2898
 2943SOL    HW220466   0.758   3.885   8.674 -0.0908 -0.8827  0.3785
 2944SOL     OW20467   4.287   0.935   5.787 -0.4024 -0.0798  0.1492
 2944SOL    HW120468   4.274   0.840   5.785 -2.8370  0.2605  0.6203
 2944SOL    HW220469   4.380   0.945   5.809 -0.7225  0.4040  1.2759
 2945SOL     OW20470   1.613   1.344   7.505  0.1728 -0.1638  0.3278
 2945SOL    HW120471   1.603   1.392   7.423  1.9692  0.7335  0.6161
 2945SOL    HW220472   1.605   1.417   7.566  0.0094  0.6032 -0.6098
 2946SOL     OW20473   3.960   2.890   8.565  0.1212  0.2862 -0.5431
 2946SOL    HW120474   3.998   2.953   8.627  0.5647 -2.4213  1.9503
 2946SOL    HW220475   3.895   2.851   8.624  1.4297  0.2023  0.8686
 2947SOL     OW20476   4.477   4.693  12.035  0.0544 -0.0890  0.0736
 2947SOL    HW120477   4.501   0.020  11.973 -2.5412 -0.8165 -1.7487
 2947SOL    HW220478   4.514   4.615  11.992  1.3539  0.8532 -0.4930
 2948SOL     OW20479   1.635   3.223  15.183  0.7616  0.0543 -0.0351
 2948SOL    HW120480   1.599   3.172  15.109 -1.3588  2.2874 -0.5482
 2948SOL    HW220481   1.589   3.305  15.167 -0.5153 -0.7474 -0.5225
 2949SOL     OW20482   4.456   2.572   8.934 -0.3056 -0.8946  0.5384
 2949SOL    HW120483   4.518   2.502   8.917  0.4697  0.6993 -3.1936
 2949SOL    HW220484   4.500   2.616   9.006 -1.5879 -0.0905  0.8449
 2950SOL     OW20485   4.723   3.940   8.466 -0.2465 -0.2093  0.2769
 2950SOL    HW120486   0.029   3.884   8.528  0.5085  2.4772  2.1441
 2950SOL    HW220487   4.673   3.873   8.419 -0.6532  0.0109  0.3938
 2951SOL     OW20488   1.853   1.012  16.514 -0.1978 -0.3806 -0.0798
 2951SOL    HW120489   1.851   0.923  16.549 -0.8672 -0.0905  0.6043
 2951SOL    HW220490   1.821   1.068  16.584 -1.1118 -1.4095  0.3164
 2952SOL     OW20491   4.436   4.298   2.584 -0.4460 -0.4595 -0.3081
 2952SOL    HW120492   4.390   4.342   2.513 -0.5398  4.5754  2.8723
 2952SOL    HW220493   4.526   4.303   2.552 -0.6411 -0.3652 -0.8368
 2953SOL     OW20494   3.826   2.655   8.928  0.2831  0.0347  0.2926
 2953SOL    HW120495   3.778   2.719   8.876 -0.5837 -0.0649  0.9665
 2953SOL    HW220496   3.877   2.622   8.855  1.6186  0.0943  1.2037
 2954SOL     OW20497   1.202   0.682   5.612 -0.4617 -0.1681  0.0640
 2954SOL    HW120498   1.200   0.751   5.546 -2.1112 -0.0267  0.2522
 2954SOL    HW220499   1.152   0.612   5.570  0.2643 -1.3983  1.2265
 2955SOL     OW20500   3.116   0.988   8.436  0.0764  0.7574  0.1466
 2955SOL    HW120501   3.169   0.913   8.411  0.2978  0.6627  0.9016
 2955SOL    HW220502   3.025   0.963   8.452  0.2561  0.0669  0.0646
 2956SOL     OW20503   2.237   0.886   8.854 -0.3470  0.2130 -0.3935
 2956SOL    HW120504   2.150   0.875   8.891 -1.0938  2.1894 -1.5575
 2956SOL    HW220505   2.244   0.811   8.794 -1.9515 -0.6125  0.4710
 2957SOL     OW20506   4.019   0.551   3.494  0.4374  0.5443  0.1326
 2957SOL    HW120507   3.986   0.640   3.505 -0.7150  0.2119 -0.6371
 2957SOL    HW220508   4.109   0.542   3.526 -0.3591 -0.9536  2.0074
 2958SOL     OW20509   0.125   1.798   6.595  0.0537  0.3434 -0.0165
 2958SOL    HW120510   0.134   1.855   6.671  0.9118  0.4938 -0.2286
 2958SOL    HW220511   0.211   1.824   6.561 -0.9295  2.6687 -0.7203
 2959SOL     OW20512   0.513   4.323   6.815  0.0437 -0.5328 -0.6248
 2959SOL    HW120513   0.471   4.261   6.755  1.4166 -0.4869 -1.6347
 2959SOL    HW220514   0.469   4.304   6.898 -0.6645 -0.3186 -0.9511
 2960SOL     OW20515   0.897   1.423  12.220 -0.5956  0.1494 -0.2715
 2960SOL    HW120516   0.989   1.435  12.198 -0.0795 -0.8882  1.3740
 2960SOL    HW220517   0.869   1.339  12.184  2.1725 -0.4094 -1.1242
 2961SOL     OW20518   3.856   4.114  14.431  0.7518 -0.0723 -0.0502
 2961SOL    HW120519   3.763   4.131  14.447  0.3395 -2.3986  0.1230
 2961SOL    HW220520   3.874   4.066  14.512 -0.5521  1.4247  1.1300
 2962SOL     OW20521   2.800   0.103  15.377 -0.0521  0.3963 -0.5353
 2962SOL    HW120522   2.757   0.099  15.463 -0.3299  0.5416 -0.6683
 2962SOL    HW220523   2.730   0.143  15.325  0.8732  1.5053 -0.9173
 2963SOL     OW20524   3.155   2.638   6.562 -0.2823 -0.2753 -0.2376
 2963SOL    HW120525   3.216   2.568   6.585 -0.0303 -0.7177 -2.2436
 2963SOL    HW220526   3.076   2.584   6.559  0.6458 -1.5387 -1.8114
 2964SOL     OW20527   4.557   1.169   1.648  0.1264  0.2923  0.0301
 2964SOL    HW120528   4.483   1.112   1.668 -1.4515  2.1866 -0.4166
 2964SOL    HW220529   4.587   1.183   1.738  1.2844 -1.7942 -0.0271
 2965SOL     OW20530   0.038   4.236   1.982  0.3850  0.2275  0.2693
 2965SOL    HW120531   0.001   4.284   2.056  1.4339  1.3796  0.0449
 2965SOL    HW220532   0.115   4.204   2.029  0.6084 -1.1298 -1.0149
 2966SOL     OW20533   4.172   2.327  12.517  0.2098  0.0534  0.4810
 2966SOL    HW120534   4.149   2.384  12.444  1.1538  0.4389  0.4840
 2966SOL    HW220535   4.115   2.251  12.503 -0.0658  0.4984 -0.7906
 2967SOL     OW20536   2.406   2.920   9.413 -0.2241  0.0834 -0.0266
 2967SOL    HW120537   2.323   2.964   9.431 -2.1103 -3.9332  1.0731
 2967SOL    HW220538   2.402   2.894   9.321 -2.4584 -1.1814  0.4248
 2968SOL     OW20539   2.365   1.683   6.149  0.0594  0.2539 -0.0770
 2968SOL    HW120540   2.364   1.773   6.183  0.5207  0.4337 -0.5363
 2968SOL    HW220541   2.423   1.640   6.212  0.7955  0.5101 -0.5800
 2969SOL     OW20542   1.815   1.444  16.522 -0.0026  0.2141 -0.2506
 2969SOL    HW120543   1.731   1.400  16.526  1.2737 -2.2445 -0.6408
 2969SOL    HW220544   1.824   1.455  16.617 -0.4884  0.9118 -0.2808
 2970SOL     OW20545   2.154   3.652   4.327 -0.0645  0.1225 -0.0158
 2970SOL    HW120546   2.167   3.670   4.421  1.9851 -2.3084  0.1818
 2970SOL    HW220547   2.067   3.613   4.330 -0.8214  1.9068  0.8533
 2971SOL     OW20548   0.612   4.273   8.587 -0.2525  0.2823  0.6029
 2971SOL    HW120549   0.539   4.296   8.529 -0.0410  1.5549  0.8623
 2971SOL    HW220550   0.587   4.284   8.678 -1.7215  2.3440 -0.0446
 2972SOL     OW20551   2.571   1.393  13.174 -0.2192 -0.3964  0.0329
 2972SOL    HW120552   2.479   1.403  13.147 -0.8522 -2.7894  1.3467
 2972SOL    HW220553   2.609   1.362  13.092  1.6562 -1.7929  1.4513
 2973SOL     OW20554   3.121   4.533   4.049 -0.4052 -0.2978  0.0273
 2973SOL    HW120555   3.190   4.522   3.984  0.3646  1.1622  0.6110
 2973SOL    HW220556   3.074   4.612   4.022 -1.9794 -1.2389 -0.0010
 2974SOL     OW20557   3.559   4.568   1.763  0.3909 -0.1791  0.3499
 2974SOL    HW120558   3.582   4.538   1.675 -1.5336  0.5588 -0.3790
 2974SOL    HW220559   3.508   4.492   1.791  0.4047  1.0068  3.5436
 2975SOL     OW20560   4.322   3.113   9.709  0.3620  0.0110  0.0670
 2975SOL    HW120561   4.395   3.156   9.754 -1.2036  2.1949  0.5223
 2975SOL    HW220562   4.258   3.183   9.695  2.7882  1.8414 -1.9160
 2976SOL     OW20563   4.325   2.287   4.774  0.0904 -0.2369  0.1647
 2976SOL    HW120564   4.237   2.256   4.756 -0.3409  1.7825 -1.2094
 2976SOL    HW220565   4.316   2.380   4.751  1.0677  0.3191  2.0205
 2977SOL     OW20566   0.776   0.378   5.714 -0.3861 -0.5797  0.1966
 2977SOL    HW120567   0.777   0.421   5.629  1.4243  0.4595  0.7381
 2977SOL    HW220568   0.764   0.451   5.776 -1.2722  0.3290 -1.0526
 2978SOL     OW20569   1.931   2.170   5.024  0.5776  0.1238  0.1352
 2978SOL    HW120570   1.895   2.082   5.036 -1.0408  0.6898 -0.5598
 2978SOL    HW220571   1.862   2.212   4.973  1.8822  1.2332 -0.7250
 2979SOL     OW20572   4.433   3.154   8.653  0.0024  0.1145  0.6010
 2979SOL    HW120573   4.421   3.062   8.675 -0.8398  0.8257  3.1269
 2979SOL    HW220574   4.403   3.192   8.736 -0.7267 -0.3206  0.5374
 2980SOL     OW20575   4.199   2.429   8.926 -0.7540  0.6002  0.1812
 2980SOL    HW120576   4.291   2.456   8.922 -0.4161 -0.3548  1.2145
 2980SOL    HW220577   4.164   2.505   8.971 -0.9076  0.0456  1.0063
 2981SOL     OW20578   1.148   2.267   9.670  0.0106 -0.5747  0.5072
 2981SOL    HW120579   1.199   2.336   9.714  1.5446 -1.8868  0.8115
 2981SOL    HW220580   1.224   2.218   9.640 -0.2277  0.0884 -1.1703
 2982SOL     OW20581   0.521   4.327   6.185 -0.6513  0.0901  0.5270
 2982SOL    HW120582   0.497   4.242   6.148  0.5254  0.0614 -0.1747
 2982SOL    HW220583   0.444   4.351   6.236 -0.8560  0.5264  0.0115
 2983SOL     OW20584   1.801   1.469   8.297 -0.2812 -0.0221 -0.1883
 2983SOL    HW120585   1.861   1.410   8.343 -0.1808 -1.1821 -1.8293
 2983SOL    HW220586   1.852   1.550   8.301 -0.2815 -0.0282 -0.0411
 2984SOL     OW20587   3.980   1.185   6.490  0.4046 -0.1574 -0.4676
 2984SOL    HW120588   3.894   1.178   6.448  0.3810  0.3753 -0.5163
 2984SOL    HW220589   4.023   1.118   6.438  1.3626 -0.7969  1.1591
 2985SOL     OW20590   3.108   1.626   9.462  0.3580 -0.2070 -0.2207
 2985SOL    HW120591   3.059   1.571   9.524  1.2180  0.0683  0.7087
 2985SOL    HW220592   3.169   1.668   9.522 -0.0779  0.2803 -0.1099
 2986SOL     OW20593   3.699   1.438   9.710 -0.3377  0.5515  0.4781
 2986SOL    HW120594   3.756   1.498   9.662  0.3151  1.6748  2.6147
 2986SOL    HW220595   3.702   1.468   9.801  0.1271  0.5535  0.4624
 2987SOL     OW20596   0.326   2.555   3.880 -0.1235  0.8547 -0.6182
 2987SOL    HW120597   0.305   2.462   3.871 -1.4631  1.1775 -0.8541
 2987SOL    HW220598   0.354   2.566   3.971  0.4515 -2.0124 -0.4538
 2988SOL     OW20599   1.812   4.047   6.580  0.2927 -0.3214 -0.3762
 2988SOL    HW120600   1.889   4.047   6.637  0.1573  2.5944 -0.1913
 2988SOL    HW220601   1.801   4.138   6.551 -0.7167  0.0686  1.2336
 2989SOL     OW20602   4.170   4.034  15.601  0.5382 -0.4282  0.6727
 2989SOL    HW120603   4.139   4.110  15.552 -0.9988 -1.1020  0.6162
 2989SOL    HW220604   4.092   4.007  15.649  0.4480  1.8660  1.8410
 2990SOL     OW20605   2.436   1.256   1.647  0.2616  0.0298  0.0424
 2990SOL    HW120606   2.467   1.231   1.559  1.9716  0.0842  0.6194
 2990SOL    HW220607   2.445   1.352   1.645 -0.7433  0.1240  0.3911
 2991SOL     OW20608   1.036   4.734   8.506  0.5675  0.4186  0.3004
 2991SOL    HW120609   1.035   4.643   8.475  2.9864  0.0078  1.4274
 2991SOL    HW220610   1.033   4.728   8.602 -0.5059 -1.9462  0.1291
 2992SOL     OW20611   3.672   2.340   6.203  0.1341 -0.6304 -0.0714
 2992SOL    HW120612   3.706   2.331   6.292  0.6879 -0.2718 -0.2496
 2992SOL    HW220613   3.578   2.350   6.220 -0.5471 -2.4390 -2.8652
 2993SOL     OW20614   0.307   1.558  10.021  0.0478  0.7003 -0.4316
 2993SOL    HW120615   0.368   1.621   9.983  1.1030  0.4887  0.9506
 2993SOL    HW220616   0.305   1.570  10.116 -0.3428 -0.9208 -0.2272
 2994SOL     OW20617   2.739   2.864   2.710  0.4763 -0.1280 -0.1396
 2994SOL    HW120618   2.722   2.788   2.655 -1.5746  1.0555 -1.1212
 2994SOL    HW220619   2.801   2.830   2.775 -2.1597 -0.3742  2.2230
 2995SOL     OW20620   2.071   0.091   7.517 -0.3912 -0.4251  0.7268
 2995SOL    HW120621   2.162   0.121   7.514 -1.4226  2.9187  2.5697
 2995SOL    HW220622   2.043   0.068   7.428 -0.0416  1.6942  0.0697
 2996SOL     OW20623   1.025   0.146   6.709 -0.2271 -0.0705  0.5526
 2996SOL    HW120624   1.102   0.090   6.715  1.8646  2.8497  0.9862
 2996SOL    HW220625   0.955   0.088   6.739 -1.1197  0.9254  0.4238
 2997SOL     OW20626   0.037   0.226   5.667  0.6079 -0.1821 -0.8083
 2997SOL    HW120627   0.036   0.312   5.709 -1.1411 -0.1826 -0.8416
 2997SOL    HW220628   4.731   0.242   5.586 -2.0309 -1.3228  0.4824
 2998SOL     OW20629   3.002   4.461   3.113 -0.3899  0.4324  0.4267
 2998SOL    HW120630   3.091   4.454   3.147 -0.7392  1.4830  1.5352
 2998SOL    HW220631   2.948   4.416   3.178 -0.9107  0.3966 -0.0287
 2999SOL     OW20632   1.284   1.013   0.999  0.2045  0.2156  0.1982
 2999SOL    HW120633   1.196   1.007   0.963  0.3134 -1.2851  0.1677
 2999SOL    HW220634   1.273   1.082   1.064 -0.6453  1.1756 -0.9711
 3000SOL     OW20635   3.926   0.725   2.582 -0.1426  0.9857  0.4248
 3000SOL    HW120636   3.840   0.682   2.584  0.4388 -0.2153 -0.4445
 3000SOL    HW220637   3.942   0.740   2.675 -1.6165 -2.9692  1.3370
 3001SOL     OW20638   4.656   0.388   7.005 -0.2144  0.3412  1.2850
 3001SOL    HW120639   4.728   0.400   7.067 -0.0699  0.9168  1.0113
 3001SOL    HW220640   4.608   0.314   7.040 -0.1955 -1.1560 -1.8181
 3002SOL     OW20641   0.305   3.580   3.774 -0.6790 -0.1944  0.0491
 3002SOL    HW120642   0.261   3.664   3.765 -0.6793 -0.5688 -3.4629
 3002SOL    HW220643   0.230   3.521   3.776 -1.3523  0.7170  1.6466
 3003SOL     OW20644   3.735   1.564   1.618  0.0364 -0.3171 -0.0331
 3003SOL    HW120645   3.659   1.573   1.675 -0.0761 -2.3300  0.1377
 3003SOL    HW220646   3.741   1.646   1.568 -0.7606  0.2689  0.8219
 3004SOL     OW20647   1.101   0.444   9.921  0.0063 -0.2793 -0.1478
 3004SOL    HW120648   1.099   0.481  10.010  0.4174 -2.7125  0.8713
 3004SOL    HW220649   1.193   0.418   9.927 -0.3922 -1.3973  1.0528
 3005SOL     OW20650   3.541   0.876   0.556  0.1035 -0.0208 -0.3180
 3005SOL    HW120651   3.626   0.831   0.564  0.6429  0.7784 -1.5119
 3005SOL    HW220652   3.551   0.952   0.613  0.2219  1.0885 -1.8150
 3006SOL     OW20653   2.721   1.621   6.931  0.4035  0.0810  0.3287
 3006SOL    HW120654   2.657   1.684   6.897  0.4868 -0.7569 -1.3341
 3006SOL    HW220655   2.661   1.547   6.942  1.8515 -1.3426 -1.3352
 3007SOL     OW20656   3.053   1.490   6.386 -0.2419 -0.1374 -0.3059
 3007SOL    HW120657   3.082   1.428   6.452 -0.1037  0.2452 -0.0061
 3007SOL    HW220658   3.011   1.561   6.434  0.3059  1.5268 -2.2996
 3008SOL     OW20659   4.032   1.024   3.733 -0.1362  0.0846  0.2669
 3008SOL    HW120660   3.941   1.021   3.703  0.1660 -1.1299 -0.5649
 3008SOL    HW220661   4.020   0.971   3.812 -2.8658 -0.3022 -0.3890
 3009SOL     OW20662   1.248   3.431  10.388  0.0578  0.2418  0.7225
 3009SOL    HW120663   1.155   3.421  10.404 -0.4803  2.2803 -1.0528
 3009SOL    HW220664   1.265   3.338  10.403 -1.5822 -0.5515 -2.3494
 3010SOL     OW20665   0.145   1.160   1.357  0.2773  0.0720 -0.0808
 3010SOL    HW120666   0.177   1.070   1.356  1.6720  0.5397  2.9718
 3010SOL    HW220667   0.103   1.167   1.271  2.1690 -2.6846 -1.2104
 3011SOL     OW20668   3.978   0.781   1.364  0.1455 -0.5101  0.4502
 3011SOL    HW120669   3.936   0.698   1.387 -2.3741  0.2124 -1.5517
 3011SOL    HW220670   4.046   0.757   1.302  1.1339  1.8295  0.6291
 3012SOL     OW20671   0.622   1.012  14.751 -0.2909 -0.4652 -0.1496
 3012SOL    HW120672   0.602   1.000  14.659 -2.5279  1.7430  0.0593
 3012SOL    HW220673   0.600   0.931  14.797  1.4702 -1.1628 -0.5201
 3013SOL     OW20674   0.314   1.842   7.653  0.1057 -0.0896  0.1209
 3013SOL    HW120675   0.261   1.810   7.726 -0.0966 -1.2588 -0.5430
 3013SOL    HW220676   0.313   1.936   7.675 -1.3220 -0.1323  0.2322
 3014SOL     OW20677   3.894   1.160   2.414  0.0502  0.2428  0.3081
 3014SOL    HW120678   3.965   1.212   2.377  0.7285 -0.9798 -0.1209
 3014SOL    HW220679   3.922   1.070   2.394 -1.1776  0.4004 -2.0931
 3015SOL     OW20680   1.578   4.309   4.027 -0.2084  0.3724  0.1820
 3015SOL    HW120681   1.493   4.295   4.069 -0.8684  1.2137 -0.8825
 3015SOL    HW220682   1.630   4.235   4.058  0.2653  0.4826 -0.3549
 3016SOL     OW20683   2.117   3.487   0.401  0.2826 -0.5351  0.0734
 3016SOL    HW120684   2.064   3.477   0.481 -4.5231  0.2155 -3.0381
 3016SOL    HW220685   2.185   3.541   0.441 -0.1571  1.9077 -2.4773
 3017SOL     OW20686   0.655   1.066   9.142 -0.0630  0.5531  0.5493
 3017SOL    HW120687   0.610   1.030   9.218  1.2963 -0.1199  1.0356
 3017SOL    HW220688   0.683   0.995   9.084 -1.0806  0.0639  0.6570
 3018SOL     OW20689   0.209   1.083   3.589  0.3658  0.1324  0.2080
 3018SOL    HW120690   0.213   1.049   3.499  2.4180  1.0241 -0.0359
 3018SOL    HW220691   0.146   1.154   3.579  1.1243  0.8203  0.3258
 3019SOL     OW20692   4.217   3.367   5.950 -0.3791 -1.4778  0.0646
 3019SOL    HW120693   4.266   3.415   6.017 -1.5906 -1.5475  1.0075
 3019SOL    HW220694   4.152   3.326   6.008 -0.0533 -0.9806  0.7806
 3020SOL     OW20695   0.791   0.797   3.113  0.4385  0.3104  0.1920
 3020SOL    HW120696   0.755   0.747   3.040 -0.8576  0.0496  1.0159
 3020SOL    HW220697   0.749   0.755   3.187  2.5352 -1.2511  0.4742
 3021SOL     OW20698   4.125   1.685   8.485 -0.4648  0.3188  0.0509
 3021SOL    HW120699   4.209   1.655   8.522  0.7535  1.5108 -1.7186
 3021SOL    HW220700   4.093   1.736   8.559  1.6680 -1.3506  2.1440
 3022SOL     OW20701   4.427   3.975  11.804 -0.5778  0.0442 -0.1776
 3022SOL    HW120702   4.454   4.021  11.725  2.1253 -1.5367 -0.1718
 3022SOL    HW220703   4.411   3.883  11.783  0.7067 -0.1884 -0.1233
 3023SOL     OW20704   4.727   2.397   0.169  0.2511 -0.5912 -0.1904
 3023SOL    HW120705   4.666   2.446   0.115 -0.7779 -2.6186 -0.8734
 3023SOL    HW220706   0.019   2.332   0.107 -0.0846  0.3817 -1.3846
 3024SOL     OW20707   3.117   1.432   4.386 -0.0116 -0.2634 -0.4001
 3024SOL    HW120708   3.131   1.350   4.433 -0.5499 -0.3120 -0.3311
 3024SOL    HW220709   3.186   1.480   4.432  1.8885 -0.6897 -2.8345
 3025SOL     OW20710   0.734   1.304   9.416  0.5857 -0.3232  0.7514
 3025SOL    HW120711   0.811   1.279   9.365 -0.5449 -1.6095 -0.2791
 3025SOL    HW220712   0.748   1.399   9.414 -0.1347 -0.1884  1.8250
 3026SOL     OW20713   2.476   0.569  13.086  0.6642  0.0256  0.7686
 3026SOL    HW120714   2.489   0.496  13.026 -1.0202  1.2191 -1.0818
 3026SOL    HW220715   2.559   0.615  13.075  0.6409 -0.4305 -1.3433
 3027SOL     OW20716   3.462   3.379   3.521 -0.1144  0.6087  0.3753
 3027SOL    HW120717   3.538   3.322   3.514 -2.5598 -2.8865  1.5720
 3027SOL    HW220718   3.492   3.453   3.469  1.4879  1.4435  2.5038
 3028SOL     OW20719   3.831   2.392   4.052 -0.1559  0.1088  0.5241
 3028SOL    HW120720   3.837   2.358   3.963 -0.7700  0.6650  0.2713
 3028SOL    HW220721   3.819   2.307   4.094 -0.9539  0.8139  1.7148
 3029SOL     OW20722   2.936   2.894   8.563  0.0269 -0.2887  0.2044
 3029SOL    HW120723   2.965   2.908   8.473  0.1092 -0.6261  0.1794
 3029SOL    HW220724   2.853   2.941   8.555  0.1581 -0.1904 -0.6383
 3030SOL     OW20725   1.543   2.820   2.580  0.4402 -0.4780 -0.0298
 3030SOL    HW120726   1.569   2.770   2.502  1.0082  0.3084 -0.3351
 3030SOL    HW220727   1.566   2.762   2.653 -2.1901  0.9900  1.9557
 3031SOL     OW20728   3.462   2.911   6.897 -0.3750 -0.2534  0.6767
 3031SOL    HW120729   3.502   2.840   6.846  0.2837  0.7026 -0.1354
 3031SOL    HW220730   3.371   2.915   6.869 -0.3710 -2.0704  0.4002
 3032SOL     OW20731   3.781   2.600  16.227 -0.3131  0.3840  0.1473
 3032SOL    HW120732   3.814   2.677  16.180  3.3939 -1.9783 -1.1151
 3032SOL    HW220733   3.850   2.599  16.294 -0.5799 -2.7811  0.3682
 3033SOL     OW20734   0.861   0.905  13.924 -0.1402 -0.1262 -0.5088
 3033SOL    HW120735   0.904   0.986  13.950  3.4312 -2.2875  0.1936
 3033SOL    HW220736   0.943   0.858  13.913 -0.0054 -0.3554  1.5863
 3034SOL     OW20737   0.389   0.601   0.974 -0.0074  0.2414  0.1413
 3034SOL    HW120738   0.296   0.579   0.976 -0.1499  0.9099  0.8573
 3034SOL    HW220739   0.397   0.622   0.881 -2.0361 -1.9650 -0.5292
 3035SOL     OW20740   0.207   1.108   0.646  0.6757  0.5282  0.0328
 3035SOL    HW120741   0.148   1.167   0.598  0.4180 -0.5941 -1.0341
 3035SOL    HW220742   0.268   1.077   0.578 -0.5261 -0.0507 -0.7802
 3036SOL     OW20743   1.645   1.931   0.279  0.3826  0.0702  0.2114
 3036SOL    HW120744   1.714   1.920   0.214 -1.1381 -0.2262 -1.3578
 3036SOL    HW220745   1.687   1.982   0.348 -0.3538 -0.4664  1.0653
 3037SOL     OW20746   1.364   0.711   7.182  0.2635 -0.3838  0.5647
 3037SOL    HW120747   1.413   0.686   7.104  1.7513 -1.7910  1.9534
 3037SOL    HW220748   1.338   0.628   7.223 -0.3703 -0.1787  0.5789
 3038SOL     OW20749   2.695   4.013  17.545 -0.6332 -0.0121  0.4368
 3038SOL    HW120750   2.623   4.076  17.553 -0.5120  0.3320 -1.3038
 3038SOL    HW220751   2.638   3.937  17.559  1.2412 -1.1209  1.9552
 3039SOL     OW20752   2.946   0.333   5.934  0.3182 -0.3540 -0.2318
 3039SOL    HW120753   2.904   0.413   5.902 -0.6670  0.9807  4.4392
 3039SOL    HW220754   2.871   0.289   5.973 -1.1571  0.5884 -1.9803
 3040SOL     OW20755   4.728   3.120   5.088  0.1770 -0.0521  0.4940
 3040SOL    HW120756   0.069   3.151   5.127 -0.6137  1.8394  0.6522
 3040SOL    HW220757   0.019   3.039   5.047  0.0330  0.5201 -0.7352
 3041SOL     OW20758   0.316   3.491   6.553 -0.9180 -0.0419 -0.0212
 3041SOL    HW120759   0.338   3.531   6.469  0.9875 -3.0170 -0.9456
 3041SOL    HW220760   0.233   3.528   6.584 -0.2047  2.2023 -0.8225
 3042SOL     OW20761   2.672   4.169  10.724 -0.5865 -1.0855  0.5791
 3042SOL    HW120762   2.623   4.090  10.749 -0.6711 -2.0025 -2.4265
 3042SOL    HW220763   2.605   4.231  10.754  2.9332  2.6482  0.7375
 3043SOL     OW20764   0.477   1.907   5.917 -0.3640  0.2791  0.4098
 3043SOL    HW120765   0.530   1.846   5.865 -0.5102  0.2442  0.3031
 3043SOL    HW220766   0.451   1.851   5.990 -0.4119  1.9006  1.6340
 3044SOL     OW20767   3.661   1.349   6.683  0.7884  0.2533 -0.4633
 3044SOL    HW120768   3.632   1.305   6.603 -1.2814  0.3781  0.2317
 3044SOL    HW220769   3.657   1.281   6.750 -1.0876 -1.3467 -2.1842
 3045SOL     OW20770   0.456   3.908  17.566 -0.5670 -0.0289 -0.0668
 3045SOL    HW120771   0.546   3.877  17.572  1.0958  4.5730 -1.6049
 3045SOL    HW220772   0.427   3.851  17.637  0.3427 -0.3439  0.0547
 3046SOL     OW20773   3.873   1.613   8.690 -0.0038  0.3533 -0.1981
 3046SOL    HW120774   3.916   1.698   8.689  0.7080 -0.0165 -0.6462
 3046SOL    HW220775   3.783   1.642   8.702  0.1157  1.4870 -2.0427
 3047SOL     OW20776   0.829   1.043   8.181  0.1710  0.5833 -0.2284
 3047SOL    HW120777   0.815   0.992   8.101  0.3959  0.3726 -0.1303
 3047SOL    HW220778   0.748   1.025   8.230  0.3935  1.5799  0.5019
 3048SOL     OW20779   4.701   1.424  17.715  0.0374  0.1373  0.2744
 3048SOL    HW120780   4.655   1.462  17.640 -0.2919 -1.2691 -0.2250
 3048SOL    HW220781   4.719   1.335  17.686 -1.0965 -0.2390  0.7508
 3049SOL     OW20782   0.172   0.667   9.876 -0.4148 -0.4272 -0.4174
 3049SOL    HW120783   0.116   0.589   9.869 -2.1206  0.7361  0.4455
 3049SOL    HW220784   0.231   0.652   9.801  0.6069  0.9092  0.1280
 3050SOL     OW20785   0.187   2.839   7.416 -0.4352 -0.6757 -0.0617
 3050SOL    HW120786   0.175   2.934   7.413  0.6982 -0.4203  3.3508
 3050SOL    HW220787   0.278   2.832   7.446 -0.6033 -2.1374  0.1343
 3051SOL     OW20788   3.707   4.480  16.784  0.0916 -0.1038  0.5311
 3051SOL    HW120789   3.620   4.502  16.818 -0.4141 -0.5191 -0.4960
 3051SOL    HW220790   3.687   4.406  16.727  2.2448 -1.8860  2.1237
 3052SOL     OW20791   1.201   1.919   6.265  0.6459  0.0979  0.5375
 3052SOL    HW120792   1.287   1.942   6.230  0.8473 -0.7619  0.4564
 3052SOL    HW220793   1.169   1.851   6.205  3.3942  1.1240 -2.1068
 3053SOL     OW20794   1.560   1.917   3.738 -0.2407 -0.6077  0.5383
 3053SOL    HW120795   1.503   1.994   3.743 -0.8175 -1.0474  0.6890
 3053SOL    HW220796   1.594   1.922   3.649  2.3785  1.0754  1.6317
 3054SOL     OW20797   4.569   1.012   0.678  0.5841 -0.5875 -0.1105
 3054SOL    HW120798   4.532   1.009   0.590 -0.7454 -1.1991  0.4597
 3054SOL    HW220799   4.594   1.103   0.694  0.5562 -0.9029  1.7787
 3055SOL     OW20800   3.439   3.069   8.823 -0.4421 -1.1848  0.1386
 3055SOL    HW120801   3.383   3.038   8.752 -1.8778  3.2978 -0.7392
 3055SOL    HW220802   3.525   3.049   8.786 -0.5399  2.1356 -1.9161
 3056SOL     OW20803   2.381   2.023   1.612 -0.2234 -0.1670 -0.1515
 3056SOL    HW120804   2.349   2.059   1.695  1.2151  1.4578 -0.2961
 3056SOL    HW220805   2.473   2.017   1.636 -0.1655  0.0327 -0.3210
 3057SOL     OW20806   3.770   2.688   7.821  0.0108 -0.6160  0.4863
 3057SOL    HW120807   3.829   2.731   7.759 -2.3382  3.0093  0.7831
 3057SOL    HW220808   3.832   2.668   7.892 -1.8756 -2.5676  1.5862
 3058SOL     OW20809   4.402   0.097   3.415 -0.0262  0.2336 -0.4826
 3058SOL    HW120810   4.363   0.117   3.330 -1.1401 -1.0944 -0.2835
 3058SOL    HW220811   4.330   0.106   3.477  0.2765 -1.4846  0.1411
 3059SOL     OW20812   3.873   1.439   0.731  0.7094  0.1729 -0.4407
 3059SOL    HW120813   3.903   1.524   0.700 -2.5293  0.6002 -2.4150
 3059SOL    HW220814   3.795   1.419   0.679  0.4017  1.9493 -0.6678
 3060SOL     OW20815   0.877   0.912   7.947 -0.1373  0.0467  0.1237
 3060SOL    HW120816   0.961   0.867   7.954  0.8780  1.6664 -1.9580
 3060SOL    HW220817   0.879   0.929   7.853 -0.0305 -1.7000 -0.1944
 3061SOL     OW20818   2.160   2.526   2.718 -0.1046  0.5665  0.0995
 3061SOL    HW120819   2.107   2.463   2.670 -0.0690  1.0712 -0.6089
 3061SOL    HW220820   2.131   2.504   2.807  1.4837 -1.6339  0.0573
 3062SOL     OW20821   2.519   4.094   2.006  0.0437 -0.2008 -0.2916
 3062SOL    HW120822   2.554   4.137   2.084 -1.1229 -1.2658  0.8081
 3062SOL    HW220823   2.424   4.106   2.014  0.0280 -0.3779 -0.2221
 3063SOL     OW20824   1.622   2.966   8.610 -0.2897  0.2605 -0.0136
 3063SOL    HW120825   1.708   2.932   8.585 -0.8216 -0.9117 -0.2690
 3063SOL    HW220826   1.574   2.900   8.559 -1.8354 -0.1785  1.9796
 3064SOL     OW20827   1.013   0.126   2.241  0.5758 -0.0950 -0.2767
 3064SOL    HW120828   1.102   0.118   2.277  0.4215 -2.9976 -0.5470
 3064SOL    HW220829   1.032   0.070   2.166  0.1095  1.0443 -1.2570
 3065SOL     OW20830   1.335   3.624  17.685 -0.5768  0.3419 -0.6069
 3065SOL    HW120831   1.268   3.578  17.635 -1.2063  0.7646 -0.1541
 3065SOL    HW220832   1.317   3.711  17.651 -0.3750  0.9202  0.7496
 3066SOL     OW20833   0.317   2.774  14.422 -0.1247 -0.1881  0.8448
 3066SOL    HW120834   0.269   2.856  14.413 -1.5286 -1.4835 -3.5123
 3066SOL    HW220835   0.261   2.728  14.360 -0.8630 -0.8529  2.0243
 3067SOL     OW20836   3.824   4.001  15.656 -0.1301  0.1824 -0.3562
 3067SOL    HW120837   3.786   4.071  15.604 -0.7501 -0.3092 -0.5699
 3067SOL    HW220838   3.867   4.044  15.729  0.3304  2.4469 -1.9689
 3068SOL     OW20839   3.060   2.847   4.089  0.1239 -0.1691 -0.4331
 3068SOL    HW120840   3.004   2.878   4.019  0.4046 -0.7589 -0.9144
 3068SOL    HW220841   3.092   2.765   4.052 -1.7744 -0.8322 -0.5651
 3069SOL     OW20842   0.468   4.334   4.337 -0.0267 -0.0293 -0.0432
 3069SOL    HW120843   0.409   4.258   4.336 -0.4641  0.3321 -1.3085
 3069SOL    HW220844   0.432   4.376   4.415  0.3136 -2.8640  1.6595
 3070SOL     OW20845   3.470   3.927  12.927 -0.2701 -0.4879 -0.1191
 3070SOL    HW120846   3.397   3.950  12.869 -3.2462 -0.4904  3.6333
 3070SOL    HW220847   3.424   3.864  12.981 -0.4487 -1.3714 -1.3073
 3071SOL     OW20848   0.297   4.641  12.596  0.5697 -0.3263  0.5276
 3071SOL    HW120849   0.302   4.614  12.505  0.2001  1.7967 -0.1359
 3071SOL    HW220850   0.290   4.735  12.580 -1.7423 -0.7742 -1.0400
 3072SOL     OW20851   2.853   1.272   1.716 -0.2427  0.4033  0.0621
 3072SOL    HW120852   2.779   1.263   1.656 -0.1169 -0.8155  0.0858
 3072SOL    HW220853   2.816   1.222   1.789 -2.9534 -0.4280 -1.8864
 3073SOL     OW20854   2.339   3.749   8.201  0.0559 -0.4076 -0.5687
 3073SOL    HW120855   2.289   3.771   8.279  1.2161 -1.6402  0.5364
 3073SOL    HW220856   2.268   3.732   8.139 -0.1453  5.8812 -2.0503
 3074SOL     OW20857   1.120   1.129   5.217 -0.5685 -0.2086  0.1297
 3074SOL    HW120858   1.084   1.072   5.149 -0.3779  1.0076 -0.9941
 3074SOL    HW220859   1.200   1.079   5.234  0.8433  1.3496 -1.9832
 3075SOL     OW20860   2.568   1.337   3.592  0.0714 -0.0567  0.0076
 3075SOL    HW120861   2.479   1.322   3.625  0.2519 -1.8098 -0.2746
 3075SOL    HW220862   2.584   1.426   3.621  2.2828 -0.2683 -0.5659
 3076SOL     OW20863   1.794   3.116   7.038 -0.7742 -0.2619  0.0043
 3076SOL    HW120864   1.757   3.204   7.040 -0.9004 -0.2786 -1.3167
 3076SOL    HW220865   1.889   3.128   7.044 -0.9672  0.1815  2.1356
 3077SOL     OW20866   0.144   0.943   5.630  0.1131  0.0369 -0.0953
 3077SOL    HW120867   0.153   0.891   5.709  1.2344 -0.4882 -0.5614
 3077SOL    HW220868   0.235   0.971   5.617  0.5928 -1.8189 -0.6888
 3078SOL     OW20869   0.877   3.207  14.738  0.1996  0.5783 -0.0945
 3078SOL    HW120870   0.966   3.229  14.713  0.4376 -2.3211 -1.7282
 3078SOL    HW220871   0.878   3.124  14.786 -0.1335 -0.1715 -1.3956
 3079SOL     OW20872   0.011   2.048   3.616  0.5459  0.0747  0.3004
 3079SOL    HW120873   4.714   2.115   3.561 -1.1881 -0.1674  1.1858
 3079SOL    HW220874   4.735   1.974   3.558  0.0869  0.8960 -0.6029
 3080SOL     OW20875   0.765   1.436   2.359 -0.4597  0.0608  0.2660
 3080SOL    HW120876   0.720   1.421   2.275  0.1981  0.0712 -0.0846
 3080SOL    HW220877   0.806   1.350   2.372  0.3869 -0.2096 -4.0731
 3081SOL     OW20878   1.269   3.998   5.140  0.1236 -0.1540  0.0918
 3081SOL    HW120879   1.240   4.090   5.139  0.1762 -0.1240  0.9777
 3081SOL    HW220880   1.362   4.015   5.149 -0.1697  1.0196  0.9196
 3082SOL     OW20881   4.026   3.680   5.700 -0.6039  0.1795  0.3346
 3082SOL    HW120882   4.097   3.650   5.643 -0.1349  1.4679  0.2299
 3082SOL    HW220883   3.992   3.592   5.717 -1.8098  0.5594 -0.1022
 3083SOL     OW20884   1.800   3.741   1.247 -0.2882  0.0536  0.6065
 3083SOL    HW120885   1.776   3.702   1.330 -2.1410  1.3211  0.6623
 3083SOL    HW220886   1.867   3.806   1.269  0.2349  0.3111 -1.7387
 3084SOL     OW20887   3.957   3.599   4.969 -0.1329 -0.2682  0.5149
 3084SOL    HW120888   3.922   3.510   4.966  3.0456 -1.5843  2.1827
 3084SOL    HW220889   3.899   3.643   4.907  2.2768  2.7835  0.4299
 3085SOL     OW20890   4.534   2.814  11.842 -0.1808  0.0159 -0.6363
 3085SOL    HW120891   4.516   2.811  11.748 -0.4415  1.1070 -0.6153
 3085SOL    HW220892   4.567   2.903  11.852 -0.7181  0.2987 -1.3556
 3086SOL     OW20893   1.474   1.078   5.962  0.0381  0.4419 -0.2558
 3086SOL    HW120894   1.552   1.029   5.988  0.4367 -0.2152 -2.6674
 3086SOL    HW220895   1.498   1.162   6.000 -1.3520  1.2681 -1.1803
 3087SOL     OW20896   4.133   0.801  12.926 -0.0429  0.0120 -0.0048
 3087SOL    HW120897   4.149   0.894  12.913 -0.5749 -0.0994 -1.4558
 3087SOL    HW220898   4.038   0.791  12.931  0.2710 -2.3021  1.4889
 3088SOL     OW20899   2.297   3.011   7.359 -0.0333 -0.0352  0.7530
 3088SOL    HW120900   2.210   3.045   7.383  0.4995  2.8805 -1.5405
 3088SOL    HW220901   2.274   2.919   7.346 -0.0818 -0.4151  3.5266
 3089SOL     OW20902   3.308   2.678   2.424 -0.4594  0.6085 -0.2293
 3089SOL    HW120903   3.346   2.680   2.512  0.3678 -0.2901 -0.5589
 3089SOL    HW220904   3.227   2.730   2.429 -1.0993 -0.5114  1.1366
 3090SOL     OW20905   2.423   2.015  11.341  0.0442  0.0036 -0.5568
 3090SOL    HW120906   2.365   2.088  11.362 -0.7428 -0.6517 -0.4849
 3090SOL    HW220907   2.370   1.972  11.275 -2.6773 -1.5995  2.6949
 3091SOL     OW20908   0.499   1.222   2.343 -0.8129  0.8184 -0.0090
 3091SOL    HW120909   0.413   1.234   2.302 -0.5863 -1.0196 -1.0322
 3091SOL    HW220910   0.531   1.311   2.359  0.5321  0.2355  0.5939
 3092SOL     OW20911   3.599   3.262   3.108 -0.6259 -0.2026 -0.8705
 3092SOL    HW120912   3.505   3.254   3.126 -0.4243 -0.3232  0.1018
 3092SOL    HW220913   3.592   3.336   3.047  1.1847  2.5768  2.3193
 3093SOL     OW20914   3.170   3.880   4.465 -0.6271 -0.2630  0.2468
 3093SOL    HW120915   3.223   3.807   4.434 -0.3202  0.7280 -1.5199
 3093SOL    HW220916   3.234   3.950   4.477 -0.3055 -0.3623 -0.9417
 3094SOL     OW20917   1.163   4.039   6.402 -0.6350  0.6577 -0.3471
 3094SOL    HW120918   1.240   4.095   6.407 -0.7103  0.7763 -0.5069
 3094SOL    HW220919   1.120   4.057   6.486 -0.3269  2.9332 -0.6806
 3095SOL     OW20920   1.624   0.756   8.837 -0.1604 -0.0461  0.3788
 3095SOL    HW120921   1.607   0.754   8.931 -0.1502 -5.0444  0.2925
 3095SOL    HW220922   1.702   0.812   8.836 -0.7623  0.7782  0.3359
 3096SOL     OW20923   3.975   2.181   8.329  0.3758  0.1747 -0.4172
 3096SOL    HW120924   3.925   2.222   8.399 -0.3741 -1.4804 -0.0031
 3096SOL    HW220925   3.963   2.088   8.345 -0.6461  0.7056  1.8731
 3097SOL     OW20926   0.145   4.102   4.395  0.0315 -0.3471  0.0623
 3097SOL    HW120927   0.062   4.056   4.384  1.2221 -2.4258 -0.1394
 3097SOL    HW220928   0.206   4.031   4.375 -1.4479 -1.5061 -0.3066
 3098SOL     OW20929   4.205   0.228   2.671  0.2116 -0.0554 -0.0020
 3098SOL    HW120930   4.273   0.295   2.659  1.3536 -1.1990  0.1360
 3098SOL    HW220931   4.238   0.194   2.754  1.2833 -0.6435 -0.6719
 3099SOL     OW20932   3.214   3.678   7.164  0.3810 -0.7242 -0.1793
 3099SOL    HW120933   3.257   3.609   7.215  3.5201  0.4769 -1.1856
 3099SOL    HW220934   3.125   3.644   7.159  1.2469 -3.0962  0.2955
 3100SOL     OW20935   2.857   0.928  14.690 -0.2364  0.0357  0.0667
 3100SOL    HW120936   2.842   1.023  14.690  0.6507  0.1925 -1.4403
 3100SOL    HW220937   2.822   0.903  14.604 -0.0977  1.4203 -0.3985
 3101SOL     OW20938   1.563   2.208  10.914 -0.2653 -0.5494  0.2770
 3101SOL    HW120939   1.616   2.216  10.835  1.7595  2.3878  1.9586
 3101SOL    HW220940   1.633   2.241  10.970  0.0890  0.8028 -0.9929
 3102SOL     OW20941   0.357   4.212   4.809  0.0203  0.8653  0.3754
 3102SOL    HW120942   0.371   4.240   4.719  2.2695  2.8279  1.2956
 3102SOL    HW220943   0.414   4.279   4.848 -1.0106  0.0379  3.3272
 3103SOL     OW20944   1.045   3.823   5.764  0.2181  0.0976 -0.2987
 3103SOL    HW120945   1.023   3.746   5.816  1.4927 -0.5955 -0.7772
 3103SOL    HW220946   0.976   3.884   5.789 -1.7934 -2.9646  1.6562
 3104SOL     OW20947   1.482   2.523   8.833  0.2932 -0.3664  0.0383
 3104SOL    HW120948   1.449   2.443   8.791  0.4595 -0.6947  0.5437
 3104SOL    HW220949   1.529   2.564   8.760  1.0447  1.0112  1.3067
 3105SOL     OW20950   0.557   3.044   5.201  0.4186  0.1378 -0.4550
 3105SOL    HW120951   0.601   2.977   5.253 -2.8763 -1.6325  0.1046
 3105SOL    HW220952   0.623   3.112   5.193  0.8822 -0.3579 -0.7647
 3106SOL     OW20953   2.833   3.396   2.669 -0.1647  0.0999  0.0713
 3106SOL    HW120954   2.872   3.319   2.709  1.4964  0.7418 -0.2961
 3106SOL    HW220955   2.740   3.378   2.658 -0.0054 -0.0854 -0.9994
 3107SOL     OW20956   1.602   2.837   9.667 -0.1640  0.6494  0.6939
 3107SOL    HW120957   1.559   2.826   9.582  2.7322  2.0739 -0.9380
 3107SOL    HW220958   1.683   2.870   9.630 -0.2406 -0.8136 -0.7733
 3108SOL     OW20959   1.688   3.135  10.980 -0.0258 -0.6239 -0.4774
 3108SOL    HW120960   1.782   3.148  10.992 -0.0616 -1.2359  0.4681
 3108SOL    HW220961   1.681   3.202  10.913  1.1940 -2.1479 -2.1450
 3109SOL     OW20962   3.151   0.562  15.425  0.4837 -0.1478 -0.2645
 3109SOL    HW120963   3.121   0.495  15.486  2.8165 -0.2014  0.8139
 3109SOL    HW220964   3.163   0.626  15.495  0.9774 -1.2132  0.6223
 3110SOL     OW20965   3.911   3.157   6.702 -0.0218 -0.5343  0.0651
 3110SOL    HW120966   3.935   3.239   6.658  1.4604 -0.3271  1.2448
 3110SOL    HW220967   3.903   3.099   6.627  0.2355 -1.0600  0.4470
 3111SOL     OW20968   0.861   3.439   2.561 -0.0454  0.3069  0.1374
 3111SOL    HW120969   0.851   3.498   2.487  1.4360 -1.4306 -1.4343
 3111SOL    HW220970   0.871   3.502   2.632 -2.2024 -0.7971  1.3978
 3112SOL     OW20971   1.500   3.759   9.248  0.0562 -0.1845 -0.1560
 3112SOL    HW120972   1.567   3.806   9.296  0.1834 -0.4571 -0.0642
 3112SOL    HW220973   1.560   3.693   9.212 -0.1684 -0.7858  0.5694
 3113SOL     OW20974   2.674   0.361  15.938 -0.2723  0.3971  0.1411
 3113SOL    HW120975   2.686   0.398  15.850 -2.0078  1.1732  0.2321
 3113SOL    HW220976   2.690   0.436  15.995 -3.6302 -0.3438  2.0383
 3114SOL     OW20977   1.799   3.168   7.919  0.6093 -0.2340  0.1551
 3114SOL    HW120978   1.799   3.248   7.867 -0.1432  0.4534  1.2064
 3114SOL    HW220979   1.771   3.104   7.854  0.0309 -0.5245  0.6908
 3115SOL     OW20980   2.714   1.491   2.286 -0.3353 -0.0788  0.3523
 3115SOL    HW120981   2.691   1.484   2.194  0.4873 -0.0340  0.1393
 3115SOL    HW220982   2.809   1.481   2.285 -0.4171 -0.7445 -0.4899
 3116SOL     OW20983   0.578   0.200  16.956  1.1289  0.1859 -0.3240
 3116SOL    HW120984   0.616   0.246  17.031 -2.6888  0.9047  1.1661
 3116SOL    HW220985   0.516   0.151  17.009 -2.0955  2.1102 -2.2726
 3117SOL     OW20986   1.878   1.084   7.331  0.0467 -0.2827 -0.2535
 3117SOL    HW120987   1.865   1.130   7.414 -0.2552  3.5303 -2.3929
 3117SOL    HW220988   1.786   1.101   7.310 -0.4561 -0.1262  2.0848
 3118SOL     OW20989   1.838   0.306   7.483  0.2927 -0.2786  0.1847
 3118SOL    HW120990   1.895   0.320   7.407 -1.4309  2.9080 -0.5185
 3118SOL    HW220991   1.770   0.373   7.477 -0.8361 -1.3819  0.6996
 3119SOL     OW20992   1.831   2.094   4.271  0.9258 -0.5704  0.0275
 3119SOL    HW120993   1.822   2.158   4.201 -1.5684 -0.6995  0.2299
 3119SOL    HW220994   1.769   2.139   4.329  1.1464  1.6203 -1.4239
 3120SOL     OW20995   1.470   4.097   3.062  0.2442  0.2632 -0.0456
 3120SOL    HW120996   1.530   4.140   3.002  1.5892 -0.1566  0.9811
 3120SOL    HW220997   1.445   4.016   3.017 -1.8183  0.5397  0.6074
 3121SOL     OW20998   1.942   3.982   9.825  0.3170 -0.2354 -0.1814
 3121SOL    HW120999   1.937   4.049   9.757  0.5996  0.7229  0.7382
 3121SOL    HW221000   1.922   4.034   9.903 -2.2449 -0.3317 -0.7744
 3122SOL     OW21001   2.191   1.968   9.655 -0.2805  0.3197  0.1723
 3122SOL    HW121002   2.168   1.951   9.746 -1.9785 -0.4746 -0.3936
 3122SOL    HW221003   2.257   1.904   9.631 -0.1848 -0.0778  1.5104
 3123SOL     OW21004   4.410   2.392  15.505  0.0468  0.0200  0.1307
 3123SOL    HW121005   4.484   2.378  15.446  0.0529  1.1814 -0.1346
 3123SOL    HW221006   4.347   2.427  15.442  0.9220  0.9365 -0.2395
 3124SOL     OW21007   0.362   3.489  13.928  0.0098  0.0241  0.6053
 3124SOL    HW121008   0.348   3.492  14.022  1.1066  0.8282  0.7430
 3124SOL    HW221009   0.399   3.401  13.924 -1.7167 -0.6810  0.1453
 3125SOL     OW21010   1.868   1.086   3.571 -0.4674  0.4642  0.0025
 3125SOL    HW121011   1.839   1.177   3.567  0.2531  0.7378  0.9970
 3125SOL    HW221012   1.791   1.029   3.569  0.2402 -0.3810 -3.1653
 3126SOL     OW21013   3.117   0.869  11.243 -0.5206 -0.4997 -0.0426
 3126SOL    HW121014   3.092   0.917  11.322 -1.7637 -1.1978 -0.0173
 3126SOL    HW221015   3.061   0.917  11.181 -0.7442 -0.1334  0.4404
 3127SOL     OW21016   3.689   2.594   8.598  0.3925  0.1948 -0.7662
 3127SOL    HW121017   3.603   2.629   8.617  1.3584  1.5421  1.0630
 3127SOL    HW221018   3.749   2.653   8.644  0.9956  1.1973 -2.8225
 3128SOL     OW21019   2.672   3.906   7.913  0.3750 -0.3114  0.0055
 3128SOL    HW121020   2.710   3.868   7.992  0.6060 -3.8810 -1.8430
 3128SOL    HW221021   2.667   3.999   7.938  0.1300 -0.0445 -1.0692
 3129SOL     OW21022   3.029   2.437  15.173  0.3446 -0.1058 -0.3378
 3129SOL    HW121023   3.118   2.468  15.189  0.2016 -0.0827  0.3889
 3129SOL    HW221024   2.983   2.520  15.181 -1.3421 -1.0274 -0.5716
 3130SOL     OW21025   0.227   0.742   6.461 -0.1336  0.1197  0.0831
 3130SOL    HW121026   0.132   0.751   6.458 -0.1843 -1.1980 -1.9981
 3130SOL    HW221027   0.243   0.648   6.448 -3.0570 -0.2579 -0.9419
 3131SOL     OW21028   4.504   2.319  15.763  0.1988 -0.0631  0.5608
 3131SOL    HW121029   4.471   2.346  15.676 -3.1064 -0.0767  1.7949
 3131SOL    HW221030   4.558   2.242  15.749  0.3427  0.1687 -0.2054
 3132SOL     OW21031   4.003   1.758   2.880 -0.1991 -0.5106  0.2925
 3132SOL    HW121032   4.050   1.675   2.877  1.3301  0.3409  1.0536
 3132SOL    HW221033   4.045   1.791   2.800  0.1238 -0.2263  0.5793
 3133SOL     OW21034   4.378   1.508   1.056 -0.0132 -0.0055 -0.0236
 3133SOL    HW121035   4.423   1.510   1.140 -1.7417  1.1494  0.8921
 3133SOL    HW221036   4.325   1.432   1.080 -0.5246  0.4035  0.1650
 3134SOL     OW21037   2.154   1.886   1.682  0.2307  0.2264 -0.1917
 3134SOL    HW121038   2.235   1.937   1.673 -0.5868  1.2637 -1.7190
 3134SOL    HW221039   2.143   1.855   1.592 -0.6808 -1.4327  0.5019
 3135SOL     OW21040   1.510   3.557   2.181 -0.4608 -0.1800  0.1011
 3135SOL    HW121041   1.579   3.547   2.115 -1.5850  1.8361 -1.3710
 3135SOL    HW221042   1.553   3.533   2.263  0.4607 -0.6076 -0.5018
 3136SOL     OW21043   3.200   0.456   5.653 -0.0045  0.4457  0.3505
 3136SOL    HW121044   3.163   0.372   5.680  0.0290 -0.8912 -3.7544
 3136SOL    HW221045   3.141   0.465   5.578 -1.9933 -1.2630  1.7158
 3137SOL     OW21046   0.346   3.625   4.307  0.0834 -0.1952 -0.0834
 3137SOL    HW121047   0.271   3.585   4.352 -0.9110 -0.0107 -1.5729
 3137SOL    HW221048   0.397   3.663   4.378 -0.4718  1.2902 -0.4821
 3138SOL     OW21049   2.494   2.895   4.253 -0.1591  0.4372 -0.2193
 3138SOL    HW121050   2.449   2.810   4.253 -0.8521  0.8269  1.9461
 3138SOL    HW221051   2.504   2.925   4.163 -0.3944 -0.4797 -0.5558
 3139SOL     OW21052   3.469   2.205   0.501  0.0760 -0.0951  0.1257
 3139SOL    HW121053   3.543   2.266   0.501 -0.2108  0.2580  1.6676
 3139SOL    HW221054   3.448   2.186   0.592 -0.2447 -2.4476 -0.4371
 3140SOL     OW21055   4.065   2.764  16.369 -0.1014  0.0685 -0.7522
 3140SOL    HW121056   4.055   2.815  16.450 -1.6461 -1.1714 -0.1731
 3140SOL    HW221057   3.988   2.794  16.320 -0.5200 -2.6011 -1.6814
 3141SOL     OW21058   3.714   3.235   4.537  0.1398 -0.0122 -0.3275
 3141SOL    HW121059   3.618   3.238   4.530  0.2314  0.2970 -1.4716
 3141SOL    HW221060   3.737   3.152   4.496  0.6035 -0.2195  0.3601
 3142SOL     OW21061   3.174   2.296   5.205 -0.4627  0.3403  0.5463
 3142SOL    HW121062   3.267   2.317   5.196 -1.0801  1.6185 -2.8641
 3142SOL    HW221063   3.185   2.221   5.264 -0.6641 -2.5408 -3.0950
 3143SOL     OW21064   2.393   2.139   9.376  0.5892 -0.2372 -0.7637
 3143SOL    HW121065   2.459   2.069   9.373  0.6722 -0.2924  2.4825
 3143SOL    HW221066   2.414   2.201   9.306 -2.1908  1.8021  0.2219
 3144SOL     OW21067   2.696   1.087   9.533 -0.6179  0.5102 -0.2430
 3144SOL    HW121068   2.701   1.013   9.594  1.7461  0.1500 -0.8450
 3144SOL    HW221069   2.771   1.133   9.571  2.0930 -1.9193 -2.5768
 3145SOL     OW21070   4.426   1.154   1.008 -0.3850  0.6549 -0.3446
 3145SOL    HW121071   4.509   1.176   0.965  0.3444  0.7286  1.1268
 3145SOL    HW221072   4.360   1.199   0.956 -0.4390 -0.7119 -1.4855
 3146SOL     OW21073   0.735   3.995   7.659  0.1328  0.0120  0.2400
 3146SOL    HW121074   0.719   3.953   7.743  1.1821 -2.6412 -0.9049
 3146SOL    HW221075   0.712   4.088   7.667  0.5443 -0.0649  2.2773
 3147SOL     OW21076   2.695   4.548   8.616 -0.5407  0.3635 -0.6492
 3147SOL    HW121077   2.676   4.534   8.523  2.1360 -0.1844 -1.1028
 3147SOL    HW221078   2.788   4.568   8.618 -0.6233  0.7109 -0.4202
 3148SOL     OW21079   3.578   3.491   7.608 -0.1690  0.4223  0.3325
 3148SOL    HW121080   3.513   3.507   7.676 -0.6299 -0.9290  0.1994
 3148SOL    HW221081   3.521   3.455   7.540 -0.3216 -2.4205  1.9728
 3149SOL     OW21082   2.608   0.107   8.654  0.8859 -0.1043 -0.0706
 3149SOL    HW121083   2.521   0.121   8.691 -0.0356  0.2556 -2.3667
 3149SOL    HW221084   2.623   0.013   8.647 -0.1575 -0.2757 -0.0065
 3150SOL     OW21085   2.196   4.564  17.169  0.4676  0.2867  0.4032
 3150SOL    HW121086   2.123   4.511  17.200 -1.1865  2.2719 -0.0427
 3150SOL    HW221087   2.151   4.646  17.146 -0.4519  0.2278  1.9941
 3151SOL     OW21088   2.669   2.549   5.131  0.1027  0.9400  0.4177
 3151SOL    HW121089   2.739   2.544   5.065  1.3781 -0.0532  1.8448
 3151SOL    HW221090   2.695   2.481   5.193 -0.7560  1.1018  0.9522
 3152SOL     OW21091   2.677   2.508   9.490 -0.5421  0.0474 -0.5458
 3152SOL    HW121092   2.667   2.429   9.545  0.3671 -0.0250 -0.4737
 3152SOL    HW221093   2.593   2.500   9.446 -0.1114  0.8674 -1.5129
 3153SOL     OW21094   2.232   0.883  12.336  0.5458 -0.1909 -0.3574
 3153SOL    HW121095   2.170   0.820  12.299 -0.2857 -0.1476  0.9588
 3153SOL    HW221096   2.203   0.969  12.306 -0.8574 -0.8996 -1.0319
 3154SOL     OW21097   0.738   3.885   7.984  0.4571 -0.0656 -1.0854
 3154SOL    HW121098   0.706   3.863   8.072  3.6122  0.6491  0.2506
 3154SOL    HW221099   0.652   3.880   7.941 -1.1093 -1.4018  2.2211
 3155SOL     OW21100   4.271   1.547   8.692 -0.2958 -0.0586 -0.7494
 3155SOL    HW121101   4.265   1.478   8.758  1.1009 -0.9078 -1.4992
 3155SOL    HW221102   4.310   1.611   8.751 -0.4323 -0.0621 -0.6551
 3156SOL     OW21103   2.892   3.571   0.633 -0.1709 -0.5438 -0.4572
 3156SOL    HW121104   2.939   3.491   0.652 -1.5478 -1.6422 -1.6166
 3156SOL    HW221105   2.933   3.600   0.552  0.0242  2.0442  0.5717
 3157SOL     OW21106   1.686   2.880   3.459 -0.3156  0.3752  0.1594
 3157SOL    HW121107   1.750   2.860   3.528  2.2491  1.4649 -1.8859
 3157SOL    HW221108   1.602   2.863   3.502  0.7461  0.7370  2.4091
 3158SOL     OW21109   4.051   4.351   3.576 -0.2627  0.1569  0.2446
 3158SOL    HW121110   4.026   4.440   3.551 -0.5887  0.2905  1.0564
 3158SOL    HW221111   4.083   4.360   3.666  0.9142 -2.4604  0.0821
 3159SOL     OW21112   1.043   1.640   8.331 -0.1766 -0.1041 -0.1858
 3159SOL    HW121113   1.095   1.670   8.405 -0.4773  0.2382 -0.1136
 3159SOL    HW221114   1.023   1.722   8.286  2.6195  1.6034  1.6563
 3160SOL     OW21115   0.452   2.115  16.028  0.4851 -0.0099 -0.1896
 3160SOL    HW121116   0.363   2.132  16.056  0.7496 -0.6428  1.0250
 3160SOL    HW221117   0.442   2.039  15.970  2.4073 -1.6186  1.5701
 3161SOL     OW21118   1.442   1.053  14.018 -0.0896 -0.0571 -0.0234
 3161SOL    HW121119   1.399   1.124  14.065 -1.4926 -1.1738  0.3557
 3161SOL    HW221120   1.413   1.062  13.928  0.8032  1.2218 -0.1905
 3162SOL     OW21121   3.407   2.443   7.168  0.1223  0.2419  0.1944
 3162SOL    HW121122   3.466   2.502   7.121  2.0160 -2.4570 -0.8367
 3162SOL    HW221123   3.468   2.370   7.178  0.3601  0.5565  1.0112
 3163SOL     OW21124   1.985   4.029  11.347 -0.1119  0.2252 -0.7465
 3163SOL    HW121125   2.073   3.993  11.331 -0.4831 -1.3026  0.7379
 3163SOL    HW221126   1.928   3.956  11.324  1.6610 -1.6103  0.6777
 3164SOL     OW21127   4.476   1.085  17.472 -0.5204  0.9319  0.2152
 3164SOL    HW121128   4.450   1.071  17.381  1.0566 -0.8023  0.0402
 3164SOL    HW221129   4.391   1.092  17.514 -0.5384  0.8495  0.1924
 3165SOL     OW21130   3.681   0.644   6.026 -0.2389  0.1749  0.2655
 3165SOL    HW121131   3.750   0.619   5.965  0.5626  0.3333  1.1009
 3165SOL    HW221132   3.688   0.738   6.041 -1.9877  0.4941 -1.0194
 3166SOL     OW21133   3.465   0.374   2.986  0.8809  0.7752 -0.1014
 3166SOL    HW121134   3.452   0.280   2.978  0.2320  1.0525 -2.2968
 3166SOL    HW221135   3.383   0.413   2.957  1.1163  1.3918  0.0587
 3167SOL     OW21136   1.890   3.918   5.975 -0.2550  0.1907 -0.1905
 3167SOL    HW121137   1.843   3.914   5.892 -0.7380 -0.9686  0.1440
 3167SOL    HW221138   1.828   3.885   6.040  1.2083  1.1310  1.6977
 3168SOL     OW21139   1.847   3.416  10.992 -0.0181  0.0198 -0.1665
 3168SOL    HW121140   1.890   3.348  10.941  0.2635 -0.0379  0.1451
 3168SOL    HW221141   1.924   3.438  11.045 -1.2378 -0.0561  1.6283
 3169SOL     OW21142   3.012   1.640   3.828 -0.1243  0.2821 -0.2111
 3169SOL    HW121143   3.070   1.573   3.864 -0.0602  2.6185  3.9623
 3169SOL    HW221144   3.059   1.668   3.749  2.4911 -1.0723  0.8449
 3170SOL     OW21145   0.742   3.501  12.828  0.6084  0.5989  0.4183
 3170SOL    HW121146   0.785   3.417  12.840  0.9020  0.7261  0.2628
 3170SOL    HW221147   0.825   3.539  12.798  1.1094 -1.3487 -0.6684
 3171SOL     OW21148   4.267   3.383   9.343  0.7562 -0.3069  0.9988
 3171SOL    HW121149   4.347   3.342   9.309 -0.1524 -0.0112 -1.4910
 3171SOL    HW221150   4.218   3.303   9.364 -1.0551  0.6444  0.3114
 3172SOL     OW21151   0.844   0.894   5.990 -0.0271 -0.4107  0.3543
 3172SOL    HW121152   0.902   0.882   5.915  1.8727  2.0342  1.4403
 3172SOL    HW221153   0.904   0.897   6.064 -2.4946  1.7255  2.2851
 3173SOL     OW21154   3.995   0.673  10.863  0.6587  0.5436  0.3230
 3173SOL    HW121155   4.049   0.685  10.784 -0.7592 -0.2712 -0.7590
 3173SOL    HW221156   3.935   0.747  10.856 -0.4294 -0.3547  0.1492
 3174SOL     OW21157   0.966   3.264   8.492 -0.2632  0.1034 -0.2708
 3174SOL    HW121158   0.924   3.348   8.509 -2.2675 -0.5738 -1.8615
 3174SOL    HW221159   0.894   3.223   8.444 -1.3487 -0.3825  1.7496
 3175SOL     OW21160   2.184   0.600  10.672 -0.0094  0.8177 -0.6289
 3175SOL    HW121161   2.241   0.613  10.748  0.0104  0.6841 -0.6207
 3175SOL    HW221162   2.246   0.563  10.609 -0.0819  1.1561 -0.8991
 3176SOL     OW21163   3.167   0.170   4.981  0.5116  0.0495 -1.1677
 3176SOL    HW121164   3.222   0.107   5.027  0.0726  0.7743  0.3482
 3176SOL    HW221165   3.086   0.149   5.028  1.0850  0.1773 -0.1095
 3177SOL     OW21166   3.410   0.367   3.394  0.0237  0.4805 -0.0819
 3177SOL    HW121167   3.504   0.358   3.381 -0.0677  0.3907 -0.6807
 3177SOL    HW221168   3.361   0.296   3.354  1.4925 -1.3274  1.3477
 3178SOL     OW21169   3.600   3.242   6.027  0.5037 -0.2657  0.1470
 3178SOL    HW121170   3.512   3.276   6.013  1.4754  2.2666  0.3364
 3178SOL    HW221171   3.576   3.151   6.008 -0.2983  0.3912 -1.9790
 3179SOL     OW21172   3.903   2.642   5.967  0.0614 -0.4698 -0.2099
 3179SOL    HW121173   3.896   2.715   5.905 -2.1381 -0.0457  0.5691
 3179SOL    HW221174   3.887   2.688   6.049 -0.6857 -0.1594 -0.5323
 3180SOL     OW21175   4.468   3.205  16.261  0.6430 -0.0050 -0.1512
 3180SOL    HW121176   4.423   3.227  16.180 -0.3071  0.2317  0.4423
 3180SOL    HW221177   4.443   3.279  16.316  0.0609  0.0945 -0.5545
 3181SOL     OW21178   0.708   2.318   5.535 -0.8258  0.2590  0.4500
 3181SOL    HW121179   0.685   2.231   5.568 -0.6025 -0.1499 -0.4716
 3181SOL    HW221180   0.782   2.337   5.592 -0.4423  2.1887 -0.6961
 3182SOL     OW21181   3.358   0.180   7.892 -0.3433 -0.1715 -0.5958
 3182SOL    HW121182   3.391   0.227   7.969 -0.4740 -1.9922  0.5820
 3182SOL    HW221183   3.401   0.094   7.884 -1.0162 -0.6555  0.8441
 3183SOL     OW21184   3.210   1.785  12.884  0.4410 -0.3162 -0.5768
 3183SOL    HW121185   3.305   1.772  12.885  0.1192 -2.5597  0.4403
 3183SOL    HW221186   3.194   1.877  12.864  0.7069 -0.7892 -3.0356
 3184SOL     OW21187   4.565   3.628   5.488 -0.3379  0.5571  0.6591
 3184SOL    HW121188   4.549   3.535   5.477 -1.3741  1.0587 -1.9506
 3184SOL    HW221189   4.480   3.663   5.517 -1.1156 -1.7177  1.1478
 3185SOL     OW21190   2.292   0.679   4.135 -0.0658 -0.1952  0.6698
 3185SOL    HW121191   2.282   0.774   4.126 -2.5471 -0.4915  0.2903
 3185SOL    HW221192   2.204   0.654   4.108 -0.0621 -1.4709  1.8202
 3186SOL     OW21193   3.829   0.532   7.234 -0.3302  0.1741  0.2884
 3186SOL    HW121194   3.916   0.569   7.220 -0.1691 -0.1423  0.4477
 3186SOL    HW221195   3.774   0.611   7.233 -1.0022 -0.2542  2.6373
 3187SOL     OW21196   3.929   2.152  13.561 -0.3136  0.3618  0.1600
 3187SOL    HW121197   3.870   2.156  13.637 -3.0202  0.0048 -1.9130
 3187SOL    HW221198   4.000   2.205  13.597  0.5678  0.3944 -1.6334
 3188SOL     OW21199   1.833   2.560  16.946  0.0443  0.0595  0.1750
 3188SOL    HW121200   1.817   2.654  16.951 -2.2717 -0.3135 -0.1888
 3188SOL    HW221201   1.749   2.518  16.927  0.3129 -0.6624  0.5719
 3189SOL     OW21202   2.117   4.013   2.985 -0.0118  0.2466 -0.4626
 3189SOL    HW121203   2.139   3.934   2.936 -1.6881 -0.3965 -0.1932
 3189SOL    HW221204   2.032   4.027   2.944  0.5786  2.0372 -1.0780
 3190SOL     OW21205   3.569   3.992  12.394  0.1304 -0.2534  0.4326
 3190SOL    HW121206   3.488   3.999  12.443 -0.2178 -1.0664 -0.0325
 3190SOL    HW221207   3.632   3.959  12.458  0.0894  0.2207  0.7204
 3191SOL     OW21208   4.495   3.990   6.650 -0.5697 -0.0442  0.0860
 3191SOL    HW121209   4.424   3.931   6.674  1.0749 -2.1587 -0.2118
 3191SOL    HW221210   4.574   3.942   6.677 -0.6634 -2.2398 -3.4535
 3192SOL     OW21211   3.481   3.485  16.737  0.4543  0.1286 -0.4504
 3192SOL    HW121212   3.563   3.436  16.737 -1.0076 -2.3131 -1.6623
 3192SOL    HW221213   3.429   3.432  16.797  2.2062  0.5749  1.4457
 3193SOL     OW21214   2.394   4.126   6.074  0.5089 -0.2851 -0.3753
 3193SOL    HW121215   2.420   4.057   6.013 -2.9681 -2.6083  0.7507
 3193SOL    HW221216   2.321   4.092   6.125  0.3227  1.9456  0.8331
 3194SOL     OW21217   3.459   1.882   9.122 -0.3034 -0.0945 -0.0860
 3194SOL    HW121218   3.382   1.846   9.077  1.0955 -0.9364 -1.7807
 3194SOL    HW221219   3.519   1.807   9.125 -0.3411 -0.1434 -0.5430
 3195SOL     OW21220   4.016   1.524   7.865  0.4483  0.0906  0.3149
 3195SOL    HW121221   4.096   1.471   7.862 -1.3373 -2.6839  1.4075
 3195SOL    HW221222   4.053   1.602   7.906  2.2903 -1.3755  1.4590
 3196SOL     OW21223   4.631   3.056  11.944 -0.2537  0.1085 -0.1063
 3196SOL    HW121224   4.635   3.078  12.037 -1.6928 -2.3210  0.5103
 3196SOL    HW221225   4.695   3.123  11.917  0.6509 -0.9018 -0.4530
 3197SOL     OW21226   4.509   3.579  12.044  1.0452 -0.0551 -0.1984
 3197SOL    HW121227   4.420   3.575  12.078  1.6651  2.5031  1.7193
 3197SOL    HW221228   4.560   3.565  12.124  0.1192 -0.7798  0.2689
 3198SOL     OW21229   4.218   0.968   2.768 -0.1824  0.1394  0.0884
 3198SOL    HW121230   4.276   0.931   2.835 -1.2394 -0.2519  0.7954
 3198SOL    HW221231   4.228   1.063   2.767 -0.4384  0.1676  0.1884
 3199SOL     OW21232   0.462   0.548  10.264  0.0333  0.0349 -0.1210
 3199SOL    HW121233   0.374   0.516  10.242  0.3102 -1.2428  0.5687
 3199SOL    HW221234   0.503   0.467  10.296  1.6546  0.1808 -1.8421
 3200SOL     OW21235   4.621   2.886   7.112  0.7279 -0.0621 -0.4574
 3200SOL    HW121236   4.597   2.922   7.026  0.2997  0.4148 -0.1322
 3200SOL    HW221237   4.712   2.862   7.092  1.3160  0.3135  1.8220
 3201SOL     OW21238   2.898   1.565   9.606 -0.7867  0.5802  0.1408
 3201SOL    HW121239   2.863   1.624   9.672  0.7307  2.1540 -0.4538
 3201SOL    HW221240   2.825   1.503   9.594 -0.3853 -0.5477  3.5427
 3202SOL     OW21241   3.131   2.100   5.435 -0.5986  0.4052 -0.4248
 3202SOL    HW121242   3.144   2.149   5.516 -0.9974 -2.7834  1.5698
 3202SOL    HW221243   3.038   2.102   5.455 -0.2454  0.4013  1.2222
 3203SOL     OW21244   3.581   0.494   5.262 -0.3504  0.2288 -0.5293
 3203SOL    HW121245   3.642   0.506   5.189  3.2783 -1.6865  2.2163
 3203SOL    HW221246   3.622   0.557   5.320 -1.6444 -1.9166  2.7190
 3204SOL     OW21247   1.902   4.049  14.366  0.3229  0.0624  0.1177
 3204SOL    HW121248   1.899   3.979  14.301 -1.6684 -0.5185  0.8455
 3204SOL    HW221249   1.951   4.002  14.433  0.8308 -0.9848 -0.9894
 3205SOL     OW21250   3.527   1.337   1.607 -0.4398  0.2551 -0.0800
 3205SOL    HW121251   3.577   1.292   1.675  3.4788  2.5455 -1.3947
 3205SOL    HW221252   3.490   1.260   1.565  0.3699  0.4139 -1.0992
 3206SOL     OW21253   0.913   0.371   3.258 -0.1331  0.5579 -0.0288
 3206SOL    HW121254   0.949   0.400   3.174  0.2122  0.6650  0.1571
 3206SOL    HW221255   0.972   0.410   3.322  2.5250  0.1356 -2.1685
 3207SOL     OW21256   3.765   2.609   6.337 -0.0372 -0.6118 -0.1942
 3207SOL    HW121257   3.674   2.617   6.366  0.5976  0.2730  1.5264
 3207SOL    HW221258   3.760   2.583   6.245  2.1574  0.5210 -0.6334
 3208SOL     OW21259   3.175   1.568   7.947 -0.1828  0.1115 -0.0053
 3208SOL    HW121260   3.135   1.654   7.939  2.1489  1.1134 -0.7474
 3208SOL    HW221261   3.193   1.547   7.855 -0.5271 -0.4917  0.0605
 3209SOL     OW21262   2.200   3.814   2.416 -0.1136  0.4256  0.4151
 3209SOL    HW121263   2.170   3.757   2.487 -0.7159 -1.4916 -1.3799
 3209SOL    HW221264   2.186   3.896   2.463 -0.5767  2.4365 -3.1833
 3210SOL     OW21265   1.431   2.052   2.107  0.0058 -0.5690  0.6373
 3210SOL    HW121266   1.433   2.015   2.196  0.0337  1.4306  1.4776
 3210SOL    HW221267   1.523   2.078   2.105  0.1843 -1.2424  0.2466
 3211SOL     OW21268   0.457   3.708   3.243 -0.0213 -0.5592 -0.2629
 3211SOL    HW121269   0.525   3.775   3.241 -0.6549  0.0407 -1.6088
 3211SOL    HW221270   0.477   3.664   3.326 -1.8074 -1.4780 -0.3151
 3212SOL     OW21271   2.177   1.603   5.060  0.6513 -0.3797 -0.0118
 3212SOL    HW121272   2.184   1.663   5.134  0.5607 -0.4586  0.0606
 3212SOL    HW221273   2.239   1.638   4.996  0.0312  0.2787 -0.2448
 3213SOL     OW21274   0.691   1.490   5.497  0.3345  0.0093  0.1819
 3213SOL    HW121275   0.645   1.420   5.451 -0.9968  0.1876  1.2339
 3213SOL    HW221276   0.670   1.470   5.588 -0.1753  2.7731  0.6652
 3214SOL     OW21277   1.475   3.101   6.636 -0.3764 -0.7489  0.2300
 3214SOL    HW121278   1.426   3.117   6.555  0.5550  2.5467  0.3392
 3214SOL    HW221279   1.397   3.079   6.688 -0.1833 -0.8913  0.4600
 3215SOL     OW21280   0.956   2.548   2.492 -0.2724  0.2917 -0.4643
 3215SOL    HW121281   0.903   2.627   2.499  1.7597  1.7326 -1.2862
 3215SOL    HW221282   0.927   2.495   2.566 -0.4620  0.1187 -0.6619
 3216SOL     OW21283   2.880   1.041   9.889  0.0419  0.4335 -0.2326
 3216SOL    HW121284   2.935   0.966   9.866 -2.4420 -0.9572 -1.6766
 3216SOL    HW221285   2.813   0.996   9.941 -0.0185 -0.4082 -1.0249
 3217SOL     OW21286   1.826   4.019   4.750 -0.2222  0.1203  0.9326
 3217SOL    HW121287   1.738   3.984   4.737  0.7232 -1.5624 -0.9556
 3217SOL    HW221288   1.855   3.993   4.838 -0.0610 -2.5359  0.0941
 3218SOL     OW21289   1.389   4.065   3.806  0.0680 -0.4743 -0.4273
 3218SOL    HW121290   1.410   4.021   3.723 -0.7286 -0.1068 -0.8230
 3218SOL    HW221291   1.398   4.158   3.783 -2.0631 -0.1196  0.2219
 3219SOL     OW21292   2.436   2.265   7.021 -0.4730 -0.4214  0.1742
 3219SOL    HW121293   2.436   2.354   6.986 -0.1736 -0.8158 -0.8419
 3219SOL    HW221294   2.344   2.239   7.019 -0.5395 -0.2100  0.5011
 3220SOL     OW21295   3.969   4.572   6.884  0.2075 -0.2708  0.7434
 3220SOL    HW121296   4.053   4.563   6.840  0.9211 -1.1053  2.2786
 3220SOL    HW221297   3.954   4.666   6.880 -0.1289 -0.4865 -3.0337
 3221SOL     OW21298   4.537   0.634   5.696  0.4973  0.6971  0.5487
 3221SOL    HW121299   4.497   0.638   5.609  1.4535  2.7547  0.1957
 3221SOL    HW221300   4.562   0.726   5.708  2.3636  0.3791 -0.8256
 3222SOL     OW21301   1.707   3.465  16.451  0.1141 -0.1218 -0.1054
 3222SOL    HW121302   1.780   3.523  16.428 -0.6877  0.5438 -1.0158
 3222SOL    HW221303   1.720   3.406  16.376  0.8500  0.8420 -0.7385
 3223SOL     OW21304   0.131   3.335  13.209 -0.2009  0.1817 -0.4505
 3223SOL    HW121305   0.169   3.265  13.155 -0.2467 -0.2991  0.1396
 3223SOL    HW221306   0.211   3.372  13.247 -1.7015  2.1063  0.8586
 3224SOL     OW21307   2.808   3.633   5.308  0.0273 -0.5183  0.0867
 3224SOL    HW121308   2.827   3.659   5.218  0.4669  0.7146  0.5287
 3224SOL    HW221309   2.874   3.567   5.329 -0.5582 -0.8286  0.9242
 3225SOL     OW21310   0.174   0.407   1.028 -0.0203 -0.3315 -0.1574
 3225SOL    HW121311   0.148   0.419   1.119  1.3904 -0.5392  0.2716
 3225SOL    HW221312   0.115   0.335   1.003 -0.3499 -0.1221  0.0267
 3226SOL     OW21313   0.905   4.232  10.157 -0.3192 -0.3722  0.0488
 3226SOL    HW121314   0.824   4.262  10.197 -0.1018 -0.4137  0.5243
 3226SOL    HW221315   0.936   4.185  10.234 -1.3304  0.0342  0.6990
 3227SOL     OW21316   0.917   3.021  11.087 -0.2940 -0.1780 -0.3252
 3227SOL    HW121317   0.829   2.990  11.063  0.3279 -1.2978 -1.1681
 3227SOL    HW221318   0.974   2.946  11.069 -0.5954 -0.6024  0.4730
 3228SOL     OW21319   3.234   4.143   8.064  0.0504  0.1800 -0.0767
 3228SOL    HW121320   3.296   4.182   8.002  0.6850  0.2138  0.5900
 3228SOL    HW221321   3.155   4.136   8.011 -0.2060 -2.7267  0.7022
 3229SOL     OW21322   3.626   3.341  16.051  0.5212 -0.0131  0.3666
 3229SOL    HW121323   3.534   3.359  16.033  0.5928 -1.3914 -1.4036
 3229SOL    HW221324   3.626   3.256  16.096 -3.5078 -0.2390 -0.0321
 3230SOL     OW21325   0.529   0.643  12.004  0.0194  1.0582  0.0518
 3230SOL    HW121326   0.584   0.618  12.078  0.6536 -0.6621 -1.0159
 3230SOL    HW221327   0.551   0.572  11.944 -1.6822 -0.3507  1.0912
 3231SOL     OW21328   3.336   0.427  11.170 -0.0128  0.9181  0.4531
 3231SOL    HW121329   3.273   0.360  11.197  2.5043 -0.6233  2.5134
 3231SOL    HW221330   3.337   0.403  11.077 -0.6325 -0.3494  0.7710
 3232SOL     OW21331   2.558   4.197   7.820  0.3124  0.3661  0.4599
 3232SOL    HW121332   2.616   4.209   7.896 -0.8687  0.3714  1.3547
 3232SOL    HW221333   2.618   4.231   7.753 -0.9399  1.8732  0.1058
 3233SOL     OW21334   4.058   4.448   9.376  0.0606 -0.1221 -0.2239
 3233SOL    HW121335   3.975   4.476   9.336  0.5587 -0.7588 -1.6892
 3233SOL    HW221336   4.111   4.459   9.297 -0.6026 -3.1100 -1.0723
 3234SOL     OW21337   1.203   1.406   4.663  0.4613 -0.3289  0.0845
 3234SOL    HW121338   1.133   1.385   4.600  0.6205 -0.3057 -0.0996
 3234SOL    HW221339   1.191   1.501   4.658  2.2054 -0.0390  1.4556
 3235SOL     OW21340   2.385   3.391  14.970  0.5082 -0.3187 -0.1561
 3235SOL    HW121341   2.394   3.401  14.876  0.2070  3.0141  0.1718
 3235SOL    HW221342   2.339   3.307  14.970 -3.4460  1.8614 -0.6719
 3236SOL     OW21343   2.555   2.687   3.102 -0.0884  0.1178  0.5046
 3236SOL    HW121344   2.627   2.629   3.127  0.2625 -0.3584 -1.6715
 3236SOL    HW221345   2.606   2.767   3.091 -1.9037  1.3052  0.6411
 3237SOL     OW21346   0.689   0.038   4.727 -1.0024 -0.6085 -0.1765
 3237SOL    HW121347   0.657   0.015   4.640 -0.9629 -3.0002  0.4463
 3237SOL    HW221348   0.680   0.133   4.737  2.4266 -0.2835  0.0306
 3238SOL     OW21349   1.564   2.911   1.179 -0.3208 -0.5786  0.1137
 3238SOL    HW121350   1.553   2.821   1.209  1.4448 -1.3660 -1.6097
 3238SOL    HW221351   1.476   2.946   1.194  1.4887  3.4822  1.0593
 3239SOL     OW21352   0.766   2.407   5.309 -0.8543  0.4298  0.4279
 3239SOL    HW121353   0.787   2.493   5.344 -2.0900  1.9095 -2.4128
 3239SOL    HW221354   0.749   2.367   5.394 -1.2010  0.1699  0.2389
 3240SOL     OW21355   3.728   3.693  15.435 -0.0926  0.1669 -0.4754
 3240SOL    HW121356   3.783   3.764  15.402 -1.2837  1.7235  0.9139
 3240SOL    HW221357   3.659   3.735  15.486  0.1312 -0.1468  0.0906
 3241SOL     OW21358   2.414   3.405  14.705 -0.0446 -0.1058 -0.5803
 3241SOL    HW121359   2.454   3.335  14.654 -1.0477 -1.6252  0.7242
 3241SOL    HW221360   2.397   3.470  14.637 -0.5391 -1.5639 -1.8249
 3242SOL     OW21361   1.846   3.216   5.839 -0.0780 -0.1194 -0.1136
 3242SOL    HW121362   1.759   3.252   5.855  0.6974  0.9493  1.5865
 3242SOL    HW221363   1.905   3.290   5.826 -0.7769  0.6251  0.9569
 3243SOL     OW21364   1.220   2.669   2.400  0.1172  0.2340 -0.6321
 3243SOL    HW121365   1.147   2.607   2.399  0.5083 -0.2051 -1.6078
 3243SOL    HW221366   1.202   2.715   2.482 -0.6006 -0.2558 -0.5162
 3244SOL     OW21367   1.656   1.225   5.372  0.3805  0.5998 -0.1464
 3244SOL    HW121368   1.640   1.176   5.453 -1.1868 -0.3051 -1.0090
 3244SOL    HW221369   1.723   1.171   5.331 -0.4832  0.4442 -1.3648
 3245SOL     OW21370   3.953   0.346   9.325 -0.2084  0.2715 -0.0742
 3245SOL    HW121371   3.872   0.304   9.296  0.5003 -0.9028 -0.3594
 3245SOL    HW221372   4.033   0.297   9.307 -0.1518  0.3220  0.0370
 3246SOL     OW21373   2.777   3.784   9.679  0.0081 -0.6073  0.3712
 3246SOL    HW121374   2.704   3.731   9.647 -0.0028 -0.2090 -0.2628
 3246SOL    HW221375   2.819   3.734   9.749 -0.1653 -2.2704 -0.7324
 3247SOL     OW21376   3.610   4.299  10.199 -0.1848  0.5726  0.6831
 3247SOL    HW121377   3.526   4.320  10.159 -1.4887  0.0224  3.1212
 3247SOL    HW221378   3.572   4.269  10.282  0.5728  1.8158  1.4735
 3248SOL     OW21379   1.038   3.660   1.938  0.3027 -0.0021 -0.7067
 3248SOL    HW121380   1.115   3.684   1.989  0.3054  0.8799 -1.1231
 3248SOL    HW221381   1.052   3.720   1.865 -0.3896  1.6154  0.4717
 3249SOL     OW21382   3.228   1.751   4.266 -0.0474  0.3801  0.2558
 3249SOL    HW121383   3.246   1.707   4.350  2.0389 -0.3561 -0.5550
 3249SOL    HW221384   3.246   1.844   4.277  2.1135  0.0971 -0.8422
 3250SOL     OW21385   1.566   4.564  13.161  0.4825 -0.5496  0.0161
 3250SOL    HW121386   1.486   4.573  13.109 -0.2218 -3.3867  0.6233
 3250SOL    HW221387   1.604   4.651  13.143 -0.2960 -0.1331  0.4059
 3251SOL     OW21388   0.514   3.297  11.593  0.7231 -0.0003  0.8313
 3251SOL    HW121389   0.529   3.368  11.531 -1.7449  3.0129  3.7086
 3251SOL    HW221390   0.576   3.331  11.658 -0.7337  2.3121  0.9933
 3252SOL     OW21391   2.164   2.573   7.619 -0.8858  0.1193 -0.2666
 3252SOL    HW121392   2.102   2.575   7.692 -2.4979  2.5395 -1.7138
 3252SOL    HW221393   2.099   2.570   7.549  1.2547 -3.9422 -2.0744
 3253SOL     OW21394   3.321   0.227  13.725  0.1492  0.2488  0.2924
 3253SOL    HW121395   3.350   0.318  13.734 -1.7526  1.0961 -2.1619
 3253SOL    HW221396   3.275   0.229  13.810  0.4829 -0.2223  0.4826
 3254SOL     OW21397   1.897   3.512   6.033 -0.0936  0.1429  0.2209
 3254SOL    HW121398   1.902   3.537   5.941  1.6261  0.7964  0.4926
 3254SOL    HW221399   1.801   3.509   6.038  0.0199 -1.9035  1.2277
 3255SOL     OW21400   2.774   3.066   4.538 -0.2664  0.0771  0.2550
 3255SOL    HW121401   2.785   3.038   4.447 -3.2847 -0.2266 -0.0445
 3255SOL    HW221402   2.789   3.159   4.525 -0.5068 -0.2832 -2.6470
 3256SOL     OW21403   4.735   3.055   7.675 -0.0543  0.2441  0.3117
 3256SOL    HW121404   4.722   2.982   7.615  1.2960 -0.9095  1.4217
 3256SOL    HW221405   0.070   3.088   7.627 -1.8481  1.0849 -1.9642
 3257SOL     OW21406   0.883   2.775   3.396 -0.2067 -0.6217  0.1419
 3257SOL    HW121407   0.956   2.721   3.427 -0.8559 -0.8174  1.3351
 3257SOL    HW221408   0.894   2.857   3.443 -2.5124 -0.2570  0.0389
 3258SOL     OW21409   3.770   0.728   4.087  0.4840  0.0310 -0.0606
 3258SOL    HW121410   3.736   0.640   4.100 -0.3265  0.3570  0.0257
 3258SOL    HW221411   3.776   0.756   4.178 -2.3612  2.2104 -0.5255
 3259SOL     OW21412   1.923   1.861   3.460  0.4192  0.0892  0.3883
 3259SOL    HW121413   1.973   1.938   3.489 -0.0896  0.9820 -1.0977
 3259SOL    HW221414   1.993   1.810   3.420  0.6087  0.1630  0.6217
 3260SOL     OW21415   1.158   2.033   9.424  0.4584 -0.3115  0.0918
 3260SOL    HW121416   1.148   1.952   9.374  3.6159  0.7666 -2.3118
 3260SOL    HW221417   1.095   2.012   9.493  1.3008  1.1874  1.3165
 3261SOL     OW21418   3.677   0.955   5.488 -0.4186 -0.0740 -0.2363
 3261SOL    HW121419   3.678   1.038   5.536 -0.9096 -1.3353  1.9950
 3261SOL    HW221420   3.642   0.897   5.555  0.3745  0.4518  0.6445
 3262SOL     OW21421   3.119   1.985   6.124  0.1451 -0.3494 -0.3168
 3262SOL    HW121422   3.149   2.074   6.143  0.1703 -0.4775  0.2380
 3262SOL    HW221423   3.185   1.968   6.057  2.7581  2.0673  1.6341
 3263SOL     OW21424   2.662   0.847   9.294  0.0381 -0.4651 -0.3380
 3263SOL    HW121425   2.654   0.930   9.248 -0.5980  0.1765  0.9485
 3263SOL    HW221426   2.754   0.819   9.304 -0.1853 -1.0919  0.0048
 3264SOL     OW21427   1.390   0.196   3.375  0.1864  0.1625 -0.0354
 3264SOL    HW121428   1.472   0.237   3.405 -1.2681  2.1727  1.2188
 3264SOL    HW221429   1.364   0.138   3.447 -1.0473 -0.7774 -1.2308
 3265SOL     OW21430   3.361   4.166   6.702  0.4928 -0.2481 -0.4168
 3265SOL    HW121431   3.313   4.181   6.784  0.6624  1.1071 -0.5747
 3265SOL    HW221432   3.445   4.157   6.747 -1.1226 -2.6004  2.1512
 3266SOL     OW21433   1.161   2.296   1.749  0.5082 -0.2955 -0.1085
 3266SOL    HW121434   1.114   2.330   1.673  0.3829  0.1000  0.1443
 3266SOL    HW221435   1.223   2.369   1.751 -1.1600  1.1505 -0.9575
 3267SOL     OW21436   0.317   0.637  15.925 -0.7270 -0.1207  0.4019
 3267SOL    HW121437   0.355   0.550  15.935  2.1260  1.0185 -0.5961
 3267SOL    HW221438   0.385   0.683  15.876 -2.0046  0.2383 -1.0407
 3268SOL     OW21439   2.625   0.486   8.258 -0.0164 -0.5469 -0.7515
 3268SOL    HW121440   2.659   0.468   8.171 -0.1409 -0.4100 -0.8276
 3268SOL    HW221441   2.604   0.402   8.300 -1.2810  0.4011  0.5222
 3269SOL     OW21442   0.548   2.812   4.504 -0.0249 -0.0985 -0.1893
 3269SOL    HW121443   0.637   2.782   4.484 -0.2984 -1.0877  0.0827
 3269SOL    HW221444   0.555   2.908   4.506  0.6594 -0.2303  3.3557
 3270SOL     OW21445   3.090   3.316  15.031 -1.1968  0.3441 -0.0756
 3270SOL    HW121446   3.009   3.346  15.073 -1.3168  0.4357 -0.3717
 3270SOL    HW221447   3.122   3.243  15.085  0.8407 -0.0921 -1.8860
 3271SOL     OW21448   4.166   3.968  13.912  0.0594 -0.4557  0.5666
 3271SOL    HW121449   4.117   4.015  13.979 -1.2418 -0.8758 -0.0965
 3271SOL    HW221450   4.211   4.046  13.880 -0.6358 -0.0262  0.6473
 3272SOL     OW21451   3.040   0.328  10.010  0.0310 -0.4198  0.4099
 3272SOL    HW121452   3.094   0.291  10.080  2.5315 -2.3398 -2.5309
 3272SOL    HW221453   3.079   0.413   9.991  0.1279 -0.0525  2.3073
 3273SOL     OW21454   2.087   2.043   3.560  0.2101  0.2115 -0.2039
 3273SOL    HW121455   2.145   2.008   3.627 -0.9231  0.7476  1.0536
 3273SOL    HW221456   2.028   2.092   3.618 -1.4572 -0.2729 -1.4743
 3274SOL     OW21457   2.642   2.869   5.517  0.3540 -0.0573 -0.0282
 3274SOL    HW121458   2.717   2.830   5.562 -0.9110 -2.5416 -0.0444
 3274SOL    HW221459   2.664   2.851   5.425  0.6628 -0.3167  0.0966
 3275SOL     OW21460   0.176   2.651   3.643 -0.3300 -0.1269  0.4428
 3275SOL    HW121461   0.115   2.593   3.597 -0.5910  0.4403  0.0747
 3275SOL    HW221462   0.206   2.608   3.723 -1.8918  0.0885  1.1321
 3276SOL     OW21463   3.416   2.920   4.575 -0.2224 -1.0974  0.6045
 3276SOL    HW121464   3.500   2.887   4.543  0.8163 -0.1358  2.3808
 3276SOL    HW221465   3.396   2.878   4.658 -1.5559 -1.6723 -0.0043
 3277SOL     OW21466   4.194   2.605   6.554  0.0035  0.0450 -0.6379
 3277SOL    HW121467   4.263   2.577   6.493  0.1764  0.2930 -0.5593
 3277SOL    HW221468   4.214   2.550   6.629  0.0530  0.1204 -0.5962
 3278SOL     OW21469   1.478   4.422   6.720 -0.2642 -0.2642  0.9451
 3278SOL    HW121470   1.534   4.473   6.662 -2.2445  0.1622 -0.5981
 3278SOL    HW221471   1.403   4.393   6.668 -1.1434  0.7894  1.6338
 3279SOL     OW21472   2.441   4.111  14.835  0.2318  0.1689 -0.4177
 3279SOL    HW121473   2.524   4.064  14.850  0.8590  1.3068 -0.3293
 3279SOL    HW221474   2.383   4.035  14.837 -0.5747  0.7730 -0.8125
 3280SOL     OW21475   0.546   0.750   1.836  0.9077 -0.1782 -0.4259
 3280SOL    HW121476   0.465   0.789   1.803  0.6112  1.4068  2.1292
 3280SOL    HW221477   0.584   0.721   1.753 -1.2587 -0.4495 -1.3160
 3281SOL     OW21478   0.193   1.329   9.957 -0.3304 -0.1126 -0.1033
 3281SOL    HW121479   0.217   1.421   9.960  1.2533 -0.6030  2.3919
 3281SOL    HW221480   0.279   1.289   9.948 -0.3757 -0.1103 -0.5304
 3282SOL     OW21481   4.592   3.308   5.896 -0.0316 -0.4021 -0.3631
 3282SOL    HW121482   4.506   3.322   5.857  1.1403  0.4138 -2.6593
 3282SOL    HW221483   4.592   3.221   5.936  0.5173 -0.0679  0.3633
 3283SOL     OW21484   2.324   0.956   2.653  0.2680  0.6740 -0.3672
 3283SOL    HW121485   2.361   0.895   2.590  1.3942 -1.2761  2.1845
 3283SOL    HW221486   2.369   1.039   2.634 -0.9892  1.3102 -0.5328
 3284SOL     OW21487   1.061   3.482   4.415  0.2024  0.0285  0.5011
 3284SOL    HW121488   1.125   3.552   4.405  0.1414 -0.3205 -2.3997
 3284SOL    HW221489   1.080   3.413   4.350 -0.7428 -1.7966  2.1576
 3285SOL     OW21490   3.410   4.215   1.091  0.1755 -0.1212  0.2920
 3285SOL    HW121491   3.373   4.268   1.021  1.0404  0.8621  0.5960
 3285SOL    HW221492   3.334   4.210   1.150  0.8892 -0.2302  1.2112
 3286SOL     OW21493   1.637   2.234   6.912  0.0667  0.2744 -0.1581
 3286SOL    HW121494   1.591   2.165   6.959 -0.6748  0.8006 -0.0975
 3286SOL    HW221495   1.724   2.236   6.951  0.4774  0.0727 -1.0620
 3287SOL     OW21496   2.668   4.737   7.517 -0.0342 -0.0446 -0.0066
 3287SOL    HW121497   2.583   4.703   7.545 -0.5582  0.5760 -0.8432
 3287SOL    HW221498   2.692   0.044   7.596  0.6085 -1.7272  0.8148
 3288SOL     OW21499   3.933   3.904  12.368 -0.3751 -0.1347  0.1862
 3288SOL    HW121500   3.970   3.958  12.438 -0.4844  0.0592  0.0965
 3288SOL    HW221501   3.839   3.922  12.379 -0.4673 -0.1064 -0.6287
 3289SOL     OW21502   0.494   0.310   8.561 -0.9403  0.0578 -0.0867
 3289SOL    HW121503   0.435   0.249   8.606  0.0202  1.4113  3.0200
 3289SOL    HW221504   0.480   0.388   8.615 -0.9058  0.6831 -0.9829
 3290SOL     OW21505   4.199   1.512   0.842 -0.2096  0.2739  0.7413
 3290SOL    HW121506   4.267   1.516   0.910 -0.1355  1.2770  0.6069
 3290SOL    HW221507   4.158   1.597   0.857 -1.5888 -0.2312 -0.1627
 3291SOL     OW21508   3.955   3.915   8.792 -0.1219  0.1425  0.1199
 3291SOL    HW121509   3.989   3.996   8.830  2.6664 -1.3183  0.7785
 3291SOL    HW221510   4.039   3.874   8.769  0.0769  0.0522  1.0278
 3292SOL     OW21511   4.691   2.754   6.035  0.2759 -0.1313  0.3409
 3292SOL    HW121512   4.701   2.810   6.112  1.0754 -0.0665  0.1879
 3292SOL    HW221513   4.604   2.783   6.008  0.3228  1.2840  1.7138
 3293SOL     OW21514   1.726   1.619  10.738 -0.6279 -0.3151  0.5085
 3293SOL    HW121515   1.670   1.668  10.798 -0.6343 -0.2908  0.4831
 3293SOL    HW221516   1.661   1.554  10.713  1.3983 -1.8478 -0.7366
 3294SOL     OW21517   2.572   1.418   8.696 -0.7462  0.3484  0.5606
 3294SOL    HW121518   2.544   1.486   8.635 -0.7370  0.4540  0.6728
 3294SOL    HW221519   2.506   1.415   8.765 -2.3216 -0.2083 -0.9633
 3295SOL     OW21520   2.064   3.673   5.507 -0.3016  0.6659 -0.1786
 3295SOL    HW121521   2.109   3.754   5.484 -0.1387  0.1010 -1.8238
 3295SOL    HW221522   1.970   3.692   5.511 -0.6918 -0.9708 -2.0397
 3296SOL     OW21523   1.541   1.259  10.940  0.7047 -0.3740 -0.3680
 3296SOL    HW121524   1.623   1.211  10.942  0.6318 -0.5175 -0.6971
 3296SOL    HW221525   1.481   1.201  10.988  0.7795 -0.5954 -0.5430
 3297SOL     OW21526   1.263   2.753   6.883 -0.7570 -0.2851 -0.5048
 3297SOL    HW121527   1.286   2.736   6.974  1.6592  1.4249 -0.7998
 3297SOL    HW221528   1.180   2.706   6.887 -0.2230 -1.3220 -1.6026
 3298SOL     OW21529   4.036   0.044   4.598  0.3084  0.1046 -0.6311
 3298SOL    HW121530   3.952   0.033   4.643 -1.9093  1.1357 -4.4095
 3298SOL    HW221531   4.082   0.116   4.642 -1.8306  1.9404 -1.3830
 3299SOL     OW21532   2.128   3.865   7.319  0.0453 -0.4650  0.1163
 3299SOL    HW121533   2.142   3.828   7.232 -0.8862  0.6968 -0.5235
 3299SOL    HW221534   2.039   3.843   7.346  1.5340 -2.7135  3.2257
 3300SOL     OW21535   4.392   3.423   1.952  0.0324  0.8137  0.2537
 3300SOL    HW121536   4.452   3.493   1.924  0.7755  0.3269  0.6426
 3300SOL    HW221537   4.432   3.352   1.902  1.9737  0.7123  1.9499
 3301SOL     OW21538   2.252   0.420   4.716  0.0590 -0.2279 -0.4373
 3301SOL    HW121539   2.163   0.410   4.681  0.2940  1.5246 -1.5772
 3301SOL    HW221540   2.295   0.337   4.698  1.3941  0.4763 -0.5236
 3302SOL     OW21541   3.246   1.211  12.288 -0.1772  0.2913 -0.0495
 3302SOL    HW121542   3.340   1.201  12.307 -0.3068  0.8078  0.8209
 3302SOL    HW221543   3.219   1.270  12.357  0.3102 -1.9285  2.0495
 3303SOL     OW21544   2.111   1.724   6.960 -0.0637 -0.3618 -0.2564
 3303SOL    HW121545   2.123   1.811   6.998  0.0458  0.0061 -1.1311
 3303SOL    HW221546   2.185   1.725   6.899 -0.5334 -0.2316 -0.8300
 3304SOL     OW21547   1.666   1.934   3.473 -0.0960  0.1217 -0.1343
 3304SOL    HW121548   1.678   2.024   3.443 -0.4387  0.9286  2.1951
 3304SOL    HW221549   1.744   1.889   3.439 -0.9430 -1.6176  0.2495
 3305SOL     OW21550   1.225   2.145   8.383 -0.4833 -0.4169  0.1592
 3305SOL    HW121551   1.213   2.182   8.470 -0.3445 -2.1686  0.9257
 3305SOL    HW221552   1.227   2.226   8.332  1.0767 -0.8739 -0.5315
 3306SOL     OW21553   1.671   3.074   0.494 -0.1662 -0.1492 -0.3058
 3306SOL    HW121554   1.707   2.989   0.522  1.0177  0.4195 -0.1039
 3306SOL    HW221555   1.748   3.131   0.500 -0.0062 -0.3659 -0.2732
 3307SOL     OW21556   2.150   3.910  12.369 -0.0721 -0.5550 -0.5473
 3307SOL    HW121557   2.075   3.948  12.322  0.4449  1.1858  0.0215
 3307SOL    HW221558   2.182   3.975  12.431  0.0644 -2.2458  1.1427
 3308SOL     OW21559   0.646   3.694   7.184 -0.1000  0.3164  0.4624
 3308SOL    HW121560   0.676   3.703   7.274  1.0699 -1.0955  0.1985
 3308SOL    HW221561   0.608   3.780   7.165  0.8994  0.2516 -1.8624
 3309SOL     OW21562   1.769   4.328   6.487  0.1088 -0.6961  0.6759
 3309SOL    HW121563   1.707   4.361   6.422  4.2294  0.0828 -2.9084
 3309SOL    HW221564   1.848   4.373   6.458  0.4673 -1.7005  0.0803
 3310SOL     OW21565   1.705   2.968   1.878  0.1275 -0.0935 -0.0994
 3310SOL    HW121566   1.662   3.053   1.879  0.1828 -0.0647 -0.1799
 3310SOL    HW221567   1.720   2.962   1.973  1.3969  2.9421 -0.1176
 3311SOL     OW21568   4.494   2.178  13.859 -0.1235  0.0420  0.3371
 3311SOL    HW121569   4.469   2.199  13.949 -2.9059  2.0374 -0.8875
 3311SOL    HW221570   4.439   2.101  13.852 -0.2383  0.1123  0.4677
 3312SOL     OW21571   2.635   1.735   4.334 -0.5078 -0.5969 -0.4829
 3312SOL    HW121572   2.621   1.760   4.243 -0.3829 -1.1556 -0.6529
 3312SOL    HW221573   2.726   1.709   4.342 -1.1128 -1.8067  2.6768
 3313SOL     OW21574   2.713   3.943   3.903  0.5837 -0.1173  0.1032
 3313SOL    HW121575   2.620   3.937   3.925  0.8254  0.1803  1.1990
 3313SOL    HW221576   2.749   3.967   3.988  3.0128  1.5323 -1.4038
 3314SOL     OW21577   3.040   2.635  13.289  0.2605  0.2103  0.5969
 3314SOL    HW121578   3.078   2.587  13.216 -1.6485 -0.8061  0.2671
 3314SOL    HW221579   3.012   2.721  13.256  1.2016  0.3611  0.2030
 3315SOL     OW21580   1.663   3.486   7.537 -0.2522  0.0349  0.0178
 3315SOL    HW121581   1.603   3.431   7.486 -0.9095 -0.2715  1.1119
 3315SOL    HW221582   1.657   3.568   7.489  1.3758 -0.1152 -0.4564
 3316SOL     OW21583   1.904   1.374  12.912  0.2528  0.9367 -0.0783
 3316SOL    HW121584   1.942   1.344  12.829  1.1394  1.1049  0.2714
 3316SOL    HW221585   1.921   1.467  12.901  1.7303  0.7338  0.5132
 3317SOL     OW21586   0.017   3.357   4.688 -0.0344  0.4803  0.6076
 3317SOL    HW121587   0.103   3.319   4.702  0.2943  0.4777 -1.4840
 3317SOL    HW221588   4.717   3.326   4.769  0.3471  1.2498  1.0985
 3318SOL     OW21589   0.050   1.021  15.299 -0.6034  0.2087 -0.3784
 3318SOL    HW121590   0.048   0.937  15.252 -0.0846 -0.5045  0.8887
 3318SOL    HW221591   4.702   1.053  15.315 -1.1386 -1.2756 -0.3899
 3319SOL     OW21592   4.317   3.643   1.706  0.4543 -0.0268  0.4818
 3319SOL    HW121593   4.239   3.630   1.760 -0.1968  1.9838  0.0281
 3319SOL    HW221594   4.379   3.657   1.777  0.2527  0.6154  0.5308
 3320SOL     OW21595   1.183   1.430  12.145 -0.1167 -0.6921 -0.1074
 3320SOL    HW121596   1.253   1.426  12.210 -1.8443 -2.0679  1.6691
 3320SOL    HW221597   1.213   1.351  12.099  0.8766 -1.6966  2.2646
 3321SOL     OW21598   1.839   1.056   5.255  0.6770  0.2960 -0.4023
 3321SOL    HW121599   1.900   1.100   5.195  1.1542 -0.9193 -0.7974
 3321SOL    HW221600   1.807   0.989   5.195  1.6063  0.8082 -1.4678
 3322SOL     OW21601   0.794   0.460  13.252  0.5094  0.1084  0.1206
 3322SOL    HW121602   0.756   0.511  13.181  1.4203  0.3191 -0.2193
 3322SOL    HW221603   0.716   0.419  13.289 -0.9923  2.6142 -0.3149
 3323SOL     OW21604   0.786   3.639  11.511  0.1060  0.2486  0.1773
 3323SOL    HW121605   0.740   3.651  11.594  3.0840  1.1541  1.7295
 3323SOL    HW221606   0.712   3.607  11.461  0.6653 -0.8883  0.0894
 3324SOL     OW21607   1.023   2.692   3.801  0.1732 -0.1645  0.5273
 3324SOL    HW121608   1.100   2.678   3.856 -2.0374 -0.9556  3.4000
 3324SOL    HW221609   1.054   2.692   3.710  0.6032  0.1656  0.6753
 3325SOL     OW21610   4.638   4.177   4.859 -0.0580 -0.6208  0.4516
 3325SOL    HW121611   4.703   4.228   4.907 -2.6971  3.0230  0.2365
 3325SOL    HW221612   4.564   4.176   4.920 -0.7415  0.6528 -0.3424
 3326SOL     OW21613   3.969   0.829   0.148  0.4598 -0.7400  0.3292
 3326SOL    HW121614   4.018   0.767   0.093 -0.1078 -0.1439 -0.8275
 3326SOL    HW221615   3.889   0.822   0.096  0.2142 -0.9465  0.7346
 3327SOL     OW21616   2.107   1.281   3.217 -0.8802 -0.7114 -0.1583
 3327SOL    HW121617   2.202   1.280   3.205 -1.1691  0.0426 -2.6026
 3327SOL    HW221618   2.060   1.231   3.150 -1.8589 -0.2702  0.2079
 3328SOL     OW21619   0.879   1.894   7.207  0.5218  0.4631 -0.2449
 3328SOL    HW121620   0.901   1.907   7.114 -1.0540 -0.5784 -0.7554
 3328SOL    HW221621   0.907   1.802   7.214 -3.9937 -0.7128  2.1122
 3329SOL     OW21622   0.356   4.419   5.855  0.0203 -0.2724  0.2004
 3329SOL    HW121623   0.365   4.502   5.808 -0.3881  0.1026  0.7739
 3329SOL    HW221624   0.277   4.390   5.809 -0.4358  2.5725 -0.8301
 3330SOL     OW21625   0.108   0.328  16.175 -0.0380  0.7808 -0.3531
 3330SOL    HW121626   0.024   0.331  16.222 -0.1485 -1.3366 -0.3876
 3330SOL    HW221627   0.175   0.304  16.238  0.9422  0.5131 -1.5038
 3331SOL     OW21628   3.508   0.446   6.860 -0.4137  0.3390 -0.0841
 3331SOL    HW121629   3.578   0.389   6.892  0.2374 -0.1701 -2.3745
 3331SOL    HW221630   3.500   0.508   6.932 -1.8319  0.0744 -0.0056
 3332SOL     OW21631   1.018   1.966  12.793  0.5696  0.0112  0.3299
 3332SOL    HW121632   0.957   1.981  12.721  0.6178 -2.2473 -0.1875
 3332SOL    HW221633   1.098   2.014  12.769  0.0349  1.1515  0.8466
 3333SOL     OW21634   0.556   3.142   2.230 -0.1737  0.0353  0.2955
 3333SOL    HW121635   0.548   3.049   2.212 -1.4433  0.0310  0.8525
 3333SOL    HW221636   0.638   3.161   2.185  0.3897  0.5779  1.5645
 3334SOL     OW21637   0.066   1.297  14.255  0.2817  0.2507 -0.3948
 3334SOL    HW121638   0.014   1.361  14.304 -1.0475  1.0963 -2.8968
 3334SOL    HW221639   0.046   1.322  14.165  2.0050 -1.9286 -1.3826
 3335SOL     OW21640   2.890   2.536   6.552 -0.0763 -1.0440 -0.0697
 3335SOL    HW121641   2.833   2.525   6.476 -0.0024 -1.4230 -0.0707
 3335SOL    HW221642   2.836   2.511   6.627 -0.6547  1.6317  0.4109
 3336SOL     OW21643   1.216   0.688  11.479  0.1218 -0.4455  0.2884
 3336SOL    HW121644   1.302   0.729  11.471 -1.2591  2.6462  1.1614
 3336SOL    HW221645   1.180   0.722  11.397 -0.2751  1.3491  1.1951
 3337SOL     OW21646   3.408   4.679   2.469 -0.0488  0.1638 -0.3060
 3337SOL    HW121647   3.495   4.679   2.507 -0.6459  0.6189  1.0642
 3337SOL    HW221648   3.412   0.031   2.444  0.6600  0.4160  0.7837
 3338SOL     OW21649   0.919   1.871   1.200  0.3166 -0.1496  0.5868
 3338SOL    HW121650   0.871   1.805   1.250 -2.2895  0.6249 -0.9018
 3338SOL    HW221651   1.005   1.855   1.239  0.8982 -1.1920 -1.1502
 3339SOL     OW21652   4.270   3.041  13.400 -0.1897  0.2625  0.0489
 3339SOL    HW121653   4.316   3.124  13.384  1.1984 -0.6639 -0.7974
 3339SOL    HW221654   4.309   2.980  13.338 -0.0617  0.3011  0.0911
 3340SOL     OW21655   4.258   4.000   1.995 -0.5127 -0.2486 -0.4632
 3340SOL    HW121656   4.329   4.055   1.962  0.4991 -1.1189  0.2722
 3340SOL    HW221657   4.301   3.926   2.037 -1.2759  0.5525  1.6813
 3341SOL     OW21658   0.683   0.340   4.357 -0.3107  0.5224 -0.3256
 3341SOL    HW121659   0.690   0.376   4.268 -2.8076 -0.4504 -0.9186
 3341SOL    HW221660   0.734   0.260   4.349 -1.9519 -0.5810  0.2704
 3342SOL     OW21661   0.943   3.035   3.462  0.4737  0.3814  0.0115
 3342SOL    HW121662   0.997   3.057   3.538 -0.0769 -1.6351  1.0016
 3342SOL    HW221663   0.903   3.116   3.430  1.4829  0.4673 -1.0192
 3343SOL     OW21664   2.490   3.086   1.890 -0.5636 -0.6974  0.1818
 3343SOL    HW121665   2.562   3.025   1.879  1.0386  1.2514 -0.1673
 3343SOL    HW221666   2.470   3.112   1.800  0.2514  2.2289  0.8529
 3344SOL     OW21667   4.584   0.931   5.737  0.0175  0.1687  0.1763
 3344SOL    HW121668   4.600   0.995   5.806  3.5359 -0.0833 -0.4068
 3344SOL    HW221669   4.608   0.985   5.662 -2.4068 -1.9416 -2.1105
 3345SOL     OW21670   0.204   3.470   9.903  0.1832  0.1166 -0.1785
 3345SOL    HW121671   0.166   3.396   9.952  1.3519 -1.7639 -2.1388
 3345SOL    HW221672   0.297   3.457   9.921 -0.4018 -0.9947  2.0656
 3346SOL     OW21673   2.473   0.738   0.367  0.3363 -0.0267  0.4936
 3346SOL    HW121674   2.497   0.719   0.276 -0.0028 -0.2235  0.4414
 3346SOL    HW221675   2.473   0.833   0.364  0.7544 -0.0717 -0.9011
 3347SOL     OW21676   2.101   2.674   1.731 -0.4590  0.4806 -0.0976
 3347SOL    HW121677   2.056   2.686   1.648 -0.8162  0.9276  0.1598
 3347SOL    HW221678   2.029   2.691   1.792 -1.2483 -0.5058 -0.7760
 3348SOL     OW21679   2.210   2.323   4.251  0.0104 -0.0352 -0.0697
 3348SOL    HW121680   2.295   2.292   4.282 -0.1324  0.4030  0.7651
 3348SOL    HW221681   2.195   2.258   4.183 -1.4259  0.8021 -0.5523
 3349SOL     OW21682   1.944   4.120   7.428  0.1494 -0.4121 -0.0949
 3349SOL    HW121683   1.969   4.197   7.478 -0.4599  0.7658 -1.6190
 3349SOL    HW221684   1.954   4.053   7.496  0.6939 -0.4271 -0.1949
 3350SOL     OW21685   0.186   2.070  13.052  0.3166  0.0558 -0.1106
 3350SOL    HW121686   0.220   2.154  13.083 -1.7404  0.5929  0.6884
 3350SOL    HW221687   0.203   2.013  13.127 -0.0630  0.8013  0.5429
 3351SOL     OW21688   2.061   3.813  17.115  0.0348  0.4053  0.0480
 3351SOL    HW121689   1.967   3.825  17.126 -0.1930 -0.4971 -0.8895
 3351SOL    HW221690   2.075   3.753  17.188 -0.8789 -0.8173 -0.7932
 3352SOL     OW21691   2.949   0.337   2.298  0.2307 -0.6076  0.3844
 3352SOL    HW121692   3.019   0.274   2.309  0.8918  0.2908  1.3304
 3352SOL    HW221693   2.908   0.343   2.384 -0.8556  0.1342 -0.1732
 3353SOL     OW21694   2.901   3.369   5.380 -0.7589 -0.2848 -0.7127
 3353SOL    HW121695   2.880   3.281   5.349 -1.8591 -0.7216  1.3216
 3353SOL    HW221696   2.882   3.357   5.473  2.1058 -0.7541 -0.2043
 3354SOL     OW21697   0.338   2.808   3.474 -0.1656  0.1530 -0.2885
 3354SOL    HW121698   0.301   2.727   3.510  0.9314 -0.3139 -0.2076
 3354SOL    HW221699   0.290   2.871   3.528 -1.7940 -0.8274 -0.5891
 3355SOL     OW21700   0.350   0.892   9.261  0.7987  0.1035 -0.0976
 3355SOL    HW121701   0.271   0.916   9.212  0.5777 -1.4606 -0.5153
 3355SOL    HW221702   0.410   0.872   9.189  0.2617 -1.1154 -0.2079
 3356SOL     OW21703   4.728   3.329   7.017 -0.5801 -0.2630 -0.2998
 3356SOL    HW121704   0.024   3.269   6.953 -0.9365 -1.9502  1.0916
 3356SOL    HW221705   4.741   3.416   6.979  0.9290 -1.4329 -2.4372
 3357SOL     OW21706   0.233   2.116   3.091 -0.5141 -0.0694 -0.0797
 3357SOL    HW121707   0.241   2.211   3.098 -2.0343  0.0083  0.6695
 3357SOL    HW221708   0.228   2.123   2.996 -0.2287  0.7057 -0.0380
 3358SOL     OW21709   3.250   3.891   9.327  0.6215  0.5031 -0.2978
 3358SOL    HW121710   3.322   3.832   9.309  1.5293  1.4894  0.1172
 3358SOL    HW221711   3.278   3.978   9.299 -0.8405  1.1945  0.3828
 3359SOL     OW21712   2.565   3.484  13.887  0.1033  0.4381  0.3139
 3359SOL    HW121713   2.595   3.493  13.977  0.3791  1.8231  0.0895
 3359SOL    HW221714   2.649   3.459  13.849 -0.8117  0.8445 -2.0090
 3360SOL     OW21715   2.809   1.135   4.291  0.0246  0.1924 -0.8682
 3360SOL    HW121716   2.828   1.222   4.328  0.5375 -0.1583 -0.3205
 3360SOL    HW221717   2.777   1.165   4.206 -1.1331 -1.3237 -0.9476
 3361SOL     OW21718   4.028   1.148   1.000 -0.1462  0.2646  0.2154
 3361SOL    HW121719   4.017   1.129   1.093 -0.2438  0.0241  0.1544
 3361SOL    HW221720   3.985   1.067   0.971  2.2541 -1.3432  1.1260
 3362SOL     OW21721   1.233   1.793   0.714  1.3255  0.1823  0.3065
 3362SOL    HW121722   1.216   1.864   0.776  0.0359 -0.2864  0.4865
 3362SOL    HW221723   1.160   1.732   0.720  2.1036 -0.6711  1.1438
 3363SOL     OW21724   1.541   0.803   5.171  0.7041  0.2121 -0.3147
 3363SOL    HW121725   1.552   0.821   5.077 -0.6083 -0.1816 -0.5409
 3363SOL    HW221726   1.630   0.782   5.200  0.9520  1.5104 -0.1184
 3364SOL     OW21727   1.453   0.984  11.315 -0.2744 -0.1310 -0.2420
 3364SOL    HW121728   1.496   0.906  11.281  2.9034  1.8224 -0.7107
 3364SOL    HW221729   1.366   0.970  11.278 -0.7962 -2.1660  1.7521
 3365SOL     OW21730   0.643   1.859   4.132  0.3347  0.3707  0.2083
 3365SOL    HW121731   0.713   1.877   4.069 -0.9509 -1.8380 -1.8537
 3365SOL    HW221732   0.568   1.836   4.078 -0.2544  1.2746  0.6411
 3366SOL     OW21733   0.169   2.129   3.369  0.5267 -0.0517 -0.2751
 3366SOL    HW121734   0.232   2.120   3.298 -0.0073 -1.6091 -0.5417
 3366SOL    HW221735   0.089   2.107   3.321 -0.7003  0.2132  1.6247
 3367SOL     OW21736   2.088   0.987   2.796 -0.3920 -0.0893  0.1347
 3367SOL    HW121737   2.072   0.893   2.804 -2.3348  0.2104 -0.1070
 3367SOL    HW221738   2.155   0.987   2.727  0.1903 -1.5849  0.6956
 3368SOL     OW21739   0.313   4.508  15.338 -0.0507 -0.1478  0.1930
 3368SOL    HW121740   0.369   4.489  15.414  0.8770  0.5641 -0.3064
 3368SOL    HW221741   0.268   4.586  15.370  3.4349  0.5726  3.4337
 3369SOL     OW21742   0.452   3.327   4.514  0.4346  0.7001 -0.6693
 3369SOL    HW121743   0.500   3.406   4.539  0.1474  0.1117  1.7576
 3369SOL    HW221744   0.437   3.355   4.424 -2.6564  2.6569  0.4366
 3370SOL     OW21745   2.350   3.018   8.656  0.1920  0.1897  0.1205
 3370SOL    HW121746   2.313   3.004   8.569 -1.1106 -1.1145  0.8905
 3370SOL    HW221747   2.273   3.014   8.712 -0.7172 -0.3921 -1.1639
 3371SOL     OW21748   2.795   4.510   6.110 -0.2338  0.0237  0.1269
 3371SOL    HW121749   2.849   4.588   6.100  1.8738 -1.3445  0.6526
 3371SOL    HW221750   2.830   4.481   6.194 -1.5679  0.6342  0.8932
 3372SOL     OW21751   3.271   0.309  13.394 -0.2846 -0.1324 -0.0144
 3372SOL    HW121752   3.337   0.306  13.464  1.3038 -0.7585 -1.5403
 3372SOL    HW221753   3.285   0.398  13.360 -0.7620  0.1835  0.6152
 3373SOL     OW21754   0.796   4.033   4.215  0.5271 -0.5216 -0.0672
 3373SOL    HW121755   0.781   3.975   4.289  1.6676 -2.5075 -1.3993
 3373SOL    HW221756   0.882   4.006   4.182 -0.0944 -3.1404  0.4873
 3374SOL     OW21757   4.101   0.151   5.379  0.3274 -0.6227 -0.1140
 3374SOL    HW121758   4.007   0.158   5.394  0.9592  3.2058  2.3320
 3374SOL    HW221759   4.103   0.070   5.329  0.1205 -1.0637  0.5915
 3375SOL     OW21760   1.389   2.314   8.642  0.0911 -0.3284  0.5543
 3375SOL    HW121761   1.375   2.356   8.557  1.2082 -0.9294  0.0720
 3375SOL    HW221762   1.483   2.297   8.637  0.0627 -0.5250  0.6927
 3376SOL     OW21763   3.462   0.330   8.130  0.0944  0.7171 -0.2089
 3376SOL    HW121764   3.398   0.298   8.194  0.7755  1.6388  0.9363
 3376SOL    HW221765   3.458   0.425   8.140 -0.5431  0.7665 -0.9100
 3377SOL     OW21766   1.140   3.760  11.633  0.1240 -0.6731  0.1777
 3377SOL    HW121767   1.125   3.850  11.661 -0.1368 -0.6218 -0.1278
 3377SOL    HW221768   1.236   3.766  11.627  0.0696  1.4657  1.5541
 3378SOL     OW21769   0.459   0.200   8.299  0.3011  0.0550  0.2564
 3378SOL    HW121770   0.500   0.216   8.383 -0.5402 -0.8061  0.8294
 3378SOL    HW221771   0.372   0.236   8.320  0.0385  1.1631 -2.7132
 3379SOL     OW21772   1.970   0.206   3.905  0.4987 -0.1289  0.0665
 3379SOL    HW121773   2.052   0.233   3.945 -1.3014  0.4832  3.3551
 3379SOL    HW221774   1.970   0.110   3.899 -0.7699 -0.1557  0.4619
 3380SOL     OW21775   0.034   1.481   4.893 -0.2049 -0.2084  0.1062
 3380SOL    HW121776   4.687   1.479   4.931  0.6190 -0.3625  1.9824
 3380SOL    HW221777   0.054   1.565   4.853 -1.2029  0.4806  1.0543
 3381SOL     OW21778   0.232   1.224   4.178  0.1015 -0.3245  0.2024
 3381SOL    HW121779   0.327   1.231   4.189  0.1022  1.2029 -0.9290
 3381SOL    HW221780   0.202   1.235   4.269  0.9130 -0.8800  0.5397
 3382SOL     OW21781   4.682   0.833   4.748  0.0681 -0.6585 -0.2617
 3382SOL    HW121782   4.661   0.822   4.840 -0.5873  1.1772 -0.1927
 3382SOL    HW221783   0.004   0.763   4.734  1.7651  0.9374 -0.6254
 3383SOL     OW21784   0.280   4.122   5.547  0.0825  0.2867 -0.1955
 3383SOL    HW121785   0.363   4.099   5.505  0.0751 -1.2646  0.6380
 3383SOL    HW221786   0.315   4.139   5.634  1.0080 -0.7992 -0.3518
 3384SOL     OW21787   1.962   1.456   3.920  0.1238  0.6590  0.4059
 3384SOL    HW121788   2.033   1.445   3.984  0.5968  3.8622  0.4172
 3384SOL    HW221789   2.004   1.512   3.855 -1.2234 -0.2290 -1.2314
 3385SOL     OW21790   3.791   0.793   9.862  0.1112  0.1068  0.0043
 3385SOL    HW121791   3.874   0.838   9.848  0.8122 -0.7238  1.4000
 3385SOL    HW221792   3.784   0.742   9.781 -0.1422 -0.3583  0.3139
 3386SOL     OW21793   1.618   2.619  17.642  0.3779  0.4015 -0.3066
 3386SOL    HW121794   1.634   2.586  17.554  1.8368 -0.1781  0.1710
 3386SOL    HW221795   1.578   2.545  17.686  2.0936  0.2656  1.0503
 3387SOL     OW21796   4.464   0.420   6.773  0.6593 -0.8735 -0.3553
 3387SOL    HW121797   4.540   0.388   6.822  0.7219  1.2472  0.9155
 3387SOL    HW221798   4.458   0.345   6.714 -0.1317  0.7543 -2.3317
 3388SOL     OW21799   2.912   0.900  12.731 -0.3207 -0.2142 -0.4341
 3388SOL    HW121800   2.826   0.890  12.771 -0.0129  1.3960  0.6420
 3388SOL    HW221801   2.932   0.811  12.702  1.5684 -0.2880  1.0877
 3389SOL     OW21802   2.542   3.714  15.660 -0.4080  0.3064  0.2636
 3389SOL    HW121803   2.603   3.670  15.719 -0.2518  0.6266  0.3399
 3389SOL    HW221804   2.493   3.638  15.626 -1.6689  1.4031 -0.3639
 3390SOL     OW21805   1.723   3.183   6.695 -0.3595 -0.0947 -0.6024
 3390SOL    HW121806   1.639   3.156   6.657 -0.6239 -0.2631  0.1001
 3390SOL    HW221807   1.748   3.109   6.751  1.4292  0.4056 -0.7633
 3391SOL     OW21808   1.376   1.030   8.041  0.2666  0.1059  0.0512
 3391SOL    HW121809   1.396   0.937   8.053 -1.1279 -0.2742 -0.6106
 3391SOL    HW221810   1.395   1.064   8.129  1.3783  0.5408 -0.3537
 3392SOL     OW21811   1.089   2.979   7.780 -0.2377 -0.0715  0.5297
 3392SOL    HW121812   1.140   3.038   7.836 -1.4735  2.4450 -1.0026
 3392SOL    HW221813   1.137   2.897   7.783 -1.2721 -0.7302 -0.9372
 3393SOL     OW21814   0.176   4.714  10.759  0.1696  0.2708  0.7658
 3393SOL    HW121815   0.131   4.716  10.843 -4.8865  1.2600 -1.9645
 3393SOL    HW221816   0.195   0.066  10.741 -0.8761 -0.0975 -2.2495
 3394SOL     OW21817   3.612   2.786  15.627 -0.0995 -0.1187 -0.2094
 3394SOL    HW121818   3.665   2.865  15.642  0.6322  0.0777 -3.9122
 3394SOL    HW221819   3.541   2.798  15.689 -0.1657  1.1281 -0.5262
 3395SOL     OW21820   4.166   2.958   4.827  1.2478 -0.4085 -0.5514
 3395SOL    HW121821   4.132   2.876   4.863  0.2193  0.9324  1.4969
 3395SOL    HW221822   4.162   2.941   4.733 -2.8790  0.1501 -0.4805
 3396SOL     OW21823   0.526   3.439  15.944  0.6597  0.3732  0.9766
 3396SOL    HW121824   0.476   3.389  15.880  0.0464  1.2891  0.7340
 3396SOL    HW221825   0.563   3.503  15.883  1.3458  0.7674  1.8007
 3397SOL     OW21826   3.401   2.134  15.140  0.2649 -0.4973 -0.2703
 3397SOL    HW121827   3.426   2.198  15.073  1.3367 -2.1478 -1.4505
 3397SOL    HW221828   3.400   2.051  15.092 -1.5366 -0.0479 -1.0098
 3398SOL     OW21829   4.134   2.028   6.603 -0.2742 -0.3323  0.1728
 3398SOL    HW121830   4.192   1.957   6.632  1.3588  0.9973  0.1485
 3398SOL    HW221831   4.073   2.040   6.676  0.7519  0.9234  0.8286
 3399SOL     OW21832   0.014   0.418   9.807  0.1417 -0.3091 -0.3916
 3399SOL    HW121833   4.680   0.475   9.822  0.4178  0.1649 -0.8188
 3399SOL    HW221834   4.709   0.347   9.762  0.3941  0.1337 -1.3528
 3400SOL     OW21835   0.184   1.746   4.765 -0.1704  0.0653  0.6804
 3400SOL    HW121836   0.195   1.806   4.838 -1.1833  0.0044  0.8832
 3400SOL    HW221837   0.114   1.784   4.711  1.9532  0.5139 -1.7197
 3401SOL     OW21838   3.207   0.515   3.459 -0.8469 -0.0900 -0.4682
 3401SOL    HW121839   3.287   0.471   3.430 -0.3230  1.5048 -1.4507
 3401SOL    HW221840   3.140   0.450   3.441 -2.0287  1.4656 -1.6096
 3402SOL     OW21841   1.563   2.243  10.296  0.2738  0.2944  0.3281
 3402SOL    HW121842   1.631   2.177  10.281 -0.2691 -0.0527 -0.5905
 3402SOL    HW221843   1.615   2.323  10.300  1.3083 -0.4023  0.8976
 3403SOL     OW21844   1.177   0.032  14.587 -0.3260 -0.5141 -0.0437
 3403SOL    HW121845   1.179   0.092  14.661 -1.2199 -1.9692  1.1703
 3403SOL    HW221846   1.223   4.697  14.625 -1.9526 -1.9293 -0.8942
 3404SOL     OW21847   4.012   1.422  10.438  0.3998  0.2521 -0.0357
 3404SOL    HW121848   3.924   1.385  10.428  1.6717 -2.8042  0.1422
 3404SOL    HW221849   4.063   1.374  10.373  1.3180  1.4492 -0.2108
 3405SOL     OW21850   1.507   1.141   7.828 -0.6608 -0.6519  0.1554
 3405SOL    HW121851   1.507   1.077   7.757  0.0873 -1.8388  1.2325
 3405SOL    HW221852   1.461   1.099   7.900 -1.3637  1.5584  0.9890
 3406SOL     OW21853   1.989   4.590   9.089 -0.0647  0.0016  0.3465
 3406SOL    HW121854   1.956   4.679   9.097 -1.1542 -0.3170 -0.4132
 3406SOL    HW221855   1.995   4.581   8.994  0.0617  0.8826  0.2736
 3407SOL     OW21856   4.292   2.686   8.025  0.0337 -0.0461  0.1234
 3407SOL    HW121857   4.266   2.607   8.073 -1.6852 -0.3019 -1.2241
 3407SOL    HW221858   4.272   2.668   7.933 -0.4852  0.9965  0.0305
 3408SOL     OW21859   2.660   3.916   6.887  0.0274 -0.5786  0.3990
 3408SOL    HW121860   2.727   3.861   6.927 -1.5097 -3.0992 -0.5156
 3408SOL    HW221861   2.649   3.988   6.949 -0.6385  0.2597 -0.6968
 3409SOL     OW21862   1.640   0.757  15.743  0.3412 -0.4945 -0.3014
 3409SOL    HW121863   1.568   0.759  15.806  1.9740  1.0646  1.5227
 3409SOL    HW221864   1.617   0.689  15.679 -1.8294  1.0345 -1.1632
 3410SOL     OW21865   3.329   0.814   0.697  0.0619 -0.6862 -0.1490
 3410SOL    HW121866   3.288   0.741   0.650  0.7872 -1.0873 -0.1782
 3410SOL    HW221867   3.391   0.837   0.628  0.6856  1.4861  1.1366
 3411SOL     OW21868   0.329   3.795  12.471  0.1099 -0.3839  0.4384
 3411SOL    HW121869   0.420   3.806  12.498  0.1736 -1.8085  0.8393
 3411SOL    HW221870   0.294   3.793  12.560  0.6669 -4.8481  0.5925
 3412SOL     OW21871   3.161   0.491   2.971  0.3895 -0.5740 -0.3933
 3412SOL    HW121872   3.122   0.551   2.908 -0.3393  1.4784  2.0392
 3412SOL    HW221873   3.146   0.408   2.925 -0.3052  0.3879 -1.8666
 3413SOL     OW21874   1.377   2.656   7.418 -0.1906 -0.1293  0.2245
 3413SOL    HW121875   1.397   2.737   7.463 -2.4580 -0.2742  1.5140
 3413SOL    HW221876   1.400   2.594   7.487  1.3577  0.3425  0.1193
 3414SOL     OW21877   4.525   1.784   3.742 -0.2202 -0.3794 -0.0659
 3414SOL    HW121878   4.594   1.723   3.767  0.3735  0.7666  1.0976
 3414SOL    HW221879   4.539   1.852   3.808 -0.0376 -0.2081 -0.2851
 3415SOL     OW21880   3.417   3.935   1.814 -0.3491 -0.6309  0.2850
 3415SOL    HW121881   3.364   3.875   1.866 -2.5765  1.5538  0.5439
 3415SOL    HW221882   3.354   4.007   1.812 -0.6023 -0.9102 -2.6441
 3416SOL     OW21883   1.604   3.610   7.260  0.0887  0.2043  0.3701
 3416SOL    HW121884   1.566   3.671   7.323  1.8113  2.4427 -0.7486
 3416SOL    HW221885   1.559   3.530   7.287 -1.8223  0.6198 -1.5568
 3417SOL     OW21886   1.331   3.805   4.537  0.2243 -0.3886 -0.7154
 3417SOL    HW121887   1.304   3.798   4.628 -1.1625 -0.2284 -1.1121
 3417SOL    HW221888   1.326   3.718   4.497  1.1589  0.5136 -2.7828
 3418SOL     OW21889   3.512   3.935   5.089  0.3471 -0.4284  0.7440
 3418SOL    HW121890   3.422   3.920   5.119 -0.5666  0.8617 -1.2848
 3418SOL    HW221891   3.517   3.873   5.016 -0.1030 -0.1831  0.5060
 3419SOL     OW21892   0.515   2.868   2.133 -0.1399 -0.1058  0.0607
 3419SOL    HW121893   0.434   2.893   2.088 -0.0888  0.1010  0.0839
 3419SOL    HW221894   0.562   2.845   2.053  2.1412  3.9381  0.2155
 3420SOL     OW21895   4.455   1.976   2.815  0.0968  0.2825  0.1427
 3420SOL    HW121896   4.498   1.914   2.757 -0.6361 -0.0410 -0.0605
 3420SOL    HW221897   4.491   2.061   2.789  1.3175  0.1804  1.5032
 3421SOL     OW21898   0.782   2.167  16.039  0.1599 -0.1079  0.4941
 3421SOL    HW121899   0.727   2.246  16.043 -0.8031 -0.6728 -1.5615
 3421SOL    HW221900   0.837   2.195  15.965 -2.7318  1.2627 -1.1329
 3422SOL     OW21901   2.941   2.935   0.696  0.3872  0.0626 -0.0566
 3422SOL    HW121902   2.869   2.951   0.635 -0.5529  0.5297  1.1872
 3422SOL    HW221903   3.018   2.911   0.644  2.3304  0.5068  2.6073
 3423SOL     OW21904   0.620   0.646   8.844  0.3059 -0.2724 -0.0944
 3423SOL    HW121905   0.704   0.630   8.802 -0.3984 -1.4602 -1.0877
 3423SOL    HW221906   0.563   0.574   8.815  0.3034 -1.4689  2.9605
 3424SOL     OW21907   0.156   2.278   7.574  0.2344  0.1844 -0.8573
 3424SOL    HW121908   0.129   2.313   7.658 -1.3958 -2.4964 -0.2788
 3424SOL    HW221909   0.073   2.257   7.532 -0.8535 -1.7107  2.2674
 3425SOL     OW21910   0.299   0.175   8.718  0.1096 -0.4418 -0.5761
 3425SOL    HW121911   0.346   0.098   8.752 -0.0278 -1.4740 -2.7554
 3425SOL    HW221912   0.303   0.230   8.796 -0.0168 -0.2100 -0.7337
 3426SOL     OW21913   2.672   0.403   8.877  0.3075 -0.3206  0.4769
 3426SOL    HW121914   2.759   0.436   8.856  0.0820  1.4197  2.2375
 3426SOL    HW221915   2.692   0.326   8.930  1.1614 -0.1086  0.4602
 3427SOL     OW21916   3.900   3.063  10.009  0.3051 -0.1599  0.9509
 3427SOL    HW121917   3.827   3.070  10.070  1.4938 -2.0381  2.6187
 3427SOL    HW221918   3.908   3.150   9.969  0.5602  0.4144  2.2561
 3428SOL     OW21919   3.369   4.709  11.742 -0.0303  0.6678 -0.2434
 3428SOL    HW121920   3.328   0.050  11.714 -1.0696 -0.9207 -3.3966
 3428SOL    HW221921   3.392   4.667  11.660 -0.5644 -0.0677 -0.0123
 3429SOL     OW21922   2.889   2.152   9.148 -0.3502  0.4079 -0.4993
 3429SOL    HW121923   2.853   2.176   9.234 -1.9256  1.2937 -1.4196
 3429SOL    HW221924   2.945   2.082   9.183 -0.5204  0.4787 -0.0748
 3430SOL     OW21925   2.159   1.338   5.911  0.3394  0.0242 -0.2307
 3430SOL    HW121926   2.169   1.386   5.993  2.1699  0.2069 -0.5459
 3430SOL    HW221927   2.240   1.293   5.886  1.1409  0.1864  2.1102
 3431SOL     OW21928   3.484   3.936   3.882  0.1535  0.7596 -0.1496
 3431SOL    HW121929   3.566   3.899   3.850 -0.0526 -0.2789  0.5026
 3431SOL    HW221930   3.427   3.899   3.815  2.8783 -1.9615 -0.9297
 3432SOL     OW21931   2.827   3.950  15.818  0.3051  0.1662 -0.0203
 3432SOL    HW121932   2.818   3.996  15.902  0.4230 -2.7061  1.5739
 3432SOL    HW221933   2.901   4.001  15.785 -0.4910 -0.5707 -2.9221
 3433SOL     OW21934   2.958   1.038   1.983 -0.0125  0.0881  0.3025
 3433SOL    HW121935   2.883   1.072   1.935 -0.3864 -3.6850 -1.7902
 3433SOL    HW221936   2.919   0.987   2.054  0.4758 -0.2561  0.3277
 3434SOL     OW21937   1.372   1.008   2.261  0.8072  0.2153  0.4009
 3434SOL    HW121938   1.458   1.008   2.301  0.8738  1.5941  0.2388
 3434SOL    HW221939   1.393   1.058   2.182 -0.3932 -0.0397 -0.0876
 3435SOL     OW21940   3.485   1.729   3.492  0.1361  0.1391  0.6909
 3435SOL    HW121941   3.442   1.643   3.501 -0.5962  0.5376  1.0008
 3435SOL    HW221942   3.509   1.732   3.399 -3.5491  1.6453 -0.2189
 3436SOL     OW21943   2.074   1.959  13.891 -0.2506  0.0709 -0.2474
 3436SOL    HW121944   2.014   2.012  13.839 -1.4120 -1.6278 -0.6334
 3436SOL    HW221945   2.148   2.018  13.904 -0.7617  0.6081  0.2408
 3437SOL     OW21946   4.276   1.959   9.455 -0.4886  0.3050  0.0279
 3437SOL    HW121947   4.369   1.942   9.439 -0.5581 -0.0232 -0.0198
 3437SOL    HW221948   4.255   1.918   9.539 -2.0374 -1.4764 -1.2260
 3438SOL     OW21949   3.375   1.106   9.604 -0.0322  0.0140  0.7573
 3438SOL    HW121950   3.292   1.128   9.563 -1.2725  0.9735  3.8223
 3438SOL    HW221951   3.422   1.059   9.535  2.0752  1.6312  1.0824
 3439SOL     OW21952   1.914   3.755   8.242  0.0565 -0.0461  0.0492
 3439SOL    HW121953   1.864   3.698   8.300 -0.4150  0.6168  0.2906
 3439SOL    HW221954   1.835   3.780   8.193 -0.6342 -0.6855  0.8450
 3440SOL     OW21955   1.422   2.804  17.204  0.8018 -0.0319  0.2152
 3440SOL    HW121956   1.405   2.884  17.154 -2.5030 -0.6446  0.3387
 3440SOL    HW221957   1.507   2.784  17.164  0.6046  2.4435 -1.4653
 3441SOL     OW21958   0.979   2.641   8.778 -0.1041  0.2837 -0.0606
 3441SOL    HW121959   1.043   2.570   8.777  0.6754  0.9573  1.0217
 3441SOL    HW221960   0.901   2.589   8.759  0.6417 -1.3968  1.4066
 3442SOL     OW21961   0.117   2.889   7.893 -0.5877 -0.3303 -0.6460
 3442SOL    HW121962   0.165   2.933   7.964 -2.0995  1.0465 -0.4828
 3442SOL    HW221963   0.060   2.956   7.856  0.4838  1.1938  0.4433
 3443SOL     OW21964   1.500   2.230   3.272  0.2339  0.3505 -0.5059
 3443SOL    HW121965   1.415   2.257   3.307  0.3701  1.9620 -1.4009
 3443SOL    HW221966   1.557   2.256   3.345 -1.1681 -5.2825  2.5623
 3444SOL     OW21967   3.512   1.281   5.895 -0.3879  0.3661 -0.4513
 3444SOL    HW121968   3.464   1.357   5.864 -1.5615 -0.2633 -0.1923
 3444SOL    HW221969   3.553   1.319   5.972 -0.7106 -0.7999  0.3041
 3445SOL     OW21970   0.796   1.271  13.533 -0.0593 -0.1759  0.3633
 3445SOL    HW121971   0.728   1.306  13.475  0.0229  1.8321  1.4996
 3445SOL    HW221972   0.753   1.186  13.541  0.0263 -0.3946 -1.6881
 3446SOL     OW21973   3.831   2.660   9.670  0.1933  0.2485  0.4564
 3446SOL    HW121974   3.855   2.733   9.727  0.2833  0.5985 -0.0335
 3446SOL    HW221975   3.794   2.699   9.591  2.4807 -0.6947 -1.0993
 3447SOL     OW21976   2.346   4.020   4.474 -0.0607  0.3445 -0.2574
 3447SOL    HW121977   2.388   3.952   4.420 -2.3002  0.2837 -1.9157
 3447SOL    HW221978   2.279   3.975   4.524  0.5304 -0.0834  0.1527
 3448SOL     OW21979   3.192   2.409   7.867  0.1085  0.5215  0.6032
 3448SOL    HW121980   3.228   2.475   7.807  1.2978 -0.8426 -0.1862
 3448SOL    HW221981   3.198   2.449   7.954  1.4391  1.0287  0.2878
 3449SOL     OW21982   0.317   3.918   6.841  0.0481 -0.4407 -0.2339
 3449SOL    HW121983   0.301   3.841   6.895  1.9988 -0.1912  0.6934
 3449SOL    HW221984   0.407   3.908   6.810  0.7601  2.2467  0.9554
 3450SOL     OW21985   3.640   0.920   2.161 -0.0136  0.2667 -0.2660
 3450SOL    HW121986   3.584   0.962   2.226  0.6742  0.1896  0.3773
 3450SOL    HW221987   3.600   0.839   2.128  3.1164 -1.6783  0.7407
 3451SOL     OW21988   1.204   2.608   5.290  0.1236  0.8778  0.8326
 3451SOL    HW121989   1.212   2.657   5.372  2.2919  0.3490  0.9307
 3451SOL    HW221990   1.168   2.682   5.242  1.5924  0.5568 -0.7503
 3452SOL     OW21991   1.646   1.280  15.185 -0.2547  0.0592 -0.9603
 3452SOL    HW121992   1.670   1.230  15.263  1.1677 -0.3077 -1.6342
 3452SOL    HW221993   1.730   1.307  15.148 -1.2614  2.0905 -1.7869
 3453SOL     OW21994   2.989   3.395   6.663  0.0030 -0.0699 -0.1690
 3453SOL    HW121995   2.902   3.367   6.691 -0.0759  0.2803 -0.0672
 3453SOL    HW221996   3.042   3.315   6.657  0.4240  0.2680 -1.1077
 3454SOL     OW21997   2.201   3.798   8.418 -0.5492  0.1768 -0.1328
 3454SOL    HW121998   2.254   3.826   8.493 -0.8866 -0.4867  0.3549
 3454SOL    HW221999   2.132   3.747   8.462 -0.1157 -0.2218  0.0770
 3455SOL     OW22000   1.940   0.679   6.928  0.4532  0.1949  0.4290
 3455SOL    HW122001   1.987   0.761   6.946  0.4734 -0.0306  1.3988
 3455SOL    HW222002   1.985   0.629   6.996  1.1965 -0.3652 -0.4764
 3456SOL     OW22003   1.734   4.038  12.839  0.3511  0.3424  0.1179
 3456SOL    HW122004   1.765   4.076  12.757 -0.4141  1.0244  0.1327
 3456SOL    HW222005   1.816   4.037  12.888  0.2669 -0.3324  0.2394
 3457SOL     OW22006   1.046   2.003  13.060  0.1883 -0.6459  0.3700
 3457SOL    HW122007   1.044   1.992  12.965  0.4829 -1.7509  0.4888
 3457SOL    HW222008   1.116   1.941  13.080  0.1540 -0.3398  1.4282
 3458SOL     OW22009   1.064   1.912  15.090 -0.2568 -0.0516  0.6217
 3458SOL    HW122010   1.017   1.830  15.105 -1.0111 -0.0510 -1.6909
 3458SOL    HW222011   1.112   1.906  15.007 -1.3097 -1.3747  0.1116
 3459SOL     OW22012   3.936   2.319   9.679 -0.6920 -0.3768  0.3614
 3459SOL    HW122013   3.863   2.301   9.738 -2.1594 -1.3515 -1.7648
 3459SOL    HW222014   3.940   2.240   9.625  2.0560  0.2417 -0.3627
 3460SOL     OW22015   4.231   0.953  10.085 -0.1838  0.4612 -0.3655
 3460SOL    HW122016   4.294   0.955  10.156  0.8038  1.5317 -1.2665
 3460SOL    HW222017   4.247   0.882  10.022 -0.5922 -0.8527  1.0141
 3461SOL     OW22018   3.739   3.238   2.373  0.0225  0.3379 -0.3126
 3461SOL    HW122019   3.656   3.256   2.327 -0.3907 -2.7410 -0.7556
 3461SOL    HW222020   3.765   3.328   2.394  0.1202  0.6520 -1.7674
 3462SOL     OW22021   2.422   2.733   9.620 -0.2272 -0.5474 -0.9521
 3462SOL    HW122022   2.354   2.722   9.553 -0.5875  1.4377 -0.9395
 3462SOL    HW222023   2.474   2.654   9.630 -3.6820 -2.9370 -1.8460
 3463SOL     OW22024   3.570   3.156  12.209  0.0243 -0.8204  0.3223
 3463SOL    HW122025   3.479   3.177  12.186  0.1538 -0.6992 -0.0616
 3463SOL    HW222026   3.628   3.203  12.151  0.5793 -0.9835  0.7437
 3464SOL     OW22027   1.323   2.440   5.564 -0.1636  0.5502  0.2914
 3464SOL    HW122028   1.375   2.520   5.562  1.8963 -0.8240 -0.4128
 3464SOL    HW222029   1.387   2.372   5.583  0.6558  0.7407 -1.7695
 3465SOL     OW22030   2.920   0.218   3.049  0.5057 -0.5741  0.0977
 3465SOL    HW122031   2.987   0.174   3.101 -0.7119 -1.3532  1.0242
 3465SOL    HW222032   2.959   0.202   2.963 -0.0014 -1.0191 -0.0475
 3466SOL     OW22033   2.573   3.035   4.878  0.2650 -0.2971 -0.2376
 3466SOL    HW122034   2.553   3.052   4.785  2.3162  3.1058 -0.0966
 3466SOL    HW222035   2.494   2.986   4.899 -0.2559  0.1461 -1.1422
 3467SOL     OW22036   2.396   0.626   9.808 -0.1142 -0.1426 -0.7287
 3467SOL    HW122037   2.399   0.573   9.728 -2.6376  0.0124 -0.9296
 3467SOL    HW222038   2.307   0.613   9.839  0.6615 -2.9082  0.4211
 3468SOL     OW22039   4.338   0.008  11.553 -0.2088  0.2482 -0.4093
 3468SOL    HW122040   4.334   0.042  11.642 -2.1973 -1.5495  0.1769
 3468SOL    HW222041   4.248   0.026  11.525 -1.3090  0.3193  3.2088
 3469SOL     OW22042   3.049   1.289   6.627 -0.4209  0.6372  0.2114
 3469SOL    HW122043   2.978   1.351   6.645 -0.2884  0.6084  0.8174
 3469SOL    HW222044   3.015   1.200   6.621  1.1574 -0.0836  2.0434
 3470SOL     OW22045   3.900   0.453   6.361 -0.1894 -0.1858 -0.0096
 3470SOL    HW122046   3.827   0.515   6.362  0.3508  0.4240  2.2049
 3470SOL    HW222047   3.855   0.370   6.344  0.4594  0.1211 -3.2032
 3471SOL     OW22048   0.060   0.618   8.477  0.3259  0.1228 -0.0799
 3471SOL    HW122049   0.064   0.555   8.405 -2.7058  1.8501 -1.7582
 3471SOL    HW222050   0.072   0.699   8.428 -0.5911  0.6774  0.6040
 3472SOL     OW22051   3.496   0.048  17.475  0.3113  0.0530  1.0710
 3472SOL    HW122052   3.576   0.012  17.511  0.4450 -1.8577 -1.1299
 3472SOL    HW222053   3.504   0.139  17.503 -0.7381  1.7358 -4.1206
 3473SOL     OW22054   4.508   2.283   7.498  0.1473 -0.5629  0.4114
 3473SOL    HW122055   4.485   2.191   7.514 -1.3901 -0.1859  0.3666
 3473SOL    HW222056   4.466   2.324   7.573  0.9380  0.4248  0.3172
 3474SOL     OW22057   2.435   0.498  15.669 -0.3687  0.1924  0.2102
 3474SOL    HW122058   2.433   0.573  15.728 -1.4194 -0.8688  1.5629
 3474SOL    HW222059   2.529   0.484  15.679  0.1762  0.0385 -4.9779
 3475SOL     OW22060   1.453   1.115  11.857 -0.2630  0.1944 -0.2828
 3475SOL    HW122061   1.533   1.079  11.896  0.4243  0.1970 -1.6856
 3475SOL    HW222062   1.473   1.113  11.764 -0.4997 -1.1993 -0.3158
 3476SOL     OW22063   0.100   4.155   6.125  0.4255 -0.7508  0.1776
 3476SOL    HW122064   0.056   4.080   6.164 -0.3410  0.6883  2.0886
 3476SOL    HW222065   0.043   4.175   6.050  2.9762  0.1841 -1.5049
 3477SOL     OW22066   2.396   0.326   7.160  0.0946  0.5900  0.0700
 3477SOL    HW122067   2.303   0.304   7.173 -0.2219  0.2100 -2.8629
 3477SOL    HW222068   2.436   0.283   7.236  0.9596  0.3824 -0.5114
 3478SOL     OW22069   2.541   0.813   6.665  0.3976  1.1037  0.1266
 3478SOL    HW122070   2.633   0.792   6.648  0.0797 -1.1091  1.1046
 3478SOL    HW222071   2.521   0.899   6.630 -2.1370  0.1742 -0.7480
 3479SOL     OW22072   4.199   1.773   3.211  0.6208  0.4784  0.4002
 3479SOL    HW122073   4.250   1.804   3.137 -1.6565  2.7312 -0.2135
 3479SOL    HW222074   4.115   1.811   3.187  1.0108  1.7212  0.9934
 3480SOL     OW22075   1.489   0.139   6.232  0.2676  0.0825 -0.1402
 3480SOL    HW122076   1.419   0.090   6.190  0.3108  0.9193 -1.1726
 3480SOL    HW222077   1.555   0.136   6.163  0.9139  1.1057  0.4271
 3481SOL     OW22078   0.950   2.242   8.771 -0.1184 -0.0504 -0.0155
 3481SOL    HW122079   1.025   2.301   8.767 -0.0932  0.0182  1.5255
 3481SOL    HW222080   0.910   2.263   8.687 -2.3811  1.7369  1.5066
 3482SOL     OW22081   1.616   2.186   2.764  0.2346 -0.4757  0.1971
 3482SOL    HW122082   1.584   2.180   2.674 -1.4644 -0.1519  0.7814
 3482SOL    HW222083   1.536   2.204   2.813 -0.9785 -0.2656 -1.8813
 3483SOL     OW22084   1.309   1.268  14.109 -0.2610 -0.2570  0.4048
 3483SOL    HW122085   1.263   1.301  14.186  1.2071 -1.3812  1.7476
 3483SOL    HW222086   1.292   1.336  14.044 -2.3039 -2.0979 -1.0276
 3484SOL     OW22087   2.011   2.018   5.988  0.8179  0.1222  0.1917
 3484SOL    HW122088   1.987   1.930   6.017 -1.3939  0.8427  0.5722
 3484SOL    HW222089   1.943   2.076   6.021  0.3881  0.0868 -0.6369
 3485SOL     OW22090   2.126   1.968   7.897  0.2425 -0.2084  0.1501
 3485SOL    HW122091   2.066   2.004   7.962 -0.2278  0.4553 -0.6460
 3485SOL    HW222092   2.063   1.925   7.839  0.4140  1.4609 -1.2846
 3486SOL     OW22093   2.566   0.151   3.393 -0.8088  0.2203  0.3326
 3486SOL    HW122094   2.602   0.106   3.316  1.7993 -0.1719  1.7805
 3486SOL    HW222095   2.644   0.195   3.427 -0.4411 -0.4679  0.3715
 3487SOL     OW22096   3.275   0.080  13.204 -0.4685 -0.1633 -0.2614
 3487SOL    HW122097   3.213   0.024  13.251 -0.5609  0.7895  0.7579
 3487SOL    HW222098   3.288   0.151  13.267 -3.4312  0.9664 -0.9207
 3488SOL     OW22099   4.588   1.751   7.574  0.6657 -0.7183  0.5069
 3488SOL    HW122100   4.668   1.729   7.525  1.2437  0.6574  0.8294
 3488SOL    HW222101   4.533   1.677   7.549  1.0773 -0.7694 -0.2676
 3489SOL     OW22102   1.786   2.323  17.185 -0.2387  0.2133 -0.3858
 3489SOL    HW122103   1.857   2.373  17.143 -0.9369  1.1272 -0.4662
 3489SOL    HW222104   1.718   2.384  17.158 -1.2469 -1.2918 -1.2506
 3490SOL     OW22105   1.992   4.410   8.861 -0.3080 -0.4039 -0.3608
 3490SOL    HW122106   2.063   4.353   8.832 -0.6429 -1.3392  0.6279
 3490SOL    HW222107   1.945   4.342   8.910 -1.2538 -1.2129 -2.4147
 3491SOL     OW22108   0.220   2.949   9.018 -0.3700  0.1094  0.1941
 3491SOL    HW122109   0.188   3.024   9.069  3.4443  2.3690 -0.7215
 3491SOL    HW222110   0.142   2.894   9.011 -0.2172  0.1542 -2.0790
 3492SOL     OW22111   4.186   3.635   2.919  0.1429  0.4284 -0.3743
 3492SOL    HW122112   4.269   3.672   2.949 -0.9292 -0.1405  3.3168
 3492SOL    HW222113   4.145   3.714   2.883  2.2415  1.0585 -1.3617
 3493SOL     OW22114   2.679   2.138   7.414  0.0060  0.8391 -0.4840
 3493SOL    HW122115   2.622   2.205   7.376 -0.8852  1.0822  1.2582
 3493SOL    HW222116   2.695   2.171   7.503 -2.8454 -2.2619  1.1915
 3494SOL     OW22117   0.515   4.450  14.504  0.5538  0.5116  0.2380
 3494SOL    HW122118   0.604   4.423  14.527  0.7628 -1.0704 -2.3912
 3494SOL    HW222119   0.475   4.411  14.582  0.6400  0.8289  0.4453
 3495SOL     OW22120   2.072   3.216   7.058 -0.6741 -0.0226  0.1388
 3495SOL    HW122121   2.103   3.153   6.993  1.4654  1.4170 -0.2192
 3495SOL    HW222122   2.071   3.299   7.011 -0.0359 -0.5551 -0.8108
 3496SOL     OW22123   2.384   3.632  15.268 -0.4499 -0.0772 -0.0019
 3496SOL    HW122124   2.363   3.587  15.186 -1.4433  0.6844 -0.1801
 3496SOL    HW222125   2.465   3.682  15.254 -0.5082  0.4759  1.6855
 3497SOL     OW22126   4.463   1.810   6.123  0.1836  0.2638  0.2492
 3497SOL    HW122127   4.421   1.874   6.181  0.3203 -0.4222  1.1213
 3497SOL    HW222128   4.485   1.870   6.052  0.7981  0.3984  0.5539
 3498SOL     OW22129   0.900   1.227   3.822  0.5164  0.1973 -0.5740
 3498SOL    HW122130   0.980   1.273   3.795 -0.1143  2.4241  1.3308
 3498SOL    HW222131   0.926   1.145   3.863 -0.0798  0.5886  0.5875
 3499SOL     OW22132   3.590   2.663  17.454  0.2339 -0.1874 -0.5660
 3499SOL    HW122133   3.574   2.616  17.536 -2.3252  2.8789  0.6637
 3499SOL    HW222134   3.524   2.624  17.397  1.4424 -2.0111 -0.7273
 3500SOL     OW22135   3.812   2.853   6.689  0.2186  0.0006 -0.4064
 3500SOL    HW122136   3.901   2.834   6.718 -0.1345  0.7569  1.1711
 3500SOL    HW222137   3.761   2.821   6.764  1.2078  0.6940  0.5579
 3501SOL     OW22138   1.761   3.205   4.898 -0.0304 -0.0736  0.6048
 3501SOL    HW122139   1.839   3.257   4.917  0.1286 -0.0182 -0.2123
 3501SOL    HW222140   1.807   3.126   4.868 -0.8725  0.4940 -2.2125
 3502SOL     OW22141   4.082   1.124   1.970  0.4223  0.5648  0.1394
 3502SOL    HW122142   4.029   1.197   1.937 -0.8693 -0.5307 -0.2281
 3502SOL    HW222143   4.024   1.081   2.033 -0.1267  0.5938 -0.3405
 3503SOL     OW22144   3.830   4.350   4.590 -0.0665 -0.1699  0.5599
 3503SOL    HW122145   3.806   4.393   4.508  1.1463 -1.1278 -0.2932
 3503SOL    HW222146   3.786   4.396   4.661 -3.7008 -1.2294 -1.0406
 3504SOL     OW22147   3.579   3.220   8.361 -0.3666 -0.6372 -0.2649
 3504SOL    HW122148   3.639   3.145   8.361 -0.1469 -0.4542  0.5709
 3504SOL    HW222149   3.605   3.261   8.443  0.4700 -0.4639 -0.6211
 3505SOL     OW22150   2.572   1.591   9.770 -0.6202  0.6862 -0.2528
 3505SOL    HW122151   2.520   1.512   9.788  0.9613 -0.2870  0.0064
 3505SOL    HW222152   2.643   1.574   9.832 -1.1619  1.8097  0.6940
 3506SOL     OW22153   3.411   4.536   5.874  0.7405 -0.0788 -0.3487
 3506SOL    HW122154   3.438   4.590   5.948 -1.3079 -0.2942  0.5661
 3506SOL    HW222155   3.446   4.582   5.798  2.4534  1.2586  1.2401
 3507SOL     OW22156   2.935   0.800   9.371  0.5785  0.0964  0.0298
 3507SOL    HW122157   2.927   0.892   9.398  2.0781  0.1187  0.4224
 3507SOL    HW222158   3.011   0.801   9.313 -1.4805 -0.6706 -2.6475
 3508SOL     OW22159   3.222   4.489   2.712  0.1019  0.1983 -0.5200
 3508SOL    HW122160   3.189   4.413   2.663 -1.8143  0.3515  0.5194
 3508SOL    HW222161   3.291   4.451   2.765  1.2774 -0.1266 -2.2832
 3509SOL     OW22162   1.493   1.616   0.705  0.7504 -0.1806  0.0034
 3509SOL    HW122163   1.405   1.639   0.676 -0.0760 -0.6962  2.1359
 3509SOL    HW222164   1.556   1.673   0.660  2.1035 -1.5394  0.1606
 3510SOL     OW22165   2.775   0.875   6.474 -0.0789 -0.4209  0.6407
 3510SOL    HW122166   2.719   0.814   6.426  0.7022 -0.6982  0.0874
 3510SOL    HW222167   2.852   0.895   6.421 -2.2854  0.7990 -2.0449
 3511SOL     OW22168   2.104   1.889   3.141  0.3279  0.1412 -0.1183
 3511SOL    HW122169   2.034   1.840   3.098 -0.7525 -0.1649  1.9780
 3511SOL    HW222170   2.117   1.828   3.214 -0.3981 -1.7735 -1.5950
 3512SOL     OW22171   2.169   2.957  17.278  0.0346  0.0364  0.8205
 3512SOL    HW122172   2.133   2.914  17.356  2.1096 -1.4515  0.9533
 3512SOL    HW222173   2.152   2.891  17.212 -1.9386 -0.1513  1.5258
 3513SOL     OW22174   1.741   1.890  14.702 -0.1317 -0.1621  0.4255
 3513SOL    HW122175   1.762   1.850  14.786 -2.6214 -0.9669  0.6693
 3513SOL    HW222176   1.812   1.954  14.695 -0.5338  0.1526 -0.9071
 3514SOL     OW22177   3.466   0.922   9.793  0.3848 -0.0921  0.0355
 3514SOL    HW122178   3.534   0.977   9.832  0.9250 -0.8366  0.1388
 3514SOL    HW222179   3.428   0.991   9.738  0.6049 -0.8879 -1.0893
 3515SOL     OW22180   3.506   2.700   7.798  0.1516  0.0847 -0.2012
 3515SOL    HW122181   3.505   2.796   7.792  0.4666 -0.0361 -2.1990
 3515SOL    HW222182   3.600   2.683   7.786  0.7858  2.4095  1.3940
 3516SOL     OW22183   1.686   3.396  11.211  0.6259 -0.2426 -0.3220
 3516SOL    HW122184   1.705   3.488  11.195 -2.0357  0.2633 -0.6091
 3516SOL    HW222185   1.711   3.356  11.127 -1.1779 -1.1593 -0.4074
 3517SOL     OW22186   0.155   0.240  10.849 -0.3939 -0.1032 -0.3408
 3517SOL    HW122187   0.121   0.329  10.851 -1.6171 -0.4840 -3.7111
 3517SOL    HW222188   0.215   0.251  10.923 -0.5790  0.6817 -0.3163
 3518SOL     OW22189   3.595   0.472   6.604  0.3750  0.0307 -0.6811
 3518SOL    HW122190   3.551   0.447   6.685 -0.0849 -0.0381 -0.9567
 3518SOL    HW222191   3.577   0.565   6.599  1.0032  0.2154  0.5146
 3519SOL     OW22192   3.234   2.076  12.917 -0.6315  0.1113  0.1250
 3519SOL    HW122193   3.313   2.129  12.923 -2.0155  2.0380  1.4468
 3519SOL    HW222194   3.175   2.135  12.870  1.3066  0.4925 -1.8173
 3520SOL     OW22195   2.061   0.814   5.580  0.2195  0.1477 -0.0196
 3520SOL    HW122196   2.015   0.730   5.571 -2.6295  1.6298  0.6409
 3520SOL    HW222197   2.083   0.826   5.488  1.3587  0.5063  0.3032
 3521SOL     OW22198   4.622   0.735  16.100 -0.8596 -0.0916  0.1804
 3521SOL    HW122199   4.711   0.702  16.088 -1.4054 -0.7768 -1.9583
 3521SOL    HW222200   4.628   0.829  16.119 -1.9999 -0.2377  1.2899
 3522SOL     OW22201   3.864   4.160  10.376 -0.1332  0.2762  0.5769
 3522SOL    HW122202   3.829   4.116  10.299 -0.0735  0.6377  0.3460
 3522SOL    HW222203   3.884   4.249  10.347 -0.0667 -0.0177 -0.2750
 3523SOL     OW22204   0.225   2.891   2.139 -0.2777 -0.1410 -0.0192
 3523SOL    HW122205   0.192   2.922   2.224 -0.9978 -1.4060  0.1633
 3523SOL    HW222206   0.165   2.818   2.124 -1.5246  0.9552 -0.4008
 3524SOL     OW22207   2.785   1.261   8.738 -0.1432 -0.2399  0.0348
 3524SOL    HW122208   2.705   1.305   8.712 -0.9808 -0.9437  1.4376
 3524SOL    HW222209   2.843   1.269   8.662  0.0734 -1.2155  0.0984
 3525SOL     OW22210   3.935   0.352   4.186  0.5489 -0.0649 -0.8609
 3525SOL    HW122211   3.958   0.262   4.209  0.2107 -0.6758 -2.9407
 3525SOL    HW222212   3.954   0.358   4.092  1.3342 -1.0039 -0.7557
 3526SOL     OW22213   3.251   0.120   4.730 -0.1988  0.3401  0.0879
 3526SOL    HW122214   3.219   0.125   4.820  1.4258 -0.7598  0.7222
 3526SOL    HW222215   3.267   0.026   4.723 -1.3366  0.1761 -0.3222
 3527SOL     OW22216   3.374   2.330   5.483 -0.0223  0.0397 -0.0488
 3527SOL    HW122217   3.402   2.332   5.391 -0.3250  2.3612 -0.0754
 3527SOL    HW222218   3.374   2.236   5.504 -0.3324 -0.0598 -0.4769
 3528SOL     OW22219   4.463   3.283   6.872 -0.3041  0.2934 -0.4098
 3528SOL    HW122220   4.526   3.300   6.943 -0.7823 -1.9441  0.5497
 3528SOL    HW222221   4.386   3.326   6.908 -0.6432 -0.9495  0.3635
 3529SOL     OW22222   4.365   3.681   5.169 -0.0913 -0.7173 -0.4488
 3529SOL    HW122223   4.297   3.731   5.123 -1.1863 -2.5749 -0.8176
 3529SOL    HW222224   4.402   3.639   5.092  1.1527  0.2563 -0.3951
 3530SOL     OW22225   4.302   1.446   4.872  0.0489  0.5671 -0.3059
 3530SOL    HW122226   4.209   1.445   4.850 -0.0443  1.2950  0.0397
 3530SOL    HW222227   4.310   1.504   4.947 -0.2872  0.6135 -0.3041
 3531SOL     OW22228   4.639   3.295   6.659  0.6092  0.6622  0.1067
 3531SOL    HW122229   4.618   3.225   6.597 -0.0258  1.2902 -0.3696
 3531SOL    HW222230   4.552   3.320   6.689  0.2129  0.8163 -1.1844
 3532SOL     OW22231   3.305   2.897   4.304  0.1849 -0.3871 -0.1491
 3532SOL    HW122232   3.262   2.812   4.294  0.3882 -0.1952 -2.8099
 3532SOL    HW222233   3.322   2.910   4.397  3.3048 -0.3426 -0.7323
 3533SOL     OW22234   4.021   3.038   1.982 -0.0822  0.6680  0.0752
 3533SOL    HW122235   4.081   3.107   2.010  1.1711  0.4303 -2.0159
 3533SOL    HW222236   3.962   3.019   2.056  1.3388 -1.3800  0.6885
 3534SOL     OW22237   0.583   4.686  10.502 -0.1502 -0.4787  0.3208
 3534SOL    HW122238   0.506   4.713  10.453  0.5627  0.7811 -0.1145
 3534SOL    HW222239   0.562   4.725  10.587  1.5454  1.1013  0.0247
 3535SOL     OW22240   3.640   3.616  16.574  0.3096 -0.0160  0.2686
 3535SOL    HW122241   3.671   3.527  16.562 -1.5169 -0.6301  0.0639
 3535SOL    HW222242   3.570   3.593  16.634 -0.2450 -1.5532 -0.9681
 3536SOL     OW22243   2.348   1.361   5.047 -0.0328  0.2737  0.3437
 3536SOL    HW122244   2.284   1.419   5.006 -0.8269  0.0221  1.2289
 3536SOL    HW222245   2.410   1.362   4.974  2.9683  0.3567  2.8904
 3537SOL     OW22246   4.097   0.431   6.939  0.4364  0.2812  0.1229
 3537SOL    HW122247   4.170   0.457   6.996 -0.4466 -0.6324  1.6641
 3537SOL    HW222248   4.126   0.469   6.856 -0.3101 -0.0808 -0.2989
 3538SOL     OW22249   2.529   4.209  15.714  0.4752 -0.0072  0.2207
 3538SOL    HW122250   2.524   4.143  15.645  1.9994  0.8189 -0.6904
 3538SOL    HW222251   2.505   4.162  15.794  3.3030 -1.9721 -0.0897
 3539SOL     OW22252   0.799   0.356  14.788 -0.5931 -0.4290 -0.5951
 3539SOL    HW122253   0.868   0.298  14.817 -0.8462  0.4100  1.6795
 3539SOL    HW222254   0.812   0.370  14.694  2.7363 -0.4459 -0.1322
 3540SOL     OW22255   2.736   0.327   5.437  0.6733  0.3955  0.0457
 3540SOL    HW122256   2.738   0.283   5.523  1.2931  0.8484  0.2652
 3540SOL    HW222257   2.805   0.287   5.384  0.5024 -2.1015  1.6665
 3541SOL     OW22258   4.258   3.256   2.505  0.0898 -0.4766 -0.8262
 3541SOL    HW122259   4.213   3.336   2.534  1.8311  0.5985 -1.0549
 3541SOL    HW222260   4.283   3.201   2.579 -0.1341 -0.2796 -0.6011
 3542SOL     OW22261   4.237   2.453  15.330  0.3008  0.0380  0.1759
 3542SOL    HW122262   4.222   2.544  15.305 -2.4894 -0.7214 -0.9208
 3542SOL    HW222263   4.203   2.406  15.254 -0.5358  0.6579  0.1621
 3543SOL     OW22264   2.340   2.955  13.380  0.0644  0.0675 -0.4358
 3543SOL    HW122265   2.412   3.006  13.416  0.0062  1.1280 -1.8212
 3543SOL    HW222266   2.336   2.892  13.452  0.8351  0.7480  0.2023
 3544SOL     OW22267   1.704   1.362   5.908 -0.0289 -1.0583  0.4809
 3544SOL    HW122268   1.716   1.347   6.002 -1.3571 -0.4338  0.7539
 3544SOL    HW222269   1.775   1.312   5.867  0.5110 -1.4440  1.8753
 3545SOL     OW22270   4.608   4.254   3.890 -0.0478 -0.5023  0.3150
 3545SOL    HW122271   4.638   4.216   3.973  2.3427 -1.0191 -0.7829
 3545SOL    HW222272   4.641   4.342   3.907 -0.9368 -0.2413  0.7318
 3546SOL     OW22273   4.376   2.136  16.474  0.4438 -0.2617 -0.0257
 3546SOL    HW122274   4.382   2.215  16.528 -2.5308  0.6309 -0.9953
 3546SOL    HW222275   4.464   2.130  16.437  0.0933 -0.5200 -0.8044
 3547SOL     OW22276   1.883   0.063   1.869 -0.2455  0.1584  0.1872
 3547SOL    HW122277   1.812   0.109   1.914 -0.4912 -0.8492  0.8448
 3547SOL    HW222278   1.884   0.097   1.780 -0.2110 -0.4398 -0.0436
 3548SOL     OW22279   2.158   3.207   4.070 -0.0376 -1.0619 -0.4032
 3548SOL    HW122280   2.227   3.255   4.116 -1.3501  1.7588 -1.3573
 3548SOL    HW222281   2.084   3.266   4.087 -0.3030 -1.1226 -1.3471
 3549SOL     OW22282   1.687   0.042  11.815  0.5406 -0.1742  0.2910
 3549SOL    HW122283   1.718   0.122  11.772  0.3592 -0.4590 -0.3694
 3549SOL    HW222284   1.666   4.720  11.746  1.4836 -0.6047  0.3942
 3550SOL     OW22285   2.470   0.891   7.029  0.5042 -0.1077  0.1418
 3550SOL    HW122286   2.395   0.845   7.065  1.2938 -0.0698  1.8719
 3550SOL    HW222287   2.464   0.883   6.934  0.0312 -0.2463  0.1881
 3551SOL     OW22288   1.933   4.604   4.200  0.7711 -0.1372  0.6879
 3551SOL    HW122289   1.882   4.622   4.280 -1.5966 -0.3090 -0.7781
 3551SOL    HW222290   1.904   4.516   4.179 -1.4605  0.0577  2.9781
 3552SOL     OW22291   3.953   2.618   8.668  0.3687 -0.1486  0.2866
 3552SOL    HW122292   4.028   2.657   8.714  0.0441  1.5787 -0.6349
 3552SOL    HW222293   3.995   2.577   8.592  0.3213 -0.6104  0.5103
 3553SOL     OW22294   2.026   2.649   4.911  0.0207  0.4425  0.2028
 3553SOL    HW122295   2.081   2.571   4.920  0.6991  1.0585  1.4410
 3553SOL    HW222296   1.990   2.647   5.000 -0.6758 -3.3601 -0.1634
 3554SOL     OW22297   4.623   3.080   6.488  0.2228  0.1963  0.0404
 3554SOL    HW122298   4.551   3.017   6.489  0.8554 -0.5415 -0.6637
 3554SOL    HW222299   4.693   3.032   6.532  1.8161  1.5438 -1.0318
 3555SOL     OW22300   1.218   3.813   3.343  0.6240 -0.0541  0.3543
 3555SOL    HW122301   1.197   3.819   3.437  1.5603  1.1622  0.4810
 3555SOL    HW222302   1.186   3.895   3.306  0.1720 -1.3242 -2.0780
 3556SOL     OW22303   1.138   2.209   0.724  0.4366 -0.0851  0.4067
 3556SOL    HW122304   1.197   2.161   0.782 -0.7801 -3.0540 -0.8349
 3556SOL    HW222305   1.050   2.177   0.744  0.3193  0.4184  0.6974
 3557SOL     OW22306   0.448   0.310   1.077 -0.3816 -0.1585  0.4269
 3557SOL    HW122307   0.505   0.360   1.018  0.8455 -0.0246  1.7203
 3557SOL    HW222308   0.361   0.335   1.046 -0.7636 -1.3160  0.5755
 3558SOL     OW22309   4.560   1.344   0.838 -0.3336 -0.3383 -0.0696
 3558SOL    HW122310   4.480   1.393   0.858  0.0226 -0.2656  1.1298
 3558SOL    HW222311   4.633   1.398   0.866 -0.3339 -0.4190  0.0875
 3559SOL     OW22312   3.253   3.527   3.038  0.1967  0.6741 -0.0852
 3559SOL    HW122313   3.204   3.556   3.114  0.4449  0.6464  0.0851
 3559SOL    HW222314   3.319   3.467   3.073  0.6673  1.8217  0.9906
 3560SOL     OW22315   3.811   1.289   4.786 -0.3852  0.4203  0.5398
 3560SOL    HW122316   3.779   1.374   4.816  0.8705  1.4299 -1.0255
 3560SOL    HW222317   3.731   1.248   4.751  0.3069 -0.4562 -0.0210
 3561SOL     OW22318   3.904   4.543   0.652 -0.1450  0.2388  0.0566
 3561SOL    HW122319   3.848   4.618   0.672  0.2790  0.1589  1.5500
 3561SOL    HW222320   3.972   4.586   0.600  0.1388 -0.5595 -0.2355
 3562SOL     OW22321   0.199   3.309   8.518 -0.1905  0.2328 -0.2143
 3562SOL    HW122322   0.217   3.251   8.593 -1.1918 -1.0249 -0.9414
 3562SOL    HW222323   0.160   3.381   8.568  1.5548  0.7074  0.4699
 3563SOL     OW22324   3.953   0.764   2.844  0.4056  0.3147 -0.3271
 3563SOL    HW122325   3.940   0.806   2.930  2.1343  0.6591 -0.2303
 3563SOL    HW222326   4.037   0.810   2.841  2.1354 -2.7525  1.3661
 3564SOL     OW22327   0.852   4.638  11.581 -0.2472 -0.3008 -0.0390
 3564SOL    HW122328   0.792   4.566  11.559 -1.1771  0.5352 -0.2470
 3564SOL    HW222329   0.798   4.704  11.624  4.1571  3.0381  0.2791
 3565SOL     OW22330   4.047   3.857   1.844  0.3633 -0.1811  0.0523
 3565SOL    HW122331   4.003   3.941   1.831 -0.2061 -0.5741 -0.5176
 3565SOL    HW222332   4.123   3.894   1.890  0.3751 -1.5250  1.1266
 3566SOL     OW22333   1.770   3.601   5.240  0.0528  0.2599  0.3362
 3566SOL    HW122334   1.839   3.599   5.174  0.1559  0.0895  0.4504
 3566SOL    HW222335   1.702   3.612   5.173 -0.3868 -1.3829  0.5204
 3567SOL     OW22336   1.167   4.291  15.945 -0.2109  0.0739  0.5425
 3567SOL    HW122337   1.093   4.326  15.996  0.6037  1.9115  0.4715
 3567SOL    HW222338   1.239   4.350  15.966  0.8471 -0.8993 -0.4301
 3568SOL     OW22339   0.131   0.319   0.301 -0.5171 -0.2301 -0.0948
 3568SOL    HW122340   0.165   0.337   0.389  0.0819 -1.1912 -0.1285
 3568SOL    HW222341   0.198   0.252   0.285 -0.2644  0.2748 -1.1205
 3569SOL     OW22342   3.420   2.104   2.165 -0.3892 -0.8002  0.0112
 3569SOL    HW122343   3.358   2.171   2.193  3.6245  2.1179  1.9292
 3569SOL    HW222344   3.500   2.153   2.180 -2.6617  2.0961  2.5903
 3570SOL     OW22345   3.284   3.352   4.026 -0.1224 -0.6738  0.3399
 3570SOL    HW122346   3.188   3.350   4.023 -0.2762  1.5511  4.3666
 3570SOL    HW222347   3.307   3.261   4.004 -2.7815 -1.4254  0.5748
 3571SOL     OW22348   0.200   2.131   7.040 -0.4626  0.3194  0.2846
 3571SOL    HW122349   0.133   2.195   7.065 -0.6979 -1.1570  3.5058
 3571SOL    HW222350   0.149   2.081   6.976  1.3015  0.1047 -0.9500
 3572SOL     OW22351   0.756   3.002   5.547 -1.0239 -0.4490  0.1093
 3572SOL    HW122352   0.692   2.948   5.592  0.1485 -2.0258 -0.1139
 3572SOL    HW222353   0.715   3.087   5.530 -0.1876  0.1518  1.0639
 3573SOL     OW22354   1.763   3.009  12.745  1.1650  0.2274  0.1365
 3573SOL    HW122355   1.728   3.006  12.834  2.3411 -1.0599  0.5432
 3573SOL    HW222356   1.706   2.937  12.717 -0.4365  1.9390 -0.9986
 3574SOL     OW22357   2.510   3.970  15.517 -0.1602 -0.3825  0.0236
 3574SOL    HW122358   2.543   3.894  15.564  1.3910  0.7367  0.7496
 3574SOL    HW222359   2.428   3.932  15.486 -0.0096 -2.0836  1.7151
 3575SOL     OW22360   3.799   4.031   8.369  0.3785  0.0971  0.4222
 3575SOL    HW122361   3.881   3.983   8.383  0.7555  0.8421  0.7631
 3575SOL    HW222362   3.839   4.108   8.327 -1.2105  2.1920  2.7681
 3576SOL     OW22363   4.049   3.711  14.863 -0.2256  0.3136 -0.0659
 3576SOL    HW122364   4.034   3.650  14.935 -2.1923  1.0041  0.1081
 3576SOL    HW222365   4.011   3.794  14.893  0.9327 -0.0781  2.5353
 3577SOL     OW22366   3.217   2.217   6.165 -0.0408 -0.3107  0.1319
 3577SOL    HW122367   3.251   2.238   6.078  2.5129 -0.1641  1.1685
 3577SOL    HW222368   3.299   2.246   6.205  0.9138  0.2777 -2.1870
 3578SOL     OW22369   3.039   3.888   3.281  0.3926 -0.2448  0.3890
 3578SOL    HW122370   3.001   3.931   3.204  0.0951 -2.0356 -0.4783
 3578SOL    HW222371   3.014   3.796   3.268 -0.3028  0.2498 -1.8316
 3579SOL     OW22372   4.030   0.937   9.861  0.6908  0.0814 -0.6914
 3579SOL    HW122373   4.078   0.854   9.864  0.5728  0.0471  0.1453
 3579SOL    HW222374   4.078   0.968   9.938  0.5135  2.5285 -1.5631
 3580SOL     OW22375   4.194   0.947   4.307  0.3986 -0.1046 -0.2153
 3580SOL    HW122376   4.259   0.925   4.374  1.3296 -1.1797 -1.4776
 3580SOL    HW222377   4.190   1.042   4.299 -0.8603 -0.0979  0.4052
 3581SOL     OW22378   4.724   1.894   4.657 -0.4226  0.7126 -0.2675
 3581SOL    HW122379   0.002   1.977   4.614  1.1025 -0.0487 -1.0851
 3581SOL    HW222380   4.649   1.859   4.611 -0.1491 -2.1650  1.4464
 3582SOL     OW22381   0.030   4.722  12.067 -0.1131 -0.2826  0.4012
 3582SOL    HW122382   4.695   0.018  12.021  0.8693 -1.8173 -2.4801
 3582SOL    HW222383   4.737   4.711  12.155 -0.8598  1.6498  0.3573
 3583SOL     OW22384   1.868   0.481  15.483 -0.8413 -0.0737 -0.0355
 3583SOL    HW122385   1.861   0.390  15.453  0.4695 -0.2503  0.1929
 3583SOL    HW222386   1.932   0.483  15.554 -2.6611 -0.7548  1.6382
 3584SOL     OW22387   1.160   3.159  14.672  1.3188  0.0955 -0.0917
 3584SOL    HW122388   1.110   3.170  14.591  0.3376 -0.3345  0.4526
 3584SOL    HW222389   1.234   3.219  14.663  1.6576 -0.3832 -0.4812
 3585SOL     OW22390   1.350   0.995   5.325  0.1694 -0.1155  0.2247
 3585SOL    HW122391   1.413   0.950   5.269 -1.6893  0.1890 -2.1296
 3585SOL    HW222392   1.407   1.030   5.393  0.0161 -2.3626  1.5003
 3586SOL     OW22393   2.010   4.171   3.521  0.1614 -0.0608 -0.4630
 3586SOL    HW122394   2.050   4.201   3.439  2.2951  2.7052  1.6176
 3586SOL    HW222395   2.048   4.235   3.581 -0.2879 -0.5934  0.3975
 3587SOL     OW22396   0.223   4.005   0.648  0.0938  0.1194  0.1608
 3587SOL    HW122397   0.222   3.915   0.615  0.4740  0.4691 -0.8087
 3587SOL    HW222398   0.226   4.052   0.564 -1.1698  2.7137  1.5650
 3588SOL     OW22399   3.833   1.918   3.774 -0.2651  0.2246 -0.7936
 3588SOL    HW122400   3.820   1.833   3.814 -0.7184  0.9982  0.7107
 3588SOL    HW222401   3.870   1.960   3.852 -1.2597  1.4544 -0.9833
 3589SOL     OW22402   4.242   2.715   4.300 -0.5627 -0.2648 -0.2643
 3589SOL    HW122403   4.245   2.810   4.286 -1.6171 -0.1294  0.4339
 3589SOL    HW222404   4.244   2.671   4.215 -1.8583 -1.6040  0.4173
 3590SOL     OW22405   2.644   4.442   9.487 -0.6821 -0.6577 -0.4353
 3590SOL    HW122406   2.669   4.486   9.568 -1.7866  3.1196 -2.1403
 3590SOL    HW222407   2.703   4.496   9.434 -1.0525  0.4141  0.2398
 3591SOL     OW22408   3.583   4.708  11.899 -0.1199  0.0546 -0.1021
 3591SOL    HW122409   3.496   0.006  11.912  1.1290  2.7526  0.0777
 3591SOL    HW222410   3.559   4.677  11.812  1.0213  0.3293 -0.5133
 3592SOL     OW22411   2.057   2.470   6.859  0.1132  0.5985  0.5566
 3592SOL    HW122412   2.091   2.488   6.771 -1.8098 -2.1730 -0.7609
 3592SOL    HW222413   1.964   2.459   6.838  0.3126  0.8096 -0.4321
 3593SOL     OW22414   0.746   2.478   3.954 -0.0298 -0.1105  0.0373
 3593SOL    HW122415   0.756   2.568   3.924  2.8662  0.1464  1.8277
 3593SOL    HW222416   0.723   2.496   4.045 -1.5164 -0.8344 -0.1947
 3594SOL     OW22417   0.797   0.857   1.411  0.5230 -0.5381  0.1742
 3594SOL    HW122418   0.816   0.820   1.497 -1.6634 -0.2184  0.7920
 3594SOL    HW222419   0.854   0.933   1.406  0.2042 -0.1314  2.7157
 3595SOL     OW22420   0.795   3.922   2.600 -0.0401  0.2294 -0.3823
 3595SOL    HW122421   0.737   3.849   2.581 -1.0910  1.1900 -0.8431
 3595SOL    HW222422   0.736   3.967   2.661 -0.4271  0.4996 -0.9636
 3596SOL     OW22423   2.987   1.762   7.168  0.7381  0.2016  0.1141
 3596SOL    HW122424   2.954   1.726   7.250 -1.8233  0.4030 -0.8095
 3596SOL    HW222425   2.906   1.808   7.145  2.4495  2.4615 -1.4334
 3597SOL     OW22426   2.124   3.506   8.990 -0.1403  0.0504 -0.5918
 3597SOL    HW122427   2.199   3.532   9.044  0.1961 -0.3926 -0.8470
 3597SOL    HW222428   2.162   3.511   8.902  0.0010 -1.7890 -0.6216
 3598SOL     OW22429   2.141   3.708   8.035 -0.2338  0.3497  0.0203
 3598SOL    HW122430   2.100   3.733   7.952 -0.6471 -1.8561 -0.4577
 3598SOL    HW222431   2.064   3.717   8.091 -0.1592  0.3234  0.1273
 3599SOL     OW22432   1.700   0.665   7.832 -0.1476 -0.1684 -0.0015
 3599SOL    HW122433   1.686   0.691   7.741 -0.7868 -3.1876 -0.7665
 3599SOL    HW222434   1.794   0.645   7.834  0.1406  1.2642  1.2251
 3600SOL     OW22435   4.418   3.976   8.943  0.0806 -0.2058  0.5290
 3600SOL    HW122436   4.417   4.071   8.935 -0.1451 -0.3608 -1.2374
 3600SOL    HW222437   4.361   3.963   9.018 -2.3610  1.5234 -1.0191
 3601SOL     OW22438   1.665   1.082  10.633 -0.0293  0.7692 -0.1600
 3601SOL    HW122439   1.607   1.123  10.568  0.3840 -0.7318 -1.4999
 3601SOL    HW222440   1.609   1.042  10.700  1.2292 -0.0476  0.4061
 3602SOL     OW22441   4.689   0.185   1.391 -0.3522 -0.0648  0.2001
 3602SOL    HW122442   0.035   0.186   1.351 -1.7615  1.7830 -2.7641
 3602SOL    HW222443   4.694   0.104   1.443 -1.7718 -0.1208  0.2442
 3603SOL     OW22444   1.815   3.134   9.828 -0.1909  0.1323 -0.2003
 3603SOL    HW122445   1.727   3.159   9.801 -0.3602  1.2047  1.3647
 3603SOL    HW222446   1.818   3.052   9.778  4.3844  0.2111 -0.1029
 3604SOL     OW22447   0.781   1.737   5.523  0.8811 -0.3622  0.5583
 3604SOL    HW122448   0.756   1.647   5.502  2.0528 -0.5745  0.0733
 3604SOL    HW222449   0.729   1.787   5.460  0.9737 -0.3559  0.4873
 3605SOL     OW22450   0.382   1.629   6.702  0.2831  0.2011  0.4892
 3605SOL    HW122451   0.390   1.562   6.769  1.2734 -0.9956 -0.8221
 3605SOL    HW222452   0.462   1.610   6.653 -0.6434 -0.8832 -0.6183
 3606SOL     OW22453   0.329   1.078   3.097  0.0197  0.1134 -0.1256
 3606SOL    HW122454   0.404   1.131   3.070  0.0942  0.1696  0.1899
 3606SOL    HW222455   0.368   1.030   3.170 -3.3268 -0.9085  0.9780
 3607SOL     OW22456   4.648   1.079   8.236  0.3421  0.3306 -0.0403
 3607SOL    HW122457   4.691   1.106   8.318 -0.3966  0.7030  0.2228
 3607SOL    HW222458   4.571   1.136   8.243  1.1941  1.2828  1.6261
 3608SOL     OW22459   4.312   2.981   4.604  0.0577 -0.0486  0.1506
 3608SOL    HW122460   4.345   2.917   4.541 -1.1026 -0.9570  0.4466
 3608SOL    HW222461   4.253   3.033   4.550  1.9241  3.4852  1.5729
 3609SOL     OW22462   4.542   0.964   9.734 -0.6585 -0.4093 -0.4913
 3609SOL    HW122463   4.617   0.932   9.783 -1.0424 -1.2532 -0.4633
 3609SOL    HW222464   4.589   0.998   9.658  0.6021  1.5764  1.1765
 3610SOL     OW22465   0.386   2.117   4.539 -0.5370 -0.1439  0.9023
 3610SOL    HW122466   0.474   2.105   4.505 -0.6830  2.4395 -0.3836
 3610SOL    HW222467   0.342   2.050   4.487  0.2649 -0.1049  0.1789
 3611SOL     OW22468   1.889   2.074   7.637 -0.3430  0.1586 -0.0739
 3611SOL    HW122469   1.873   2.027   7.555 -0.9799  2.6413 -1.3635
 3611SOL    HW222470   1.863   1.994   7.684  1.0803 -0.5005 -0.3980
 3612SOL     OW22471   0.022   0.620   2.353  0.4095  0.0208  0.4482
 3612SOL    HW122472   0.071   0.564   2.413  0.6282  0.5212  0.7407
 3612SOL    HW222473   4.673   0.589   2.365 -0.0323  1.2810  0.4453
 3613SOL     OW22474   0.001   0.673  12.393  0.0887  0.4306 -0.0585
 3613SOL    HW122475   4.731   0.766  12.373  2.1765  0.5643 -0.5889
 3613SOL    HW222476   4.726   0.635  12.306  0.6895 -1.6352  0.7244
 3614SOL     OW22477   3.600   4.708  13.022  0.2104 -0.5741  0.1316
 3614SOL    HW122478   3.682   4.695  13.070  0.3688 -1.6169 -0.4238
 3614SOL    HW222479   3.559   4.624  13.044  1.1803 -0.8246  0.9994
 3615SOL     OW22480   1.329   0.061   2.582 -0.4525 -0.3340  0.2413
 3615SOL    HW122481   1.421   0.058   2.556  0.0653 -1.0273  2.1619
 3615SOL    HW222482   1.290   0.014   2.508 -0.5326 -1.3157  0.9049
 3616SOL     OW22483   3.866   1.179  16.929 -0.2753  0.0004 -0.0231
 3616SOL    HW122484   3.815   1.115  16.980  0.2794  1.2549  2.0930
 3616SOL    HW222485   3.852   1.134  16.846 -1.3340 -1.0323  0.7054
 3617SOL     OW22486   4.561   4.318   7.461  0.1343  0.3826 -0.3171
 3617SOL    HW122487   4.607   4.256   7.405 -0.5747  0.5201 -1.0415
 3617SOL    HW222488   4.482   4.341   7.411  1.2409  0.2357 -2.1328
 3618SOL     OW22489   3.214   0.994  17.546 -0.6668 -0.3816  0.4933
 3618SOL    HW122490   3.239   0.985  17.454  0.2354 -1.0554  0.8016
 3618SOL    HW222491   3.276   1.065  17.565  0.2443 -1.4466  1.5356
 3619SOL     OW22492   4.601   2.698   8.107  0.1200  0.0452 -0.0660
 3619SOL    HW122493   4.612   2.764   8.176 -2.2420  0.1588  0.1835
 3619SOL    HW222494   4.546   2.636   8.155  1.7279 -0.6638  0.8525
 3620SOL     OW22495   3.290   2.472  16.243 -1.3233 -0.0141 -0.0356
 3620SOL    HW122496   3.297   2.532  16.169  2.4034 -0.4058  0.0053
 3620SOL    HW222497   3.371   2.422  16.235 -0.9363  0.5595  0.3484
 3621SOL     OW22498   2.976   1.997   8.321 -0.1971 -0.0519 -0.0241
 3621SOL    HW122499   2.914   1.944   8.372 -0.2656  1.0895  1.0668
 3621SOL    HW222500   2.921   2.069   8.288 -1.4049 -0.8228  0.2942
 3622SOL     OW22501   1.522   1.889   4.543  0.2205 -0.2786  0.2782
 3622SOL    HW122502   1.507   1.800   4.576  0.9762  0.2027  1.9274
 3622SOL    HW222503   1.444   1.920   4.496 -0.0983 -0.7397  0.5067
 3623SOL     OW22504   0.342   2.617   5.677  0.5249 -0.2923  0.3629
 3623SOL    HW122505   0.274   2.600   5.611 -0.5510  0.8208  1.1852
 3623SOL    HW222506   0.375   2.530   5.698 -2.0986 -0.8743  2.0699
 3624SOL     OW22507   2.694   1.397   3.882  0.3426  0.0282  0.4224
 3624SOL    HW122508   2.670   1.479   3.837 -1.0012 -1.3635 -1.3878
 3624SOL    HW222509   2.695   1.434   3.970  2.0797  2.5011 -0.6305
 3625SOL     OW22510   2.757   3.605   9.330  0.1378  0.1924 -0.0530
 3625SOL    HW122511   2.805   3.580   9.250 -1.3100 -1.0724 -0.5153
 3625SOL    HW222512   2.807   3.681   9.358 -0.3180  0.2243  0.6685
 3626SOL     OW22513   4.622   0.910  12.133  0.4182 -0.2623 -0.0659
 3626SOL    HW122514   4.665   0.993  12.151  0.6686 -0.9401  2.4324
 3626SOL    HW222515   4.530   0.929  12.115  0.6568 -0.3217 -1.3732
 3627SOL     OW22516   4.152   0.496  17.169 -0.0927  0.2894  0.3424
 3627SOL    HW122517   4.231   0.514  17.118  0.3141 -1.4014  0.3447
 3627SOL    HW222518   4.092   0.454  17.106  0.4422  2.7542 -1.7897
 3628SOL     OW22519   1.473   0.860   2.509 -0.5663 -1.0109 -0.2550
 3628SOL    HW122520   1.567   0.852   2.528 -0.8510  1.0632  2.0324
 3628SOL    HW222521   1.449   0.918   2.581 -0.0734 -2.1350  0.8176
 3629SOL     OW22522   1.154   3.776  15.904 -0.0608  0.4042  0.4605
 3629SOL    HW122523   1.147   3.745  15.994  1.9502 -0.8099  0.2010
 3629SOL    HW222524   1.172   3.869  15.920 -0.2467  0.2359  1.6105
 3630SOL     OW22525   2.497   4.030   9.564 -0.1588 -0.5465  0.2653
 3630SOL    HW122526   2.592   4.021   9.565 -0.3591 -2.7571  0.0621
 3630SOL    HW222527   2.469   3.946   9.603 -0.7086  0.6697  2.5239
 3631SOL     OW22528   1.215   3.003   9.688  0.5908  0.6178  0.1083
 3631SOL    HW122529   1.227   2.933   9.624  0.3718  1.6515 -1.0475
 3631SOL    HW222530   1.130   2.968   9.715  0.7226 -0.6343 -1.0797
 3632SOL     OW22531   0.976   1.648   1.455 -0.2614 -0.1210 -0.3734
 3632SOL    HW122532   1.060   1.693   1.464  0.2563 -0.6450 -2.4956
 3632SOL    HW222533   0.917   1.716   1.486  1.5254 -0.5045  3.9406
 3633SOL     OW22534   0.900   1.821   4.059 -0.2370 -0.3302 -0.6109
 3633SOL    HW122535   0.930   1.736   4.027  1.5223 -0.3336  1.0101
 3633SOL    HW222536   0.978   1.848   4.108  0.7591 -1.2920 -1.6610
 3634SOL     OW22537   3.526   0.704   8.410  0.0575  0.3290 -0.2774
 3634SOL    HW122538   3.457   0.657   8.458  0.3736 -1.0729 -1.1923
 3634SOL    HW222539   3.599   0.643   8.421  1.1256  1.1488 -2.7624
 3635SOL     OW22540   3.286   3.942   8.745  0.5723  0.3170 -0.2749
 3635SOL    HW122541   3.227   4.017   8.747  1.5364  1.0080  1.8730
 3635SOL    HW222542   3.287   3.910   8.835 -0.1343 -1.0111 -0.7372
 3636SOL     OW22543   1.513   3.813   2.550 -0.2306 -0.0085 -0.0617
 3636SOL    HW122544   1.514   3.730   2.597  1.4941  0.3016  0.4707
 3636SOL    HW222545   1.601   3.848   2.560  0.6371 -1.1884 -3.4834
 3637SOL     OW22546   0.344   2.595  10.506  0.0573  0.3773  0.0314
 3637SOL    HW122547   0.327   2.639  10.422 -0.7827 -2.6690 -1.4148
 3637SOL    HW222548   0.399   2.659  10.550 -0.0926  1.2043 -0.9720
 3638SOL     OW22549   2.361   2.405   8.077 -0.0981 -0.2097  0.4436
 3638SOL    HW122550   2.293   2.350   8.116  0.0142 -0.8881 -0.3245
 3638SOL    HW222551   2.392   2.364   7.996  0.4519  0.0555  0.5175
 3639SOL     OW22552   0.376   3.341   5.314 -0.6938  0.0581  0.1527
 3639SOL    HW122553   0.321   3.390   5.375 -0.7103 -1.6057  1.4793
 3639SOL    HW222554   0.468   3.366   5.324 -0.0533 -2.0327 -0.5972
 3640SOL     OW22555   0.082   2.378   8.240  0.7445 -0.4673  0.1754
 3640SOL    HW122556   0.139   2.304   8.220 -0.0304 -0.8920 -0.4899
 3640SOL    HW222557   0.133   2.443   8.288 -0.8019  1.8265 -1.2917
 3641SOL     OW22558   2.916   2.571  16.786 -0.1101  0.0557 -0.9696
 3641SOL    HW122559   3.009   2.587  16.799 -0.4947 -1.0028  3.1299
 3641SOL    HW222560   2.878   2.651  16.821 -2.4896 -1.5625  0.1952
 3642SOL     OW22561   1.196   4.710   8.107 -0.5118  0.2935 -0.3259
 3642SOL    HW122562   1.249   4.634   8.130 -3.0600 -1.0841  1.0084
 3642SOL    HW222563   1.262   0.020   8.060  1.4278  0.4848  2.6281
 3643SOL     OW22564   1.646   2.770  14.655  0.1094 -0.1730 -0.5328
 3643SOL    HW122565   1.587   2.836  14.620  0.6626  0.4543 -0.2890
 3643SOL    HW222566   1.619   2.772  14.747  0.5219  2.6471 -0.4631
 3644SOL     OW22567   1.098   2.260   7.900 -0.6911 -0.4222 -0.1452
 3644SOL    HW122568   1.169   2.246   7.963 -1.5493  0.5962  1.0438
 3644SOL    HW222569   1.139   2.333   7.853  0.7939 -1.8118 -0.9941
 3645SOL     OW22570   0.295   3.607   2.101 -0.1630  0.4178  0.1339
 3645SOL    HW122571   0.330   3.552   2.171  2.6438  0.7102 -1.0501
 3645SOL    HW222572   0.285   3.549   2.026 -2.8272 -0.9041  1.5230
 3646SOL     OW22573   2.018   2.862   3.519  0.0927 -0.5645  0.1507
 3646SOL    HW122574   2.078   2.810   3.464 -1.9561 -1.1989 -1.5095
 3646SOL    HW222575   1.976   2.793   3.569  0.6983 -0.7866  0.3604
 3647SOL     OW22576   1.346   2.727  11.845  0.0219  0.2949  0.5741
 3647SOL    HW122577   1.379   2.643  11.814  0.1728  0.8380 -0.7318
 3647SOL    HW222578   1.271   2.700  11.899 -0.7695 -0.8175 -1.0973
 3648SOL     OW22579   4.583   4.633   9.466 -0.1657  0.7180 -0.9999
 3648SOL    HW122580   4.617   4.643   9.377  0.5354 -2.2430 -1.0683
 3648SOL    HW222581   4.618   4.546   9.483 -1.3439  0.9945  2.6603
 3649SOL     OW22582   0.180   0.954  17.648 -1.1315  0.0805  0.3904
 3649SOL    HW122583   0.219   0.869  17.626  2.0500  1.7813 -0.5080
 3649SOL    HW222584   0.134   0.984  17.570 -1.3586 -0.1590  0.4309
 3650SOL     OW22585   1.911   2.447  10.332 -0.3220 -0.0778  0.4175
 3650SOL    HW122586   1.956   2.501  10.268 -0.2752 -0.0051  0.5118
 3650SOL    HW222587   1.835   2.503  10.350 -1.0183 -0.0423 -2.6105
 3651SOL     OW22588   0.811   0.058   6.465 -0.3739 -0.2782  0.4352
 3651SOL    HW122589   0.786   0.101   6.383 -0.4572 -0.4997  0.3451
 3651SOL    HW222590   0.743   0.101   6.517  0.5134  0.3635  1.0789
 3652SOL     OW22591   4.735   4.050   9.317 -0.0983 -0.3769 -0.4519
 3652SOL    HW122592   4.668   4.057   9.384 -0.2714  1.7590 -0.8514
 3652SOL    HW222593   4.715   3.958   9.300 -1.4915 -0.2873  0.7344
 3653SOL     OW22594   0.837   3.183   2.528  0.1731 -0.5412  0.2794
 3653SOL    HW122595   0.742   3.177   2.519  0.0255  0.5638  1.0334
 3653SOL    HW222596   0.853   3.278   2.533 -0.9089 -0.3303 -0.3066
 3654SOL     OW22597   4.649   0.979  16.280  0.0866 -0.2494  0.1194
 3654SOL    HW122598   4.656   1.064  16.323 -0.2971 -1.0238  1.7301
 3654SOL    HW222599   4.567   0.999  16.234  0.6196  0.4024 -0.5328
 3655SOL     OW22600   0.195   3.155   4.353  0.2133  1.0089 -0.3371
 3655SOL    HW122601   0.279   3.113   4.337 -0.1877  0.1350 -0.1910
 3655SOL    HW222602   0.142   3.125   4.278 -0.0768  2.0658 -0.5460
 3656SOL     OW22603   1.556   2.132  16.905 -0.3321 -0.1633 -0.0223
 3656SOL    HW122604   1.526   2.173  16.824  0.9263 -2.4963 -1.6446
 3656SOL    HW222605   1.510   2.192  16.964 -0.5051  1.1107 -1.4510
 3657SOL     OW22606   3.328   3.209   2.480  0.3566  0.3322  0.1077
 3657SOL    HW122607   3.404   3.230   2.534 -0.3208  2.2560  0.3216
 3657SOL    HW222608   3.330   3.288   2.426  1.1083 -0.3265 -0.8082
 3658SOL     OW22609   0.269   3.890   2.142  0.3898 -0.1823 -0.4951
 3658SOL    HW122610   0.210   3.885   2.066 -0.5785  0.8075  0.2011
 3658SOL    HW222611   0.279   3.795   2.140  1.4953 -0.0587 -0.7042
 3659SOL     OW22612   2.106   3.562  15.610 -0.3284 -0.4510  0.2980
 3659SOL    HW122613   2.065   3.647  15.592  1.1376  0.2884  0.4522
 3659SOL    HW222614   2.059   3.495  15.560  0.0395 -0.7851  0.4022
 3660SOL     OW22615   2.506   4.277   1.698 -0.5537  0.3191  0.7532
 3660SOL    HW122616   2.591   4.304   1.733  0.1310  0.5217 -1.0905
 3660SOL    HW222617   2.457   4.359   1.692 -1.9714 -0.4529  1.8135
 3661SOL     OW22618   1.308   3.385   2.170 -0.0985 -0.6973  0.0199
 3661SOL    HW122619   1.289   3.475   2.196  0.3667 -0.1174 -1.6789
 3661SOL    HW222620   1.402   3.376   2.158 -0.5027 -0.9210 -2.8917
 3662SOL     OW22621   3.981   4.594   3.848  0.4857  0.3170  0.0657
 3662SOL    HW122622   4.075   4.607   3.865  1.0809  0.0014 -2.8770
 3662SOL    HW222623   3.954   4.580   3.939  0.5400  2.0649  0.3377
 3663SOL     OW22624   1.473   2.519   6.909 -0.5057  0.6567  0.0036
 3663SOL    HW122625   1.455   2.579   6.981  1.3749  3.0919 -1.5478
 3663SOL    HW222626   1.569   2.517   6.913 -0.4341  0.7248 -1.7820
 3664SOL     OW22627   2.473   4.480   2.204 -0.0438  0.3739  0.8228
 3664SOL    HW122628   2.428   4.515   2.127 -0.7012  0.7059  1.3625
 3664SOL    HW222629   2.548   4.538   2.218  0.8981 -0.6561  0.1051
 3665SOL     OW22630   1.136   1.902   2.282  0.1787  0.2051 -0.0083
 3665SOL    HW122631   1.066   1.872   2.224  0.1681  2.0067 -0.9374
 3665SOL    HW222632   1.094   1.984   2.309  2.2960  0.3545  2.8664
 3666SOL     OW22633   0.095   3.776   9.572  0.0183  0.2807  0.3576
 3666SOL    HW122634   0.058   3.836   9.636 -1.5665 -2.6250  2.1401
 3666SOL    HW222635   0.095   3.690   9.614  2.4266  0.9046  1.5894
 3667SOL     OW22636   1.380   0.057   5.313 -0.2768  0.5849  0.9013
 3667SOL    HW122637   1.442   0.110   5.363  0.9092  1.8326 -1.9149
 3667SOL    HW222638   1.342   4.739   5.378  1.2015  0.3773  1.5730
 3668SOL     OW22639   0.503   1.274   5.134 -0.2847 -0.7554 -0.1991
 3668SOL    HW122640   0.443   1.222   5.081 -1.1111  0.1720 -0.1791
 3668SOL    HW222641   0.467   1.361   5.115 -0.1475 -0.5176  0.6149
 3669SOL     OW22642   3.032   3.129   7.014 -0.4728 -1.3051  0.0613
 3669SOL    HW122643   3.053   3.097   6.926 -2.6534 -2.9282  0.1429
 3669SOL    HW222644   3.006   3.043   7.047 -0.8946 -0.0253  3.0200
 3670SOL     OW22645   2.428   1.144   1.885 -0.4455  0.0197 -0.1166
 3670SOL    HW122646   2.363   1.192   1.935 -1.0015 -3.1096  2.1841
 3670SOL    HW222647   2.440   1.187   1.800  4.0680  0.2644  0.6523
 3671SOL     OW22648   4.683   0.816   4.398 -0.2811  0.0821  0.0818
 3671SOL    HW122649   4.736   0.842   4.323  0.9685 -1.1485  0.5552
 3671SOL    HW222650   4.707   0.886   4.459 -1.2936  1.2292 -0.8335
 3672SOL     OW22651   0.974   3.989   4.894  0.1999  0.3591 -0.2558
 3672SOL    HW122652   0.887   4.029   4.904  0.2596  0.1999  0.8553
 3672SOL    HW222653   0.983   3.996   4.799  1.4486 -2.0860 -0.3155
 3673SOL     OW22654   3.409   4.206  17.577 -0.3288 -0.3558  0.3975
 3673SOL    HW122655   3.321   4.216  17.541 -1.3277  0.2177  3.0299
 3673SOL    HW222656   3.386   4.233  17.666  0.1313 -2.1570  1.0594
 3674SOL     OW22657   3.410   4.235   5.615 -0.0772  0.3257  0.1144
 3674SOL    HW122658   3.417   4.326   5.587  1.2927  0.2598  0.2058
 3674SOL    HW222659   3.389   4.249   5.707 -0.6119  0.1989  0.0130
 3675SOL     OW22660   4.610   2.720  10.239 -0.1412 -0.3033  0.0492
 3675SOL    HW122661   4.553   2.685  10.170 -0.3202  0.6608 -0.3033
 3675SOL    HW222662   4.559   2.799  10.260 -1.7616 -1.4066  0.3179
 3676SOL     OW22663   2.499   1.139  10.006  0.2236  0.3461 -0.4001
 3676SOL    HW122664   2.412   1.113   9.974 -0.2356  0.4781  0.7357
 3676SOL    HW222665   2.481   1.203  10.074  1.0375 -0.8772  0.9760
 3677SOL     OW22666   4.420   3.448  10.731  0.4172  0.0813  0.2352
 3677SOL    HW122667   4.456   3.505  10.663 -0.1435  2.6280  2.0849
 3677SOL    HW222668   4.387   3.371  10.686  0.4992  0.8552 -1.1586
 3678SOL     OW22669   1.995   1.893  14.882  0.2839 -0.1490 -0.3835
 3678SOL    HW122670   2.076   1.911  14.929 -0.6066 -0.3648  1.2362
 3678SOL    HW222671   1.978   1.986  14.868 -1.0433 -0.0372  1.9361
 3679SOL     OW22672   0.003   2.486   1.902  0.1170  0.1539 -0.0893
 3679SOL    HW122673   4.740   2.551   1.972  3.6792 -1.3013  1.4760
 3679SOL    HW222674   4.652   2.470   1.883  0.0779 -1.0895  1.0600
 3680SOL     OW22675   2.407   2.336   6.523 -0.0184 -0.3358 -0.1846
 3680SOL    HW122676   2.349   2.408   6.500 -0.3201  0.1164  1.9828
 3680SOL    HW222677   2.407   2.296   6.436  1.2104  0.5826 -0.6026
 3681SOL     OW22678   3.426   1.066   3.625  0.0067  0.1169 -0.2511
 3681SOL    HW122679   3.385   0.992   3.580  0.6037 -0.7105  0.5675
 3681SOL    HW222680   3.358   1.130   3.607 -1.4820 -1.2532  0.5480
 3682SOL     OW22681   1.097   2.671   4.091  0.2962 -0.1866  0.4516
 3682SOL    HW122682   1.100   2.575   4.090  1.6597 -0.1398  0.0104
 3682SOL    HW222683   1.076   2.681   4.184 -0.0120  0.1939  0.3385
 3683SOL     OW22684   4.576   1.607   9.721  0.0868 -0.5441  0.1655
 3683SOL    HW122685   4.599   1.608   9.628  0.3512  0.6590  0.2336
 3683SOL    HW222686   4.504   1.545   9.730  0.0215 -0.3395  1.1069
 3684SOL     OW22687   3.479   1.148  13.754  1.1181 -0.0952 -0.0086
 3684SOL    HW122688   3.563   1.161  13.710  0.9373  0.3142 -0.2310
 3684SOL    HW222689   3.420   1.213  13.716  2.9783  0.8390 -1.3003
 3685SOL     OW22690   1.441   2.141   9.255  0.8319 -1.3720 -0.0013
 3685SOL    HW122691   1.525   2.097   9.269  1.3218 -1.1819 -2.3863
 3685SOL    HW222692   1.419   2.103   9.170 -1.5560  1.3720 -0.5881
 3686SOL     OW22693   3.160   3.981  15.162 -0.1633  1.1898  0.3779
 3686SOL    HW122694   3.112   4.055  15.199 -1.1812  2.1540 -2.7997
 3686SOL    HW222695   3.107   3.913  15.202  1.9109 -0.8757 -0.3981
 3687SOL     OW22696   0.263   1.081   7.093  0.1901 -0.1798  0.5361
 3687SOL    HW122697   0.342   1.095   7.041 -1.8145  0.6260 -2.2781
 3687SOL    HW222698   0.246   0.987   7.086  2.2571 -0.6871  2.1481
 3688SOL     OW22699   0.964   3.706   7.905  0.2230  0.5058  0.2507
 3688SOL    HW122700   0.888   3.764   7.914  0.4992  0.8245  0.5434
 3688SOL    HW222701   0.993   3.698   7.996 -2.8254 -1.1310  1.0852
 3689SOL     OW22702   2.962   0.709   7.097 -0.1930  0.2657  0.2428
 3689SOL    HW122703   2.964   0.613   7.096  0.8943  0.2898 -0.0905
 3689SOL    HW222704   3.018   0.743   7.027  0.2547  0.7418  0.8269
 3690SOL     OW22705   0.573   2.378   8.440 -0.3393  0.5585 -0.3422
 3690SOL    HW122706   0.568   2.422   8.355 -0.4848  1.0616 -0.0729
 3690SOL    HW222707   0.513   2.304   8.431 -1.2586  1.3198 -0.5728
 3691SOL     OW22708   2.272   1.252  11.513 -0.1907 -0.6394  0.0692
 3691SOL    HW122709   2.242   1.283  11.427  0.8315  2.2418  0.7683
 3691SOL    HW222710   2.219   1.317  11.559  0.1895  0.8339 -1.5928
 3692SOL     OW22711   1.202   3.267   3.129  0.2945 -0.8406 -0.1501
 3692SOL    HW122712   1.288   3.302   3.152  0.8665 -1.9024 -0.6524
 3692SOL    HW222713   1.142   3.328   3.170  1.6345 -0.1924  0.8455
 3693SOL     OW22714   0.612   1.592   6.560 -0.5917 -0.0018  0.6013
 3693SOL    HW122715   0.582   1.536   6.489 -1.1483  0.1195  0.7430
 3693SOL    HW222716   0.704   1.565   6.561 -0.7973 -0.7520 -0.3556
 3694SOL     OW22717   2.715   1.110   1.879 -0.6997 -0.0824  0.3057
 3694SOL    HW122718   2.684   1.034   1.830 -0.1973  1.7142 -2.7422
 3694SOL    HW222719   2.630   1.140   1.911  0.0025  1.4402  0.7489
 3695SOL     OW22720   2.771   1.617  12.813 -0.0970 -0.4744 -0.3648
 3695SOL    HW122721   2.696   1.640  12.869 -2.0812 -4.1521 -1.5841
 3695SOL    HW222722   2.834   1.607  12.884  0.0639  2.8175 -0.0306
 3696SOL     OW22723   4.252   2.935   3.658  0.1223  0.3786  0.1152
 3696SOL    HW122724   4.261   3.030   3.669  1.1692  0.3598 -0.6017
 3696SOL    HW222725   4.274   2.926   3.565 -0.9422  0.0100 -0.1035
 3697SOL     OW22726   2.915   3.228   3.856 -0.1623  0.0442 -0.0968
 3697SOL    HW122727   2.985   3.281   3.816 -0.9454  0.9913 -0.2118
 3697SOL    HW222728   2.921   3.268   3.943 -0.3350  0.0195 -0.0744
 3698SOL     OW22729   2.801   0.691   2.404 -0.0342  0.5188 -0.2346
 3698SOL    HW122730   2.767   0.697   2.314 -0.9280 -0.9104  0.0094
 3698SOL    HW222731   2.892   0.717   2.390 -1.1281  2.9299 -2.9377
 3699SOL     OW22732   3.314   3.411  10.348  0.0388 -0.0821 -0.0953
 3699SOL    HW122733   3.302   3.373  10.261 -0.3521  0.4438 -0.2690
 3699SOL    HW222734   3.241   3.377  10.400 -0.7192  0.9404 -0.5072
 3700SOL     OW22735   3.560   3.699  12.735  0.0889  0.5243  0.5979
 3700SOL    HW122736   3.496   3.634  12.763 -0.0932 -0.9135 -3.1610
 3700SOL    HW222737   3.526   3.776  12.780  0.3942  0.5497  0.7864
 3701SOL     OW22738   3.116   0.884   3.168 -0.1284  0.2007  0.4135
 3701SOL    HW122739   3.170   0.834   3.228 -1.5526 -0.6030  1.0061
 3701SOL    HW222740   3.034   0.835   3.164  0.1653 -0.2483 -0.1612
 3702SOL     OW22741   2.110   3.974   4.688  0.0318 -0.1705  0.2418
 3702SOL    HW122742   2.016   3.976   4.702  0.2906 -0.6272  2.0565
 3702SOL    HW222743   2.115   4.069   4.686  0.2130 -0.2230 -1.7849
 3703SOL     OW22744   2.670   0.777  12.726 -0.5306 -0.2266 -0.2269
 3703SOL    HW122745   2.696   0.732  12.646 -1.7498 -1.9537  0.3648
 3703SOL    HW222746   2.613   0.844  12.688  1.1633  0.5085 -1.4802
 3704SOL     OW22747   0.974   1.414   4.497 -0.2600 -0.1553 -0.1676
 3704SOL    HW122748   0.886   1.391   4.525  0.2361 -1.3146  0.4279
 3704SOL    HW222749   0.966   1.493   4.444  2.0716 -0.4209 -0.9206
 3705SOL     OW22750   3.720   2.954   4.459 -0.2603 -0.2614  0.0565
 3705SOL    HW122751   3.762   2.949   4.373 -1.7775  4.5608 -0.9604
 3705SOL    HW222752   3.690   2.863   4.463 -0.9567 -0.0765 -0.9331
 3706SOL     OW22753   0.903   1.533   2.562  0.4739 -0.3692 -0.5585
 3706SOL    HW122754   0.918   1.463   2.625  0.8996  0.2125 -0.0046
 3706SOL    HW222755   0.848   1.494   2.494 -1.4236  0.6293  0.4098
 3707SOL     OW22756   3.417   1.790   0.585  0.2101  0.5314  0.0147
 3707SOL    HW122757   3.378   1.855   0.644 -1.3301 -1.3415  1.0826
 3707SOL    HW222758   3.468   1.835   0.518  1.4326  1.1385  1.3585
 3708SOL     OW22759   0.319   3.271   3.765  0.3491 -0.4428 -0.1274
 3708SOL    HW122760   0.347   3.289   3.675  0.7141 -0.8580 -0.0993
 3708SOL    HW222761   0.237   3.321   3.769 -1.0825 -2.6431 -1.4654
 3709SOL     OW22762   1.691   2.252   8.667  0.7154 -0.7282 -0.0016
 3709SOL    HW122763   1.690   2.250   8.763  3.3489 -0.4321  0.0176
 3709SOL    HW222764   1.673   2.165   8.631  0.0497 -1.4149  1.9669
 3710SOL     OW22765   1.388   1.445   7.263 -0.5680 -0.1364  0.6592
 3710SOL    HW122766   1.373   1.399   7.181 -0.0460  1.4625 -0.3222
 3710SOL    HW222767   1.317   1.507   7.251  1.4456  2.4755  2.3124
 3711SOL     OW22768   3.449   2.740   8.701  0.4758 -0.3651  0.1731
 3711SOL    HW122769   3.420   2.689   8.777  0.9969 -1.3550 -0.3003
 3711SOL    HW222770   3.368   2.787   8.679 -0.0655 -0.7595  1.3296
 3712SOL     OW22771   2.840   2.462   7.426  0.1086 -0.1333  0.2032
 3712SOL    HW122772   2.775   2.529   7.449 -1.2112 -1.1352 -0.6075
 3712SOL    HW222773   2.879   2.432   7.508 -0.0471 -2.3442 -0.5381
 3713SOL     OW22774   3.311   2.574   4.811  0.5175 -0.0858 -0.8482
 3713SOL    HW122775   3.303   2.670   4.810 -1.6495 -0.2326  1.2282
 3713SOL    HW222776   3.218   2.552   4.824 -0.5197  2.9788 -2.8623
 3714SOL     OW22777   0.766   1.028   5.676  0.1108 -0.7114  0.6435
 3714SOL    HW122778   0.700   1.058   5.613  0.2527  0.9599  1.2978
 3714SOL    HW222779   0.834   1.095   5.673  0.0271 -0.6683 -0.7096
 3715SOL     OW22780   0.982   3.600   7.554  0.5993  0.1070 -0.2129
 3715SOL    HW122781   1.002   3.689   7.586  0.4392  0.5880 -1.4562
 3715SOL    HW222782   0.895   3.615   7.519 -1.2999 -4.0051  2.7583
 3716SOL     OW22783   2.081   0.619  17.659 -0.3876 -0.4097  0.2851
 3716SOL    HW122784   2.010   0.680  17.680 -0.7742 -1.4363  2.0402
 3716SOL    HW222785   2.135   0.632  17.737 -1.9836  1.9532  0.9879
 3717SOL     OW22786   2.898   1.296   3.139 -0.0372 -0.4557  0.3511
 3717SOL    HW122787   2.918   1.380   3.098  0.4717 -0.4744  0.5656
 3717SOL    HW222788   2.803   1.303   3.148  0.3139  1.8368  2.0255
 3718SOL     OW22789   0.245   2.875   9.328  0.0307  0.2874  1.0319
 3718SOL    HW122790   0.251   2.877   9.233 -1.9419  4.4391  1.0107
 3718SOL    HW222791   0.255   2.964   9.363 -1.1443  0.4242  1.0382
 3719SOL     OW22792   3.350   1.344   4.134  0.1850  0.0964 -0.1205
 3719SOL    HW122793   3.361   1.267   4.079 -0.9509  1.2089 -1.8916
 3719SOL    HW222794   3.360   1.291   4.213 -0.2633  1.5133  0.8883
 3720SOL     OW22795   0.320   3.009   0.146  0.4401  0.2266 -0.5040
 3720SOL    HW122796   0.283   2.942   0.204 -2.5168  1.6218 -0.7822
 3720SOL    HW222797   0.259   3.083   0.146  1.3877  1.0054  1.9931
 3721SOL     OW22798   2.411   2.678  15.369  0.0953  0.2863  0.2759
 3721SOL    HW122799   2.441   2.705  15.283  0.3498  1.1226  0.6213
 3721SOL    HW222800   2.484   2.629  15.407  0.3609 -0.3228 -1.0622
 3722SOL     OW22801   4.141   2.660  13.226  0.0635 -0.0774  0.5693
 3722SOL    HW122802   4.157   2.589  13.164  3.1656 -0.5732  1.9255
 3722SOL    HW222803   4.229   2.673  13.260  1.5708  2.2232 -4.2459
 3723SOL     OW22804   3.912   1.679   6.927  0.3135 -0.6076 -0.0148
 3723SOL    HW122805   3.822   1.653   6.904 -0.6172  1.1519  1.5644
 3723SOL    HW222806   3.899   1.771   6.903 -1.0748 -0.6641  0.4750
 3724SOL     OW22807   1.004   4.149   0.788 -0.3576  0.0242 -0.3699
 3724SOL    HW122808   0.948   4.188   0.721 -0.6638 -0.5534 -0.4551
 3724SOL    HW222809   1.028   4.063   0.754 -0.7693 -0.1941 -0.1183
 3725SOL     OW22810   1.403   1.466   5.280  0.6471 -0.6428  0.7235
 3725SOL    HW122811   1.478   1.426   5.238  1.9205  0.1529  2.2323
 3725SOL    HW222812   1.424   1.462   5.374  2.8177  0.3362  0.2770
 3726SOL     OW22813   1.453   0.229   1.684  0.4681 -0.7561  0.8229
 3726SOL    HW122814   1.373   0.278   1.664 -0.6673 -2.0635  2.2575
 3726SOL    HW222815   1.415   0.142   1.686  0.6146 -0.7989  1.5403
 3727SOL     OW22816   4.192   3.540   6.399 -0.1909 -0.1423  0.0294
 3727SOL    HW122817   4.265   3.577   6.448  0.6278 -0.2008 -1.1294
 3727SOL    HW222818   4.128   3.611   6.403  0.5262  0.4594  0.7004
 3728SOL     OW22819   2.725   4.690   9.161  0.1339 -0.2779 -0.1337
 3728SOL    HW122820   2.821   4.680   9.164  0.0648 -0.4024  1.3474
 3728SOL    HW222821   2.698   4.628   9.093 -0.0422  1.2036 -1.4266
 3729SOL     OW22822   1.549   1.408   6.489  0.5898  0.0756 -0.1593
 3729SOL    HW122823   1.592   1.487   6.456  1.0747  0.7290  2.0904
 3729SOL    HW222824   1.610   1.394   6.562 -2.0056 -0.8268  1.8211
 3730SOL     OW22825   3.544   2.791   7.493 -0.2359  0.1825 -0.3843
 3730SOL    HW122826   3.461   2.791   7.446 -1.2091  0.4401  1.3496
 3730SOL    HW222827   3.515   2.852   7.561  1.7371  0.3141  0.3424
 3731SOL     OW22828   3.646   1.626   8.839  0.2463 -0.1207  0.0149
 3731SOL    HW122829   3.659   1.641   8.933  1.2163 -2.4803  0.2641
 3731SOL    HW222830   3.652   1.531   8.844  0.6526 -0.0166  1.6755
 3732SOL     OW22831   3.424   3.838   9.724  0.1805 -0.2692 -0.1615
 3732SOL    HW122832   3.403   3.768   9.785 -1.5120 -0.0510 -0.5083
 3732SOL    HW222833   3.483   3.887   9.782 -0.6625  0.0411  0.4308
 3733SOL     OW22834   1.698   3.367   1.409 -0.1080 -0.6332 -0.6178
 3733SOL    HW122835   1.654   3.401   1.330 -0.4864  0.7585  0.1878
 3733SOL    HW222836   1.697   3.273   1.393  1.0909 -0.8145  0.3594
 3734SOL     OW22837   1.223   3.691   1.530 -0.0039 -0.2828 -0.0098
 3734SOL    HW122838   1.179   3.740   1.599  0.3636  0.3597 -0.2321
 3734SOL    HW222839   1.182   3.733   1.453 -2.4936 -0.4950  1.1890
 3735SOL     OW22840   4.005   4.534  15.519 -0.3148 -0.2445  0.5881
 3735SOL    HW122841   4.026   4.549  15.426  2.2438  5.2910  2.0900
 3735SOL    HW222842   3.910   4.520  15.521 -0.3826  0.1518  0.2227
 3736SOL     OW22843   2.028   2.503   4.192  0.9714  0.0998 -0.3864
 3736SOL    HW122844   2.057   2.474   4.106 -1.7157 -1.3134 -0.8017
 3736SOL    HW222845   2.068   2.445   4.257 -2.2365 -0.7075  0.8429
 3737SOL     OW22846   4.289   0.620   7.459 -0.3247 -0.2162 -0.2456
 3737SOL    HW122847   4.358   0.571   7.415  1.9351  1.5411  1.3452
 3737SOL    HW222848   4.333   0.674   7.524  0.6620 -0.2523 -0.8814
 3738SOL     OW22849   2.122   1.291  11.291 -0.3894 -0.0917 -0.2737
 3738SOL    HW122850   2.150   1.261  11.204  2.1450  0.1279  0.4520
 3738SOL    HW222851   2.037   1.247  11.291 -1.3267  1.7137  0.0829
 3739SOL     OW22852   0.685   1.583   9.443  0.3833 -0.2894  0.0302
 3739SOL    HW122853   0.673   1.580   9.538  1.8346 -1.6324  0.1795
 3739SOL    HW222854   0.752   1.652   9.439  1.7151 -1.5983 -0.5880
 3740SOL     OW22855   2.487   2.086   4.752  0.1258 -0.2352 -0.5164
 3740SOL    HW122856   2.410   2.050   4.795 -0.4021  0.6086 -0.7707
 3740SOL    HW222857   2.461   2.051   4.667 -0.3948 -1.0178 -0.0328
 3741SOL     OW22858   2.919   2.187  15.116 -0.8130  0.0993  0.0428
 3741SOL    HW122859   2.960   2.173  15.031 -0.7407  1.5679 -0.1747
 3741SOL    HW222860   2.961   2.271  15.137 -2.1574  0.8696 -0.3318
 3742SOL     OW22861   4.600   2.884   8.290 -1.0614  0.1398  0.0870
 3742SOL    HW122862   4.555   2.965   8.316  0.0659  1.0872 -0.8833
 3742SOL    HW222863   4.600   2.826   8.366  1.8243 -0.4399 -0.3614
 3743SOL     OW22864   3.563   1.143  12.016 -0.3564  0.2828  0.3012
 3743SOL    HW122865   3.469   1.139  11.999 -0.2515  0.8937 -0.4068
 3743SOL    HW222866   3.571   1.226  12.064  0.8710 -0.7262  1.8505
 3744SOL     OW22867   2.350   2.327   4.607 -0.2474 -0.2530 -0.3471
 3744SOL    HW122868   2.410   2.402   4.616  0.9409 -1.3673  1.1506
 3744SOL    HW222869   2.323   2.305   4.696 -2.7278  0.2827 -0.9927
 3745SOL     OW22870   4.134   2.532  10.389 -0.4593  0.6540  0.4465
 3745SOL    HW122871   4.116   2.576  10.306 -2.7410  1.9089  1.6070
 3745SOL    HW222872   4.122   2.603  10.453  1.1172  1.2366  0.0801
 3746SOL     OW22873   1.203   0.376  16.707 -0.2849  0.2290  0.1263
 3746SOL    HW122874   1.164   0.303  16.659  0.1146  1.1675 -1.5993
 3746SOL    HW222875   1.132   0.440  16.706 -1.6133 -1.2408 -1.2349
 3747SOL     OW22876   0.604   2.367   3.728 -0.3429 -0.2469  0.0368
 3747SOL    HW122877   0.635   2.369   3.818  2.0862 -1.3394 -0.7869
 3747SOL    HW222878   0.591   2.460   3.706  0.8087 -0.5138 -1.7537
 3748SOL     OW22879   4.487   1.610   5.786  0.5679 -0.3885  0.4911
 3748SOL    HW122880   4.526   1.614   5.699  0.4486  0.7893  0.4898
 3748SOL    HW222881   4.555   1.651   5.840 -1.0299  0.5912  1.7625
 3749SOL     OW22882   0.826   3.967   6.369 -0.1918 -0.6799 -0.6579
 3749SOL    HW122883   0.789   4.012   6.292  2.2636  2.3576 -0.0357
 3749SOL    HW222884   0.830   4.040   6.430 -1.9735 -0.1769 -1.1258
 3750SOL     OW22885   2.992   2.754   8.241  0.7445  0.9479  0.0948
 3750SOL    HW122886   3.048   2.706   8.301 -0.2507 -0.9537 -0.4841
 3750SOL    HW222887   3.029   2.841   8.250  2.8914  0.1070 -0.6603
 3751SOL     OW22888   1.091   3.762   1.303 -0.2521  0.5583  0.4458
 3751SOL    HW122889   1.061   3.690   1.247 -0.2345 -0.7278  2.0898
 3751SOL    HW222890   1.077   3.843   1.254  0.9397 -0.2329 -1.2190
 3752SOL     OW22891   2.610   1.192  10.718 -0.3860 -0.1276 -0.0980
 3752SOL    HW122892   2.613   1.143  10.636 -1.5155 -0.0011 -0.2113
 3752SOL    HW222893   2.550   1.261  10.690 -1.8644 -1.1691  0.4993
 3753SOL     OW22894   2.049   2.276   4.766  0.3413 -0.1819  0.1743
 3753SOL    HW122895   1.959   2.277   4.798 -0.6921  1.7865 -2.9089
 3753SOL    HW222896   2.089   2.326   4.838  2.4351  0.4062 -1.4007
 3754SOL     OW22897   0.371   3.491   7.382  0.0947  0.2717  0.2255
 3754SOL    HW122898   0.462   3.469   7.404  0.3680 -0.2007 -1.3446
 3754SOL    HW222899   0.376   3.488   7.286  2.2369 -0.5958  0.3624
 3755SOL     OW22900   0.522   3.375   5.825 -0.3494  0.5045  0.0692
 3755SOL    HW122901   0.565   3.291   5.838  1.9875  1.6574 -0.2869
 3755SOL    HW222902   0.435   3.354   5.860  0.4697 -2.6429  0.1891
 3756SOL     OW22903   0.794   4.703   2.873 -0.8646  0.0626  0.6197
 3756SOL    HW122904   0.763   4.636   2.811 -2.4018  0.4741  0.9334
 3756SOL    HW222905   0.863   0.002   2.819 -2.8597  0.9669 -1.2711
 3757SOL     OW22906   2.871   2.782   5.641  0.3219 -0.1955  0.4976
 3757SOL    HW122907   2.936   2.739   5.696 -0.8575 -1.9607  0.5197
 3757SOL    HW222908   2.886   2.874   5.661  0.4711 -0.0229 -0.4193
 3758SOL     OW22909   1.152   1.699   5.707  0.0594  0.0531  0.1287
 3758SOL    HW122910   1.088   1.640   5.747 -0.5034  1.0431  0.6844
 3758SOL    HW222911   1.139   1.687   5.613 -0.4559  0.8693  0.0919
 3759SOL     OW22912   4.015   1.143   4.117 -0.1526 -0.5588  0.2020
 3759SOL    HW122913   4.082   1.208   4.139  0.8319 -1.0397 -1.3785
 3759SOL    HW222914   3.976   1.171   4.035  0.7861  1.2154  0.3693
 3760SOL     OW22915   3.938   1.831   9.169  0.9500  0.2413  0.0499
 3760SOL    HW122916   3.999   1.760   9.192 -1.4874 -1.3719  1.6142
 3760SOL    HW222917   3.969   1.904   9.222  0.3039  0.4844  0.0875
 3761SOL     OW22918   0.196   1.339   2.581  0.3900  0.2837  1.0371
 3761SOL    HW122919   0.214   1.417   2.634 -0.0747  0.5437  0.8105
 3761SOL    HW222920   0.136   1.284   2.630 -1.2955  1.1546 -0.0575
 3762SOL     OW22921   0.084   4.242   7.769  0.3979  0.2958  0.3842
 3762SOL    HW122922   0.095   4.315   7.709 -0.4416  0.6933  0.7198
 3762SOL    HW222923   0.154   4.250   7.834 -0.1927  0.3514  1.0157
 3763SOL     OW22924   1.368   3.070   7.045 -0.3504 -0.4511  0.1029
 3763SOL    HW122925   1.369   3.163   7.024  0.0173 -0.1589  1.4708
 3763SOL    HW222926   1.278   3.054   7.015 -0.8191 -0.1745  1.3517
 3764SOL     OW22927   0.081   2.612  14.324  0.0502 -0.0735  0.0029
 3764SOL    HW122928   0.153   2.549  14.319 -0.0141 -0.0430 -1.3067
 3764SOL    HW222929   0.062   2.611  14.230 -0.4979 -0.0101  0.1132
 3765SOL     OW22930   1.341   0.132   2.010 -0.4580  0.0343 -0.3744
 3765SOL    HW122931   1.256   0.143   1.966  0.0398  2.3538 -0.7663
 3765SOL    HW222932   1.383   0.075   1.946 -0.5311  1.1339 -1.4095
 3766SOL     OW22933   2.716   4.079   7.130 -0.0560 -0.0095  0.1412
 3766SOL    HW122934   2.645   4.099   7.190 -0.5717 -0.9419 -0.1508
 3766SOL    HW222935   2.756   4.002   7.170 -2.8129 -1.5409 -0.0828
 3767SOL     OW22936   2.093   1.455   7.702 -0.6492  0.2875  0.4099
 3767SOL    HW122937   2.029   1.518   7.669  1.0850  1.2878 -1.0890
 3767SOL    HW222938   2.090   1.376   7.648  1.8123  0.1197  0.5335
 3768SOL     OW22939   0.346   2.959   2.947  0.6939  0.6870  0.1603
 3768SOL    HW122940   0.418   2.940   3.009 -1.0950 -4.0432  0.7680
 3768SOL    HW222941   0.393   2.935   2.867  1.6057  0.3512  0.7955
 3769SOL     OW22942   1.493   1.499  15.168  0.3865 -0.3466 -0.1414
 3769SOL    HW122943   1.439   1.454  15.232 -1.4826 -0.7296 -1.9791
 3769SOL    HW222944   1.555   1.427  15.158 -0.1982 -0.5635 -2.3178
 3770SOL     OW22945   1.919   0.582   5.520  0.4424 -0.4941  0.3156
 3770SOL    HW122946   1.826   0.603   5.517  0.6163  0.0443 -1.1324
 3770SOL    HW222947   1.920   0.487   5.530  2.3625 -0.4102  0.9892
 3771SOL     OW22948   3.179   1.896   4.537 -0.4818 -0.1905  0.5183
 3771SOL    HW122949   3.262   1.933   4.505 -0.1340 -1.8938 -0.5183
 3771SOL    HW222950   3.126   1.971   4.508  0.7266  0.3317 -0.3814
 3772SOL     OW22951   3.287   2.693  10.533  0.1942 -0.4208  0.3588
 3772SOL    HW122952   3.381   2.693  10.517 -0.4567  2.1447 -3.5805
 3772SOL    HW222953   3.241   2.651  10.460  1.6912 -0.0829 -0.7699
 3773SOL     OW22954   3.349   1.386   1.263 -0.0428 -0.6788 -0.0842
 3773SOL    HW122955   3.419   1.407   1.324  1.1256  0.5175 -1.8394
 3773SOL    HW222956   3.308   1.471   1.252 -0.5837 -1.0518 -0.9789
 3774SOL     OW22957   2.176   4.292   3.322 -0.0520  0.0657  0.2193
 3774SOL    HW122958   2.226   4.361   3.367 -1.3194  0.5545  0.8891
 3774SOL    HW222959   2.224   4.274   3.241  2.9161  1.4187  1.6559
 3775SOL     OW22960   3.299   1.204   9.052 -0.1537  0.1905 -0.0162
 3775SOL    HW122961   3.247   1.132   9.017 -0.0870  0.8447 -1.4670
 3775SOL    HW222962   3.311   1.173   9.141  0.8949 -0.1000 -0.2597
 3776SOL     OW22963   4.486   2.615   5.513 -0.9669  0.2581 -0.1658
 3776SOL    HW122964   4.421   2.623   5.443 -3.0413  0.5263  1.7898
 3776SOL    HW222965   4.430   2.568   5.575 -1.1153 -0.7259 -1.0434
 3777SOL     OW22966   0.617   2.651  16.408  0.2915  0.3075 -0.1780
 3777SOL    HW122967   0.540   2.602  16.379  1.8016  0.4490 -4.5369
 3777SOL    HW222968   0.688   2.612  16.357 -0.0826 -0.0601 -0.4223
 3778SOL     OW22969   1.883   3.409   5.363  0.0736 -0.1330  0.4551
 3778SOL    HW122970   1.800   3.362   5.356 -1.1269  1.8334  1.3732
 3778SOL    HW222971   1.842   3.491   5.336 -1.9262 -1.0721  0.6743
 3779SOL     OW22972   0.275   0.291   5.949 -0.5356 -0.2513  0.0527
 3779SOL    HW122973   0.367   0.284   5.926 -0.4284 -0.4362  0.5344
 3779SOL    HW222974   0.283   0.325   6.038 -0.2589 -0.0355 -0.0559
 3780SOL     OW22975   1.168   0.276   4.213  0.4297 -0.3680 -0.4886
 3780SOL    HW122976   1.152   0.287   4.120 -0.0377  0.2333 -0.3322
 3780SOL    HW222977   1.131   0.188   4.225  2.6960 -1.2937 -0.0568
 3781SOL     OW22978   2.804   1.964  14.216 -0.2177  0.3340 -0.3578
 3781SOL    HW122979   2.782   1.983  14.125 -1.4704 -1.2406 -0.3874
 3781SOL    HW222980   2.886   1.914  14.220  0.0841  0.7228 -1.8226
 3782SOL     OW22981   4.158   1.273   5.979 -0.5039  0.4871  0.3033
 3782SOL    HW122982   4.150   1.256   6.073 -0.9112  0.4267  0.2555
 3782SOL    HW222983   4.237   1.326   5.986  0.4467 -0.4670 -3.3135
 3783SOL     OW22984   2.479   2.259  14.567 -0.4599 -1.0379  0.2579
 3783SOL    HW122985   2.549   2.278  14.504  0.0055 -0.7699  0.8511
 3783SOL    HW222986   2.435   2.342  14.548  0.2461 -0.4976  0.9910
 3784SOL     OW22987   1.326   2.682  16.065 -0.4255  0.6669  0.0007
 3784SOL    HW122988   1.355   2.766  16.029 -2.6615  0.5901 -1.9336
 3784SOL    HW222989   1.407   2.631  16.065  0.5036  2.1262 -0.9859
 3785SOL     OW22990   2.342   0.014   4.061  0.0390 -0.7406 -0.7240
 3785SOL    HW122991   2.375   0.049   4.143  0.4790  0.8863 -1.6025
 3785SOL    HW222992   2.387   4.671   4.069  0.0976 -0.5095  1.2571
 3786SOL     OW22993   3.605   2.410   9.057  0.4786  0.0699  0.6466
 3786SOL    HW122994   3.657   2.391   8.979  1.7455  3.6905  0.6369
 3786SOL    HW222995   3.598   2.324   9.097  0.0929 -0.7903 -1.2658
 3787SOL     OW22996   2.127   0.946   4.103  0.3444 -0.2562 -0.4124
 3787SOL    HW122997   2.163   0.933   4.015  0.4020  1.1919 -0.5993
 3787SOL    HW222998   2.049   0.992   4.074  0.1718 -0.6360 -0.5606
 3788SOL     OW22999   1.734   3.464   2.021 -0.0943  0.5724  0.3077
 3788SOL    HW123000   1.780   3.438   2.101 -0.9660 -1.1754  0.2470
 3788SOL    HW223001   1.798   3.512   1.969  0.8625 -1.5519 -0.4746
 3789SOL     OW23002   0.054   1.717   5.366  0.1979 -0.3812 -0.0284
 3789SOL    HW123003   0.145   1.747   5.365 -0.5587  1.8918 -0.0200
 3789SOL    HW223004   0.038   1.693   5.275 -1.4306 -1.2954  0.4966
 3790SOL     OW23005   0.228   4.433  15.745  0.1901 -0.8244  0.2379
 3790SOL    HW123006   0.145   4.454  15.787  0.1078  0.4873 -0.5802
 3790SOL    HW223007   0.230   4.338  15.756  1.6571 -0.8736 -0.4155
 3791SOL     OW23008   3.295   1.811   0.012  0.4379 -0.4759 -0.2778
 3791SOL    HW123009   3.226   1.874  17.753 -0.0784 -0.5071  1.4530
 3791SOL    HW223010   3.248   1.751   0.071  0.3036 -0.7002 -0.6095
 3792SOL     OW23011   4.302   3.132  15.830  0.7576 -0.0065  0.0821
 3792SOL    HW123012   4.333   3.071  15.763  0.2536  0.4162 -0.5401
 3792SOL    HW223013   4.208   3.141  15.815  0.6047 -1.3924  0.1833
 3793SOL     OW23014   1.958   0.170   6.815 -0.7573 -0.2487  0.0488
 3793SOL    HW123015   1.871   0.131   6.807 -0.2910 -0.7443 -2.5199
 3793SOL    HW223016   1.949   0.265   6.825 -0.1802 -0.2159  0.2682
 3794SOL     OW23017   0.992   0.138  11.578 -0.2050  0.9941 -0.1084
 3794SOL    HW123018   0.925   0.073  11.558  2.5362 -1.4174 -1.4803
 3794SOL    HW223019   1.012   0.132  11.672  0.1077 -3.1869 -0.4270
 3795SOL     OW23020   0.350   0.053   2.475  0.4969  0.3870 -0.0775
 3795SOL    HW123021   0.312   0.016   2.395  1.4901  1.3768 -1.0192
 3795SOL    HW223022   0.434   0.008   2.487 -0.6836 -1.5392  0.9406
 3796SOL     OW23023   3.699   4.336   2.755 -0.3421  0.0621  0.3748
 3796SOL    HW123024   3.747   4.262   2.792 -3.4154 -2.1529 -0.0861
 3796SOL    HW223025   3.772   4.386   2.718  0.1713 -2.3275 -1.8486
 3797SOL     OW23026   3.626   2.265   7.085  0.5985  0.4306  0.2832
 3797SOL    HW123027   3.631   2.175   7.054  1.2187  0.6273 -0.1870
 3797SOL    HW223028   3.644   2.253   7.178  0.1699  0.2958  0.3461
 3798SOL     OW23029   3.998   0.240   1.771  0.1880 -0.1003  0.1100
 3798SOL    HW123030   4.047   0.321   1.784 -0.0321 -0.4261  2.9154
 3798SOL    HW223031   4.034   0.182   1.838 -3.1628  0.8087  2.6812
 3799SOL     OW23032   1.064   2.921   6.244 -0.7050 -0.6639  0.0052
 3799SOL    HW123033   1.105   2.936   6.159 -0.8583 -0.0722  0.0423
 3799SOL    HW223034   0.971   2.943   6.240 -0.8687 -1.5782 -1.3534
 3800SOL     OW23035   3.878   1.937   8.415  0.1982 -0.6143  0.0832
 3800SOL    HW123036   3.865   1.842   8.407 -0.0758 -0.5690 -0.0375
 3800SOL    HW223037   3.788   1.968   8.402  0.9414  1.7581  0.7138
 3801SOL     OW23038   4.560   3.808  14.661  0.9455 -0.3312 -0.1064
 3801SOL    HW123039   4.542   3.778  14.750 -0.4019  0.3266 -0.1630
 3801SOL    HW223040   4.524   3.737  14.607  1.3902  0.5725 -1.6036
 3802SOL     OW23041   3.737   3.024   5.751 -0.2519 -0.1979  0.0111
 3802SOL    HW123042   3.797   3.092   5.721 -0.9631  0.5817  0.3865
 3802SOL    HW223043   3.788   2.943   5.744 -0.5355 -0.3427 -0.3621
 3803SOL     OW23044   4.001   1.404   3.104  0.3638 -0.0260  0.0401
 3803SOL    HW123045   4.090   1.438   3.106 -0.1030  1.2236 -0.6207
 3803SOL    HW223046   3.974   1.394   3.012  0.5946  0.5451 -0.0896
 3804SOL     OW23047   0.090   3.796   2.827  0.1426 -0.2369  0.3882
 3804SOL    HW123048   0.078   3.712   2.871  1.8810 -0.6349  0.1184
 3804SOL    HW223049   0.180   3.814   2.853  0.1789 -1.4657  1.1253
 3805SOL     OW23050   4.649   3.330   7.291 -0.0922  0.4803 -0.1771
 3805SOL    HW123051   4.706   3.296   7.222 -1.0367  0.5208 -0.9649
 3805SOL    HW223052   4.695   3.310   7.373  0.2256  0.4262 -0.3678
 3806SOL     OW23053   2.703   0.398   8.000  0.2803  0.3039  0.7932
 3806SOL    HW123054   2.790   0.358   8.000 -1.2080 -2.9373  1.1350
 3806SOL    HW223055   2.727   0.473   7.945  1.6738 -0.1417  0.7868
 3807SOL     OW23056   2.318   4.162  12.702 -0.5306 -0.2941 -0.0278
 3807SOL    HW123057   2.239   4.123  12.739 -0.7508 -1.4443 -1.7463
 3807SOL    HW223058   2.347   4.211  12.779 -2.0380  0.9231 -0.2534
 3808SOL     OW23059   4.079   2.496  17.142  0.4056  0.1174  0.3996
 3808SOL    HW123060   4.052   2.476  17.232  0.3928  2.8357  0.9994
 3808SOL    HW223061   4.167   2.527  17.160  0.6569  0.1391 -0.8855
 3809SOL     OW23062   2.145   3.107   6.143  0.2622  0.2772  0.4678
 3809SOL    HW123063   2.072   3.083   6.085  1.2209 -2.1833  0.2461
 3809SOL    HW223064   2.175   3.192   6.113  0.2860 -0.6911 -2.2794
 3810SOL     OW23065   3.327   4.197  13.449 -0.4085  0.1793 -0.8794
 3810SOL    HW123066   3.371   4.279  13.473 -0.3185 -0.0403 -0.2973
 3810SOL    HW223067   3.400   4.136  13.436  0.7943  1.6253 -0.8976
 3811SOL     OW23068   2.914   4.556   7.593  0.0774  0.2853  0.1137
 3811SOL    HW123069   2.865   4.620   7.645 -0.2162  0.4766 -0.3920
 3811SOL    HW223070   3.002   4.566   7.628 -0.0283 -0.5211  0.6090
 3812SOL     OW23071   1.663   2.918   2.817  0.2442  0.3029  0.5177
 3812SOL    HW123072   1.737   2.900   2.875  0.4885 -1.0883 -0.2108
 3812SOL    HW223073   1.707   2.922   2.732 -0.0904 -1.2800  0.2569
 3813SOL     OW23074   1.301   1.648   1.783  0.4933 -0.7442  0.3034
 3813SOL    HW123075   1.220   1.610   1.816 -0.1013 -1.8524 -2.4599
 3813SOL    HW223076   1.372   1.596   1.821  1.8546  0.8797 -0.0306
 3814SOL     OW23077   3.989   2.382   3.159 -0.2759 -0.6184  0.6901
 3814SOL    HW123078   3.899   2.360   3.138  0.2292 -1.5704 -0.4378
 3814SOL    HW223079   4.011   2.452   3.098 -1.9722  0.0712  0.8660
 3815SOL     OW23080   0.162   3.713  15.542 -0.5727  0.0753  0.6885
 3815SOL    HW123081   0.092   3.716  15.477  2.1202 -0.3496 -2.2074
 3815SOL    HW223082   0.124   3.780  15.599 -1.1456 -0.4824  0.9590
 3816SOL     OW23083   4.223   1.009   4.788 -0.5168 -0.0944  0.3967
 3816SOL    HW123084   4.257   1.083   4.839  0.2771  1.7488 -2.7773
 3816SOL    HW223085   4.296   0.952   4.810 -0.7492 -1.0325 -1.2508
 3817SOL     OW23086   4.366   2.041  10.026 -0.2998  0.4115 -0.0664
 3817SOL    HW123087   4.330   2.129  10.036  0.8934  0.5618  2.8077
 3817SOL    HW223088   4.432   2.053   9.958  0.1143 -1.1162  0.0691
 3818SOL     OW23089   3.732   0.360   8.042 -0.4112 -0.3541  0.5444
 3818SOL    HW123090   3.640   0.360   8.068  0.2117  1.8727  2.6758
 3818SOL    HW223091   3.775   0.425   8.098  0.7128 -0.8427  0.2524
 3819SOL     OW23092   3.118   3.012   9.453 -0.6551  0.1991 -0.3131
 3819SOL    HW123093   3.174   2.969   9.389  2.7633  1.2367  2.0037
 3819SOL    HW223094   3.043   3.049   9.406 -1.4566  0.5007  1.1900
 3820SOL     OW23095   2.662   3.495   8.187  0.0333 -0.1100  0.1161
 3820SOL    HW123096   2.640   3.424   8.247  2.0687 -0.0832  0.8838
 3820SOL    HW223097   2.625   3.459   8.106 -1.6012 -0.1064  0.8587
 3821SOL     OW23098   2.588   4.622   1.302 -0.4720 -0.5127 -0.5135
 3821SOL    HW123099   2.541   4.545   1.271  1.9638 -2.6707  1.1368
 3821SOL    HW223100   2.671   4.630   1.255 -0.0482 -1.8176  0.0003
 3822SOL     OW23101   3.963   2.410  11.369 -0.1800 -0.0811  0.5282
 3822SOL    HW123102   4.017   2.350  11.421 -0.4990  0.7250  1.7765
 3822SOL    HW223103   4.018   2.488  11.373 -1.1907  0.7032 -0.9319
 3823SOL     OW23104   3.237   3.731  16.864 -0.2135 -0.0564 -0.0503
 3823SOL    HW123105   3.277   3.764  16.784 -1.4398 -1.6580 -1.3329
 3823SOL    HW223106   3.282   3.649  16.885  0.9222  1.0637  1.8211
 3824SOL     OW23107   3.033   0.120  12.869  0.6999  0.1170  0.5850
 3824SOL    HW123108   3.079   0.056  12.814  1.2506  0.2039  0.9372
 3824SOL    HW223109   2.985   0.174  12.806 -0.1424 -0.4195  0.7691
 3825SOL     OW23110   4.163   4.139   0.868  0.0960  0.4595  0.2476
 3825SOL    HW123111   4.132   4.120   0.780 -2.1920 -0.0362  1.1751
 3825SOL    HW223112   4.096   4.192   0.910  2.3681  1.9036  2.1157
 3826SOL     OW23113   4.258   0.658   3.948 -0.1246 -0.3809 -0.0039
 3826SOL    HW123114   4.279   0.737   3.898 -2.4531 -0.1382 -0.5966
 3826SOL    HW223115   4.234   0.682   4.037  1.8102 -1.6576  0.8487
 3827SOL     OW23116   4.607   1.817   4.899  0.0813  0.4139  0.2850
 3827SOL    HW123117   4.637   1.853   4.816  4.0708 -1.1586  1.0570
 3827SOL    HW223118   4.535   1.875   4.923 -1.1717 -1.2283  0.5220
 3828SOL     OW23119   1.615   4.229   5.777 -0.3787 -0.4909 -0.3998
 3828SOL    HW123120   1.596   4.149   5.825 -0.8694  0.9404  1.8118
 3828SOL    HW223121   1.597   4.292   5.847  0.9493 -1.8780  1.1752
 3829SOL     OW23122   0.210   2.578   8.391  0.2465  0.0364 -0.4703
 3829SOL    HW123123   0.191   2.531   8.472  1.6411  0.2316 -0.0349
 3829SOL    HW223124   0.201   2.672   8.406  2.2499 -0.4321  3.4990
 3830SOL     OW23125   2.881   0.496   4.993 -0.5364 -0.3261  0.0465
 3830SOL    HW123126   2.796   0.461   4.967 -0.7441  0.6168 -0.5628
 3830SOL    HW223127   2.929   0.451   4.924 -0.6623 -1.3291  0.6118
 3831SOL     OW23128   2.876   0.339  16.365 -0.3126 -0.1910  0.4249
 3831SOL    HW123129   2.916   0.422  16.391 -0.2837 -0.6408  1.8189
 3831SOL    HW223130   2.861   0.322  16.459 -0.5102 -2.1439  0.0497
 3832SOL     OW23131   1.288   4.670   3.088 -0.4058 -0.0737 -0.1752
 3832SOL    HW123132   1.242   0.009   3.114 -0.5049  0.0427 -0.7242
 3832SOL    HW223133   1.239   4.648   3.009  2.3657 -0.4513 -1.7565
 3833SOL     OW23134   2.583   4.078   9.227  0.5299 -0.1773 -0.0717
 3833SOL    HW123135   2.549   3.996   9.263 -0.1167 -0.1826 -0.6900
 3833SOL    HW223136   2.651   4.087   9.293  0.1272  1.7299  0.0557
 3834SOL     OW23137   1.237   0.225   9.708  0.3598  0.0509 -0.6729
 3834SOL    HW123138   1.317   0.270   9.736 -0.2859 -2.5451  5.3642
 3834SOL    HW223139   1.216   0.182   9.790 -1.2359 -0.5326 -1.3886
 3835SOL     OW23140   0.726   0.452   4.118  0.1567  0.5860 -0.7363
 3835SOL    HW123141   0.710   0.393   4.044  0.0174 -0.1661 -0.1069
 3835SOL    HW223142   0.778   0.520   4.074  2.7450 -0.7234  0.3265
 3836SOL     OW23143   0.200   3.459   5.483 -0.0582  0.0770 -0.0913
 3836SOL    HW123144   0.125   3.468   5.542  2.5535  0.5039  3.1322
 3836SOL    HW223145   0.272   3.491   5.537  0.6497  2.0502 -2.1579
 3837SOL     OW23146   0.576   0.017  17.289 -0.1836 -0.4929  0.5683
 3837SOL    HW123147   0.608   0.097  17.247 -0.3541 -1.1452 -0.7975
 3837SOL    HW223148   0.481   0.028  17.279  0.3049  4.0681  0.7449
 3838SOL     OW23149   2.647   1.806   6.072 -0.3263  0.1483 -0.2921
 3838SOL    HW123150   2.653   1.776   6.163  0.3531 -3.1510 -1.4040
 3838SOL    HW223151   2.725   1.861   6.067  0.2472 -0.7237 -0.9777
 3839SOL     OW23152   2.660   1.528  10.641 -0.0080 -0.4923 -0.0857
 3839SOL    HW123153   2.665   1.606  10.696 -1.2028  1.0919 -2.2347
 3839SOL    HW223154   2.747   1.491  10.654  0.4080  0.6148  0.2746
 3840SOL     OW23155   2.202   3.383   9.363  0.3212 -0.5992 -0.2575
 3840SOL    HW123156   2.248   3.425   9.290  2.0347 -1.1428  0.5073
 3840SOL    HW223157   2.276   3.356   9.417  0.4809  0.2186 -0.0659
 3841SOL     OW23158   4.039   0.695   2.141 -0.1597 -0.1028 -0.2974
 3841SOL    HW123159   4.128   0.727   2.157 -1.2753  2.5353  0.5090
 3841SOL    HW223160   4.003   0.757   2.078 -1.3588 -0.1966  0.3128
 3842SOL     OW23161   0.512   3.752   2.932  0.1388  0.2095  0.3308
 3842SOL    HW123162   0.575   3.747   3.004  1.1087 -0.4537 -0.5573
 3842SOL    HW223163   0.517   3.675   2.875  0.0019  0.3326  0.1509
 3843SOL     OW23164   2.791   4.613   6.579 -0.2007 -0.2280  0.6336
 3843SOL    HW123165   2.797   4.551   6.652 -1.0861 -0.3360  0.6028
 3843SOL    HW223166   2.735   4.678   6.621 -2.2451 -1.8863  0.4381
 3844SOL     OW23167   0.011   0.116   6.178  0.5479 -0.0942 -0.0128
 3844SOL    HW123168   4.685   0.079   6.121  1.5632  1.2983 -2.1193
 3844SOL    HW223169   4.730   0.080   6.264 -2.5025  1.3366 -0.1945
 3845SOL     OW23170   4.538   1.877   9.456 -0.5524  0.1502 -0.3994
 3845SOL    HW123171   4.620   1.875   9.505 -0.3020  0.5861 -0.7972
 3845SOL    HW223172   4.520   1.785   9.439 -0.0802 -0.0650  0.2832
 3846SOL     OW23173   3.471   3.014   7.242 -0.2653  0.3391  0.3090
 3846SOL    HW123174   3.407   2.962   7.291  1.0806 -1.0780  0.5422
 3846SOL    HW223175   3.414   3.079   7.202 -1.0534 -1.3275 -1.2589
 3847SOL     OW23176   0.044   3.081   4.574 -0.0748  0.1834 -0.0233
 3847SOL    HW123177   0.106   3.121   4.514 -1.0247 -0.0049 -1.1297
 3847SOL    HW223178   4.726   3.157   4.564 -1.8562 -1.0473  1.2240
 3848SOL     OW23179   0.022   0.854   1.619  0.3616 -0.1192  0.3646
 3848SOL    HW123180   0.025   0.927   1.556 -0.7769 -0.2324  0.1708
 3848SOL    HW223181   4.740   0.881   1.708 -1.8142  2.3911 -0.9221
 3849SOL     OW23182   3.608   2.028   1.296  0.0187 -0.1029  0.4214
 3849SOL    HW123183   3.656   2.012   1.215  0.5190  1.3534  0.4325
 3849SOL    HW223184   3.657   2.094   1.345 -1.5720  1.7777 -0.5195
 3850SOL     OW23185   2.114   3.455   6.924 -0.1361  0.2618  0.6392
 3850SOL    HW123186   2.026   3.463   6.887  0.4256  2.7658 -0.0967
 3850SOL    HW223187   2.172   3.504   6.866 -0.8082 -1.2386 -1.3003
 3851SOL     OW23188   2.073   1.900   1.945 -0.1583  0.5822  0.0123
 3851SOL    HW123189   2.103   1.921   1.856  0.1277  1.5832  0.3481
 3851SOL    HW223190   1.979   1.887   1.930 -0.4529  0.1040  2.3519
 3852SOL     OW23191   3.027   0.150  13.792  0.2938  0.2014  0.2159
 3852SOL    HW123192   3.097   0.116  13.848  0.3805  1.4181  0.8603
 3852SOL    HW223193   2.950   0.109  13.830 -0.5824  1.3471 -0.3050
 3853SOL     OW23194   2.912   4.228  10.594  0.2446  0.0334  0.4530
 3853SOL    HW123195   2.917   4.183  10.509 -0.5479  1.7957 -0.5421
 3853SOL    HW223196   2.822   4.206  10.616  0.8664 -1.9845  0.9690
 3854SOL     OW23197   1.896   0.271   8.807 -0.0999 -0.1553 -0.0118
 3854SOL    HW123198   1.959   0.332   8.768 -1.0618  0.7705 -0.1082
 3854SOL    HW223199   1.872   0.220   8.730  2.0329 -1.1481 -0.0230
 3855SOL     OW23200   1.468   1.312   6.102  0.3656 -0.8001  0.1012
 3855SOL    HW123201   1.476   1.407   6.103 -0.7156 -0.6990 -0.3341
 3855SOL    HW223202   1.481   1.290   6.194  1.7695 -1.3155 -0.2258
 3856SOL     OW23203   0.650   1.615  13.744  0.1975 -0.0345  0.0391
 3856SOL    HW123204   0.732   1.582  13.781  0.1382 -1.1943 -0.8888
 3856SOL    HW223205   0.585   1.595  13.812  1.0736  1.9615  1.4601
 3857SOL     OW23206   1.585   1.062   7.307 -0.3041  0.4512 -0.1342
 3857SOL    HW123207   1.516   1.129   7.308  0.5132  1.2749  0.4511
 3857SOL    HW223208   1.543   0.977   7.293  0.3872 -0.1013  1.2008
 3858SOL     OW23209   2.374   4.066   6.476  0.3300 -0.5001 -0.0925
 3858SOL    HW123210   2.399   4.105   6.560  1.6580 -1.8544  0.1431
 3858SOL    HW223211   2.437   3.994   6.477  0.6418 -0.2118  1.3672
 3859SOL     OW23212   4.025   4.078   0.418 -0.0300  0.3946 -0.3494
 3859SOL    HW123213   3.978   4.153   0.453 -0.1124  0.1014  0.1663
 3859SOL    HW223214   4.054   4.029   0.495  1.1324 -1.8065 -2.1555
 3860SOL     OW23215   1.992   0.344   4.363  0.4416 -0.0349 -0.5005
 3860SOL    HW123216   1.951   0.381   4.284 -0.0500 -1.6416 -1.0027
 3860SOL    HW223217   1.916   0.363   4.417 -0.7904 -1.0602 -1.8699
 3861SOL     OW23218   1.268   4.399   1.906  0.1678  0.1002 -0.5864
 3861SOL    HW123219   1.195   4.355   1.863  1.0372 -1.9200 -0.0235
 3861SOL    HW223220   1.313   4.321   1.940  0.7354  0.7545  0.1660
 3862SOL     OW23221   2.360   2.490  17.071 -0.5249  0.2041  0.3924
 3862SOL    HW123222   2.332   2.480  16.980 -1.9038  0.6233  0.7772
 3862SOL    HW223223   2.327   2.407  17.105 -1.0990 -0.1049 -0.9390
 3863SOL     OW23224   4.167   3.003   9.012  0.0700  0.4787  0.1551
 3863SOL    HW123225   4.090   2.972   9.059  1.4896 -0.9413  1.5426
 3863SOL    HW223226   4.237   2.979   9.074  0.4109  0.5272 -0.2133
 3864SOL     OW23227   0.584   2.274  10.820 -0.2306 -0.5246  0.1326
 3864SOL    HW123228   0.571   2.273  10.915  2.0589  0.4101  0.4780
 3864SOL    HW223229   0.555   2.185  10.804  0.8362 -1.2387  2.1129
 3865SOL     OW23230   3.958   0.874   0.870  0.6500  0.1535  0.0327
 3865SOL    HW123231   3.917   0.828   0.943  0.1411  0.7833  0.1468
 3865SOL    HW223232   4.010   0.803   0.832  1.6843 -0.4505  2.5286
 3866SOL     OW23233   3.158   3.064   3.877 -0.1110 -1.1224 -0.6056
 3866SOL    HW123234   3.126   3.005   3.809 -0.6120 -1.7827  0.1987
 3866SOL    HW223235   3.077   3.114   3.886  0.2947 -0.1403 -2.4432
 3867SOL     OW23236   3.861   1.902   4.551 -0.0128 -0.0468  0.5361
 3867SOL    HW123237   3.865   1.907   4.646  0.5749  3.1423  0.3354
 3867SOL    HW223238   3.941   1.946   4.522 -0.8673  0.1604 -1.5346
 3868SOL     OW23239   1.971   3.230   5.106  0.2246  0.1710  0.2018
 3868SOL    HW123240   2.026   3.157   5.078  1.8721  0.8516  1.6749
 3868SOL    HW223241   2.033   3.303   5.107  0.1107  0.2647  0.5268
 3869SOL     OW23242   2.056   3.636   3.098  0.0397  0.4684  0.6454
 3869SOL    HW123243   2.135   3.683   3.071 -0.3760  2.0108  2.1453
 3869SOL    HW223244   2.091   3.549   3.118  0.1071  0.9252  2.5106
 3870SOL     OW23245   1.521   1.725  10.887  0.3540  0.0336 -0.8101
 3870SOL    HW123246   1.572   1.796  10.925 -0.0371 -0.3016  0.3245
 3870SOL    HW223247   1.477   1.771  10.815  1.8020 -0.4358 -1.9909
 3871SOL     OW23248   2.347   4.167   3.071 -0.0678  0.1231 -0.1846
 3871SOL    HW123249   2.388   4.084   3.048  1.1421  1.6179 -3.5050
 3871SOL    HW223250   2.256   4.149   3.045  0.2549  1.7124 -2.4350
 3872SOL     OW23251   2.475   3.257   8.699  0.1156 -0.9212 -0.3478
 3872SOL    HW123252   2.440   3.276   8.786  0.2142  1.1985 -0.7865
 3872SOL    HW223253   2.419   3.184   8.673  0.7148 -2.2492  2.0760
 3873SOL     OW23254   2.510   2.963   2.822 -0.0032 -0.0431 -0.4642
 3873SOL    HW123255   2.596   2.946   2.784  0.3537 -0.4414  0.5219
 3873SOL    HW223256   2.470   2.876   2.820  0.1647 -0.1260 -0.0573
 3874SOL     OW23257   4.042   3.213   6.125  0.0226  0.8215  0.0302
 3874SOL    HW123258   4.024   3.193   6.216 -0.0051 -0.2401 -0.2176
 3874SOL    HW223259   3.966   3.271   6.112  0.1706  1.3481  1.5590
 3875SOL     OW23260   1.206   0.407   7.582  0.6075 -0.1404  0.2475
 3875SOL    HW123261   1.273   0.346   7.615 -1.2071 -1.9683  0.5344
 3875SOL    HW223262   1.148   0.391   7.656 -1.6658  1.5930 -1.1715
 3876SOL     OW23263   0.252   3.155   9.716  0.4209 -0.6026 -0.3252
 3876SOL    HW123264   0.252   3.200   9.631 -4.3766  2.2168  1.1803
 3876SOL    HW223265   0.253   3.062   9.692 -0.8949 -0.7032  0.0370
 3877SOL     OW23266   2.086   4.273   7.922 -0.3698 -0.1520  0.1717
 3877SOL    HW123267   2.111   4.199   7.867 -2.4190 -1.2253  0.7103
 3877SOL    HW223268   2.171   4.317   7.916 -1.2106  1.5606  0.7780
 3878SOL     OW23269   0.744   3.796   5.963  0.0350  0.1384  0.1553
 3878SOL    HW123270   0.678   3.776   6.030 -0.1306  0.0319 -0.0398
 3878SOL    HW223271   0.743   3.717   5.909  0.2508  0.6524 -0.6009
 3879SOL     OW23272   1.180   0.630   4.760  0.2151  0.4316  0.0098
 3879SOL    HW123273   1.198   0.686   4.835  2.3223 -0.2500 -0.0100
 3879SOL    HW223274   1.085   0.636   4.744  0.0921  0.1388  0.6423
 3880SOL     OW23275   1.031   2.988  15.944  0.2651  0.4446 -0.0260
 3880SOL    HW123276   0.967   3.058  15.930 -0.3311  0.0241  0.6118
 3880SOL    HW223277   1.084   2.996  15.864 -1.1732 -1.6424 -1.1672
 3881SOL     OW23278   1.048   4.175   6.179 -0.1902  0.3160  0.3301
 3881SOL    HW123279   1.092   4.111   6.236  1.5979  2.5565  1.4970
 3881SOL    HW223280   1.058   4.255   6.231  0.7499 -0.0327  0.6929
 3882SOL     OW23281   2.773   2.085   3.988 -0.3033 -0.3256 -0.0802
 3882SOL    HW123282   2.847   2.108   4.044 -0.7594  0.6771  0.1146
 3882SOL    HW223283   2.702   2.139   4.023 -1.0368  0.5086 -2.8176
 3883SOL     OW23284   2.504   1.993   9.855  0.9685 -0.5076 -0.1378
 3883SOL    HW123285   2.502   2.073   9.908  1.2521  0.9815 -2.3813
 3883SOL    HW223286   2.575   1.941   9.893 -0.8041 -1.3397  2.0553
 3884SOL     OW23287   1.182   1.798   1.257  0.7123 -0.2464  0.4419
 3884SOL    HW123288   1.207   1.749   1.335  3.4952  1.9447  0.9478
 3884SOL    HW223289   1.245   1.870   1.260  1.3277 -0.7481 -0.4428
 3885SOL     OW23290   2.738   3.075   7.579  0.0286 -0.1164  0.6229
 3885SOL    HW123291   2.643   3.070   7.574  0.0255  0.9265 -0.4205
 3885SOL    HW223292   2.760   3.013   7.649  0.9241 -0.6418 -0.1150
 3886SOL     OW23293   1.356   0.614  17.578 -0.1018  0.2449 -0.2902
 3886SOL    HW123294   1.396   0.633  17.493  0.6278 -1.5351 -0.3524
 3886SOL    HW223295   1.407   0.680  17.626 -1.3016 -0.4838  1.9626
 3887SOL     OW23296   1.576   4.485   0.347  0.2307 -0.3411 -0.3178
 3887SOL    HW123297   1.573   4.430   0.425 -1.1806 -1.2974 -1.0702
 3887SOL    HW223298   1.581   4.424   0.274  0.3526  2.1346 -2.4033
 3888SOL     OW23299   0.705   1.582  13.487 -0.2220  0.2314  0.1113
 3888SOL    HW123300   0.658   1.578  13.570  2.9615  1.3657  1.9319
 3888SOL    HW223301   0.693   1.673  13.460  1.3978  0.7368  1.1341
 3889SOL     OW23302   0.540   2.634  14.395 -0.0476 -0.0460  0.5413
 3889SOL    HW123303   0.452   2.671  14.390 -0.8951 -2.1516 -0.1500
 3889SOL    HW223304   0.572   2.692  14.465 -1.6386 -0.2365  1.4401
 3890SOL     OW23305   2.600   3.177   5.299 -0.4737 -0.3281 -0.5659
 3890SOL    HW123306   2.506   3.186   5.281 -0.1695  1.8219 -1.1183
 3890SOL    HW223307   2.625   3.213   5.214 -1.4009 -1.5785 -1.3782
 3891SOL     OW23308   0.725   4.660   5.791 -0.1234  0.2049 -0.0726
 3891SOL    HW123309   0.700   4.588   5.849 -0.4616  1.8714  1.8557
 3891SOL    HW223310   0.796   4.611   5.750  0.0324  1.0918 -0.8511
 3892SOL     OW23311   0.479   3.023   9.558 -0.1803  0.1467 -0.7554
 3892SOL    HW123312   0.521   2.984   9.482 -2.3582  0.0820 -1.9221
 3892SOL    HW223313   0.468   3.109   9.518 -1.9327  0.0979 -0.3742
 3893SOL     OW23314   3.000   4.690   4.531  0.1786  0.4674 -0.9564
 3893SOL    HW123315   3.035   4.738   4.456 -0.2984  0.0743 -1.4314
 3893SOL    HW223316   3.059   4.615   4.545 -2.7136 -1.6601 -0.1268
 3894SOL     OW23317   0.254   2.412  14.261  0.0383  0.0271 -0.1026
 3894SOL    HW123318   0.193   2.344  14.289 -1.7754  1.8385  0.2936
 3894SOL    HW223319   0.252   2.382  14.170  0.5758 -1.3979  0.3525
 3895SOL     OW23320   2.044   3.185   7.718  0.2029  0.8380  0.1725
 3895SOL    HW123321   2.005   3.163   7.633 -1.2982  1.3640  0.7327
 3895SOL    HW223322   1.991   3.259   7.746 -0.9438 -0.5728  1.6923
 3896SOL     OW23323   1.243   3.025   8.110  0.1472  0.2423  0.0688
 3896SOL    HW123324   1.188   3.104   8.115 -0.3008 -0.0970  0.5161
 3896SOL    HW223325   1.180   2.953   8.103  0.6020 -0.1464 -0.0119
 3897SOL     OW23326   2.128   4.416   2.073 -0.3361 -0.5059 -0.3639
 3897SOL    HW123327   2.043   4.458   2.063 -0.9629 -1.5506  0.5825
 3897SOL    HW223328   2.179   4.451   2.000 -1.2476  1.7746  0.0806
 3898SOL     OW23329   1.847   1.874   6.976 -0.3169  0.0171  0.5911
 3898SOL    HW123330   1.924   1.917   7.013 -0.0964  0.7004 -0.6630
 3898SOL    HW223331   1.889   1.836   6.899 -1.5079  2.5352 -1.3105
 3899SOL     OW23332   3.881   1.414   6.231  0.6526  0.6278  0.1599
 3899SOL    HW123333   3.792   1.378   6.228  0.9037  0.0379 -0.2683
 3899SOL    HW223334   3.875   1.457   6.316  2.3226  1.3593 -0.1042
 3900SOL     OW23335   0.031   3.602   5.789 -0.0955  0.2144  0.1869
 3900SOL    HW123336   0.023   3.523   5.735  2.4558  0.5030 -0.6438
 3900SOL    HW223337   4.677   3.606   5.801 -0.2831  0.9402 -1.6457
 3901SOL     OW23338   3.889   1.057   6.990 -0.9470 -0.0888 -0.0593
 3901SOL    HW123339   3.861   1.058   7.082  1.3970 -1.6704  0.6971
 3901SOL    HW223340   3.976   1.098   6.993 -1.9064  1.9815 -0.3053
 3902SOL     OW23341   0.048   1.907   9.581 -0.3586 -0.6519 -0.0229
 3902SOL    HW123342   0.088   1.990   9.608 -1.0485 -0.4915  0.4957
 3902SOL    HW223343   0.084   1.849   9.648  2.0655 -0.3513 -1.0621
 3903SOL     OW23344   0.288   0.783   2.047  0.4257  0.2710  0.1192
 3903SOL    HW123345   0.204   0.802   2.087  1.3970  1.3948  1.6163
 3903SOL    HW223346   0.261   0.790   1.956  1.4999 -0.1831 -0.2484
 3904SOL     OW23347   1.326   3.064   9.096  0.6628 -0.1495 -0.2317
 3904SOL    HW123348   1.380   3.089   9.171 -0.9739  3.1068 -0.1727
 3904SOL    HW223349   1.390   3.019   9.040  2.3594  0.6657  1.0407
 3905SOL     OW23350   2.755   3.078   2.529 -0.2967 -0.1038  0.4550
 3905SOL    HW123351   2.816   3.059   2.457  0.1018  0.6462  0.5984
 3905SOL    HW223352   2.748   3.005   2.591 -2.4072 -0.1855  0.1270
 3906SOL     OW23353   4.603   1.778   3.465 -0.1462  0.2765 -0.4394
 3906SOL    HW123354   4.561   1.771   3.551  0.6564 -0.7312 -0.1248
 3906SOL    HW223355   4.562   1.701   3.423 -1.0433  1.4521 -1.7137
 3907SOL     OW23356   3.529   3.025   2.258  0.3410  0.1244 -0.5689
 3907SOL    HW123357   3.517   3.110   2.217  1.9886  0.4323 -0.3942
 3907SOL    HW223358   3.437   2.998   2.264  0.3529 -0.0995 -1.4511
 3908SOL     OW23359   0.066   0.107   6.851  0.1526  0.1946 -0.8381
 3908SOL    HW123360   4.733   0.084   6.906  0.9163  1.4606  0.6930
 3908SOL    HW223361   0.109   0.021   6.854 -0.5170 -0.1617 -1.4391
 3909SOL     OW23362   2.725   3.932  13.598 -0.4108  0.8795 -0.2106
 3909SOL    HW123363   2.746   4.021  13.571  3.7569  0.6493  2.0871
 3909SOL    HW223364   2.789   3.913  13.668  1.7364  1.7292 -1.9313
 3910SOL     OW23365   4.003   4.426   8.839 -0.4144 -0.2945 -0.1700
 3910SOL    HW123366   3.944   4.362   8.879 -1.2876  0.4841 -0.1934
 3910SOL    HW223367   4.010   4.492   8.908 -2.0057 -1.4735  1.1329
 3911SOL     OW23368   0.932   1.373   5.230  0.2816  0.8352 -0.3651
 3911SOL    HW123369   0.983   1.409   5.304 -0.2709 -1.1602  0.9909
 3911SOL    HW223370   1.000   1.341   5.171 -1.3103 -1.8088 -0.7514
 3912SOL     OW23371   3.445   2.000   7.863 -0.4610 -0.2718 -0.7583
 3912SOL    HW123372   3.353   1.973   7.860 -0.7313  0.7001 -1.0253
 3912SOL    HW223373   3.448   2.084   7.818  3.1198  0.4971  0.9236
 3913SOL     OW23374   4.452   1.587   6.504 -0.1220 -0.7079 -0.2222
 3913SOL    HW123375   4.509   1.513   6.479 -1.8968 -2.2976  0.4383
 3913SOL    HW223376   4.515   1.652   6.535 -0.7584 -0.4064  0.4364
 3914SOL     OW23377   1.091   0.239  14.306 -0.2795  0.7795 -0.0785
 3914SOL    HW123378   1.007   0.257  14.265 -1.3908 -0.5407  1.6167
 3914SOL    HW223379   1.139   0.299  14.248  0.0145  1.0735  0.4686
 3915SOL     OW23380   4.322   1.414  12.192 -0.7009  0.2894  0.4607
 3915SOL    HW123381   4.338   1.459  12.275 -2.6236  0.9534  0.4764
 3915SOL    HW223382   4.246   1.356  12.201  0.1231 -0.6758  1.1219
 3916SOL     OW23383   1.274   3.331  11.923  0.1470  0.1580 -0.0552
 3916SOL    HW123384   1.259   3.245  11.886  1.5318  0.2596 -0.8597
 3916SOL    HW223385   1.206   3.387  11.884  0.7807  0.5670 -0.5753
 3917SOL     OW23386   1.090   1.379   1.647  0.4628  0.0302  0.5383
 3917SOL    HW123387   1.058   1.441   1.713 -1.4226  0.3195 -0.6256
 3917SOL    HW223388   1.026   1.400   1.579  3.2295 -3.0661 -3.0313
 3918SOL     OW23389   2.894   3.387   1.666  0.4210 -0.4537 -0.1064
 3918SOL    HW123390   2.935   3.313   1.710 -0.7011 -0.6827  0.5503
 3918SOL    HW223391   2.814   3.347   1.633 -0.0416  0.6785 -0.3726
 3919SOL     OW23392   2.700   3.235   3.040  0.0639 -0.0122  0.3291
 3919SOL    HW123393   2.678   3.173   3.109  1.4618  2.0749  2.6664
 3919SOL    HW223394   2.775   3.191   3.000 -0.7241 -3.6601  2.9016
 3920SOL     OW23395   0.879   0.575   9.853 -0.5676  0.1114  0.4394
 3920SOL    HW123396   0.946   0.506   9.852  1.3752  2.0110 -1.8880
 3920SOL    HW223397   0.824   0.542   9.782 -1.1031 -1.0070  1.3805
 3921SOL     OW23398   2.458   0.501   8.707  0.4819  0.3919  0.4768
 3921SOL    HW123399   2.539   0.516   8.657  0.7973 -1.2252  0.5080
 3921SOL    HW223400   2.489   0.519   8.796  0.9824 -0.4697  0.4773
 3922SOL     OW23401   3.734   2.156  13.775 -0.3234  0.0111  0.3088
 3922SOL    HW123402   3.687   2.074  13.790  0.6856 -0.6890 -0.3254
 3922SOL    HW223403   3.665   2.207  13.733  1.1130  0.2905 -1.7322
 3923SOL     OW23404   3.517   0.987   0.107  0.5122  0.0622 -0.4071
 3923SOL    HW123405   3.480   1.066   0.069  2.6416 -0.1961 -2.9984
 3923SOL    HW223406   3.467   0.975   0.188 -0.8562  2.3920 -0.9272
 3924SOL     OW23407   4.133   2.833   8.201  0.4609  0.2221  0.6934
 3924SOL    HW123408   4.202   2.787   8.152 -1.0060  0.5264 -1.6073
 3924SOL    HW223409   4.120   2.917   8.158  0.9382 -0.3790 -0.6143
 3925SOL     OW23410   2.722   3.406   6.436 -0.3605  0.0859  0.4876
 3925SOL    HW123411   2.776   3.482   6.414 -1.5984  0.0946 -2.4901
 3925SOL    HW223412   2.760   3.395   6.523 -0.0292  2.8876  0.7092
 3926SOL     OW23413   3.051   0.291   9.593  0.6215  0.1647 -0.3618
 3926SOL    HW123414   3.075   0.268   9.682 -1.1885 -1.0089 -0.1805
 3926SOL    HW223415   3.098   0.372   9.574  2.4962 -0.8974 -0.2593
 3927SOL     OW23416   1.075   3.767   5.018 -0.0137 -0.2599 -0.3801
 3927SOL    HW123417   1.048   3.849   4.975  1.4451 -0.7988 -2.3609
 3927SOL    HW223418   1.122   3.791   5.097 -2.1932 -0.9404  1.1125
 3928SOL     OW23419   0.541   2.876   5.650 -0.0023 -0.8575  0.3604
 3928SOL    HW123420   0.492   2.905   5.573  0.0284 -0.6292  0.4273
 3928SOL    HW223421   0.480   2.807   5.676  0.9743 -2.2173 -0.8842
 3929SOL     OW23422   4.546   4.151   6.309 -0.0129  0.0225  0.2803
 3929SOL    HW123423   4.607   4.077   6.312  0.2442  0.1271 -2.1445
 3929SOL    HW223424   4.463   4.107   6.331  1.2097 -3.2867 -1.7221
 3930SOL     OW23425   0.952   2.666   5.751  0.0564 -0.4007 -0.3510
 3930SOL    HW123426   0.965   2.574   5.774  1.9887  0.7844  3.3491
 3930SOL    HW223427   1.043   2.683   5.725  0.4532 -1.3684  0.4278
 3931SOL     OW23428   0.082   2.792   6.779  0.1492  0.4930 -0.3652
 3931SOL    HW123429   0.105   2.855   6.712 -0.6257  0.8448 -0.3074
 3931SOL    HW223430   4.738   2.758   6.748  0.7591 -2.8310  1.5381
 3932SOL     OW23431   3.055   4.313   2.585  0.1814 -0.3600  0.2825
 3932SOL    HW123432   2.974   4.336   2.540  0.7576  1.3625  0.1334
 3932SOL    HW223433   3.073   4.235   2.533 -2.5557 -0.4039 -0.6170
 3933SOL     OW23434   1.978   4.068  12.226 -0.0221 -0.3277  0.2684
 3933SOL    HW123435   1.995   4.140  12.165 -0.1180 -0.8843 -0.4173
 3933SOL    HW223436   1.898   4.033  12.187  0.0616 -2.3478  1.9174
 3934SOL     OW23437   2.995   2.668  11.591  0.0224 -0.2400  0.3434
 3934SOL    HW123438   3.018   2.628  11.507  0.2037 -0.7762  0.6445
 3934SOL    HW223439   3.082   2.697  11.617  0.1399 -0.2915  0.0091
 3935SOL     OW23440   2.679   4.644   2.290  0.4291 -0.0042 -0.2467
 3935SOL    HW123441   2.669   4.604   2.377 -1.1511  3.0513  0.9711
 3935SOL    HW223442   2.772   4.660   2.303  0.3891  0.6535 -0.7529
 3936SOL     OW23443   4.328   2.513   3.245  0.1996 -0.2501  0.2218
 3936SOL    HW123444   4.334   2.468   3.161  1.8743 -1.0728  0.7809
 3936SOL    HW223445   4.326   2.604   3.213  0.6163 -0.6081 -0.8329
 3937SOL     OW23446   0.322   1.338  10.953  0.0773  0.2939  0.4056
 3937SOL    HW123447   0.260   1.404  10.984 -1.9388 -1.4014 -0.0230
 3937SOL    HW223448   0.395   1.352  11.014 -0.7439  0.5809  1.3053
 3938SOL     OW23449   3.627   2.597  11.701 -0.1300  0.5767 -0.2136
 3938SOL    HW123450   3.652   2.554  11.620 -1.6147 -0.9532  0.1383
 3938SOL    HW223451   3.700   2.651  11.729  0.2155 -0.0860  0.1642
 3939SOL     OW23452   0.390   3.971   6.431  0.3339 -0.0357  0.6791
 3939SOL    HW123453   0.449   3.898   6.411 -1.2057 -1.0515 -0.1102
 3939SOL    HW223454   0.447   4.044   6.454  0.4546 -0.2473  1.0642
 3940SOL     OW23455   1.457   3.107   7.313 -0.1835  0.2032  0.0775
 3940SOL    HW123456   1.451   3.067   7.226 -3.7254 -1.3356  1.0170
 3940SOL    HW223457   1.379   3.071   7.356  0.3924 -2.6065 -1.2590
 3941SOL     OW23458   2.016   0.589  13.373 -0.0608 -0.2899  0.2463
 3941SOL    HW123459   2.011   0.607  13.279 -1.1193 -3.9706 -0.4098
 3941SOL    HW223460   1.962   0.663  13.403 -0.2948 -1.3118  2.3258
 3942SOL     OW23461   1.381   3.637   5.759 -0.0144 -0.1992 -0.2845
 3942SOL    HW123462   1.356   3.544   5.755 -0.7670 -0.0649  1.5545
 3942SOL    HW223463   1.346   3.662   5.845 -1.0587  1.3343 -1.1497
 3943SOL     OW23464   1.968   3.313  12.681  0.1988  0.3423 -0.2400
 3943SOL    HW123465   2.008   3.363  12.753 -2.2118  1.9295 -0.0265
 3943SOL    HW223466   2.031   3.337  12.613 -1.1707  0.4403 -1.4638
 3944SOL     OW23467   3.816   3.483   6.939 -0.4110 -0.1467 -0.1203
 3944SOL    HW123468   3.880   3.499   6.869  0.0957  0.5863  0.5110
 3944SOL    HW223469   3.851   3.403   6.979  0.3468  0.1670 -0.1428
 3945SOL     OW23470   4.512   1.153   6.498 -0.1078  0.2146  0.2253
 3945SOL    HW123471   4.434   1.155   6.554  0.7965 -0.3214  1.5208
 3945SOL    HW223472   4.485   1.078   6.445 -1.3056  0.8813 -0.0959
 3946SOL     OW23473   2.980   4.367  16.043 -0.1769 -0.2657  0.1854
 3946SOL    HW123474   2.941   4.388  15.958  1.0879  0.6462 -0.1629
 3946SOL    HW223475   2.951   4.439  16.099  1.3112  1.0055 -0.6770
 3947SOL     OW23476   2.531   1.290   2.956  0.2368 -0.1449  0.0354
 3947SOL    HW123477   2.591   1.323   2.889  0.0720 -2.9412 -1.4574
 3947SOL    HW223478   2.562   1.200   2.960 -1.1199 -0.6769 -1.5884
 3948SOL     OW23479   2.133   0.779   9.485 -0.4093 -0.3696 -0.2012
 3948SOL    HW123480   2.149   0.804   9.576  0.2826 -0.8631 -0.1964
 3948SOL    HW223481   2.080   0.856   9.463  0.1086  0.3340  1.0160
 3949SOL     OW23482   3.554   1.989   4.691 -0.0767  0.5767 -0.3093
 3949SOL    HW123483   3.586   1.935   4.618  2.4542  0.5641  0.7990
 3949SOL    HW223484   3.540   1.920   4.756  0.0208  0.3173 -0.5661
 3950SOL     OW23485   4.523   2.493  14.756  0.6848  0.3583 -0.0339
 3950SOL    HW123486   4.469   2.572  14.755 -0.9940 -0.7962 -0.3726
 3950SOL    HW223487   4.523   2.477  14.851  0.0649  1.6776  0.1894
 3951SOL     OW23488   3.031   2.237  12.809 -0.2631 -0.0329 -0.5932
 3951SOL    HW123489   3.008   2.289  12.732 -1.6088 -1.7141 -1.3500
 3951SOL    HW223490   2.948   2.232  12.856 -0.5019  0.3052 -0.9783
 3952SOL     OW23491   2.390   0.898   3.777  0.0439 -0.3905 -0.2917
 3952SOL    HW123492   2.406   0.815   3.822  0.9105 -0.4534 -0.7072
 3952SOL    HW223493   2.477   0.909   3.738 -0.0913  0.7877 -0.2746
 3953SOL     OW23494   1.676   3.904   7.126 -0.2395 -0.1712 -0.0831
 3953SOL    HW123495   1.769   3.922   7.112 -0.0565 -0.5601  0.6072
 3953SOL    HW223496   1.664   3.809   7.118  1.2246 -0.3987  0.5228
 3954SOL     OW23497   0.811   2.878   8.734 -0.5811 -0.0234  0.0036
 3954SOL    HW123498   0.741   2.816   8.752 -0.4894 -0.0872  0.1335
 3954SOL    HW223499   0.886   2.819   8.738  0.8417  1.7352 -0.8346
 3955SOL     OW23500   1.477   1.537   8.359  0.3912 -0.3233 -0.3268
 3955SOL    HW123501   1.389   1.506   8.337 -0.4177  0.4828  1.8190
 3955SOL    HW223502   1.540   1.498   8.297  2.1685  0.7627  0.7899
 3956SOL     OW23503   1.777   1.217   2.152 -0.6423 -0.3459 -0.3235
 3956SOL    HW123504   1.753   1.296   2.201 -0.6631  0.2966 -1.3792
 3956SOL    HW223505   1.789   1.258   2.067 -2.8808 -0.3054 -0.6111
 3957SOL     OW23506   4.457   4.599   0.964 -0.4321 -0.2842  0.0786
 3957SOL    HW123507   4.484   4.678   1.011  2.9023 -0.2868 -1.8730
 3957SOL    HW223508   4.534   4.543   0.960 -0.1498  0.0364  1.0064
 3958SOL     OW23509   2.097   3.352   5.712  0.2720  0.2548 -0.2022
 3958SOL    HW123510   2.142   3.310   5.639 -2.2829 -1.9610 -0.5038
 3958SOL    HW223511   2.159   3.330   5.781 -1.1017 -0.9898  0.6402
 3959SOL     OW23512   2.452   1.332   4.347 -0.5008 -0.3577 -0.0522
 3959SOL    HW123513   2.469   1.238   4.353  0.2229 -0.1731  0.7240
 3959SOL    HW223514   2.367   1.320   4.306 -0.3220  1.1400 -0.8776
 3960SOL     OW23515   2.456   2.508   1.851 -0.4856 -0.0681 -1.1116
 3960SOL    HW123516   2.371   2.464   1.853 -0.9192  0.8913  1.7311
 3960SOL    HW223517   2.521   2.444   1.881 -1.7652 -2.2353 -2.9728
 3961SOL     OW23518   0.997   3.762  11.370 -0.0240  0.0731 -0.2038
 3961SOL    HW123519   0.937   3.703  11.416 -0.6399  1.9199  1.3370
 3961SOL    HW223520   1.071   3.751  11.430 -0.0561 -1.7561 -0.4793
 3962SOL     OW23521   0.279   2.417   8.925 -0.2772 -0.8316  0.2819
 3962SOL    HW123522   0.260   2.438   8.833  0.4737 -1.5363 -0.0339
 3962SOL    HW223523   0.348   2.351   8.915  0.9557  0.2934  1.4239
 3963SOL     OW23524   4.078   0.671  16.335 -0.0452  0.1034 -0.3846
 3963SOL    HW123525   4.117   0.605  16.392  2.5227  3.2702  1.5147
 3963SOL    HW223526   3.984   0.657  16.338  0.1969 -1.3649  0.1141
 3964SOL     OW23527   3.741   4.275   5.485 -0.8625 -0.2257 -0.1865
 3964SOL    HW123528   3.739   4.180   5.492 -0.4188 -0.4001 -2.3188
 3964SOL    HW223529   3.779   4.316   5.563  0.6876 -0.3085 -0.8817
 3965SOL     OW23530   4.381   3.450  12.926 -0.3237  0.5516  0.5294
 3965SOL    HW123531   4.452   3.401  12.968  1.1561  1.9341 -0.3660
 3965SOL    HW223532   4.307   3.426  12.982 -0.8397  1.1607  0.1075
 3966SOL     OW23533   3.341   0.906   1.056 -0.2412  0.0117 -0.0878
 3966SOL    HW123534   3.251   0.892   1.086 -0.5641  0.2868 -0.9158
 3966SOL    HW223535   3.351   0.999   1.075  0.6173 -0.2330  0.6578
 3967SOL     OW23536   4.037   2.649  10.115 -0.7579  0.3324  0.3040
 3967SOL    HW123537   3.966   2.631  10.177 -1.0728 -2.1171 -0.7500
 3967SOL    HW223538   4.006   2.613  10.032  1.7928  2.1237 -1.4366
 3968SOL     OW23539   4.246   3.781  13.725  0.7996 -0.2061  0.7475
 3968SOL    HW123540   4.214   3.835  13.797  1.0519  0.9463 -0.0055
 3968SOL    HW223541   4.327   3.754  13.769  2.4922  4.6066  0.5084
 3969SOL     OW23542   1.093   0.336  16.377  0.2761  0.1505  0.0369
 3969SOL    HW123543   1.126   0.353  16.288  0.1697  2.4815  0.4461
 3969SOL    HW223544   1.029   0.408  16.376  0.5458  0.3917  0.3651
 3970SOL     OW23545   2.299   2.986  14.220  0.0441  0.0060 -0.4372
 3970SOL    HW123546   2.347   2.917  14.176  0.8490  1.2564 -1.5057
 3970SOL    HW223547   2.211   2.977  14.182 -0.7398  0.0479  1.3489
 3971SOL     OW23548   0.308   1.129   4.981 -0.2597 -0.3708 -0.1993
 3971SOL    HW123549   0.327   1.109   4.889  0.2395  0.9280 -0.3791
 3971SOL    HW223550   0.215   1.106   4.993 -0.7298  0.5587 -2.0338
 3972SOL     OW23551   3.147   4.353   2.288  0.1503 -0.4573 -0.0567
 3972SOL    HW123552   3.053   4.359   2.275  0.3410 -1.4125 -1.8084
 3972SOL    HW223553   3.178   4.374   2.200  2.1607 -0.2370  0.6931
 3973SOL     OW23554   0.416   0.346   9.994  0.3368 -0.6257 -0.4023
 3973SOL    HW123555   0.492   0.327  10.048 -1.7673 -0.2642  2.7061
 3973SOL    HW223556   0.444   0.429   9.956 -2.1651  0.3657 -0.1397
 3974SOL     OW23557   1.174   3.172  13.278 -0.0929  0.4873  0.3613
 3974SOL    HW123558   1.196   3.079  13.292 -0.5263  0.1773 -1.1044
 3974SOL    HW223559   1.201   3.212  13.361 -0.5638 -0.8068  1.1333
 3975SOL     OW23560   4.545   0.332   2.202 -0.6575 -0.0721  0.0155
 3975SOL    HW123561   4.518   0.291   2.120 -4.2575 -0.8308  1.5741
 3975SOL    HW223562   4.497   0.414   2.209 -0.6675 -0.0539 -0.2577
 3976SOL     OW23563   1.898   4.421  15.122 -0.0003  0.5492 -0.1720
 3976SOL    HW123564   1.978   4.373  15.100 -0.7887 -0.7433 -0.2639
 3976SOL    HW223565   1.860   4.427  15.035  0.9591 -2.6184 -0.8136
 3977SOL     OW23566   2.937   3.985   3.049 -0.5961 -0.2878 -0.1939
 3977SOL    HW123567   2.873   4.055   3.063  0.5812  0.8967 -0.6209
 3977SOL    HW223568   2.902   3.958   2.964  0.7919  0.7234 -1.0968
 3978SOL     OW23569   4.436   2.023  14.183  0.4931 -0.2488 -0.1019
 3978SOL    HW123570   4.471   2.088  14.122  1.4940 -0.0183  0.7208
 3978SOL    HW223571   4.434   2.070  14.266 -0.1974  2.3318 -1.5912
 3979SOL     OW23572   0.595   3.834   6.824 -0.0012  0.3127 -0.1150
 3979SOL    HW123573   0.678   3.844   6.870  0.9560 -0.9462 -1.5681
 3979SOL    HW223574   0.619   3.764   6.763  0.8036 -0.3800  0.9975
 3980SOL     OW23575   3.014   0.839   2.300  0.0338  0.1350  0.2377
 3980SOL    HW123576   3.045   0.791   2.223  1.1363 -0.9351  1.3494
 3980SOL    HW223577   3.101   0.841   2.341  0.8622  0.6089 -1.5418
 3981SOL     OW23578   2.382   4.565   8.840  0.7158  0.1045 -0.5137
 3981SOL    HW123579   2.358   4.637   8.897  1.9848  0.3867 -0.3253
 3981SOL    HW223580   2.471   4.534   8.860  0.3473 -0.6789 -0.0909
 3982SOL     OW23581   1.808   4.695  15.867  0.3108  0.0119 -0.8417
 3982SOL    HW123582   1.900   4.670  15.854 -0.1259 -1.1021 -1.7597
 3982SOL    HW223583   1.804   0.023  15.801  0.6569 -0.4698 -1.3644
 3983SOL     OW23584   1.922   1.897  10.390 -0.1894  0.0775  0.2916
 3983SOL    HW123585   1.911   1.821  10.448  3.0753 -1.9557 -1.7734
 3983SOL    HW223586   1.878   1.878  10.307 -1.0273 -1.4213  1.0781
 3984SOL     OW23587   3.305   2.251   2.877 -0.0289  0.2692 -0.3550
 3984SOL    HW123588   3.309   2.345   2.897 -0.7131  0.2507 -0.1389
 3984SOL    HW223589   3.394   2.230   2.907 -0.4547 -0.0683  0.6647
 3985SOL     OW23590   1.274   2.454   9.815  0.2320 -0.3493 -0.1827
 3985SOL    HW123591   1.340   2.491   9.758  0.6525 -1.6111 -0.5060
 3985SOL    HW223592   1.330   2.412   9.880  0.4926 -0.5592 -0.5485
 3986SOL     OW23593   0.742   1.021   1.847  0.2197  0.2576  0.0763
 3986SOL    HW123594   0.680   1.035   1.776 -0.2747 -2.1882  0.0225
 3986SOL    HW223595   0.762   0.928   1.843  2.2453  0.6566  0.6973
 3987SOL     OW23596   4.265   0.197   6.060  0.1980  0.2960 -0.2751
 3987SOL    HW123597   4.251   0.109   6.096  0.9615  0.3266  0.0984
 3987SOL    HW223598   4.306   0.232   6.140 -1.9383 -0.7897  1.3076
 3988SOL     OW23599   1.838   4.203  11.474  0.0063 -0.3420  0.0525
 3988SOL    HW123600   1.885   4.127  11.438 -2.0266 -0.7904 -1.5963
 3988SOL    HW223601   1.754   4.194  11.431 -0.1542 -2.0894  0.7225
 3989SOL     OW23602   0.067   4.667   0.056 -0.0532  0.5058 -1.0551
 3989SOL    HW123603   0.116   4.618  17.751  0.1949  0.5901 -0.9292
 3989SOL    HW223604   0.105   4.628   0.134  0.6693 -0.3929 -1.8566
 3990SOL     OW23605   2.429   4.185  11.944  0.4694 -0.1391 -0.4756
 3990SOL    HW123606   2.411   4.274  11.913  1.3873  0.5057  0.8562
 3990SOL    HW223607   2.516   4.200  11.980 -0.7591  0.9582  2.0437
 3991SOL     OW23608   1.063   1.182  12.283 -0.1059  0.4153  0.9482
 3991SOL    HW123609   1.006   1.124  12.232  1.7165  0.2832 -0.8917
 3991SOL    HW223610   1.137   1.202  12.226 -2.3004  0.0360 -2.0544
 3992SOL     OW23611   0.660   0.372   3.108 -0.0667  0.3668 -0.4028
 3992SOL    HW123612   0.574   0.350   3.143  1.0822 -0.7176  1.7381
 3992SOL    HW223613   0.711   0.385   3.188 -0.6448  1.7159 -0.2730
 3993SOL     OW23614   0.907   1.916  13.276  0.0104 -0.1325  0.0892
 3993SOL    HW123615   0.968   1.843  13.276 -3.5407 -3.1301 -0.5030
 3993SOL    HW223616   0.921   1.952  13.189 -0.9838 -1.5566 -0.6519
 3994SOL     OW23617   1.699   2.067   7.106  0.7855 -0.1024 -0.1584
 3994SOL    HW123618   1.735   1.986   7.069 -1.5731 -1.0719 -0.3348
 3994SOL    HW223619   1.635   2.023   7.160  0.1602  3.3745  1.9205
 3995SOL     OW23620   4.436   1.859   9.131 -0.7939 -0.0090  0.3671
 3995SOL    HW123621   4.419   1.951   9.155  1.0096 -0.4368  3.2518
 3995SOL    HW223622   4.348   1.823   9.118 -0.8021 -0.2227  1.0084
 3996SOL     OW23623   1.790   4.708   3.037 -0.1574  0.4087  0.0628
 3996SOL    HW123624   1.857   0.035   3.032 -0.2586  0.6713  2.3108
 3996SOL    HW223625   1.745   4.731   3.118 -0.5515  2.4676 -0.7366
 3997SOL     OW23626   2.544   0.128   7.975 -0.0030  0.4455  0.2888
 3997SOL    HW123627   2.472   0.189   7.972  0.7947  1.1769 -3.8765
 3997SOL    HW223628   2.607   0.184   8.021  2.3294 -1.6624 -0.2696
 3998SOL     OW23629   4.384   2.386   6.399 -0.3396 -0.4008  0.4107
 3998SOL    HW123630   4.445   2.430   6.459 -0.3480 -0.8290  0.7354
 3998SOL    HW223631   4.421   2.419   6.317 -1.0156  1.2144  0.7440
 3999SOL     OW23632   0.013   2.252   2.636 -0.0979 -0.1205 -0.7763
 3999SOL    HW123633   0.014   2.194   2.559 -3.1390  0.5485 -1.3432
 3999SOL    HW223634   0.084   2.309   2.607  2.1090 -1.3425  2.2817
 4000SOL     OW23635   0.295   2.674   9.501  0.4536  0.0990 -0.2468
 4000SOL    HW123636   0.384   2.663   9.468 -0.5826  0.1674 -3.0653
 4000SOL    HW223637   0.265   2.758   9.465  0.1107 -0.2596 -0.7928
 4001SOL     OW23638   2.736   1.736  12.115 -0.4905 -0.5472 -0.6272
 4001SOL    HW123639   2.689   1.814  12.087  0.3452  0.8482  1.8280
 4001SOL    HW223640   2.788   1.759  12.193 -1.3202  0.5875 -0.4177
 4002SOL     OW23641   3.431   2.256   4.672 -0.7017 -0.2644 -1.0377
 4002SOL    HW123642   3.472   2.292   4.751 -0.0847 -0.5112 -1.2464
 4002SOL    HW223643   3.466   2.167   4.661 -0.7459 -0.6366  1.7205
 4003SOL     OW23644   4.685   4.188   3.202 -0.3692  0.2845  0.6401
 4003SOL    HW123645   4.739   4.128   3.254  0.3511  0.3551 -0.0220
 4003SOL    HW223646   4.691   4.154   3.113 -0.9390  0.6576  0.4600
 4004SOL     OW23647   3.674   0.472   2.867 -0.0927  0.1668 -0.1550
 4004SOL    HW123648   3.599   0.438   2.916 -0.2736  1.9990  0.8312
 4004SOL    HW223649   3.663   0.567   2.873 -0.4842  0.0537  0.9312
 4005SOL     OW23650   1.581   0.315   5.126  0.0405  0.1265  0.3764
 4005SOL    HW123651   1.631   0.274   5.196  0.0490 -1.0227 -0.3029
 4005SOL    HW223652   1.517   0.369   5.172  0.4725  1.1085 -0.1643
 4006SOL     OW23653   4.187   0.148  15.577  0.2870  0.1983 -0.5617
 4006SOL    HW123654   4.237   0.072  15.605  0.0261  0.5174  0.8095
 4006SOL    HW223655   4.104   0.152  15.624  1.0040  1.6387  0.6126
 4007SOL     OW23656   0.162   0.353   3.753  0.0137  0.2752  0.6029
 4007SOL    HW123657   0.229   0.289   3.778  0.3043  0.7357  1.0034
 4007SOL    HW223658   0.221   0.428   3.760  0.5152  0.1348 -2.0671
 4008SOL     OW23659   1.327   1.622   2.396 -0.0485 -0.2637 -0.3875
 4008SOL    HW123660   1.281   1.539   2.386  1.1368 -0.9269 -0.3316
 4008SOL    HW223661   1.256   1.679   2.427 -0.0824 -0.4667 -0.0909
 4009SOL     OW23662   1.537   2.447   2.479  0.1535  0.5121 -0.4626
 4009SOL    HW123663   1.522   2.508   2.407  1.5330 -0.8977 -1.9624
 4009SOL    HW223664   1.580   2.507   2.541 -1.8913  0.2204  1.2406
 4010SOL     OW23665   4.264   3.819  14.692  0.3209 -0.3221 -0.0495
 4010SOL    HW123666   4.327   3.831  14.763 -0.7212 -1.0363  1.0058
 4010SOL    HW223667   4.203   3.760  14.737  1.6435 -1.7726 -0.1957
 4011SOL     OW23668   2.171   2.040   6.465 -0.2147 -0.0619  0.5373
 4011SOL    HW123669   2.265   2.024   6.470 -0.2975  0.1716  2.6906
 4011SOL    HW223670   2.144   2.009   6.378  3.1704 -0.3866 -0.3999
 4012SOL     OW23671   3.149   2.721   3.491 -0.1571  0.3166 -0.1478
 4012SOL    HW123672   3.204   2.664   3.544 -0.9481 -0.0861  0.2317
 4012SOL    HW223673   3.214   2.791   3.482  0.1705  0.0241 -0.0177
 4013SOL     OW23674   1.996   3.945  14.612  0.6729  0.2970 -0.4137
 4013SOL    HW123675   2.017   4.023  14.663 -0.4359 -1.8854  3.3713
 4013SOL    HW223676   1.994   3.876  14.679  1.0290  0.6090 -0.0824
 4014SOL     OW23677   0.832   3.636   4.815  0.5441 -0.3990  0.6426
 4014SOL    HW123678   0.771   3.710   4.813 -1.9163 -2.4810 -2.0750
 4014SOL    HW223679   0.870   3.637   4.727  0.9539 -1.5876  0.8084
 4015SOL     OW23680   3.359   3.732   0.769  0.5375 -0.1630 -0.0642
 4015SOL    HW123681   3.373   3.651   0.719 -1.3002 -0.6554  0.2444
 4015SOL    HW223682   3.276   3.767   0.737  0.7831  0.6367  0.1629
 4016SOL     OW23683   1.601   2.301   7.621  0.0907  0.5046 -0.2339
 4016SOL    HW123684   1.600   2.206   7.636 -0.7616  0.3819 -1.1014
 4016SOL    HW223685   1.528   2.313   7.561 -0.2399 -1.6027 -0.2407
 4017SOL     OW23686   3.029   0.928   3.683  0.4696  0.6326 -0.3907
 4017SOL    HW123687   3.041   1.004   3.739 -1.4551  0.2905  0.5032
 4017SOL    HW223688   2.989   0.971   3.607 -1.2604 -0.0056  0.1531
 4018SOL     OW23689   4.436   3.625   9.347  0.3516  0.4311  0.4101
 4018SOL    HW123690   4.509   3.576   9.385  1.0193  0.1838 -1.1861
 4018SOL    HW223691   4.372   3.554   9.350  0.6151  0.1189 -1.3191
 4019SOL     OW23692   2.210   4.472   9.229  0.0081  0.3929 -0.3130
 4019SOL    HW123693   2.279   4.475   9.163  0.1096 -0.2179 -0.2279
 4019SOL    HW223694   2.131   4.490   9.179  0.3739  3.1139  0.0472
 4020SOL     OW23695   1.521   2.837  10.088  0.9064  0.0927  0.0330
 4020SOL    HW123696   1.573   2.762  10.061  2.2781 -0.1037  3.2156
 4020SOL    HW223697   1.535   2.886  10.006  0.1886 -0.4137 -0.3922
 4021SOL     OW23698   2.032   0.121   2.101  0.2505  0.0028  0.2670
 4021SOL    HW123699   1.971   0.179   2.145  2.0299  0.1079  2.5716
 4021SOL    HW223700   1.976   0.094   2.028  1.6679 -0.6023 -0.6130
 4022SOL     OW23701   3.788   4.304  15.102  0.1648 -0.4271  0.6516
 4022SOL    HW123702   3.791   4.392  15.141  2.5603  0.2410 -1.0529
 4022SOL    HW223703   3.806   4.327  15.011  0.3267 -1.7439  0.3505
 4023SOL     OW23704   1.307   2.383  16.753  0.0179 -0.0751  0.3810
 4023SOL    HW123705   1.302   2.471  16.715  0.4548 -0.3402 -0.2989
 4023SOL    HW223706   1.219   2.363  16.785 -0.5091  1.0447 -0.3717
 4024SOL     OW23707   0.123   3.207   0.559  0.0363  0.1023  0.2556
 4024SOL    HW123708   0.122   3.302   0.549 -0.5625  0.2728  2.0810
 4024SOL    HW223709   0.037   3.174   0.585  1.1311 -0.5686  3.0485
 4025SOL     OW23710   0.055   0.147   8.611 -1.2688 -0.4674  0.2808
 4025SOL    HW123711   0.142   0.160   8.650 -0.9345 -0.1401 -0.5669
 4025SOL    HW223712   0.028   0.236   8.632  0.9154  0.6746 -1.6720
 4026SOL     OW23713   3.674   4.716  11.601 -0.0446  0.1395 -0.2212
 4026SOL    HW123714   3.764   4.690  11.620  0.4700  2.0486 -0.0074
 4026SOL    HW223715   3.639   4.630  11.579 -1.5719  1.1191 -1.6181
 4027SOL     OW23716   3.030   3.307   8.781 -0.0108  0.1926 -0.1882
 4027SOL    HW123717   3.027   3.363   8.858 -1.4448  1.5519 -1.2099
 4027SOL    HW223718   2.947   3.260   8.775 -0.7033  1.3165  0.7741
 4028SOL     OW23719   3.949   2.126  13.936  0.3397  0.2407  0.0290
 4028SOL    HW123720   3.992   2.043  13.915  0.0327  0.6513 -2.2648
 4028SOL    HW223721   3.881   2.128  13.869 -0.9515 -2.1547  1.2418
 4029SOL     OW23722   1.710   4.213   7.278  0.1374  0.6011 -0.1078
 4029SOL    HW123723   1.730   4.183   7.189 -0.5445 -1.4873  0.4267
 4029SOL    HW223724   1.784   4.178   7.328 -0.7436 -1.3296 -0.1254
 4030SOL     OW23725   3.868   3.331   7.352  0.5206 -0.5661 -0.5312
 4030SOL    HW123726   3.887   3.240   7.377  3.4650 -0.4355 -2.3558
 4030SOL    HW223727   3.845   3.372   7.436  2.6856 -1.7824  0.6695
 4031SOL     OW23728   1.929   3.609  13.614 -0.1598 -0.2555 -0.6777
 4031SOL    HW123729   1.977   3.529  13.636 -1.7936 -1.4481 -1.5193
 4031SOL    HW223730   1.849   3.612  13.665  0.1909  1.5499 -0.2251
 4032SOL     OW23731   2.564   2.319   2.520  0.0862 -0.6666 -0.2613
 4032SOL    HW123732   2.577   2.273   2.602 -1.6192  0.2319  0.5224
 4032SOL    HW223733   2.508   2.391   2.548 -0.2827 -1.4080  0.9053
 4033SOL     OW23734   3.633   1.065   7.799  0.1841 -0.0277  0.2924
 4033SOL    HW123735   3.570   0.998   7.774  0.6252 -0.9556  1.6519
 4033SOL    HW223736   3.581   1.099   7.872  0.4273  2.1472 -0.5393
 4034SOL     OW23737   1.678   0.847   3.992  0.2529 -0.2170 -0.0859
 4034SOL    HW123738   1.683   0.938   4.020 -0.9589 -0.2418  0.2255
 4034SOL    HW223739   1.584   0.828   3.984  0.5024 -0.9216 -1.4182
 4035SOL     OW23740   2.522   4.545   4.148 -0.7054 -0.2020  0.4671
 4035SOL    HW123741   2.535   4.569   4.239 -0.4037  0.0976  0.3435
 4035SOL    HW223742   2.609   4.554   4.108 -0.5822 -0.9604  0.5580
 4036SOL     OW23743   1.309   4.232   6.533  0.1727  0.2237 -0.0463
 4036SOL    HW123744   1.261   4.314   6.520  2.5597  1.9099  1.7758
 4036SOL    HW223745   1.310   4.209   6.626 -0.2411 -0.8441 -0.3044
 4037SOL     OW23746   3.916   1.465   1.012  0.0497 -0.2609 -0.0109
 4037SOL    HW123747   3.846   1.404   1.031  0.1202 -0.5851 -0.7974
 4037SOL    HW223748   3.939   1.452   0.920 -1.1985  0.4938 -0.4351
 4038SOL     OW23749   2.285   2.373   3.907 -0.4327 -0.2009  0.2382
 4038SOL    HW123750   2.239   2.379   3.823 -1.7100 -2.7406  0.7541
 4038SOL    HW223751   2.250   2.290   3.940  1.2306 -0.1583  2.0902
 4039SOL     OW23752   4.255   3.912  16.899 -0.0038  0.0253 -0.0934
 4039SOL    HW123753   4.211   3.835  16.863  2.7078 -1.3596 -0.4430
 4039SOL    HW223754   4.262   3.892  16.992  1.1415 -0.0209 -0.1984
 4040SOL     OW23755   0.697   2.510  16.719 -0.1309  0.1140 -0.2227
 4040SOL    HW123756   0.683   2.593  16.674 -0.1069  0.7052  0.8644
 4040SOL    HW223757   0.765   2.525  16.784 -1.6746 -1.6700  1.8088
 4041SOL     OW23758   4.310   1.836   5.251  0.1759  0.7117 -0.0201
 4041SOL    HW123759   4.215   1.835   5.255  0.1234 -1.7771 -1.4573
 4041SOL    HW223760   4.333   1.763   5.309 -0.7700  0.2459 -0.2307
 4042SOL     OW23761   3.865   1.408  14.764 -0.0395 -0.7257  0.7066
 4042SOL    HW123762   3.797   1.393  14.698  0.1814 -0.5669  0.4386
 4042SOL    HW223763   3.868   1.502  14.743 -1.7459 -0.3845  2.0200
 4043SOL     OW23764   1.831   3.549  15.044 -0.3220 -0.0417  0.3813
 4043SOL    HW123765   1.765   3.532  15.112  3.1139 -0.7902  3.5535
 4043SOL    HW223766   1.853   3.458  15.027 -2.1180 -0.5003  0.4887
 4044SOL     OW23767   1.889   2.405   2.632 -0.1269 -0.2311 -0.6076
 4044SOL    HW123768   1.832   2.373   2.702 -0.8290  0.0783 -1.0350
 4044SOL    HW223769   1.900   2.332   2.571  0.4557 -0.8704  0.2654
 4045SOL     OW23770   2.037   1.130  10.394 -0.1531 -0.2836 -0.5574
 4045SOL    HW123771   2.040   1.088  10.481  2.9732  0.3368 -0.3630
 4045SOL    HW223772   2.069   1.064  10.333  3.7951 -0.5572  1.7693
 4046SOL     OW23773   2.613   0.130   4.813  0.2470  0.0916 -0.5068
 4046SOL    HW123774   2.670   0.089   4.878  2.3054  1.8394 -1.1936
 4046SOL    HW223775   2.602   0.218   4.849  1.0609  0.5306 -1.3104
 4047SOL     OW23776   1.670   2.921   1.544  0.6036 -0.5067  0.2514
 4047SOL    HW123777   1.587   2.946   1.585  0.0097 -1.1020 -0.5882
 4047SOL    HW223778   1.671   2.825   1.537 -0.0047 -0.4933  0.0067
 4048SOL     OW23779   2.045   0.430   2.497  0.0193 -0.2160 -0.3769
 4048SOL    HW123780   2.029   0.511   2.449 -0.5785 -0.4684 -0.5993
 4048SOL    HW223781   1.989   0.435   2.574  0.9845  1.8792  0.1886
 4049SOL     OW23782   1.785   3.256  16.258 -0.2731 -0.4707  0.1910
 4049SOL    HW123783   1.870   3.215  16.274  0.1931  0.1293 -0.7347
 4049SOL    HW223784   1.815   3.321  16.194  2.2835 -0.0101  1.8562
 4050SOL     OW23785   2.603   4.035   4.589 -0.0018 -0.7352 -0.1314
 4050SOL    HW123786   2.524   4.042   4.536 -0.6131  0.1513  0.8975
 4050SOL    HW223787   2.649   3.959   4.553  2.2701  0.8513 -0.6211
 4051SOL     OW23788   0.304   0.211   2.027  0.3879 -0.0246  0.3915
 4051SOL    HW123789   0.232   0.269   2.003 -0.5529 -1.8499 -1.1825
 4051SOL    HW223790   0.323   0.169   1.943 -0.0188  2.8869 -1.1514
 4052SOL     OW23791   3.486   2.484   3.331  0.2161  0.0906 -0.2922
 4052SOL    HW123792   3.484   2.555   3.395 -0.9126 -2.3418  2.3297
 4052SOL    HW223793   3.467   2.408   3.385 -1.4507  1.8950  1.6565
 4053SOL     OW23794   0.874   3.681  11.830 -0.1003 -0.1909  0.6125
 4053SOL    HW123795   0.824   3.729  11.896 -0.0985 -1.0879  1.2670
 4053SOL    HW223796   0.942   3.746  11.809  0.4538 -1.1307 -0.5029
 4054SOL     OW23797   1.054   1.697   9.848 -0.1569  0.2608  0.0246
 4054SOL    HW123798   1.012   1.696   9.934  1.6586  0.7850  0.9120
 4054SOL    HW223799   1.143   1.710   9.880  0.2670 -1.1343 -0.5829
 4055SOL     OW23800   2.211   2.594  10.870 -0.2372  0.1343 -0.1127
 4055SOL    HW123801   2.260   2.574  10.950 -0.0826  1.6669  0.1700
 4055SOL    HW223802   2.258   2.666  10.828 -0.5060  0.3332 -0.0744
 4056SOL     OW23803   2.841   2.272   6.087 -0.2310 -0.5514  0.5368
 4056SOL    HW123804   2.747   2.279   6.073 -0.5558 -2.3289  1.9110
 4056SOL    HW223805   2.862   2.282   6.179  0.3672 -0.3881  0.3828
 4057SOL     OW23806   0.107   4.554  17.026  0.1600  0.2328  0.0425
 4057SOL    HW123807   0.099   4.465  16.992 -0.5068  0.0267  0.7417
 4057SOL    HW223808   0.023   4.558  17.072 -0.7246  0.5636 -1.5959
 4058SOL     OW23809   2.691   2.061  15.490  0.0887 -0.0176 -0.0707
 4058SOL    HW123810   2.737   1.999  15.546 -0.9218  0.9969  1.8731
 4058SOL    HW223811   2.769   2.116  15.478 -0.7136  0.7562 -1.7246
 4059SOL     OW23812   2.175   4.443   6.917  0.4681 -0.7446  0.0016
 4059SOL    HW123813   2.249   4.452   6.976  1.7655 -1.7865 -1.4387
 4059SOL    HW223814   2.112   4.499   6.962  0.7097  0.2799 -0.9551
 4060SOL     OW23815   2.204   3.238   8.130 -0.4577 -0.0661 -0.2627
 4060SOL    HW123816   2.229   3.269   8.217  0.1314 -0.6973 -0.2053
 4060SOL    HW223817   2.222   3.319   8.083 -1.3297  0.3738  0.1609
 4061SOL     OW23818   4.411   4.621  11.311 -0.4975 -0.5392  0.1590
 4061SOL    HW123819   4.368   4.543  11.344 -0.4500 -0.3441  0.6818
 4061SOL    HW223820   4.395   4.689  11.377  0.2020 -0.5098  0.3012
 4062SOL     OW23821   2.300   0.439   5.936  0.5587 -0.4085 -0.6348
 4062SOL    HW123822   2.222   0.487   5.906 -0.5976 -0.6795  1.9436
 4062SOL    HW223823   2.269   0.373   5.998  2.4854 -0.5754  0.1235
 4063SOL     OW23824   0.722   0.714   7.105  0.3602 -0.0513 -0.3863
 4063SOL    HW123825   0.713   0.627   7.067 -0.3645 -1.8631  3.9259
 4063SOL    HW223826   0.816   0.711   7.120  0.7930 -0.7925 -3.2395
 4064SOL     OW23827   1.261   4.564   4.503 -0.4907 -0.1664 -0.0925
 4064SOL    HW123828   1.336   4.526   4.458 -0.6113 -1.6562  0.9687
 4064SOL    HW223829   1.265   4.537   4.594  1.4015 -0.0376 -0.1357
 4065SOL     OW23830   0.555   4.263  17.381  0.1043 -0.3048 -0.3489
 4065SOL    HW123831   0.468   4.229  17.402  0.5141 -1.0641  0.1023
 4065SOL    HW223832   0.562   4.260  17.285 -0.6860  0.6176 -0.4300
 4066SOL     OW23833   0.546   4.050   7.049 -0.1369  0.3246 -0.3055
 4066SOL    HW123834   0.629   4.067   7.092  0.1868 -0.5124 -0.5915
 4066SOL    HW223835   0.570   3.984   6.984 -2.1794 -1.5835  0.8761
 4067SOL     OW23836   0.599   3.774   3.953  0.1232 -0.1097 -0.0982
 4067SOL    HW123837   0.513   3.739   3.933  0.1805 -0.2559 -0.0834
 4067SOL    HW223838   0.588   3.867   3.976  0.7061 -0.3214  1.0225
 4068SOL     OW23839   0.190   2.878   0.338  0.0498 -0.1288 -0.3007
 4068SOL    HW123840   0.242   2.922   0.405  0.4315 -0.5386 -0.3283
 4068SOL    HW223841   0.125   2.828   0.387  0.5784  0.0150  0.5410
 4069SOL     OW23842   2.437   1.901   3.978  0.0449  0.1372  0.0577
 4069SOL    HW123843   2.411   1.911   4.069  3.3245 -0.5140  1.0629
 4069SOL    HW223844   2.525   1.865   3.988 -0.5821 -1.5814 -0.4419
 4070SOL     OW23845   2.878   3.071   5.349  0.5878 -0.0607  0.1209
 4070SOL    HW123846   2.783   3.081   5.341  0.7874  2.0341  0.4315
 4070SOL    HW223847   2.899   3.054   5.257  1.0020 -0.5623  0.3085
 4071SOL     OW23848   4.622   1.343   3.093 -0.0261 -0.4270 -0.1497
 4071SOL    HW123849   4.575   1.283   3.152 -1.0755  0.9441  0.4082
 4071SOL    HW223850   4.705   1.295   3.092  1.0448  1.4407 -0.5979
 4072SOL     OW23851   2.016   1.618  17.003 -0.2973 -0.1636  0.2689
 4072SOL    HW123852   2.034   1.691  16.943  2.0403  0.0584  1.2300
 4072SOL    HW223853   2.000   1.670  17.082  1.1973 -0.3274  0.6769
 4073SOL     OW23854   3.720   0.952   4.914  0.1289 -0.0985  0.2969
 4073SOL    HW123855   3.771   0.949   4.995 -0.5582 -0.1816  0.7292
 4073SOL    HW223856   3.720   0.861   4.887 -2.0486  0.1997 -0.7528
 4074SOL     OW23857   0.358   0.955   6.295 -0.5480  0.1212  0.2540
 4074SOL    HW123858   0.320   0.906   6.368  1.0599  0.3544  1.2546
 4074SOL    HW223859   0.283   0.969   6.237  1.7336  1.3746 -2.3977
 4075SOL     OW23860   1.564   0.791   4.872 -0.2007 -0.0200  0.2606
 4075SOL    HW123861   1.614   0.722   4.829 -1.2629 -0.9635  0.5476
 4075SOL    HW223862   1.529   0.833   4.794  0.3726  2.2355  1.2067
 4076SOL     OW23863   1.328   4.490   3.649 -0.1930  0.2608 -0.6352
 4076SOL    HW123864   1.399   4.431   3.676 -0.6353  0.0275  0.0101
 4076SOL    HW223865   1.353   4.505   3.558  1.1109  1.2422 -0.1162
 4077SOL     OW23866   2.080   2.018  10.584 -0.6699 -0.0792  0.0195
 4077SOL    HW123867   2.030   1.982  10.510  1.8423 -0.2630 -1.6210
 4077SOL    HW223868   2.108   2.101  10.546 -1.2361  0.5229  0.9312
 4078SOL     OW23869   4.343   2.644   1.827 -0.4981  0.4672  0.0953
 4078SOL    HW123870   4.250   2.626   1.811 -0.8295  2.4048 -0.1159
 4078SOL    HW223871   4.379   2.617   1.742 -3.0236 -3.0996  0.1380
 4079SOL     OW23872   2.089   0.515   7.095 -0.0007 -1.0221 -0.2030
 4079SOL    HW123873   2.099   0.423   7.118 -1.3642 -0.9811  0.5112
 4079SOL    HW223874   2.176   0.543   7.124 -0.5220  1.5107 -1.1117
 4080SOL     OW23875   0.041   2.306   9.067 -0.0805  0.0677  0.6565
 4080SOL    HW123876   0.024   2.260   9.148  1.4901 -0.1753  0.8518
 4080SOL    HW223877   0.124   2.346   9.094 -0.3013 -0.0616  1.5010
 4081SOL     OW23878   2.649   1.177  17.090  0.7254  0.5547 -0.2170
 4081SOL    HW123879   2.693   1.207  17.169  0.3309  0.7207 -0.0625
 4081SOL    HW223880   2.604   1.100  17.126 -0.8065  1.1890 -0.7873
 4082SOL     OW23881   3.106   1.200   9.943  0.1346 -0.3396  0.3342
 4082SOL    HW123882   3.043   1.130   9.925 -0.5699  0.9546 -2.2364
 4082SOL    HW223883   3.179   1.169   9.888 -0.0637  0.9913 -0.6779
 4083SOL     OW23884   0.702   2.240   4.204  0.3845 -0.9803 -0.3057
 4083SOL    HW123885   0.770   2.217   4.266  1.1055 -0.0213 -0.7371
 4083SOL    HW223886   0.733   2.198   4.124  2.3192 -0.4130  0.1618
 4084SOL     OW23887   0.153   2.138   6.177  0.2982 -0.0057  0.2590
 4084SOL    HW123888   0.067   2.117   6.214 -0.3240 -0.4307 -1.4125
 4084SOL    HW223889   0.160   2.231   6.197 -0.2163  0.2069 -0.5705
 4085SOL     OW23890   2.512   4.713  17.599 -0.1755  0.7324  0.1527
 4085SOL    HW123891   2.549   0.012  17.678  0.9065 -0.5086  0.2700
 4085SOL    HW223892   2.593   4.710  17.549  0.2228  0.8885  0.7966
 4086SOL     OW23893   2.242   1.225   8.636 -0.2625  0.2665  0.0242
 4086SOL    HW123894   2.240   1.303   8.581  4.1617 -0.1485 -0.7210
 4086SOL    HW223895   2.161   1.242   8.683 -0.1954 -0.7296  0.5111
 4087SOL     OW23896   3.795   0.623   1.887  0.0651  0.6868 -0.3753
 4087SOL    HW123897   3.849   0.555   1.845 -1.3113 -1.2675  0.9897
 4087SOL    HW223898   3.859   0.694   1.888 -0.1830  0.9150 -0.9591
 4088SOL     OW23899   0.757   2.216   1.829 -0.3828  0.4250 -0.0575
 4088SOL    HW123900   0.838   2.187   1.871 -0.1011  0.8074 -0.3418
 4088SOL    HW223901   0.736   2.148   1.765 -1.0600 -0.0137  0.6235
 4089SOL     OW23902   4.024   0.122   4.320  0.1458 -0.2225  0.2052
 4089SOL    HW123903   4.024   0.077   4.405 -1.7921  0.9670  0.8279
 4089SOL    HW223904   4.114   0.152   4.308  0.0382 -0.9242 -2.2801
 4090SOL     OW23905   4.462   0.158   6.638  0.3265  0.4596 -0.3701
 4090SOL    HW123906   4.379   0.110   6.642  0.0282  1.0964  1.2826
 4090SOL    HW223907   4.478   0.155   6.544 -1.3463  1.2886 -0.6861
 4091SOL     OW23908   0.491   0.760   6.588 -0.2794 -0.0707  0.0003
 4091SOL    HW123909   0.569   0.708   6.569  0.5994  1.2954 -0.1182
 4091SOL    HW223910   0.425   0.737   6.522  2.5624 -2.3669 -2.0189
 4092SOL     OW23911   4.215   3.114  10.000  0.1016 -0.4154  0.0345
 4092SOL    HW123912   4.122   3.097  10.014  0.3756 -1.3363  0.7408
 4092SOL    HW223913   4.259   3.034  10.029 -1.9356 -1.8513 -0.9543
 4093SOL     OW23914   1.102   1.915   9.035  0.0417  0.2948  0.1049
 4093SOL    HW123915   1.025   1.928   9.091  0.9866  1.4553  1.1605
 4093SOL    HW223916   1.123   1.824   9.055  0.4010  0.2191 -0.6427
 4094SOL     OW23917   3.175   1.820   6.691  0.1907 -0.2846  0.0382
 4094SOL    HW123918   3.152   1.876   6.765 -1.8127 -1.8063  0.5584
 4094SOL    HW223919   3.201   1.885   6.626  2.0795 -0.8229  0.2511
 4095SOL     OW23920   4.594   0.169  11.023  0.4793  0.1345  0.0207
 4095SOL    HW123921   4.549   0.182  10.939 -0.1575 -0.3068  0.2968
 4095SOL    HW223922   4.532   0.197  11.091 -2.0646 -2.4419 -1.2155
 4096SOL     OW23923   2.165   4.597   0.881 -0.0554  0.2092 -0.0808
 4096SOL    HW123924   2.237   4.650   0.847  1.5244 -2.6466 -1.2451
 4096SOL    HW223925   2.211   4.516   0.906 -0.3110  0.3799  0.9612
 4097SOL     OW23926   2.502   1.944  16.321  0.5010 -0.3172  0.0805
 4097SOL    HW123927   2.412   1.912  16.315 -0.0740  1.8381 -2.4073
 4097SOL    HW223928   2.529   1.936  16.229 -3.0433  0.5726 -1.0169
 4098SOL     OW23929   0.972   1.546   9.374 -0.5717  0.7572 -0.1365
 4098SOL    HW123930   0.953   1.549   9.467 -0.1641 -0.6763 -0.0111
 4098SOL    HW223931   1.032   1.472   9.374 -1.0206  0.3706 -2.6529
 4099SOL     OW23932   0.307   0.130   5.564 -1.0625  0.6857 -0.2261
 4099SOL    HW123933   0.225   0.161   5.602  0.3495  0.4643  3.0454
 4099SOL    HW223934   0.316   0.188   5.489 -0.0839  2.4218  1.2270
 4100SOL     OW23935   3.474   1.406   3.729 -0.3972  0.1916 -0.1298
 4100SOL    HW123936   3.537   1.416   3.800 -1.2663  2.2046  0.3838
 4100SOL    HW223937   3.477   1.311   3.718 -0.9770  0.2132 -0.4925
 4101SOL     OW23938   1.628   2.605   8.619  0.2149  0.7355 -0.2799
 4101SOL    HW123939   1.722   2.596   8.634  0.0457  0.3903  0.5808
 4101SOL    HW223940   1.620   2.689   8.575 -0.4380  0.3321 -0.9243
 4102SOL     OW23941   2.382   0.603   7.152 -0.4027 -0.3613 -0.7388
 4102SOL    HW123942   2.404   0.510   7.138  1.6776  0.1640 -0.9731
 4102SOL    HW223943   2.394   0.620   7.245 -0.5350 -1.2315 -0.5566
 4103SOL     OW23944   1.128   4.047  10.018 -0.0955  0.2465 -0.5557
 4103SOL    HW123945   1.090   4.130  10.046  1.1787  0.8569 -0.6141
 4103SOL    HW223946   1.050   4.002   9.986  0.5352  0.0969 -1.8552
 4104SOL     OW23947   3.627   3.492   4.788  0.3037  0.1623 -0.7690
 4104SOL    HW123948   3.552   3.458   4.740  0.3659 -1.4236  0.2579
 4104SOL    HW223949   3.696   3.493   4.722 -0.7799 -0.9058 -1.9090
 4105SOL     OW23950   2.004   1.878   4.324  0.2681  0.2551 -0.3670
 4105SOL    HW123951   1.940   1.834   4.380  1.0631  2.8138  2.5581
 4105SOL    HW223952   1.961   1.960   4.301  0.8916  0.6255 -0.1922
 4106SOL     OW23953   1.202   0.160   8.800  0.4329 -0.2412 -0.2098
 4106SOL    HW123954   1.106   0.155   8.800  0.4907 -1.5404  1.2934
 4106SOL    HW223955   1.213   0.201   8.714  2.2469 -0.7228 -0.1989
 4107SOL     OW23956   0.304   0.343   4.967 -0.9018  0.0742 -0.0992
 4107SOL    HW123957   0.305   0.294   5.049  0.2878 -0.3583 -0.3585
 4107SOL    HW223958   0.344   0.426   4.995 -1.9722  0.5732 -0.0736
 4108SOL     OW23959   1.716   3.038  12.432 -0.1802 -0.5862  0.5470
 4108SOL    HW123960   1.730   2.948  12.402 -1.5376 -0.8115  0.5592
 4108SOL    HW223961   1.639   3.068  12.383 -0.5748 -3.0586 -0.3532
 4109SOL     OW23962   1.708   1.439   3.761 -0.5393  0.4352 -0.5523
 4109SOL    HW123963   1.803   1.448   3.760 -0.4137 -0.7861 -0.0156
 4109SOL    HW223964   1.673   1.525   3.786 -0.5352  0.2751  0.0094
 4110SOL     OW23965   3.341   1.402   4.827 -0.5050  0.7255  0.2052
 4110SOL    HW123966   3.358   1.323   4.776  0.4430  0.3044  1.1834
 4110SOL    HW223967   3.349   1.373   4.918  2.3794  1.3311  0.1232
 4111SOL     OW23968   4.287   2.505  13.809 -0.1461 -0.6001 -0.5780
 4111SOL    HW123969   4.253   2.432  13.860  0.8660 -1.0540 -0.5470
 4111SOL    HW223970   4.213   2.565  13.799 -0.4498 -0.6638  1.3877
 4112SOL     OW23971   4.381   3.171  11.561 -0.1930 -0.4831 -0.0778
 4112SOL    HW123972   4.352   3.204  11.475  1.4785  2.0124  0.3139
 4112SOL    HW223973   4.425   3.246  11.600 -2.2394  0.3166  0.6967
 4113SOL     OW23974   0.117   4.479   3.031  1.0713  0.2330 -0.1838
 4113SOL    HW123975   0.033   4.494   3.074  1.5914  0.0542  0.8734
 4113SOL    HW223976   0.138   4.572   3.023  0.9069  0.3721  1.0517
 4114SOL     OW23977   1.174   4.092   7.656  0.7849 -0.1710 -0.2943
 4114SOL    HW123978   1.237   4.132   7.596 -0.0397  0.5335 -0.6822
 4114SOL    HW223979   1.157   4.166   7.715  1.0435  1.0021 -1.7135
 4115SOL     OW23980   4.681   0.237   3.626 -0.0576 -0.1868 -0.4181
 4115SOL    HW123981   0.034   0.248   3.645 -0.1779 -1.4645  0.9052
 4115SOL    HW223982   4.676   0.143   3.641  1.3042  0.1312  2.1729
 4116SOL     OW23983   4.366   2.115  12.803  0.0892  0.6140  0.9603
 4116SOL    HW123984   4.308   2.191  12.801 -2.7235 -1.5266  1.7504
 4116SOL    HW223985   4.449   2.141  12.762  0.2253 -1.0416  0.1651
 4117SOL     OW23986   3.160   4.582   5.531  0.1532 -0.1295 -0.8381
 4117SOL    HW123987   3.156   4.604   5.624 -2.2721 -0.4865 -0.8720
 4117SOL    HW223988   3.072   4.561   5.501  0.9299 -0.6647 -2.7731
 4118SOL     OW23989   0.105   4.291   0.142 -0.6851 -0.0042  0.1469
 4118SOL    HW123990   0.022   4.326   0.110 -0.0885  0.7114 -0.6110
 4118SOL    HW223991   0.132   4.367   0.194 -2.3482  0.2206  0.7093
 4119SOL     OW23992   3.718   3.922  13.021  0.2368  0.5407 -1.0575
 4119SOL    HW123993   3.707   3.838  13.065  0.0760  1.3635  0.5026
 4119SOL    HW223994   3.640   3.937  12.967  0.6457  2.2679 -1.1652
 4120SOL     OW23995   1.040   2.182   2.733  0.2644 -0.1325  0.3730
 4120SOL    HW123996   1.091   2.140   2.664 -0.0675  0.4982 -0.2541
 4120SOL    HW223997   0.978   2.110   2.744  0.4770 -0.5458 -1.0835
 4121SOL     OW23998   1.135   3.399   3.471 -0.4475  0.4824  0.3465
 4121SOL    HW123999   1.066   3.336   3.449 -0.7106  0.2832  1.7430
 4121SOL    HW224000   1.201   3.339   3.507  1.3849  1.9807 -0.5152
 4122SOL     OW24001   2.244   1.888  16.224  0.0127 -0.3268  0.6815
 4122SOL    HW124002   2.173   1.868  16.285  2.2017 -1.5194  2.8511
 4122SOL    HW224003   2.240   1.981  16.204  0.3759 -0.6279 -0.8598
 4123SOL     OW24004   2.982   4.696   6.801  0.1892 -0.3226 -0.1469
 4123SOL    HW124005   3.049   4.633   6.828 -0.9312 -0.6986  1.7212
 4123SOL    HW224006   3.006   4.703   6.708 -0.0004 -0.8093 -0.2301
 4124SOL     OW24007   4.187   0.956   8.344 -0.2875 -0.0141  0.4217
 4124SOL    HW124008   4.155   1.032   8.392 -1.7172  0.7386 -1.7298
 4124SOL    HW224009   4.156   0.973   8.256 -1.5966 -1.6785  0.5556
 4125SOL     OW24010   3.763   4.677  14.414 -0.4754  0.2216 -0.2080
 4125SOL    HW124011   3.830   4.713  14.356  0.3634 -0.2218  0.4849
 4125SOL    HW224012   3.724   0.017  14.446  1.2310  1.1959 -0.6208
 4126SOL     OW24013   1.484   0.043  12.001 -0.2071 -0.6888  0.5509
 4126SOL    HW124014   1.479   0.135  11.976 -0.4174 -0.7948  0.2057
 4126SOL    HW224015   1.570   0.031  11.962  0.3604 -3.1726  2.5088
 4127SOL     OW24016   0.511   1.732   9.903 -0.1318  0.0142 -0.1462
 4127SOL    HW124017   0.587   1.770   9.948  0.9312 -2.4980  0.2153
 4127SOL    HW224018   0.448   1.803   9.916  0.0888 -0.0355  1.2421
 4128SOL     OW24019   1.119   1.800   9.310 -0.0448  0.3888  0.5629
 4128SOL    HW124020   1.164   1.764   9.234 -1.7124  0.1484 -0.3054
 4128SOL    HW224021   1.057   1.728   9.324  0.9934 -0.1181  2.6101
 4129SOL     OW24022   0.565   4.096  14.900 -0.3383 -0.2427  0.4342
 4129SOL    HW124023   0.533   4.182  14.875 -0.3272 -0.5522 -0.6478
 4129SOL    HW224024   0.632   4.132  14.958  0.0585 -3.6465  2.1301
 4130SOL     OW24025   0.077   3.501   5.212  0.0036 -0.2759 -0.6705
 4130SOL    HW124026   0.049   3.575   5.266  0.7864  0.1689 -0.8709
 4130SOL    HW224027   0.137   3.456   5.271  1.2738 -2.2351 -3.4452
 4131SOL     OW24028   4.587   1.825   4.023 -0.2655  0.1600  0.6275
 4131SOL    HW124029   4.602   1.811   4.117 -1.1932  1.0266  0.9066
 4131SOL    HW224030   4.661   1.880   3.996  1.0580 -1.8742  0.0988
 4132SOL     OW24031   4.504   3.204   7.713  0.1418  0.3820  0.1201
 4132SOL    HW124032   4.448   3.159   7.650 -1.8828  0.0668  2.1547
 4132SOL    HW224033   4.586   3.167   7.680  0.8729  0.8071  1.4439
 4133SOL     OW24034   2.567   1.969   7.732  0.4952  0.0398 -0.5673
 4133SOL    HW124035   2.617   1.959   7.813 -2.1353  0.8734  1.1421
 4133SOL    HW224036   2.632   2.023   7.686 -1.0529  1.4036 -1.1572
 4134SOL     OW24037   0.905   1.524   7.870 -0.6422  0.0858 -0.6607
 4134SOL    HW124038   0.859   1.466   7.931 -0.7716  3.2245  2.2370
 4134SOL    HW224039   0.837   1.537   7.804 -2.5357  0.1637  1.3026
 4135SOL     OW24040   1.827   4.518  16.118 -0.4319  0.2048 -0.3461
 4135SOL    HW124041   1.810   4.562  16.034 -1.0297  0.9558  0.1708
 4135SOL    HW224042   1.866   4.588  16.171 -2.2791  0.1768  1.0493
 4136SOL     OW24043   1.000   1.085   1.833 -0.5189  0.0859  0.2399
 4136SOL    HW124044   1.023   0.993   1.844  1.4614  0.7474  1.7338
 4136SOL    HW224045   0.905   1.081   1.832 -0.6076  2.5269 -1.4214
 4137SOL     OW24046   1.172   2.451   6.832  0.3555  0.5935  0.0945
 4137SOL    HW124047   1.247   2.507   6.813  1.4113 -0.3438  1.5696
 4137SOL    HW224048   1.094   2.507   6.832  0.0461  0.1662 -1.4559
 4138SOL     OW24049   1.322   4.000   2.611 -0.0561 -0.4834 -0.0358
 4138SOL    HW124050   1.378   3.924   2.596 -2.4406 -2.4465  0.9542
 4138SOL    HW224051   1.383   4.074   2.607 -0.0075 -0.4850  0.6174
 4139SOL     OW24052   0.475   4.442   4.649  0.2309 -0.2024  0.0133
 4139SOL    HW124053   0.504   4.514   4.593  0.8892  1.3674  2.3995
 4139SOL    HW224054   0.417   4.396   4.588 -0.4252  1.2888 -0.4880
 4140SOL     OW24055   2.113   3.500   8.326  0.3445  0.1255 -0.0853
 4140SOL    HW124056   2.095   3.557   8.401 -2.3040  0.8730 -1.2959
 4140SOL    HW224057   2.080   3.556   8.256 -1.7253 -0.2940  0.5463
 4141SOL     OW24058   4.577   3.191   9.502  0.5026 -0.2115 -0.4753
 4141SOL    HW124059   4.515   3.159   9.567  0.9289 -0.8225 -0.3743
 4141SOL    HW224060   4.618   3.107   9.481  0.9152 -0.1123 -0.0725
 4142SOL     OW24061   1.168   4.319  14.535  0.0857  0.2862 -0.4805
 4142SOL    HW124062   1.089   4.303  14.586  1.0827  0.0171  0.9822
 4142SOL    HW224063   1.177   4.231  14.498 -0.3832 -0.3075  0.8246
 4143SOL     OW24064   0.299   1.344   1.139 -0.5415 -0.1652  0.0549
 4143SOL    HW124065   0.307   1.255   1.172 -1.0929 -0.7066 -1.2850
 4143SOL    HW224066   0.386   1.373   1.168 -0.5465  2.0489 -2.1717
 4144SOL     OW24067   3.237   4.011  16.912 -0.5090  0.5744  0.4039
 4144SOL    HW124068   3.171   4.020  16.843  0.1526 -1.2906 -0.4685
 4144SOL    HW224069   3.223   3.919  16.933  1.0913 -0.4542 -2.9959
 4145SOL     OW24070   2.344   2.965  15.297  0.0195  0.4460  0.8520
 4145SOL    HW124071   2.300   2.983  15.214  2.3816 -1.5937 -0.8348
 4145SOL    HW224072   2.275   2.921  15.347  0.1646  0.3117  0.9377
 4146SOL     OW24073   2.710   2.295  12.728  0.8996  0.3918  0.1696
 4146SOL    HW124074   2.699   2.389  12.711 -1.3930  0.4509  2.0247
 4146SOL    HW224075   2.669   2.270  12.811  2.6163 -1.1614  0.5560
 4147SOL     OW24076   2.678   3.229   5.552  0.0874  0.7384 -0.0607
 4147SOL    HW124077   2.616   3.285   5.598  0.2624  0.3378  0.6607
 4147SOL    HW224078   2.641   3.227   5.464  0.3892 -1.4711 -0.1244
 4148SOL     OW24079   3.236   0.921   6.644  0.2670 -0.6433 -0.3464
 4148SOL    HW124080   3.289   0.972   6.705  0.4742 -1.7263  0.3798
 4148SOL    HW224081   3.165   0.882   6.695  0.0002  1.9216  1.2483
 4149SOL     OW24082   1.137   2.342   4.656  0.0244 -0.0546  0.2550
 4149SOL    HW124083   1.117   2.391   4.736 -2.2774  0.1845 -0.4511
 4149SOL    HW224084   1.188   2.407   4.608  0.7796 -2.4314 -2.1262
 4150SOL     OW24085   2.907   2.471  15.540 -0.3425  0.1486 -0.3257
 4150SOL    HW124086   2.965   2.419  15.485 -2.2984 -0.1161 -2.1402
 4150SOL    HW224087   2.892   2.416  15.617 -2.0681  2.4171  0.9633
 4151SOL     OW24088   0.176   4.688  11.679 -0.3981 -0.2188  0.4270
 4151SOL    HW124089   0.144   4.645  11.600 -0.1106 -0.8039  0.6242
 4151SOL    HW224090   0.094   4.719  11.718 -0.1801 -0.0116  0.7180
 4152SOL     OW24091   0.671   3.846   4.869 -0.7220  0.0679 -0.6209
 4152SOL    HW124092   0.588   3.854   4.823 -0.7299  2.8193 -0.0936
 4152SOL    HW224093   0.686   3.934   4.903 -1.7391  0.7320 -1.8643
 4153SOL     OW24094   2.536   1.007  11.716 -0.8292  0.0362 -0.2210
 4153SOL    HW124095   2.533   0.956  11.636  0.3041 -3.2790  1.8511
 4153SOL    HW224096   2.580   1.086  11.683 -0.0163 -0.6871 -0.8551
 4154SOL     OW24097   4.339   1.347   3.462 -0.4789  0.0405 -0.8049
 4154SOL    HW124098   4.319   1.409   3.532 -0.1315 -0.6775 -0.0641
 4154SOL    HW224099   4.283   1.273   3.488  1.1759 -1.0324 -0.2854
 4155SOL     OW24100   3.643   1.075   4.690  0.4550  0.9045 -0.0536
 4155SOL    HW124101   3.608   0.995   4.653  2.2979  0.0474  0.0701
 4155SOL    HW224102   3.676   1.049   4.776 -0.5302 -1.3641 -0.3753
 4156SOL     OW24103   4.393   3.751   5.980  0.1346 -0.2796 -0.4601
 4156SOL    HW124104   4.301   3.774   5.992 -0.2637 -1.6812 -0.7724
 4156SOL    HW224105   4.441   3.833   5.976 -2.1701  1.0905 -0.2715
 4157SOL     OW24106   0.284   4.724   8.247 -0.2301  0.3124  0.0868
 4157SOL    HW124107   0.355   0.047   8.252 -0.3866  0.4863  0.1001
 4157SOL    HW224108   0.208   0.022   8.203  0.9571  1.1135 -1.2465
 4158SOL     OW24109   2.601   0.337  15.412  0.1668 -0.1331 -0.0891
 4158SOL    HW124110   2.594   0.432  15.426  1.6634 -0.1875  1.0185
 4158SOL    HW224111   2.660   0.328  15.337 -0.4627 -1.2961 -0.4415
 4159SOL     OW24112   3.094   4.114   2.074 -0.0436  0.0550 -0.0634
 4159SOL    HW124113   3.170   4.128   2.130  0.5445 -1.3644 -0.5329
 4159SOL    HW224114   3.037   4.074   2.139  0.4739  0.3508  0.5733
 4160SOL     OW24115   0.803   2.615  14.310  0.1646 -0.7159  0.4214
 4160SOL    HW124116   0.710   2.620  14.331  0.4339  0.4632  1.3231
 4160SOL    HW224117   0.839   2.692  14.353  0.5156  0.9248 -2.7725
 4161SOL     OW24118   2.290   4.292  10.284  0.0210  0.1261 -0.3003
 4161SOL    HW124119   2.328   4.310  10.371 -0.3099  0.5682 -0.2524
 4161SOL    HW224120   2.355   4.315  10.218  1.7214 -0.8857  1.0116
 4162SOL     OW24121   1.490   0.241   6.864  0.2975  0.7738  0.0476
 4162SOL    HW124122   1.435   0.221   6.788 -0.2009  2.2341  0.0174
 4162SOL    HW224123   1.577   0.266   6.833  0.4159  0.6389  0.2716
 4163SOL     OW24124   1.227   0.849  16.022 -0.3205 -0.4683 -0.3266
 4163SOL    HW124125   1.210   0.904  16.098  1.4028  0.2832 -0.4936
 4163SOL    HW224126   1.312   0.879  15.989  0.1381 -2.1576 -0.6992
 4164SOL     OW24127   4.304   0.660  13.074 -0.3243  0.4170 -0.1906
 4164SOL    HW124128   4.351   0.622  13.000  0.9397 -0.1241  0.8906
 4164SOL    HW224129   4.228   0.701  13.032  0.4298  1.0024 -0.9806
 4165SOL     OW24130   4.228   2.167   2.048  0.6560  0.4013  0.0734
 4165SOL    HW124131   4.289   2.210   1.988 -1.1432  0.7974 -1.4695
 4165SOL    HW224132   4.155   2.224   2.026  0.8011  1.2127  1.6939
 4166SOL     OW24133   0.282   3.468  14.181 -0.3051  0.6319 -0.1680
 4166SOL    HW124134   0.317   3.396  14.233  1.1077  1.2298 -0.3211
 4166SOL    HW224135   0.279   3.542  14.241  0.7276 -0.6193  1.4287
 4167SOL     OW24136   1.133   1.442   6.177 -0.3525 -0.1822  0.2498
 4167SOL    HW124137   1.099   1.366   6.224  1.7418 -1.5313 -0.4070
 4167SOL    HW224138   1.172   1.487   6.251 -0.8379 -0.4277  0.6608
 4168SOL     OW24139   1.620   4.609   8.303 -0.6553 -0.4117 -0.7742
 4168SOL    HW124140   1.713   4.633   8.295 -1.6630  2.2226 -4.3396
 4168SOL    HW224141   1.603   4.576   8.391 -0.6727  1.1510 -0.1937
 4169SOL     OW24142   4.349   2.847   2.338  0.4571  0.2862  0.5305
 4169SOL    HW124143   4.387   2.855   2.426  1.4326 -1.1090  0.2408
 4169SOL    HW224144   4.322   2.935   2.314  1.5025  0.0301 -1.5589
 4170SOL     OW24145   3.298   4.306   5.846  0.4906  0.8814  0.1030
 4170SOL    HW124146   3.327   4.245   5.914  1.2924 -1.1992 -2.1053
 4170SOL    HW224147   3.348   4.386   5.858 -1.0436  1.4187  2.9284
 4171SOL     OW24148   2.367   0.149   4.693 -0.0882 -0.1847 -0.0331
 4171SOL    HW124149   2.457   0.136   4.722 -0.6722 -0.3089  1.7017
 4171SOL    HW224150   2.319   0.136   4.775 -1.7370  1.7642 -0.6858
 4172SOL     OW24151   2.378   1.259   8.340  0.2795  0.8825  0.7028
 4172SOL    HW124152   2.347   1.338   8.385  0.2100  0.2446  1.7756
 4172SOL    HW224153   2.311   1.244   8.273  0.2041  0.5324  0.8535
 4173SOL     OW24154   4.416   3.415  16.408  0.4823 -0.1402  0.1461
 4173SOL    HW124155   4.346   3.447  16.466 -0.4401  0.5583 -1.3607
 4173SOL    HW224156   4.427   3.484  16.343  0.3618 -0.0058  0.2696
 4174SOL     OW24157   3.900   4.505   1.565 -0.4703 -0.1538 -0.6529
 4174SOL    HW124158   3.861   4.576   1.515 -3.8824 -1.7083 -0.2037
 4174SOL    HW224159   3.847   4.428   1.544 -0.5438 -0.7272  1.6287
 4175SOL     OW24160   1.543   2.272   6.113 -0.3795 -0.0380 -0.3469
 4175SOL    HW124161   1.492   2.242   6.038  0.9690 -2.8644 -0.1058
 4175SOL    HW224162   1.473   2.303   6.171 -0.1559 -1.2747  0.5766
 4176SOL     OW24163   1.211   1.662   9.090  0.0665  0.8823 -0.1638
 4176SOL    HW124164   1.144   1.595   9.075  0.3608  0.4025  0.7229
 4176SOL    HW224165   1.294   1.616   9.079 -0.4329 -0.2708  0.9176
 4177SOL     OW24166   3.769   0.143   4.413  0.5756  0.1967 -0.1728
 4177SOL    HW124167   3.844   0.138   4.353  1.7188 -0.3925  1.3015
 4177SOL    HW224168   3.730   0.228   4.394  1.7049  0.9404  0.8544
 4178SOL     OW24169   2.123   0.669   9.941 -0.2884 -0.0155 -0.2635
 4178SOL    HW124170   2.148   0.598  10.000  0.5510 -1.5686 -2.4922
 4178SOL    HW224171   2.040   0.700   9.979  0.4989  0.8401  0.7815
 4179SOL     OW24172   1.598   3.291  10.762 -0.3252 -0.4888 -0.1278
 4179SOL    HW124173   1.610   3.225  10.694 -4.3550 -2.1471  0.7727
 4179SOL    HW224174   1.506   3.279  10.787 -0.0061 -1.5048  0.5466
 4180SOL     OW24175   0.461   3.964  16.315 -0.1416  0.0676 -0.3586
 4180SOL    HW124176   0.428   4.044  16.276 -0.0121  1.5066  2.4633
 4180SOL    HW224177   0.545   3.994  16.350  0.0313  0.7153 -1.3493
 4181SOL     OW24178   4.725   1.723   0.990 -0.4519  0.0329 -0.2033
 4181SOL    HW124179   4.684   1.667   1.056  0.6380 -3.6858 -2.6434
 4181SOL    HW224180   4.696   1.679   0.910  3.8390 -0.6306 -1.3861
 4182SOL     OW24181   3.553   1.003   9.429 -0.0270  0.0742  0.0538
 4182SOL    HW124182   3.585   1.064   9.363 -1.7098  0.4871 -0.3982
 4182SOL    HW224183   3.630   0.967   9.471 -0.2832 -0.7793 -0.1990
 4183SOL     OW24184   3.928   3.829   6.680  0.3388  0.3999  0.1297
 4183SOL    HW124185   3.860   3.839   6.613  1.9605  2.2096 -1.2373
 4183SOL    HW224186   4.004   3.865   6.635  2.2000 -1.0536  2.0825
 4184SOL     OW24187   0.135   0.489   1.310 -0.1853 -0.0442  0.2651
 4184SOL    HW124188   0.092   0.464   1.391  2.4173 -2.0318  1.0364
 4184SOL    HW224189   0.200   0.555   1.336 -0.7340  0.3278  0.6739
 4185SOL     OW24190   1.059   3.475  16.711 -0.4373 -0.3649 -0.5873
 4185SOL    HW124191   0.973   3.435  16.722  0.5279 -1.9896  1.0456
 4185SOL    HW224192   1.061   3.495  16.617 -0.2362  1.1093 -0.2738
 4186SOL     OW24193   1.666   0.677   5.568  0.1858 -0.2714 -0.0229
 4186SOL    HW124194   1.587   0.636   5.605  0.4872 -0.9107 -0.1039
 4186SOL    HW224195   1.712   0.713   5.644  0.9867 -1.7432  0.1717
 4187SOL     OW24196   4.199   1.610   1.488  0.4277  0.0321 -0.1953
 4187SOL    HW124197   4.127   1.623   1.427  0.1478  0.4175  0.2112
 4187SOL    HW224198   4.276   1.641   1.440 -1.1948  0.6903 -2.3481
 4188SOL     OW24199   3.090   3.591   3.285 -0.0449 -0.1170 -0.1473
 4188SOL    HW124200   3.038   3.569   3.207  0.2188  1.1875 -0.6874
 4188SOL    HW224201   3.094   3.502   3.320 -1.5738 -0.9006 -1.9828
 4189SOL     OW24202   3.479   1.737   7.969 -0.0963 -0.0441 -0.7546
 4189SOL    HW124203   3.436   1.725   8.054 -0.2434 -1.8193 -1.0798
 4189SOL    HW224204   3.489   1.832   7.966 -0.0957  0.0060  1.1149
 4190SOL     OW24205   0.689   4.370   4.813 -0.3974  0.0635  0.3326
 4190SOL    HW124206   0.615   4.388   4.754 -0.7131 -0.9298  0.4271
 4190SOL    HW224207   0.702   4.461   4.841  1.5399 -0.2829  0.5218
 4191SOL     OW24208   2.267   3.739   6.163  0.2618 -0.0971 -0.1098
 4191SOL    HW124209   2.342   3.787   6.129 -0.7482  0.7356 -1.1870
 4191SOL    HW224210   2.210   3.732   6.086  2.2583 -0.9724 -1.4886
 4192SOL     OW24211   3.680   1.229   5.031  0.6159 -0.0140 -0.4411
 4192SOL    HW124212   3.626   1.153   5.009 -2.1721  1.7695  0.3173
 4192SOL    HW224213   3.757   1.180   5.060 -0.1440 -1.6830 -1.2569
 4193SOL     OW24214   1.361   1.718   4.850  0.0894  0.0010 -0.1037
 4193SOL    HW124215   1.293   1.784   4.842  0.5273  0.4633  0.0081
 4193SOL    HW224216   1.339   1.674   4.932  2.7112 -0.3436  0.4083
 4194SOL     OW24217   3.261   4.496   4.292  0.1841 -0.1538 -0.0015
 4194SOL    HW124218   3.294   4.495   4.202  0.1146  1.7808 -0.0478
 4194SOL    HW224219   3.229   4.583   4.314 -0.5360 -0.5284  0.4510
 4195SOL     OW24220   1.716   1.948  12.510 -0.2574 -0.4317  0.1994
 4195SOL    HW124221   1.766   1.973  12.433 -0.1092 -0.4979  0.2735
 4195SOL    HW224222   1.733   1.854  12.521  1.8058  0.0123  0.7031
 4196SOL     OW24223   0.366   1.978  10.933  0.6381  0.5397  0.2954
 4196SOL    HW124224   0.421   1.950  10.860  0.5188 -0.7543  0.7029
 4196SOL    HW224225   0.424   1.948  11.002  1.8056  3.0021  0.3653
 4197SOL     OW24226   3.478   2.569   9.248  0.5564  0.0621  0.0790
 4197SOL    HW124227   3.438   2.638   9.195 -0.8377 -0.6189  0.2345
 4197SOL    HW224228   3.526   2.524   9.179  1.1349  1.2636 -0.3037
 4198SOL     OW24229   1.386   1.171   8.282  0.1863 -0.0100  0.4762
 4198SOL    HW124230   1.454   1.227   8.319 -2.2555  1.0641  3.2918
 4198SOL    HW224231   1.325   1.238   8.250  0.4396  0.1275  0.2790
 4199SOL     OW24232   1.993   1.642   7.532  0.2339  0.3302 -0.8464
 4199SOL    HW124233   2.005   1.707   7.462 -0.9862  0.7833 -0.6349
 4199SOL    HW224234   1.966   1.564   7.483  0.4038 -0.2375 -0.0420
 4200SOL     OW24235   3.303   3.482   5.093  0.3317 -0.1460 -0.1392
 4200SOL    HW124236   3.244   3.460   5.165  0.1160  1.6435  0.2558
 4200SOL    HW224237   3.381   3.440   5.130  1.1044  0.3043 -1.2656
 4201SOL     OW24238   2.775   0.002   8.269  0.3752 -0.8480 -0.4720
 4201SOL    HW124239   2.722   4.682   8.321 -2.8855  1.5828 -0.9399
 4201SOL    HW224240   2.733   0.084   8.295  3.3666 -0.1957  2.2530
 4202SOL     OW24241   1.129   2.728  15.008  0.1081  0.4263 -0.0510
 4202SOL    HW124242   1.142   2.823  15.012 -0.0857  0.3496  2.0997
 4202SOL    HW224243   1.104   2.704  15.097 -1.8950  1.7458 -0.2667
 4203SOL     OW24244   2.869   3.826   9.415 -0.1155  0.0377 -0.1690
 4203SOL    HW124245   2.963   3.839   9.432 -0.6012  1.0667  1.7595
 4203SOL    HW224246   2.833   3.832   9.504  0.2843 -1.2843  0.0839
 4204SOL     OW24247   2.447   1.760   7.838  0.6835 -0.6215 -0.1620
 4204SOL    HW124248   2.504   1.826   7.797  0.0112  1.1079  1.7016
 4204SOL    HW224249   2.397   1.720   7.767  0.3205 -1.4819  0.5770
 4205SOL     OW24250   4.724   1.058  13.161 -0.4065 -0.4088 -0.7415
 4205SOL    HW124251   4.715   1.145  13.122  0.6147 -1.0551 -2.4171
 4205SOL    HW224252   0.020   1.003  13.092 -0.0640 -1.8490  0.5764
 4206SOL     OW24253   3.063   3.698   8.899  0.7262 -0.2328  0.6135
 4206SOL    HW124254   3.051   3.741   8.983  1.3237  1.3472 -0.1146
 4206SOL    HW224255   3.150   3.659   8.908  1.9037  2.6217  1.6705
 4207SOL     OW24256   2.466   1.892   6.577  0.3495 -0.5082 -0.0194
 4207SOL    HW124257   2.469   1.976   6.623 -1.5578 -0.0077 -0.8129
 4207SOL    HW224258   2.481   1.832   6.649 -1.0065 -1.9514 -0.9455
 4208SOL     OW24259   3.948   3.676   6.336 -0.1184 -0.2516 -0.1386
 4208SOL    HW124260   3.863   3.641   6.363  0.2548 -2.3067 -1.6919
 4208SOL    HW224261   3.943   3.629   6.253 -2.0886  1.6278 -1.0698
 4209SOL     OW24262   2.928   2.999   7.385 -0.2611  0.6501 -0.2017
 4209SOL    HW124263   2.843   3.023   7.421  0.3949 -0.6867  2.2735
 4209SOL    HW224264   2.990   3.055   7.432 -1.5850 -0.0258  2.4179
 4210SOL     OW24265   2.487   0.578   6.461  0.0520  0.1124  0.7840
 4210SOL    HW124266   2.516   0.501   6.511 -1.3681 -0.4714  0.7134
 4210SOL    HW224267   2.506   0.644   6.528 -0.2376  0.4934  0.4908
 4211SOL     OW24268   3.983   2.288   6.731 -0.2746 -0.4816 -0.1147
 4211SOL    HW124269   4.044   2.288   6.657  0.1164  0.0003  0.1974
 4211SOL    HW224270   3.930   2.367   6.724  0.3808  0.0143  0.4584
 4212SOL     OW24271   1.422   4.079  15.790 -0.0097 -0.0682 -0.3717
 4212SOL    HW124272   1.393   4.005  15.736 -1.5825  0.8678 -0.8121
 4212SOL    HW224273   1.401   4.056  15.880  3.7038 -0.7902  0.3162
 4213SOL     OW24274   4.035   4.201   4.688 -0.0832  0.0494  0.1518
 4213SOL    HW124275   3.976   4.175   4.759  1.0680 -1.3209  0.5899
 4213SOL    HW224276   3.979   4.275   4.666  0.7541  0.4955 -0.4445
 4214SOL     OW24277   2.410   4.213   8.277 -0.0838 -0.1237 -0.4609
 4214SOL    HW124278   2.356   4.185   8.203 -0.1453  0.9661 -0.8269
 4214SOL    HW224279   2.433   4.300   8.243 -2.7526  1.3229  1.4641
 4215SOL     OW24280   3.946   2.339   0.398  0.0849  0.0560  0.4742
 4215SOL    HW124281   3.947   2.404   0.328 -0.0830 -1.9258 -1.3784
 4215SOL    HW224282   4.033   2.299   0.399 -0.8765 -1.9662  2.2105
 4216SOL     OW24283   1.849   2.406  12.520 -0.4769  0.4082 -0.2500
 4216SOL    HW124284   1.773   2.352  12.540  0.7584 -1.5689 -0.9604
 4216SOL    HW224285   1.815   2.496  12.521  0.3026  0.6871  1.2719
 4217SOL     OW24286   0.251   2.419   2.621 -0.4659  0.4089  0.3526
 4217SOL    HW124287   0.319   2.355   2.642 -0.9375  0.1347  1.0370
 4217SOL    HW224288   0.280   2.501   2.661  1.4924  0.8304 -1.8889
 4218SOL     OW24289   3.245   0.453   3.725 -0.2585  0.7613 -0.2003
 4218SOL    HW124290   3.229   0.359   3.723 -0.9103  0.8667  0.2236
 4218SOL    HW224291   3.207   0.477   3.641  0.7560  1.3391 -0.5075
 4219SOL     OW24292   4.044   2.552  16.869  0.1360  0.2207 -0.7057
 4219SOL    HW124293   4.064   2.466  16.831  0.3133 -0.3977  0.7788
 4219SOL    HW224294   4.036   2.528  16.961  1.8757  3.3438  0.2551
 4220SOL     OW24295   2.868   0.047   4.147 -0.2492 -0.6036 -0.7449
 4220SOL    HW124296   2.856   0.070   4.239 -0.1556  0.1472 -0.9224
 4220SOL    HW224297   2.805   4.716   4.153 -1.1251  0.1210 -1.4013
 4221SOL     OW24298   4.701   0.220   4.044 -0.3028  0.5187  1.0935
 4221SOL    HW124299   0.002   0.304   4.062 -1.2083  0.7749  1.9816
 4221SOL    HW224300   4.622   0.252   4.000  0.4318  2.6193  1.2866
 4222SOL     OW24301   1.743   4.293   8.306 -0.4559 -0.5311  0.3738
 4222SOL    HW124302   1.800   4.288   8.228 -0.3996  0.4853  0.3593
 4222SOL    HW224303   1.806   4.321   8.372 -0.9515  1.5261 -0.0365
 4223SOL     OW24304   2.869   1.296   6.269 -0.5778 -0.5208 -0.7575
 4223SOL    HW124305   2.895   1.380   6.306  0.3164 -0.9061 -0.5132
 4223SOL    HW224306   2.874   1.326   6.178 -2.4659  0.4355 -0.5310
 4224SOL     OW24307   3.577   2.970   4.134  0.4546 -0.0243 -0.1819
 4224SOL    HW124308   3.523   3.011   4.067 -1.6543 -0.3219  1.3179
 4224SOL    HW224309   3.512   2.937   4.197  1.4330 -1.2650  0.1635
 4225SOL     OW24310   1.479   4.533   4.850 -0.0860  0.2561 -0.2008
 4225SOL    HW124311   1.547   4.592   4.884  0.1544 -1.3692  2.1813
 4225SOL    HW224312   1.401   4.585   4.830  0.7736  1.1971 -1.0644
 4226SOL     OW24313   1.655   0.322   1.550 -0.6500  0.0521 -0.6226
 4226SOL    HW124314   1.585   0.290   1.607 -0.1000 -0.2252 -0.0983
 4226SOL    HW224315   1.651   0.417   1.560 -0.0391  0.0834 -0.6688
 4227SOL     OW24316   4.315   0.595   3.063 -0.2044 -0.3795 -0.0506
 4227SOL    HW124317   4.333   0.675   3.014 -1.1992  0.5317  1.0697
 4227SOL    HW224318   4.397   0.583   3.109 -0.2965 -1.3501 -0.1224
 4228SOL     OW24319   2.918   1.321   9.359  0.2770  0.1682 -0.2081
 4228SOL    HW124320   2.843   1.272   9.325 -0.4626  2.0153 -1.2161
 4228SOL    HW224321   2.914   1.396   9.300  0.2857  0.5008  0.2153
 4229SOL     OW24322   3.620   3.771   1.931 -0.0859  0.8414 -0.0929
 4229SOL    HW124323   3.574   3.820   1.862  1.5209  1.6820 -0.5688
 4229SOL    HW224324   3.572   3.791   2.011 -1.6482 -0.3639 -0.7077
 4230SOL     OW24325   3.077   3.872   9.108  0.3172  0.0285 -0.1665
 4230SOL    HW124326   3.106   3.896   9.196 -0.3055 -1.7739  0.5232
 4230SOL    HW224327   2.992   3.915   9.103 -0.2101 -1.0114 -0.0219
 4231SOL     OW24328   2.187   2.214   7.227  0.1793  0.1766  0.1247
 4231SOL    HW124329   2.134   2.286   7.194  1.6932 -0.3739 -3.5054
 4231SOL    HW224330   2.186   2.231   7.321 -0.1550 -3.8458  0.8309
 4232SOL     OW24331   3.724   4.642   3.213 -0.2383 -0.0090  0.5293
 4232SOL    HW124332   3.804   4.657   3.264 -0.8580  0.9895  1.2160
 4232SOL    HW224333   3.755   4.591   3.138  0.5085 -0.0586  0.8666
 4233SOL     OW24334   0.263   1.158   2.217 -0.4268  0.2390 -0.2047
 4233SOL    HW124335   0.210   1.131   2.292 -2.1929  1.9438 -0.8519
 4233SOL    HW224336   0.213   1.237   2.195 -2.1289 -0.8690 -0.3559
 4234SOL     OW24337   4.071   3.470  17.026 -0.1243  0.0354 -0.6017
 4234SOL    HW124338   4.064   3.399  16.963 -1.3350  1.5495 -2.1793
 4234SOL    HW224339   4.058   3.542  16.964  0.6501 -0.2708 -1.1240
 4235SOL     OW24340   3.555   1.665   0.034  0.2092  0.2666  0.0959
 4235SOL    HW124341   3.476   1.701  17.754  0.5516  2.0415  0.9809
 4235SOL    HW224342   3.605   1.630  17.721  1.4066 -1.0391  1.5370
 4236SOL     OW24343   2.511   1.245   9.010  0.3898  0.1804  0.2956
 4236SOL    HW124344   2.493   1.190   8.934 -0.1983 -0.6624  1.0442
 4236SOL    HW224345   2.467   1.205   9.085 -1.0328  2.0670  0.4802
 4237SOL     OW24346   0.323   3.977  14.834 -0.3343  0.0069 -0.5282
 4237SOL    HW124347   0.288   4.060  14.800  1.0227  0.8753  0.1866
 4237SOL    HW224348   0.415   4.001  14.843 -0.3274 -0.1421 -0.1761
 4238SOL     OW24349   1.890   2.158   8.962 -0.2418  0.0454  0.5161
 4238SOL    HW124350   1.810   2.203   8.992 -1.7561 -2.1757 -0.1856
 4238SOL    HW224351   1.938   2.156   9.045 -0.7229 -0.0397  0.7966
 4239SOL     OW24352   0.467   0.015   4.226 -0.9584 -0.0415  0.3748
 4239SOL    HW124353   0.406   0.085   4.203 -1.5007 -0.7276 -0.2908
 4239SOL    HW224354   0.401   4.688   4.215  0.2299 -1.1670  0.1024
 4240SOL     OW24355   0.540   1.755  17.592 -0.6491 -0.3935  0.3123
 4240SOL    HW124356   0.448   1.766  17.569 -0.5671 -2.0226 -0.7760
 4240SOL    HW224357   0.566   1.694  17.523  1.6798  0.0185  0.8360
 4241SOL     OW24358   3.188   1.926   8.174  0.4386 -0.6307 -0.2742
 4241SOL    HW124359   3.139   1.857   8.129  0.9646 -1.0538 -0.1935
 4241SOL    HW224360   3.132   1.963   8.243  2.5554  0.3255  0.9296
 4242SOL     OW24361   1.069   4.410   2.923 -0.1636  0.8688 -0.1375
 4242SOL    HW124362   1.101   4.326   2.890 -0.5839  0.4533  0.5236
 4242SOL    HW224363   1.093   4.478   2.859  1.6643  1.1650  0.8735
 4243SOL     OW24364   2.595   2.587   7.534  0.1658  0.6098  0.0408
 4243SOL    HW124365   2.553   2.560   7.451 -0.9899 -0.8523  1.0948
 4243SOL    HW224366   2.528   2.645   7.570 -2.0274 -0.2993 -2.5547
 4244SOL     OW24367   0.743   2.510  12.786  0.0282  0.4467 -0.0921
 4244SOL    HW124368   0.764   2.580  12.848 -1.6143 -0.9770  2.0419
 4244SOL    HW224369   0.670   2.548  12.736  0.8318  1.1820 -0.7122
 4245SOL     OW24370   1.792   0.830   8.556 -0.1053 -0.4267 -0.4786
 4245SOL    HW124371   1.795   0.823   8.461 -0.9519  0.0585 -0.5374
 4245SOL    HW224372   1.766   0.740   8.578  0.2955 -0.0241  1.6509
 4246SOL     OW24373   3.384   0.659   5.701  0.1018 -0.3561  0.3440
 4246SOL    HW124374   3.334   0.577   5.699 -0.2287  0.0165 -4.7640
 4246SOL    HW224375   3.338   0.711   5.635 -1.1361 -2.3793 -0.3833
 4247SOL     OW24376   4.229   2.448   6.808 -0.1195 -0.0110  0.6000
 4247SOL    HW124377   4.271   2.362   6.799  0.6608  0.4741 -0.5438
 4247SOL    HW224378   4.233   2.457   6.903 -1.7469 -2.5174  0.8807
 4248SOL     OW24379   4.642   1.676   9.142 -0.4816 -0.3801 -0.1809
 4248SOL    HW124380   4.573   1.740   9.161  0.2941  0.1062  0.9807
 4248SOL    HW224381   4.695   1.721   9.077 -0.4373 -0.5407 -0.2545
 4249SOL     OW24382   3.671   1.361   8.278  0.1713 -0.0847  0.0217
 4249SOL    HW124383   3.730   1.318   8.216  0.5120  0.5084 -0.0534
 4249SOL    HW224384   3.668   1.454   8.257  4.1399  0.0376 -0.0421
 4250SOL     OW24385   2.098   0.618   5.885 -0.1590  0.2015 -0.7332
 4250SOL    HW124386   2.013   0.649   5.916 -0.2331 -0.5964 -0.1399
 4250SOL    HW224387   2.161   0.689   5.902  0.0228 -0.1538  0.1165
 4251SOL     OW24388   1.491   0.539  13.739 -0.1180 -0.2030 -0.1674
 4251SOL    HW124389   1.533   0.558  13.655 -0.1898  1.5461  0.1970
 4251SOL    HW224390   1.474   0.445  13.740  0.0518 -0.2301 -0.0284
 4252SOL     OW24391   2.279   0.655   5.667 -0.3600  0.0507  0.5886
 4252SOL    HW124392   2.224   0.594   5.717 -0.4698 -1.2977 -1.1799
 4252SOL    HW224393   2.206   0.694   5.619 -0.1475  0.2322  0.4139
 4253SOL     OW24394   1.304   2.679  16.831  0.1063  0.0069  0.3417
 4253SOL    HW124395   1.241   2.722  16.773  0.0439  1.8406  1.7599
 4253SOL    HW224396   1.246   2.621  16.880  0.2944 -1.9986 -1.8195
 4254SOL     OW24397   2.114   1.812   4.081  0.7649  0.6769 -0.0768
 4254SOL    HW124398   2.185   1.764   4.124 -0.4792  1.4689  2.8209
 4254SOL    HW224399   2.071   1.838   4.162 -1.3571 -1.6486 -0.4721
 4255SOL     OW24400   2.341   3.873  16.975  0.1527 -0.2765 -0.2139
 4255SOL    HW124401   2.254   3.884  17.014 -0.2672 -1.0246 -0.9413
 4255SOL    HW224402   2.382   3.951  17.011 -0.6394 -0.2223  0.6005
 4256SOL     OW24403   0.525   0.143   2.231  0.0766 -0.0985 -0.1377
 4256SOL    HW124404   0.557   0.204   2.165 -2.8706  0.2007 -1.3059
 4256SOL    HW224405   0.442   0.108   2.197  1.3272 -0.8638 -2.3756
 4257SOL     OW24406   0.608   0.579  14.828  0.4465  0.5171 -0.0024
 4257SOL    HW124407   0.667   0.504  14.831  1.3341  1.1297 -1.6136
 4257SOL    HW224408   0.619   0.601  14.735 -1.5278 -0.1160 -0.3847
 4258SOL     OW24409   3.305   0.537   4.434  0.5223 -0.5350 -0.2060
 4258SOL    HW124410   3.279   0.489   4.356 -0.3650 -1.4803  0.6562
 4258SOL    HW224411   3.338   0.468   4.492  1.1217 -0.1417 -0.0863
 4259SOL     OW24412   3.813   3.611   2.666  0.2845  0.0799  0.0524
 4259SOL    HW124413   3.779   3.696   2.639 -0.5546 -1.0389 -2.3539
 4259SOL    HW224414   3.850   3.631   2.753 -1.2590  0.7312  0.5572
 4260SOL     OW24415   0.529   3.506  11.427 -0.7565 -0.2059  0.4807
 4260SOL    HW124416   0.453   3.545  11.385 -0.7771  0.1224  0.8254
 4260SOL    HW224417   0.595   3.546  11.371 -0.4029 -2.7186 -0.8923
 4261SOL     OW24418   0.362   3.787   8.075  0.0863 -0.2006  0.3712
 4261SOL    HW124419   0.331   3.698   8.056 -3.3097  1.0964 -0.0825
 4261SOL    HW224420   0.313   3.796   8.156  0.1354 -0.3861  0.4209
 4262SOL     OW24421   0.168   4.311   8.981 -0.6268  0.3376  0.3090
 4262SOL    HW124422   0.163   4.239   9.044  0.8419  2.1544  2.4987
 4262SOL    HW224423   0.082   4.351   8.990 -0.5729  0.6517 -0.5879
 4263SOL     OW24424   3.027   2.478   9.884  0.0167 -0.7442  0.2042
 4263SOL    HW124425   3.076   2.560   9.879 -2.5068  0.6355 -1.3965
 4263SOL    HW224426   3.047   2.438   9.800  0.5025  1.7682 -0.8754
 4264SOL     OW24427   1.731   3.562  15.307 -0.2074  0.2125 -0.3043
 4264SOL    HW124428   1.648   3.577  15.261 -0.4224  1.7107  0.5671
 4264SOL    HW224429   1.726   3.475  15.347  2.2166 -0.6460 -1.8300
 4265SOL     OW24430   3.221   4.131   2.433 -0.5116  0.0710  0.1327
 4265SOL    HW124431   3.196   4.213   2.390  0.6665  0.3926  0.0704
 4265SOL    HW224432   3.258   4.089   2.355 -0.7961 -2.2203  1.2492
 4266SOL     OW24433   3.713   3.838   2.560  0.6905  0.5308 -0.2497
 4266SOL    HW124434   3.640   3.860   2.617  0.4255 -0.1086 -0.3417
 4266SOL    HW224435   3.733   3.922   2.518 -0.0398  1.3095  0.9891
 4267SOL     OW24436   2.042   4.137  16.003 -0.4791 -0.4481 -0.2876
 4267SOL    HW124437   2.091   4.055  16.012  0.7812  0.1406 -1.7158
 4267SOL    HW224438   2.030   4.154  16.096  0.4475 -0.8295 -0.1019
 4268SOL     OW24439   2.186   2.235   6.865 -0.3210 -0.1314  0.9590
 4268SOL    HW124440   2.165   2.214   6.774  0.8508 -1.4243  0.9823
 4268SOL    HW224441   2.147   2.321   6.879 -1.1922 -0.2444 -0.6473
 4269SOL     OW24442   1.458   1.728   3.406 -0.0856  0.1843 -0.4740
 4269SOL    HW124443   1.510   1.785   3.462 -0.4692  0.0776 -0.0125
 4269SOL    HW224444   1.503   1.746   3.323 -0.1697 -0.0097 -0.5609
 4270SOL     OW24445   2.714   3.250   8.822  0.4658 -0.1456 -0.2704
 4270SOL    HW124446   2.625   3.250   8.786 -0.6046 -1.2503  2.3556
 4270SOL    HW224447   2.717   3.339   8.858  0.3597 -0.2383 -0.0319
 4271SOL     OW24448   1.266   0.228   7.997  0.6664 -0.0676  0.3105
 4271SOL    HW124449   1.220   0.206   8.078  1.6347  1.5459  1.2923
 4271SOL    HW224450   1.360   0.231   8.014  0.7702  0.1840 -0.3061
 4272SOL     OW24451   4.225   1.421   1.684 -0.1471  0.2016 -0.1826
 4272SOL    HW124452   4.138   1.382   1.686  0.0906 -0.3067  0.2911
 4272SOL    HW224453   4.215   1.481   1.610 -1.2618  2.5350  1.8487
 4273SOL     OW24454   0.356   0.157   0.299  0.0545  0.3208  1.0039
 4273SOL    HW124455   0.416   0.097   0.255 -1.9498 -0.6223 -0.3898
 4273SOL    HW224456   0.408   0.183   0.376 -1.0565 -0.5536  2.0594
 4274SOL     OW24457   3.598   2.350  14.556 -0.3870 -0.3232  0.4450
 4274SOL    HW124458   3.653   2.427  14.571  1.8939 -1.9237  0.2770
 4274SOL    HW224459   3.641   2.290  14.617  0.9814 -0.1781 -0.3979
 4275SOL     OW24460   2.533   1.604  14.562 -0.1565 -0.4838 -0.6011
 4275SOL    HW124461   2.492   1.598  14.476  0.0091  0.7602 -0.7606
 4275SOL    HW224462   2.458   1.615  14.621  0.0875 -0.0792 -0.3717
 4276SOL     OW24463   2.284   0.805   6.731  0.4837  0.1397  0.5228
 4276SOL    HW124464   2.271   0.714   6.705  3.3082  0.2978 -1.4525
 4276SOL    HW224465   2.373   0.800   6.698 -0.0483  1.1899 -1.0756
 4277SOL     OW24466   2.676   4.367   7.558  0.3517 -0.3158 -0.1456
 4277SOL    HW124467   2.654   4.366   7.464 -1.0645  3.7169  0.1366
 4277SOL    HW224468   2.747   4.431   7.566  1.9512 -2.5528  3.3079
 4278SOL     OW24469   4.706   3.479  14.222  0.0170  0.0309 -0.0006
 4278SOL    HW124470   4.725   3.430  14.142  0.1797  1.4796 -0.8569
 4278SOL    HW224471   4.622   3.439  14.245  0.6796 -0.9799  0.6390
 4279SOL     OW24472   3.392   1.001   0.357  0.2380 -0.1510  0.5306
 4279SOL    HW124473   3.320   0.940   0.371  0.0416  0.6635  3.1039
 4279SOL    HW224474   3.451   0.951   0.412  1.2756  2.0227  1.3831
 4280SOL     OW24475   3.213   3.886   7.005 -0.5760 -0.3569  0.1493
 4280SOL    HW124476   3.295   3.867   6.960 -0.5952  1.6389 -0.7358
 4280SOL    HW224477   3.215   3.819   7.073  0.4905  0.6662  1.1429
 4281SOL     OW24478   3.387   2.490   5.929  0.5013 -0.2731  0.2084
 4281SOL    HW124479   3.419   2.499   5.839  4.1445  0.3062  1.5769
 4281SOL    HW224480   3.412   2.399   5.944  2.3894  0.2561  0.3458
 4282SOL     OW24481   2.745   0.882   5.465 -0.2020 -0.2907  0.2266
 4282SOL    HW124482   2.718   0.905   5.554 -4.1275 -0.7775 -0.8405
 4282SOL    HW224483   2.741   0.787   5.473 -1.4506 -0.1301  1.5760
 4283SOL     OW24484   0.738   4.618   4.933  0.0732 -0.5774  0.3187
 4283SOL    HW124485   0.711   4.672   4.859 -1.0759 -2.7855 -0.8541
 4283SOL    HW224486   0.772   4.690   4.987 -0.8865 -0.2547  0.4990
 4284SOL     OW24487   4.023   3.266  15.784 -0.5650  0.7147 -0.9260
 4284SOL    HW124488   4.030   3.361  15.772 -0.0050  0.7332 -0.4711
 4284SOL    HW224489   3.936   3.257  15.822 -0.3101 -0.6864 -0.6572
 4285SOL     OW24490   1.852   2.468   1.552 -0.0245  0.3266 -0.4338
 4285SOL    HW124491   1.930   2.414   1.535  2.0932  3.4031 -0.3821
 4285SOL    HW224492   1.837   2.444   1.643  0.2796  1.1669 -0.1603
 4286SOL     OW24493   2.447   3.254   9.414 -0.7184  0.3091  0.3011
 4286SOL    HW124494   2.451   3.161   9.392 -2.5818 -0.0353  1.4932
 4286SOL    HW224495   2.541   3.270   9.408 -0.8909  0.6934 -1.3470
 4287SOL     OW24496   2.675   1.819   4.031 -0.5296  0.9584  0.0630
 4287SOL    HW124497   2.729   1.894   4.005  1.6639 -0.5665  0.2346
 4287SOL    HW224498   2.741   1.751   4.041 -1.6922 -0.4276 -1.9375
 4288SOL     OW24499   2.632   3.075   6.535 -0.0825  0.3609  0.4104
 4288SOL    HW124500   2.634   3.085   6.630  0.6589  0.5070  0.3829
 4288SOL    HW224501   2.559   3.130   6.509 -0.2508 -0.1503 -0.1809
 4289SOL     OW24502   2.269   1.943   6.182  0.1747  0.3684  0.3702
 4289SOL    HW124503   2.248   1.968   6.092  0.0783  2.9230  1.1151
 4289SOL    HW224504   2.186   1.901   6.208  0.0293 -0.7582 -1.9310
 4290SOL     OW24505   0.058   0.213  12.635  0.3014  0.3366  0.4677
 4290SOL    HW124506   0.146   0.180  12.617  0.5231  1.2460 -0.1307
 4290SOL    HW224507   0.004   0.135  12.649  3.0610 -1.4786  0.9167
 4291SOL     OW24508   1.124   4.483  10.995 -0.2602  0.1151 -0.3826
 4291SOL    HW124509   1.125   4.567  11.042 -0.4180  0.5499 -1.1655
 4291SOL    HW224510   1.200   4.499  10.939 -1.5926  0.4108 -2.0742
 4292SOL     OW24511   2.074   2.269  10.773  0.1175 -0.5614 -0.2409
 4292SOL    HW124512   2.166   2.249  10.755 -0.3227 -3.3316  0.5731
 4292SOL    HW224513   2.074   2.283  10.867  1.0125 -2.7005  0.0896
 4293SOL     OW24514   2.589   2.382   6.083  0.5450 -0.2726 -0.1590
 4293SOL    HW124515   2.553   2.365   6.170  0.7763 -0.3780 -0.0837
 4293SOL    HW224516   2.509   2.403   6.035  1.4576  0.8563 -1.1722
 4294SOL     OW24517   0.369   4.356   1.991 -0.1903 -0.2481 -0.2338
 4294SOL    HW124518   0.325   4.272   2.003  0.2901 -0.4932 -0.1737
 4294SOL    HW224519   0.313   4.390   1.921 -0.9949 -0.4363  0.3240
 4295SOL     OW24520   4.448   1.119   4.646 -0.3111 -0.0993 -0.3840
 4295SOL    HW124521   4.475   1.157   4.730 -2.3266 -2.4852  1.3422
 4295SOL    HW224522   4.381   1.186   4.631  0.3132  0.9262  1.3608
 4296SOL     OW24523   1.692   0.776   8.303  0.6269 -0.2443  0.5067
 4296SOL    HW124524   1.600   0.760   8.324  0.2067 -0.3530 -1.4187
 4296SOL    HW224525   1.682   0.810   8.214  1.0780  1.6918  1.2124
 4297SOL     OW24526   4.671   3.873   9.764 -0.1476  0.0960  0.0776
 4297SOL    HW124527   4.606   3.822   9.813 -1.0611 -0.0583 -1.3230
 4297SOL    HW224528   0.006   3.827   9.800  0.3385  1.3036  0.6129
 4298SOL     OW24529   1.334   3.714   7.415 -0.2714 -0.2737 -0.7483
 4298SOL    HW124530   1.423   3.747   7.425 -0.6177  0.4334 -0.0408
 4298SOL    HW224531   1.313   3.685   7.504 -4.2418  3.1495 -0.5888
 4299SOL     OW24532   3.435   0.735   6.595 -0.2036 -0.1727  0.2696
 4299SOL    HW124533   3.366   0.800   6.613  0.1980  0.2688  0.2200
 4299SOL    HW224534   3.385   0.655   6.579 -2.6110  1.1428  1.2148
 4300SOL     OW24535   3.593   4.227   2.041  0.5732  0.3901  0.2189
 4300SOL    HW124536   3.583   4.317   2.075  1.2071  1.2996 -2.0118
 4300SOL    HW224537   3.620   4.243   1.950 -2.9244  0.6688 -0.7681
 4301SOL     OW24538   1.287   3.191   5.160 -0.3745 -0.3624 -0.4121
 4301SOL    HW124539   1.303   3.106   5.201 -0.3807 -0.6130 -0.9297
 4301SOL    HW224540   1.354   3.200   5.093 -0.8298  1.3081 -0.6334
 4302SOL     OW24541   1.397   3.793   3.160 -0.2062  0.0508  0.0604
 4302SOL    HW124542   1.352   3.800   3.244 -0.2653  2.1808 -0.1310
 4302SOL    HW224543   1.343   3.847   3.102  0.3071  2.2130  1.6205
 4303SOL     OW24544   0.547   4.666   9.076  0.0183 -0.0951  0.2781
 4303SOL    HW124545   0.502   4.734   9.127  1.9077  1.9938 -0.8011
 4303SOL    HW224546   0.636   4.654   9.109  1.3032  0.9428 -2.8113
 4304SOL     OW24547   2.062   0.648   4.512 -0.0914 -0.0767 -0.2091
 4304SOL    HW124548   2.004   0.595   4.459 -0.6072  0.6042 -0.3355
 4304SOL    HW224549   2.058   0.729   4.461 -1.5325  1.3403  2.1364
 4305SOL     OW24550   4.188   0.526   4.945  0.3009  0.2539  0.5282
 4305SOL    HW124551   4.247   0.524   4.870 -0.7241 -0.6178 -0.2633
 4305SOL    HW224552   4.238   0.546   5.024  0.3779 -2.7239  1.2285
 4306SOL     OW24553   0.672   4.554  14.309  0.0098 -0.1123  0.3175
 4306SOL    HW124554   0.621   4.546  14.389 -0.8413  0.2925 -0.1786
 4306SOL    HW224555   0.735   4.483  14.321  1.3158  1.2682  1.6660
 4307SOL     OW24556   1.640   4.720   3.899 -0.5621  0.2274 -0.5065
 4307SOL    HW124557   1.669   4.630   3.880 -2.1871 -0.1642 -1.1886
 4307SOL    HW224558   1.674   4.728   3.988 -1.1658  0.6782 -0.3201
 4308SOL     OW24559   3.426   1.353   9.663 -0.2783 -0.1026 -0.0222
 4308SOL    HW124560   3.443   1.267   9.623  1.4331  0.3574 -0.2801
 4308SOL    HW224561   3.514   1.379   9.689  0.2546  0.0724 -1.9795
 4309SOL     OW24562   1.955   1.526  13.791 -0.2273 -0.2091  0.1148
 4309SOL    HW124563   2.028   1.534  13.730 -0.1767  0.8447  0.3162
 4309SOL    HW224564   1.938   1.431  13.791  2.3155 -0.6666  2.2392
 4310SOL     OW24565   2.440   1.661   4.684 -0.1073 -0.5718 -0.0804
 4310SOL    HW124566   2.485   1.586   4.645 -0.0147 -0.3582 -0.3902
 4310SOL    HW224567   2.514   1.720   4.701  0.9253 -1.5145 -1.3535
 4311SOL     OW24568   1.055   1.694  13.207  0.5393 -0.1986 -0.2535
 4311SOL    HW124569   1.137   1.743  13.208  0.8977 -0.7883 -2.0701
 4311SOL    HW224570   1.064   1.647  13.290  0.6955 -1.3765 -0.9438
 4312SOL     OW24571   4.663   4.715   3.472 -0.5312  0.7001 -0.0452
 4312SOL    HW124572   4.576   0.010   3.453 -0.6596  0.1068 -0.5887
 4312SOL    HW224573   4.707   0.021   3.402  0.6638  0.8924  0.8258
 4313SOL     OW24574   4.116   0.963  10.895 -0.0340  0.6490 -0.2084
 4313SOL    HW124575   4.159   1.017  10.960 -1.8975  0.7161  0.9668
 4313SOL    HW224576   4.025   0.989  10.910  0.3003  0.2129  2.4733
 4314SOL     OW24577   0.577   2.388  11.780 -0.4425 -0.2336  0.2424
 4314SOL    HW124578   0.658   2.336  11.777 -0.1117  0.5753 -4.6228
 4314SOL    HW224579   0.612   2.471  11.813 -0.2786 -0.7661  1.4297
 4315SOL     OW24580   0.923   2.017   3.249 -0.1375  0.0841 -0.4031
 4315SOL    HW124581   0.964   2.097   3.215  2.4431  0.2534  3.0615
 4315SOL    HW224582   0.867   2.064   3.311  1.8637  0.3147  1.2622
 4316SOL     OW24583   2.448   4.392  13.853  0.4173 -0.0578 -0.1676
 4316SOL    HW124584   2.379   4.331  13.828 -1.2755  1.4610  0.8336
 4316SOL    HW224585   2.460   4.444  13.774 -0.9116  0.9221  0.2800
 4317SOL     OW24586   3.328   1.601   9.661  0.3888 -0.0839  0.7139
 4317SOL    HW124587   3.355   1.513   9.688 -1.9136 -0.9504  0.1455
 4317SOL    HW224588   3.378   1.599   9.579 -0.2005  1.9208  0.3217
 4318SOL     OW24589   2.110   2.989   5.075 -0.4909 -0.0536 -0.0497
 4318SOL    HW124590   2.118   2.958   5.165  1.5625  0.9822  0.1391
 4318SOL    HW224591   2.197   2.972   5.038 -1.8623 -2.3171 -2.2202
 4319SOL     OW24592   4.697   1.040   4.576 -0.7213 -0.4678  0.1743
 4319SOL    HW124593   4.700   0.972   4.644 -1.5812 -2.5897 -1.9148
 4319SOL    HW224594   4.605   1.055   4.596 -0.3869 -0.1467  1.5133
 4320SOL     OW24595   4.128   4.141   2.441  0.1285 -0.5851 -0.2172
 4320SOL    HW124596   4.102   4.118   2.530  0.4466 -0.5456 -0.1128
 4320SOL    HW224597   4.069   4.209   2.409  0.6739  0.9023  1.9646
 4321SOL     OW24598   2.448   0.648  14.752 -0.6129 -0.3123 -0.6439
 4321SOL    HW124599   2.410   0.706  14.685 -4.1206 -0.1833  1.3942
 4321SOL    HW224600   2.396   0.569  14.739  0.8854 -1.3647 -0.2173
 4322SOL     OW24601   4.226   0.506   2.018 -0.0226  0.2128  0.0709
 4322SOL    HW124602   4.217   0.599   2.041 -0.0038  0.0709  0.6603
 4322SOL    HW224603   4.135   0.485   2.002 -0.3985  1.3757  0.6863
 4323SOL     OW24604   0.618   2.548   7.342  0.2570 -0.1028  0.3263
 4323SOL    HW124605   0.524   2.544   7.358  0.2787 -0.9991  0.2261
 4323SOL    HW224606   0.619   2.578   7.251  1.6265  1.1588  0.7367
 4324SOL     OW24607   1.343   3.768   6.302  0.2236 -0.5246 -0.3866
 4324SOL    HW124608   1.315   3.694   6.356  0.2337 -1.4126 -1.5839
 4324SOL    HW224609   1.278   3.829   6.337 -0.4995 -2.2547  1.2872
 4325SOL     OW24610   3.268   0.187   3.971  0.3569  0.0193 -0.4816
 4325SOL    HW124611   3.219   0.106   3.961  2.6053 -1.5009  0.8316
 4325SOL    HW224612   3.249   0.234   3.890  1.7570  0.8332 -0.3595
 4326SOL     OW24613   2.063   4.217   6.023  0.2685 -0.4426 -0.1714
 4326SOL    HW124614   2.066   4.148   5.956  1.7429  0.3946 -0.9747
 4326SOL    HW224615   2.059   4.175   6.109 -1.9133 -0.8861 -0.4842
 4327SOL     OW24616   0.890   2.114   7.774  0.5916 -0.0607  0.2281
 4327SOL    HW124617   0.959   2.164   7.817  0.0970  0.6072  0.2323
 4327SOL    HW224618   0.824   2.181   7.793 -0.1996 -0.0710 -2.4620
 4328SOL     OW24619   1.806   2.178   6.098 -0.4469 -0.1564 -0.2733
 4328SOL    HW124620   1.845   2.265   6.092  1.5133 -1.0820 -1.3140
 4328SOL    HW224621   1.713   2.201   6.097 -0.9506 -2.2012 -1.9944
 4329SOL     OW24622   2.252   3.104  10.992 -0.2872  0.0523 -0.3224
 4329SOL    HW124623   2.264   3.153  11.073 -0.6773 -2.4000  1.2493
 4329SOL    HW224624   2.251   3.169  10.923  1.1198  1.3467  0.8854
 4330SOL     OW24625   4.693   1.617  16.199 -0.0851 -0.8387 -0.0062
 4330SOL    HW124626   4.671   1.675  16.271 -0.8336 -0.1754 -0.7651
 4330SOL    HW224627   4.617   1.558  16.202  0.5331 -1.5763  1.2533
 4331SOL     OW24628   1.388   3.777  17.333 -0.4177  0.0973 -0.1801
 4331SOL    HW124629   1.335   3.767  17.254 -0.1446 -0.9559 -0.2294
 4331SOL    HW224630   1.414   3.685  17.344 -0.6899  0.0950  0.4404
 4332SOL     OW24631   1.166   0.808   7.016  0.6779  0.4112  0.0740
 4332SOL    HW124632   1.219   0.778   7.090 -0.3693  0.0925  0.6962
 4332SOL    HW224633   1.227   0.829   6.946  0.6972 -0.4572 -0.1656
 4333SOL     OW24634   1.528   4.082   5.108 -0.4417  0.0948  0.2959
 4333SOL    HW124635   1.539   4.109   5.017 -0.4708  1.4840  0.7056
 4333SOL    HW224636   1.569   4.147   5.164  2.1005 -0.0980 -1.3407
 4334SOL     OW24637   2.970   1.399   7.543  0.5298  0.0009  0.2119
 4334SOL    HW124638   2.991   1.475   7.598  0.3854  1.1140 -1.2830
 4334SOL    HW224639   3.047   1.387   7.487 -0.7672 -1.2908 -1.2976
 4335SOL     OW24640   1.827   4.395  12.224 -0.2317 -0.0460 -0.0297
 4335SOL    HW124641   1.879   4.353  12.155 -1.4637  0.2146 -1.1239
 4335SOL    HW224642   1.794   4.477  12.187  2.2072 -0.3397 -2.8078
 4336SOL     OW24643   1.922   1.290   8.470 -0.0362  0.0352 -0.4200
 4336SOL    HW124644   1.904   1.197   8.478 -0.9343  0.2609  0.1526
 4336SOL    HW224645   1.879   1.326   8.547 -2.4102 -0.8829 -1.3204
 4337SOL     OW24646   4.156   1.850   3.873  0.3100  0.3323 -0.2799
 4337SOL    HW124647   4.151   1.870   3.780 -2.5982 -3.3306 -0.9142
 4337SOL    HW224648   4.109   1.926   3.906  1.3280  1.6344 -1.8616
 4338SOL     OW24649   1.469   4.034  16.965  0.3012 -0.4097  1.0577
 4338SOL    HW124650   1.437   4.046  16.875 -0.9381 -1.8883  1.3146
 4338SOL    HW224651   1.473   3.940  16.977  0.9754 -0.3410  1.3750
 4339SOL     OW24652   1.172   0.171  15.275  0.2085 -0.2147 -0.2996
 4339SOL    HW124653   1.083   0.181  15.310  0.3054 -2.8528  0.7538
 4339SOL    HW224654   1.202   0.082  15.292  1.3691  0.1410 -0.5413
 4340SOL     OW24655   2.244   0.314   5.325  0.1147 -0.0339  0.2396
 4340SOL    HW124656   2.259   0.336   5.233  0.3197  0.1088  0.3104
 4340SOL    HW224657   2.150   0.332   5.330  0.0234 -0.7047  1.0183
 4341SOL     OW24658   0.590   0.409  14.153 -0.0075 -0.1167 -0.5201
 4341SOL    HW124659   0.516   0.349  14.161  0.3557 -0.4832  0.0500
 4341SOL    HW224660   0.547   0.491  14.176  1.5881  0.5311  0.1513
 4342SOL     OW24661   3.063   3.157  16.556 -0.1270  0.0389 -0.0471
 4342SOL    HW124662   3.140   3.205  16.587 -1.1223  1.3964  0.3084
 4342SOL    HW224663   3.000   3.173  16.627 -0.3068  0.7811 -0.3804
 4343SOL     OW24664   1.732   4.723   2.719  0.0519  0.2693 -0.5264
 4343SOL    HW124665   1.676   0.010   2.791 -0.4713 -1.0062 -0.4413
 4343SOL    HW224666   1.819   4.726   2.758 -0.4088 -0.2204  0.5414
 4344SOL     OW24667   0.530   0.740   9.111 -0.5093 -0.0479  0.5087
 4344SOL    HW124668   0.547   0.732   9.017  0.1792  1.4693  0.5106
 4344SOL    HW224669   0.596   0.680   9.145  0.5016  1.8116  1.8063
 4345SOL     OW24670   1.453   1.806   4.221  0.4952 -0.1977 -0.2189
 4345SOL    HW124671   1.428   1.865   4.150 -0.5718 -0.5971 -0.1677
 4345SOL    HW224672   1.476   1.722   4.181 -1.2163  0.1998 -2.0317
 4346SOL     OW24673   0.532   0.532   2.918  0.1935 -0.5622 -0.1697
 4346SOL    HW124674   0.601   0.488   2.967 -0.6328 -0.9497  0.6408
 4346SOL    HW224675   0.454   0.478   2.933  0.5207 -0.4956  1.8123
 4347SOL     OW24676   1.324   1.520   6.417 -0.2263 -0.7413  0.1077
 4347SOL    HW124677   1.395   1.463   6.445 -0.5391 -1.2475 -0.1421
 4347SOL    HW224678   1.286   1.543   6.503 -1.0267 -1.9184  0.0692
 4348SOL     OW24679   1.281   0.390  10.672 -0.3446  0.3309 -0.1031
 4348SOL    HW124680   1.202   0.401  10.620 -1.0406 -3.9716  0.0797
 4348SOL    HW224681   1.340   0.372  10.598 -0.1116  0.7784 -0.0292
 4349SOL     OW24682   3.330   4.456   0.984  0.3825 -0.8553  0.2871
 4349SOL    HW124683   3.414   4.501   0.994  0.9037 -1.7284 -0.2036
 4349SOL    HW224684   3.283   4.475   1.065  1.0137 -2.1714  0.9632
 4350SOL     OW24685   0.550   1.409   6.361 -0.2529 -0.4891 -0.2734
 4350SOL    HW124686   0.478   1.435   6.303 -1.2191 -1.4894  0.4654
 4350SOL    HW224687   0.503   1.340   6.408 -0.0963 -0.1589  0.3794
 4351SOL     OW24688   1.061   3.838   6.735  0.6428 -0.1873  0.7193
 4351SOL    HW124689   1.143   3.857   6.780  0.4845  4.0492 -0.7660
 4351SOL    HW224690   1.043   3.925   6.699 -0.8194  0.2100  2.4536
 4352SOL     OW24691   2.178   1.634   4.526 -0.1792  0.0282  0.0069
 4352SOL    HW124692   2.150   1.719   4.491  0.3953 -0.1081 -0.7851
 4352SOL    HW224693   2.193   1.655   4.618  0.1176 -1.3524  0.2650
 4353SOL     OW24694   4.156   2.591   2.043  0.6802 -0.6023  0.2389
 4353SOL    HW124695   4.105   2.511   2.029  1.4095 -0.9605 -0.3709
 4353SOL    HW224696   4.084   2.653   2.056 -0.1500 -1.1816 -1.4567
 4354SOL     OW24697   0.744   2.056   5.636 -0.2085 -0.2127  0.1229
 4354SOL    HW124698   0.706   2.038   5.722 -0.4758 -1.1258 -0.1833
 4354SOL    HW224699   0.835   2.044   5.659 -0.1627  0.7087  0.4363
 4355SOL     OW24700   1.692   1.920  10.934 -0.4599 -0.0493  0.1108
 4355SOL    HW124701   1.764   1.957  10.884 -1.0884  2.2439  0.8864
 4355SOL    HW224702   1.640   1.998  10.957 -3.6043 -2.0133 -0.2998
 4356SOL     OW24703   0.969   1.708   4.676 -1.1713 -0.1978  0.3678
 4356SOL    HW124704   0.996   1.764   4.749  0.0301  1.8074 -1.6307
 4356SOL    HW224705   1.055   1.685   4.640 -1.4936 -0.4529 -0.2427
 4357SOL     OW24706   1.797   4.032   0.968 -0.0646  0.1588  0.1877
 4357SOL    HW124707   1.791   4.116   0.921 -1.0022 -0.7469 -1.2915
 4357SOL    HW224708   1.888   4.002   0.968 -0.1809 -0.1726  1.2405
 4358SOL     OW24709   0.816   4.693   2.329  0.5858  0.0578 -0.1232
 4358SOL    HW124710   0.881   0.018   2.304  0.6809 -0.5178 -1.4159
 4358SOL    HW224711   0.875   4.634   2.376 -1.6173 -0.3950  2.0342
 4359SOL     OW24712   2.066   1.320   1.531 -0.1763  0.1503 -0.2384
 4359SOL    HW124713   2.107   1.261   1.468  1.2164 -0.2957  1.1057
 4359SOL    HW224714   2.102   1.403   1.500 -2.0585 -0.2311 -3.4140
 4360SOL     OW24715   0.863   3.011   9.353  0.7129 -0.5231 -0.5083
 4360SOL    HW124716   0.884   2.939   9.411 -1.0192 -0.4087  0.2879
 4360SOL    HW224717   0.945   3.041   9.316 -0.0650  1.0648 -0.9718
 4361SOL     OW24718   3.523   1.466   7.862  0.3024 -0.0201  0.1997
 4361SOL    HW124719   3.517   1.556   7.896 -1.3255  0.7991 -2.2639
 4361SOL    HW224720   3.603   1.440   7.907  0.4604 -0.1187 -0.1407
 4362SOL     OW24721   4.460   1.270   3.727  0.1291 -0.0787 -0.1503
 4362SOL    HW124722   4.391   1.246   3.789 -2.5662  2.0984 -2.3233
 4362SOL    HW224723   4.436   1.361   3.711  1.2475  0.1012 -0.7822
 4363SOL     OW24724   0.973   1.618   4.297 -0.0327  0.3627 -0.0873
 4363SOL    HW124725   1.036   1.689   4.285 -1.2266  1.4178 -0.0134
 4363SOL    HW224726   0.990   1.584   4.209  1.3341  0.4806  0.1297
 4364SOL     OW24727   3.538   2.952   5.906  0.0969 -0.1923  1.1821
 4364SOL    HW124728   3.596   3.001   5.848  0.1350 -1.6411 -0.0355
 4364SOL    HW224729   3.458   2.964   5.855 -1.4578 -0.7279  3.4926
 4365SOL     OW24730   0.746   4.695  13.862  0.1805 -0.2532  0.4766
 4365SOL    HW124731   0.698   4.733  13.788  0.1363 -1.5320 -0.1379
 4365SOL    HW224732   0.793   0.035  13.884 -2.5893  0.6309  3.1700
 4366SOL     OW24733   1.898   3.306  14.999  0.5703  0.0135  0.5168
 4366SOL    HW124734   1.893   3.270  14.910 -0.0636 -1.0331  0.9866
 4366SOL    HW224735   1.980   3.275  15.037  1.4749  0.2506 -1.2129
 4367SOL     OW24736   2.340   3.872   6.816  0.3346 -0.0475  0.1339
 4367SOL    HW124737   2.435   3.865   6.814  0.2606 -0.6166 -2.0850
 4367SOL    HW224738   2.333   3.968   6.812  1.9811  0.0411 -0.5142
 4368SOL     OW24739   3.840   1.991   7.351  0.2850  0.0718  0.0735
 4368SOL    HW124740   3.790   1.910   7.356  0.9814 -0.2078  2.4118
 4368SOL    HW224741   3.906   1.978   7.419 -1.0221  1.3396  1.5808
 4369SOL     OW24742   3.653   3.681   9.646  0.3801 -0.3844  0.0599
 4369SOL    HW124743   3.643   3.775   9.632 -0.5797  0.1400  4.2723
 4369SOL    HW224744   3.671   3.687   9.740 -1.3516  0.1820  0.3666
 4370SOL     OW24745   1.360   4.237  17.073  0.4342  0.2320 -0.3223
 4370SOL    HW124746   1.395   4.160  17.029  1.0319  0.3658 -0.0812
 4370SOL    HW224747   1.413   4.299  17.023  0.5923  0.8635  0.6263
 4371SOL     OW24748   0.022   1.472   7.718 -0.2696  0.1589 -0.4978
 4371SOL    HW124749   0.073   1.518   7.785  1.1120 -0.9763 -0.7702
 4371SOL    HW224750   0.048   1.508   7.634 -0.4732 -0.2287 -0.7262
 4372SOL     OW24751   1.461   2.891  14.281  0.0688  0.0777 -0.6476
 4372SOL    HW124752   1.382   2.940  14.259 -1.1252 -1.5350  0.0278
 4372SOL    HW224753   1.532   2.955  14.285  2.2683 -2.2552 -1.9874
 4373SOL     OW24754   4.135   0.636   9.275  0.7221 -0.1729 -0.0918
 4373SOL    HW124755   4.078   0.563   9.249 -0.3594  0.5442  0.2938
 4373SOL    HW224756   4.112   0.645   9.367  1.6285  2.3342 -0.1232
 4374SOL     OW24757   1.330   0.874  11.709 -0.2013  0.2538  0.7554
 4374SOL    HW124758   1.366   0.952  11.667 -0.8184 -0.6426 -1.4414
 4374SOL    HW224759   1.401   0.810  11.714  1.2441  2.1015  4.3497
 4375SOL     OW24760   0.018   3.074   3.525 -0.0737 -0.2759  0.4113
 4375SOL    HW124761   0.100   3.055   3.571  0.9068  0.9938 -0.8162
 4375SOL    HW224762   4.703   3.005   3.560 -1.4912 -0.3310 -1.9275
 4376SOL     OW24763   2.382   2.660  16.112  0.4965  0.0083 -0.0333
 4376SOL    HW124764   2.357   2.570  16.090  1.4221 -0.5548  1.1946
 4376SOL    HW224765   2.471   2.677  16.081  1.1577  2.4359  3.2777
 4377SOL     OW24766   0.779   2.570   1.080 -1.1930  0.1351 -0.0105
 4377SOL    HW124767   0.738   2.544   1.163  1.5619 -1.0665  0.9639
 4377SOL    HW224768   0.841   2.641   1.093 -2.1920  1.1678 -0.9297
 4378SOL     OW24769   0.923   0.301   5.344  0.1143 -0.1330  0.4989
 4378SOL    HW124770   0.861   0.288   5.273 -0.5198  1.1613  0.8169
 4378SOL    HW224771   0.878   0.252   5.413  0.7044 -0.3363  0.7446
 4379SOL     OW24772   4.323   1.955  13.444  0.3786  0.7919  0.0544
 4379SOL    HW124773   4.316   2.048  13.463  0.1417  0.8265 -0.2004
 4379SOL    HW224774   4.403   1.947  13.393  1.3029 -1.0732  1.7962
 4380SOL     OW24775   0.074   2.029   8.616  0.5468  0.4704  0.0681
 4380SOL    HW124776   0.107   2.116   8.636 -3.5133  1.3155  3.1709
 4380SOL    HW224777   0.052   2.005   8.706 -0.6374  3.8746  0.6854
 4381SOL     OW24778   4.661   0.333   8.762  0.4731 -0.2399 -0.5677
 4381SOL    HW124779   4.623   0.245   8.760  0.2425 -0.1828  1.0983
 4381SOL    HW224780   4.599   0.389   8.716  1.4529  0.5993 -0.8731
 4382SOL     OW24781   1.448   0.489  15.302 -0.1614 -0.1645 -0.5791
 4382SOL    HW124782   1.406   0.407  15.276 -0.6941 -0.3215  0.7544
 4382SOL    HW224783   1.514   0.499  15.233  0.2435 -2.6552 -0.5722
 4383SOL     OW24784   1.517   3.550   7.896  0.4755  0.4795  0.6073
 4383SOL    HW124785   1.466   3.486   7.945 -1.6911 -0.5905 -3.0235
 4383SOL    HW224786   1.473   3.635   7.908  1.3432  1.1573 -0.9327
 4384SOL     OW24787   4.318   3.304  16.053  0.2147 -0.1825 -0.5394
 4384SOL    HW124788   4.269   3.375  16.012 -2.2683 -1.7272 -0.2760
 4384SOL    HW224789   4.335   3.252  15.975  0.4113 -2.0855  0.7578
 4385SOL     OW24790   1.516   1.564   6.169  0.3467  0.5051  0.5204
 4385SOL    HW124791   1.443   1.571   6.229 -1.0154 -0.1950 -1.0496
 4385SOL    HW224792   1.585   1.604   6.221 -1.1125  2.2396  1.0744
 4386SOL     OW24793   2.382   2.260  12.493 -0.4104  0.0419 -0.3009
 4386SOL    HW124794   2.352   2.347  12.520  2.3245  1.5248 -2.0712
 4386SOL    HW224795   2.362   2.259  12.400  1.4310 -1.4078 -0.6806
 4387SOL     OW24796   2.221   0.962   8.478 -0.7277  0.0772  0.0220
 4387SOL    HW124797   2.148   0.990   8.422 -2.1689 -2.5741  0.5761
 4387SOL    HW224798   2.199   1.010   8.558 -2.0309  0.6976 -0.7051
 4388SOL     OW24799   0.434   0.057  10.705 -0.4558  0.2981 -0.2873
 4388SOL    HW124800   0.404   0.147  10.691  0.8890  0.9740  1.2900
 4388SOL    HW224801   0.352   0.016  10.733 -0.5060  0.5560 -0.0494
 4389SOL     OW24802   3.094   3.763  12.758  0.1432 -0.2324  0.3673
 4389SOL    HW124803   3.056   3.805  12.681  0.0697 -0.7404  0.1333
 4389SOL    HW224804   3.019   3.735  12.810  0.3237 -0.2758  0.6049
 4390SOL     OW24805   1.173   4.722   7.725  0.1105  0.2707  0.6809
 4390SOL    HW124806   1.085   0.001   7.758 -0.1775 -1.0681  0.7237
 4390SOL    HW224807   1.156   4.735   7.632 -0.6221 -0.6466  0.6839
 4391SOL     OW24808   2.694   2.111  14.424  0.4576  0.2991  0.0185
 4391SOL    HW124809   2.658   2.032  14.465  2.0860 -0.1568  0.5569
 4391SOL    HW224810   2.734   2.082  14.342 -0.4544  2.5817 -1.2379
 4392SOL     OW24811   0.611   4.423   5.898  0.2022  0.5963  0.8829
 4392SOL    HW124812   0.516   4.425   5.888  0.2670  0.2625  0.1963
 4392SOL    HW224813   0.626   4.395   5.988  1.1500  0.8107  0.7844
 4393SOL     OW24814   3.816   3.046   8.382 -0.4895 -0.0174 -0.0069
 4393SOL    HW124815   3.821   2.985   8.456 -0.0885 -0.9031 -0.7731
 4393SOL    HW224816   3.909   3.071   8.384 -0.5146  0.0285  0.6357
 4394SOL     OW24817   4.044   4.169   3.198 -0.1433  0.1912  0.3365
 4394SOL    HW124818   4.079   4.202   3.281  1.2790  0.9799 -0.5897
 4394SOL    HW224819   4.120   4.160   3.141 -0.6711 -1.5984 -0.0785
 4395SOL     OW24820   0.408   2.742   1.324  0.3317  0.3757  0.4448
 4395SOL    HW124821   0.433   2.818   1.272 -1.6551  0.9023  0.2526
 4395SOL    HW224822   0.407   2.674   1.256  0.0871  1.6194 -0.8048
 4396SOL     OW24823   0.410   2.634   1.047 -0.1442  0.3483 -0.1845
 4396SOL    HW124824   0.465   2.627   0.968  0.7261  1.9590  0.2836
 4396SOL    HW224825   0.384   2.726   1.038  1.0749  0.7116  0.0167
 4397SOL     OW24826   2.195   3.587  15.027  0.2816 -0.4234 -0.1074
 4397SOL    HW124827   2.237   3.506  15.056 -1.0460 -0.4011  1.8979
 4397SOL    HW224828   2.127   3.603  15.093 -0.2964  0.5798 -0.9457
 4398SOL     OW24829   3.694   2.650   2.303 -0.5227 -0.3937  0.1855
 4398SOL    HW124830   3.687   2.731   2.354 -2.4141 -2.0143  2.4939
 4398SOL    HW224831   3.769   2.610   2.346 -0.1775  1.6268  1.4794
 4399SOL     OW24832   2.815   0.003   7.785  0.0127  0.0202 -0.0967
 4399SOL    HW124833   2.812   4.717   7.877 -1.0481  0.4328 -0.0070
 4399SOL    HW224834   2.775   0.090   7.787 -0.7837 -0.3577  0.3879
 4400SOL     OW24835   4.331   3.453   3.208  0.1068  0.1905  0.2054
 4400SOL    HW124836   4.375   3.393   3.147 -0.6758  1.4461 -1.6226
 4400SOL    HW224837   4.300   3.515   3.142  1.6736  0.6695 -0.0796
 4401SOL     OW24838   3.776   3.539   1.541  0.0919 -0.2100 -0.2591
 4401SOL    HW124839   3.841   3.535   1.471  0.9379 -0.4790  0.5364
 4401SOL    HW224840   3.806   3.610   1.598  1.2332 -0.4168 -0.6032
 4402SOL     OW24841   2.275   2.617   6.316 -0.5012  0.3988 -0.1356
 4402SOL    HW124842   2.260   2.661   6.232  1.4190  0.0766 -0.6476
 4402SOL    HW224843   2.370   2.608   6.323 -0.4271 -0.1421 -1.8917
 4403SOL     OW24844   3.097   1.810  13.668  0.3682  0.3460  0.6091
 4403SOL    HW124845   3.092   1.800  13.573  1.8327  1.5103  0.4008
 4403SOL    HW224846   3.059   1.898  13.676  0.4681  0.4689 -0.3236
 4404SOL     OW24847   3.821   0.983  16.749  0.3496 -0.3507  0.0652
 4404SOL    HW124848   3.741   0.936  16.769 -1.6102  3.2339  0.5814
 4404SOL    HW224849   3.833   0.967  16.655  1.1602  0.5159  0.0209
 4405SOL     OW24850   0.018   2.514  13.623  0.0622  0.2575 -0.0333
 4405SOL    HW124851   4.686   2.487  13.680 -0.3413 -1.9011 -1.6258
 4405SOL    HW224852   0.076   2.442  13.646  0.0046  0.9245  2.2519
 4406SOL     OW24853   3.666   0.851  14.439 -0.4431 -0.1343 -0.3237
 4406SOL    HW124854   3.655   0.774  14.382 -0.0979 -0.9014  0.6423
 4406SOL    HW224855   3.756   0.852  14.469 -0.1849  0.2409 -1.0947
 4407SOL     OW24856   1.015   0.515   5.488  0.2462 -0.0800 -0.0612
 4407SOL    HW124857   0.985   0.432   5.450  1.2467  0.2024 -1.4422
 4407SOL    HW224858   0.971   0.578   5.432  0.7734  1.4971  1.3150
 4408SOL     OW24859   2.413   3.019   7.916 -0.2861 -0.5648 -0.1559
 4408SOL    HW124860   2.386   2.965   7.991  0.9619 -0.7717  0.1574
 4408SOL    HW224861   2.445   3.101   7.954 -0.2122 -1.2721  1.3241
 4409SOL     OW24862   1.649   3.803  14.611  0.9946  0.3853  0.3219
 4409SOL    HW124863   1.662   3.780  14.703 -1.4356  2.5353  1.1998
 4409SOL    HW224864   1.677   3.726  14.562  1.1892  0.8175 -0.2430
 4410SOL     OW24865   2.443   2.102  14.254 -0.0531 -0.5978  0.0148
 4410SOL    HW124866   2.465   2.039  14.322 -0.3199 -0.3252  0.3557
 4410SOL    HW224867   2.494   2.179  14.279 -0.5649 -0.1788 -0.2308
 4411SOL     OW24868   1.889   3.726   7.354  0.3240  0.5655  0.4190
 4411SOL    HW124869   1.796   3.712   7.373  0.2488 -0.2027 -0.5287
 4411SOL    HW224870   1.903   3.641   7.314 -0.6109 -0.6061  2.5556
 4412SOL     OW24871   4.208   2.630  11.739 -0.1471  0.3548 -0.3252
 4412SOL    HW124872   4.130   2.623  11.684 -0.0691 -3.0640 -0.0120
 4412SOL    HW224873   4.185   2.706  11.792 -2.2558 -0.5415  0.0558
 4413SOL     OW24874   4.151   4.417   2.654 -0.1149  0.5515  0.3199
 4413SOL    HW124875   4.188   4.439   2.740  1.0172  0.6811 -0.1993
 4413SOL    HW224876   4.150   4.321   2.652 -1.0970  0.6913 -4.2075
 4414SOL     OW24877   2.847   3.656   6.453 -1.2637 -0.2329 -0.1518
 4414SOL    HW124878   2.903   3.704   6.514 -0.7142 -1.1620  0.0664
 4414SOL    HW224879   2.907   3.608   6.396 -0.3186  0.3080  0.3876
 4415SOL     OW24880   0.700   1.194   6.714  0.2760  0.1583  0.2632
 4415SOL    HW124881   0.777   1.157   6.669  1.0220  1.9053  0.1090
 4415SOL    HW224882   0.654   1.205   6.631  1.2496 -1.4713 -0.5002
 4416SOL     OW24883   2.876   0.983   2.828  0.6207  0.1832 -0.0802
 4416SOL    HW124884   2.808   0.995   2.893 -0.1744 -0.8811 -0.7166
 4416SOL    HW224885   2.887   1.065   2.780  0.5590  0.4094  0.2947
 4417SOL     OW24886   1.400   1.826   0.206  0.0674  0.6590  0.4597
 4417SOL    HW124887   1.377   1.776   0.285  1.5089 -0.6514  0.0533
 4417SOL    HW224888   1.490   1.853   0.225  0.1931  0.5390  0.0420
 4418SOL     OW24889   3.626   0.718  12.348  0.8727 -0.1773 -0.5642
 4418SOL    HW124890   3.617   0.624  12.333  1.1324 -0.5271  1.4441
 4418SOL    HW224891   3.536   0.741  12.325  0.6281 -0.3549  0.2035
 4419SOL     OW24892   2.089   1.348   2.086 -0.2124  0.3585  0.2660
 4419SOL    HW124893   2.049   1.372   2.002  0.0563  0.1982  0.0915
 4419SOL    HW224894   2.058   1.412   2.150 -1.1680 -0.7653  0.9297
 4420SOL     OW24895   3.106   4.336  14.344 -0.0288  0.0817 -0.3785
 4420SOL    HW124896   3.053   4.342  14.424 -1.4419  1.5515 -1.3973
 4420SOL    HW224897   3.184   4.379  14.379  0.5316 -0.8176 -0.5326
 4421SOL     OW24898   1.990   0.941   7.764  0.0005 -0.0487  0.2115
 4421SOL    HW124899   1.986   0.977   7.852  3.2094 -0.8883  0.6849
 4421SOL    HW224900   2.041   0.861   7.774  0.8441  0.5508  0.6385
 4422SOL     OW24901   3.670   2.846   3.626  0.3086 -0.2607  0.0106
 4422SOL    HW124902   3.746   2.794   3.655 -1.0317 -2.2190  0.0179
 4422SOL    HW224903   3.707   2.878   3.544  2.3177  2.1871  1.8824
 4423SOL     OW24904   1.823   0.767  14.229  0.0964 -0.3673  0.0342
 4423SOL    HW124905   1.872   0.689  14.256  0.6322  0.4024  1.2728
 4423SOL    HW224906   1.902   0.816  14.205 -0.1892 -0.7670 -1.7318
 4424SOL     OW24907   1.081   0.363   5.738  0.2418  0.0075  0.1575
 4424SOL    HW124908   1.038   0.406   5.664  2.3045 -1.9056 -2.1157
 4424SOL    HW224909   1.069   0.269   5.721  1.2604 -0.8204  3.8845
 4425SOL     OW24910   0.603   3.603  15.738  0.2837  0.0187  0.2848
 4425SOL    HW124911   0.547   3.560  15.673  0.1308 -0.9660  1.0797
 4425SOL    HW224912   0.608   3.697  15.720  0.8321 -0.4808 -2.1734
 4426SOL     OW24913   3.667   3.491   5.272 -0.3646 -0.1430  0.3943
 4426SOL    HW124914   3.752   3.461   5.239  0.0844 -0.5693  1.9318
 4426SOL    HW224915   3.606   3.418   5.260  0.1323 -1.0049  3.2061
 4427SOL     OW24916   1.999   3.585   1.473 -0.3291 -0.0376  0.5681
 4427SOL    HW124917   2.044   3.653   1.523 -1.5431 -0.1120  1.7682
 4427SOL    HW224918   1.912   3.603   1.508 -0.5620  1.3521 -0.7065
 4428SOL     OW24919   1.455   3.655   1.764  0.7419 -0.0363  0.4451
 4428SOL    HW124920   1.545   3.673   1.793  0.2772 -0.2039  1.9853
 4428SOL    HW224921   1.442   3.696   1.679 -0.0001 -0.0876  0.5370
 4429SOL     OW24922   1.789   2.445   0.254 -0.1661 -0.2882  0.6458
 4429SOL    HW124923   1.858   2.509   0.239 -0.4883  0.1031  0.8176
 4429SOL    HW224924   1.734   2.501   0.309  0.5841  1.5346 -0.4997
 4430SOL     OW24925   3.921   0.513   1.496 -0.7239  0.1004  0.4767
 4430SOL    HW124926   3.948   0.430   1.456 -0.5816  1.2803 -1.8618
 4430SOL    HW224927   3.831   0.495   1.523 -1.4017  3.0982  0.2414
 4431SOL     OW24928   1.841   2.947   8.258  0.6778  0.0533  0.4721
 4431SOL    HW124929   1.931   2.972   8.240  0.5691  2.4225  3.1400
 4431SOL    HW224930   1.784   3.021   8.233  2.9701  1.3874 -0.7602
 4432SOL     OW24931   0.822   3.021   1.018  0.6273  0.2879 -0.6461
 4432SOL    HW124932   0.891   3.043   0.956 -0.7528  1.7967 -1.6525
 4432SOL    HW224933   0.750   3.075   0.983 -1.7685 -1.9490  0.8491
 4433SOL     OW24934   1.327   0.447   2.526  0.2847  0.2800 -0.0415
 4433SOL    HW124935   1.278   0.449   2.443  0.2148  1.4167  0.0210
 4433SOL    HW224936   1.401   0.496   2.490  0.7891 -0.5830 -0.1835
 4434SOL     OW24937   0.072   3.564   6.686 -0.5989 -0.1268  0.2977
 4434SOL    HW124938   0.007   3.501   6.655 -0.3640  0.1397 -0.7372
 4434SOL    HW224939   0.081   3.555   6.781 -1.7817  0.8873  0.5049
 4435SOL     OW24940   1.865   4.662   8.263 -0.3760 -0.2343  0.1159
 4435SOL    HW124941   1.918   4.719   8.207 -3.2529  0.9970 -1.3377
 4435SOL    HW224942   1.868   4.586   8.206 -0.7451 -2.1646  2.6880
 4436SOL     OW24943   0.994   0.155   2.804 -0.7333  0.5118 -0.1920
 4436SOL    HW124944   0.948   0.227   2.847  0.7471  0.3003  1.7522
 4436SOL    HW224945   1.070   0.205   2.775 -1.3005  2.3563  1.5034
 4437SOL     OW24946   2.139   2.781  10.404  0.3473 -0.1704  0.1594
 4437SOL    HW124947   2.211   2.833  10.438  1.1061 -1.0806 -0.0792
 4437SOL    HW224948   2.088   2.774  10.485  0.3138 -0.1373  0.1415
 4438SOL     OW24949   2.652   3.797  16.831  0.0220  0.0429  0.3855
 4438SOL    HW124950   2.583   3.736  16.807 -0.5072  0.2283  1.4360
 4438SOL    HW224951   2.667   3.777  16.924 -0.7790 -1.1373  0.2554
 4439SOL     OW24952   1.069   1.542   1.903  0.1929  0.1753 -0.2215
 4439SOL    HW124953   1.031   1.479   1.965 -1.2236  1.4814  0.2200
 4439SOL    HW224954   0.995   1.602   1.899 -0.6328 -0.8545 -0.4709
 4440SOL     OW24955   3.939   1.698   0.649 -0.3932 -0.2234  0.1078
 4440SOL    HW124956   3.880   1.725   0.578 -0.0473  2.5778  0.8917
 4440SOL    HW224957   4.026   1.696   0.607 -0.0500 -1.3638  0.8922
 4441SOL     OW24958   1.819   2.152   6.583 -0.5031 -0.3046 -0.0163
 4441SOL    HW124959   1.889   2.189   6.528 -0.8013 -0.8568 -0.7739
 4441SOL    HW224960   1.773   2.226   6.622  0.8436 -0.5532  2.0523
 4442SOL     OW24961   1.467   3.308   4.745 -0.2290 -0.3607 -0.9849
 4442SOL    HW124962   1.493   3.384   4.796 -0.3762 -0.2206 -1.1172
 4442SOL    HW224963   1.377   3.327   4.716  0.2686 -2.0033 -3.5731
 4443SOL     OW24964   3.156   4.616   7.684 -0.4700 -0.1162  0.9307
 4443SOL    HW124965   3.244   4.653   7.688 -1.6019  2.7031 -0.9093
 4443SOL    HW224966   3.152   4.580   7.773  0.2042 -2.5221 -0.0174
 4444SOL     OW24967   2.420   2.551   7.258  0.2057 -0.0724  0.2081
 4444SOL    HW124968   2.358   2.614   7.295 -1.5570 -1.5771 -0.1878
 4444SOL    HW224969   2.417   2.564   7.163 -0.5551 -0.8816  0.1198
 4445SOL     OW24970   2.629   3.861   3.257 -0.4043  0.7088 -0.0002
 4445SOL    HW124971   2.679   3.888   3.335 -0.1963 -0.3458  0.2272
 4445SOL    HW224972   2.571   3.792   3.288 -1.3992  3.0275  3.3322
 4446SOL     OW24973   2.770   0.341  15.204 -0.5362  0.2644  0.3114
 4446SOL    HW124974   2.822   0.421  15.211  0.7407 -0.4913 -0.5091
 4446SOL    HW224975   2.759   0.328  15.110  0.9065  1.1039  0.0245
 4447SOL     OW24976   1.599   1.842  14.453  0.7936 -0.3278  0.3975
 4447SOL    HW124977   1.509   1.864  14.478  1.1565 -0.5734  1.8983
 4447SOL    HW224978   1.645   1.821  14.535  0.3506  0.9789  0.9838
 4448SOL     OW24979   1.003   0.400   4.578 -0.1405  0.1695  0.2264
 4448SOL    HW124980   1.095   0.383   4.599  0.5071  1.2868 -1.7939
 4448SOL    HW224981   0.997   0.364   4.490  1.4364  3.1973 -1.0764
 4449SOL     OW24982   0.464   0.466   4.389  0.4577 -0.2335 -0.3435
 4449SOL    HW124983   0.548   0.420   4.390  1.3908  1.4700  0.5912
 4449SOL    HW224984   0.401   0.403   4.423  0.3806  0.7305  1.3100
 4450SOL     OW24985   0.626   3.542   2.789 -0.0499  0.2438  0.1764
 4450SOL    HW124986   0.578   3.475   2.838  2.8384 -0.3759  2.1031
 4450SOL    HW224987   0.716   3.523   2.814 -0.5589 -1.3387  0.8091
 4451SOL     OW24988   4.724   1.428   8.100  0.4319  0.0822 -0.0967
 4451SOL    HW124989   4.654   1.412   8.037  0.2456  0.0582  0.1146
 4451SOL    HW224990   4.675   1.475   8.169 -0.3748 -1.8724  0.6520
 4452SOL     OW24991   4.226   3.037  11.729 -0.1377 -0.4458  0.4045
 4452SOL    HW124992   4.222   3.101  11.800  1.4109  1.1613 -0.9346
 4452SOL    HW224993   4.315   3.043  11.692 -1.3296 -1.0971 -2.5776
 4453SOL     OW24994   4.593   3.470   9.503  0.1744 -0.1258 -0.4175
 4453SOL    HW124995   4.649   3.476   9.581 -0.8183 -1.2012  0.3641
 4453SOL    HW224996   4.579   3.376   9.501 -0.3763 -0.0413 -0.6568
 4454SOL     OW24997   0.175   0.697   6.963 -0.6029 -0.1249  0.1008
 4454SOL    HW124998   0.111   0.637   7.000  0.3590 -0.4800  1.1872
 4454SOL    HW224999   0.114   0.768   6.943  1.2212  1.5470  0.4919
 4455SOL     OW25000   2.373   1.023  10.659 -0.3960 -0.4021  0.0374
 4455SOL    HW125001   2.385   1.026  10.564 -0.2937  0.5194  0.0735
 4455SOL    HW225002   2.462   1.003  10.687 -0.4396  1.8370  1.8238
 4456SOL     OW25003   4.664   1.086   5.519  0.0322 -0.8719 -0.0375
 4456SOL    HW125004   4.728   1.022   5.551  0.9673 -0.0683 -0.3234
 4456SOL    HW225005   4.680   1.077   5.425 -0.7150 -0.3510 -0.2132
 4457SOL     OW25006   4.398   3.761   7.781 -0.0887  0.3752  0.3468
 4457SOL    HW125007   4.404   3.666   7.792  1.3805  0.4883  0.4076
 4457SOL    HW225008   4.417   3.756   7.687 -1.8138  0.5848 -0.0166
 4458SOL     OW25009   2.793   0.458   3.691  0.5288 -1.0872 -0.0078
 4458SOL    HW125010   2.779   0.391   3.759  1.6241  0.3337  1.6285
 4458SOL    HW225011   2.785   0.540   3.739 -0.0060 -0.6573 -0.8371
 4459SOL     OW25012   1.199   2.735   4.646  0.2951 -0.5915  0.0487
 4459SOL    HW125013   1.139   2.759   4.716 -0.8130 -2.0713 -0.3989
 4459SOL    HW225014   1.184   2.803   4.580 -0.5072 -0.0018  0.8450
 4460SOL     OW25015   4.560   2.140   8.773  0.1788  0.7973  0.1701
 4460SOL    HW125016   4.583   2.078   8.704 -0.8212 -2.2874  2.6036
 4460SOL    HW225017   4.603   2.103   8.850 -0.5710  1.6629  1.0203
 4461SOL     OW25018   3.890   3.311   9.617 -0.2073  0.0552 -0.1726
 4461SOL    HW125019   3.822   3.341   9.556 -2.2265 -0.4060  1.8536
 4461SOL    HW225020   3.885   3.215   9.614  0.9452 -0.0189  0.4907
 4462SOL     OW25021   1.874   4.323  15.880  0.1734  0.3315  0.0313
 4462SOL    HW125022   1.921   4.256  15.928 -1.3317 -0.7982 -0.0666
 4462SOL    HW225023   1.878   4.401  15.935 -1.5193 -0.0386  0.6869
 4463SOL     OW25024   2.529   1.211   0.074  0.5713  0.1118  0.2151
 4463SOL    HW125025   2.486   1.157   0.008 -0.0641  0.5246  0.2944
 4463SOL    HW225026   2.570   1.285   0.030  0.9786 -1.0023 -1.2965
 4464SOL     OW25027   4.472   1.178   4.287 -0.2168  0.1131 -0.6303
 4464SOL    HW125028   4.542   1.121   4.255 -1.6897 -2.4327  0.6699
 4464SOL    HW225029   4.519   1.231   4.352 -3.4855 -0.4602  2.1493
 4465SOL     OW25030   1.615   2.523   8.032  0.3788 -0.8192  0.1287
 4465SOL    HW125031   1.675   2.461   7.991  0.2168  0.1835 -1.6506
 4465SOL    HW225032   1.682   2.563   8.088  1.4018  0.5933 -2.0696
 4466SOL     OW25033   3.160   3.559   4.272  0.5165  0.0699  0.1325
 4466SOL    HW125034   3.164   3.494   4.202  2.4663  0.9104 -0.5314
 4466SOL    HW225035   3.234   3.617   4.253  1.0354 -1.0150 -1.1166
 4467SOL     OW25036   1.554   2.372   4.610  0.1086 -0.0001 -0.1544
 4467SOL    HW125037   1.489   2.436   4.583 -1.4205 -0.9780  1.2228
 4467SOL    HW225038   1.495   2.297   4.618  1.9927 -1.6208 -1.3163
 4468SOL     OW25039   0.770   2.567   6.582 -0.0118 -0.8337  0.5344
 4468SOL    HW125040   0.805   2.499   6.640  2.0970 -2.5363 -2.7300
 4468SOL    HW225041   0.725   2.622   6.646  2.2547 -0.6796  1.9795
 4469SOL     OW25042   1.020   4.001   1.193  0.0631  0.4796  0.3131
 4469SOL    HW125043   0.978   4.082   1.164 -0.2169  0.7836  1.5555
 4469SOL    HW225044   1.112   4.013   1.171 -0.3215  0.4956 -1.3411
 4470SOL     OW25045   1.979   1.948   2.835 -0.1346 -0.2757 -0.1333
 4470SOL    HW125046   1.982   1.871   2.893 -0.6477 -1.6000 -1.8487
 4470SOL    HW225047   1.911   2.001   2.876 -0.1005 -0.5993  0.3501
 4471SOL     OW25048   1.417   1.518   9.018  0.0778 -0.0120 -0.1196
 4471SOL    HW125049   1.492   1.471   9.052  0.0733 -0.2205 -0.3999
 4471SOL    HW225050   1.457   1.583   8.960 -1.8781  0.2131 -1.2601
 4472SOL     OW25051   4.271   0.668   9.609  0.0085 -0.2762 -0.1078
 4472SOL    HW125052   4.302   0.700   9.525  4.3557 -0.5143  1.4176
 4472SOL    HW225053   4.178   0.656   9.587 -0.6514 -1.5493  3.3517
 4473SOL     OW25054   1.630   0.433   6.505  0.4221  0.5076 -0.2698
 4473SOL    HW125055   1.685   0.487   6.562 -0.2966  1.7314 -0.7243
 4473SOL    HW225056   1.545   0.475   6.519  0.2397 -0.2891  0.9747
 4474SOL     OW25057   3.347   3.216  16.142 -0.5707  0.1572 -0.1504
 4474SOL    HW125058   3.263   3.217  16.187 -0.3201  0.2644  0.3205
 4474SOL    HW225059   3.403   3.202  16.218 -0.5016  3.3170  0.3963
 4475SOL     OW25060   1.865   3.135   5.415 -0.1640  0.4855  0.2456
 4475SOL    HW125061   1.811   3.099   5.345 -1.8261 -1.3911  2.4488
 4475SOL    HW225062   1.874   3.226   5.388  3.1396  0.3560  0.8723
 4476SOL     OW25063   4.430   0.449  10.876 -0.4534 -0.6447  0.4451
 4476SOL    HW125064   4.438   0.362  10.837 -0.8666 -0.2168 -0.6019
 4476SOL    HW225065   4.357   0.482  10.823  0.3264  1.3856  0.6627
 4477SOL     OW25066   0.917   1.546   9.658  0.2870  0.4734 -0.3802
 4477SOL    HW125067   0.826   1.563   9.681  0.6019  1.5256  0.1102
 4477SOL    HW225068   0.969   1.583   9.730 -0.0592  2.4812 -1.1565
 4478SOL     OW25069   0.246   3.854   1.509 -0.1849 -0.1120  0.4291
 4478SOL    HW125070   0.339   3.839   1.530 -0.0201 -0.0892 -0.3090
 4478SOL    HW225071   0.261   3.894   1.424 -0.3700  0.7770  0.8090
 4479SOL     OW25072   1.181   1.103   5.712  0.2524  1.1037 -0.4364
 4479SOL    HW125073   1.217   1.180   5.756 -3.4388  0.5215  3.5869
 4479SOL    HW225074   1.141   1.150   5.638 -1.5113  0.9216  0.3885
 4480SOL     OW25075   4.440   0.184   9.292 -0.0018  0.8383 -0.0833
 4480SOL    HW125076   4.482   0.145   9.216  1.8822  0.5697  1.0861
 4480SOL    HW225077   4.519   0.206   9.341  0.1262 -0.3665  0.2570
 4481SOL     OW25078   4.689   3.691   4.305 -0.0811 -0.8534  0.0586
 4481SOL    HW125079   4.607   3.643   4.320 -0.5521  0.5634  2.1518
 4481SOL    HW225080   4.734   3.653   4.381  0.5455  0.0614  0.1557
 4482SOL     OW25081   1.777   3.237   6.291  0.0762 -0.2371 -0.4799
 4482SOL    HW125082   1.837   3.252   6.218 -0.8248  0.6586 -1.0260
 4482SOL    HW225083   1.841   3.218   6.360 -0.6361  0.8012  0.4711
 4483SOL     OW25084   0.739   1.340   4.629 -0.7391  0.2169 -0.2029
 4483SOL    HW125085   0.785   1.369   4.708  1.2341  2.0202 -1.9920
 4483SOL    HW225086   0.650   1.344   4.664 -0.6704 -1.3159  0.1380
 4484SOL     OW25087   3.394   2.334  14.357 -0.5626  0.0552 -0.0766
 4484SOL    HW125088   3.458   2.326  14.428 -2.0500  2.3280  1.5629
 4484SOL    HW225089   3.417   2.422  14.328 -0.2573 -0.2512 -0.7571
 4485SOL     OW25090   2.234   1.962   5.622  0.0173  0.1039 -0.4516
 4485SOL    HW125091   2.156   1.935   5.574 -1.3616  0.3474  1.6688
 4485SOL    HW225092   2.277   1.877   5.630 -1.9503 -0.6121  2.3422
 4486SOL     OW25093   4.135   2.232  11.582 -0.2681  0.4198 -0.2490
 4486SOL    HW125094   4.222   2.203  11.610  0.0409  0.9328 -0.6862
 4486SOL    HW225095   4.140   2.196  11.493 -2.3117  0.9858 -0.5867
 4487SOL     OW25096   0.756   0.931  15.842 -0.2086  0.1390  0.2559
 4487SOL    HW125097   0.829   0.950  15.783  0.2394  0.5968  0.9545
 4487SOL    HW225098   0.686   0.898  15.786 -1.1498  1.9794  0.3376
 4488SOL     OW25099   3.518   4.054   4.659 -0.0701 -0.8981  0.0437
 4488SOL    HW125100   3.564   4.133   4.689  0.0049 -0.4953 -1.1370
 4488SOL    HW225101   3.517   4.071   4.565 -0.0511 -1.4362 -0.0524
 4489SOL     OW25102   1.698   0.949   4.388 -0.3160 -0.3124 -0.4796
 4489SOL    HW125103   1.775   0.907   4.350 -0.7512 -0.4649 -1.2005
 4489SOL    HW225104   1.697   1.037   4.350 -0.6020 -1.3536 -2.8922
 4490SOL     OW25105   1.752   1.551   3.111  0.0690 -0.6338  0.1250
 4490SOL    HW125106   1.723   1.613   3.178  0.2507 -0.7187  0.2840
 4490SOL    HW225107   1.672   1.500   3.101 -0.8446  0.1474  3.5876
 4491SOL     OW25108   1.296   0.741   2.335 -0.0830 -0.2364  0.1876
 4491SOL    HW125109   1.272   0.810   2.275  1.4502 -1.0178 -1.3279
 4491SOL    HW225110   1.353   0.791   2.394 -0.7249 -1.7456  2.1217
 4492SOL     OW25111   1.160   0.324  14.647  0.7269 -0.2936  0.0956
 4492SOL    HW125112   1.127   0.285  14.728 -0.9542 -0.9385 -0.9044
 4492SOL    HW225113   1.102   0.276  14.588  0.2509  0.9590 -0.4682
 4493SOL     OW25114   0.883   3.962  15.659  0.2760 -0.0850  0.6278
 4493SOL    HW125115   0.817   4.007  15.606  0.6029  0.3354  0.5775
 4493SOL    HW225116   0.832   3.919  15.727 -0.3597 -0.2430  0.0468
 4494SOL     OW25117   2.652   0.112  15.610 -0.6439  0.2598 -0.0686
 4494SOL    HW125118   2.585   0.055  15.574  1.2388 -1.3194 -1.0675
 4494SOL    HW225119   2.617   0.188  15.564 -0.5170  1.0627  1.1616
 4495SOL     OW25120   2.652   4.471  10.545  0.1651  0.0006 -0.0019
 4495SOL    HW125121   2.587   4.533  10.576  0.8241  0.1640  1.0478
 4495SOL    HW225122   2.705   4.463  10.624 -1.6621  0.8152  1.2920
 4496SOL     OW25123   3.352   3.937  16.245  0.3000 -0.2873 -0.4209
 4496SOL    HW125124   3.410   3.918  16.319 -0.4927 -0.0262  0.2714
 4496SOL    HW225125   3.306   3.853  16.237  2.8871 -2.1343  3.6288
 4497SOL     OW25126   4.196   0.992   0.576  0.4447  0.4957 -0.4604
 4497SOL    HW125127   4.154   0.996   0.490  0.0194 -1.5026 -0.3389
 4497SOL    HW225128   4.148   1.065   0.616 -0.7025 -1.4645  1.7981
 4498SOL     OW25129   0.276   4.514   1.782 -0.5424 -0.3807  0.0270
 4498SOL    HW125130   0.220   4.448   1.741 -2.6878  2.0638 -0.9718
 4498SOL    HW225131   0.220   4.591   1.786 -3.2784 -2.2634 -1.7907
 4499SOL     OW25132   4.267   2.388   4.488 -0.3248  0.5000  0.2726
 4499SOL    HW125133   4.299   2.302   4.515 -0.6214  0.1450 -0.4938
 4499SOL    HW225134   4.252   2.375   4.394  0.2656  0.0115  0.2424
 4500SOL     OW25135   1.823   3.747   2.914 -0.3832 -0.1009  0.7727
 4500SOL    HW125136   1.759   3.765   2.845 -1.5967  0.7423  2.1139
 4500SOL    HW225137   1.835   3.654   2.895 -0.2635 -0.3113  1.8920
 4501SOL     OW25138   3.959   4.208  12.348 -0.0557 -0.7351 -0.0514
 4501SOL    HW125139   4.025   4.152  12.307  3.4730  2.5668  1.1412
 4501SOL    HW225140   3.980   4.175  12.436 -0.1945  1.3877  0.7696
 4502SOL     OW25141   4.044   2.825   3.040 -0.5579  0.7545 -0.2646
 4502SOL    HW125142   3.989   2.797   2.967  0.5156  1.2028 -1.2354
 4502SOL    HW225143   3.989   2.805   3.117 -0.4126 -0.4353 -0.4646
 4503SOL     OW25144   2.405   4.440   3.237 -0.1518  0.0957 -0.2361
 4503SOL    HW125145   2.405   4.457   3.143  2.2274  2.1001  0.1199
 4503SOL    HW225146   2.386   4.527   3.272 -0.7463 -0.7284  1.5443
 4504SOL     OW25147   2.011   4.185   5.031 -1.0701  0.7331 -0.0579
 4504SOL    HW125148   2.000   4.123   5.103  0.4264 -0.1475 -0.5903
 4504SOL    HW225149   2.038   4.262   5.081 -1.6214  0.8317  0.0824
 4505SOL     OW25150   3.330   0.667  15.951 -0.5320 -0.3391 -0.1632
 4505SOL    HW125151   3.309   0.607  15.879 -1.7001 -0.2768  0.1172
 4505SOL    HW225152   3.249   0.714  15.973 -0.2141 -0.7215  1.7990
 4506SOL     OW25153   1.312   3.304   0.156  0.8086  0.1644 -0.1543
 4506SOL    HW125154   1.372   3.251   0.209 -1.0104 -0.8323  0.9139
 4506SOL    HW225155   1.368   3.326   0.081 -0.0333 -1.5142 -1.2898
 4507SOL     OW25156   3.993   1.715   6.193  0.2744 -0.0365 -0.1290
 4507SOL    HW125157   3.919   1.682   6.142  1.3451 -0.4144 -1.4205
 4507SOL    HW225158   4.042   1.756   6.122 -0.0400 -2.3267 -1.6577
 4508SOL     OW25159   3.025   3.060   4.883 -0.6816 -0.2094 -0.0854
 4508SOL    HW125160   3.008   3.142   4.929  1.0463  0.4576 -0.6733
 4508SOL    HW225161   3.057   3.083   4.796 -0.5542  1.1736  0.3307
 4509SOL     OW25162   0.965   2.748   0.566  0.1052 -0.3058  0.0887
 4509SOL    HW125163   1.026   2.761   0.638  1.1097 -0.8398 -0.6545
 4509SOL    HW225164   1.015   2.690   0.508  1.5638  0.9732  0.0617
 4510SOL     OW25165   1.620   4.198  14.491  0.2592 -1.0146 -0.3785
 4510SOL    HW125166   1.638   4.146  14.569  0.0247 -0.2505  0.1754
 4510SOL    HW225167   1.690   4.263  14.496  0.5922 -1.4643  0.7478
 4511SOL     OW25168   0.057   4.486  15.196  0.6243 -0.6048  0.1426
 4511SOL    HW125169   0.152   4.475  15.197  0.2969 -3.4536  1.9842
 4511SOL    HW225170   0.055   4.580  15.178 -1.5542 -0.7004 -0.1046
 4512SOL     OW25171   1.777   1.227   7.799 -0.0124 -0.2886 -0.1647
 4512SOL    HW125172   1.697   1.182   7.825  0.3592 -0.7190  0.2449
 4512SOL    HW225173   1.792   1.284   7.874 -0.1017 -1.0254  0.4166
 4513SOL     OW25174   0.998   3.455   5.279  0.0597 -0.1046  0.0230
 4513SOL    HW125175   1.071   3.516   5.266 -1.4429  2.1427  2.0857
 4513SOL    HW225176   0.959   3.456   5.191  1.6882  0.9688 -0.6808
 4514SOL     OW25177   4.409   0.387   8.504 -0.1376  0.0884  0.1641
 4514SOL    HW125178   4.362   0.430   8.432  1.3136 -1.5783 -1.7917
 4514SOL    HW225179   4.461   0.457   8.545 -1.4478  1.5286 -0.6085
 4515SOL     OW25180   3.726   3.028   7.377  0.4206 -0.0762  0.8871
 4515SOL    HW125181   3.636   3.013   7.349  1.9343  0.1284 -3.9534
 4515SOL    HW225182   3.725   3.030   7.473  2.1192  0.3412  0.9078
 4516SOL     OW25183   1.488   2.409   9.155 -0.2961  0.5555 -0.2009
 4516SOL    HW125184   1.433   2.340   9.190  1.6575 -0.0475  1.7233
 4516SOL    HW225185   1.456   2.481   9.210  0.3026 -0.6070  1.6604
 4517SOL     OW25186   1.708   1.888   4.137 -0.5259  0.0350 -0.4087
 4517SOL    HW125187   1.625   1.879   4.184 -0.8693 -1.7048 -1.3791
 4517SOL    HW225188   1.757   1.956   4.184  0.4488 -0.2549 -0.9887
 4518SOL     OW25189   1.854   0.226  16.397 -0.0555 -0.1446  1.0726
 4518SOL    HW125190   1.801   0.204  16.321 -1.6189  2.5501  1.3797
 4518SOL    HW225191   1.947   0.221  16.377 -0.4182  0.0022 -0.6728
 4519SOL     OW25192   1.710   2.765   7.429 -0.1634  0.2270 -0.4906
 4519SOL    HW125193   1.706   2.857   7.404 -0.2473  0.0530 -1.1117
 4519SOL    HW225194   1.785   2.741   7.376  0.7168 -2.0476  1.7924
 4520SOL     OW25195   3.999   1.112   1.280 -0.6594 -0.2781 -0.5400
 4520SOL    HW125196   3.980   1.190   1.332  0.3618 -1.4964  1.6804
 4520SOL    HW225197   4.052   1.056   1.337 -1.0748 -0.5850 -0.4604
 4521SOL     OW25198   3.439   0.810   8.829 -0.0933  0.3396 -0.1492
 4521SOL    HW125199   3.438   0.876   8.898  0.8251  0.1906  0.0063
 4521SOL    HW225200   3.350   0.819   8.794 -0.4457  2.0016  1.1859
 4522SOL     OW25201   4.137   2.082   6.948 -0.2733 -0.7497 -0.3396
 4522SOL    HW125202   4.211   2.127   6.988 -1.0745 -1.4802  1.9719
 4522SOL    HW225203   4.120   2.142   6.875  2.5238  1.3980  0.8187
 4523SOL     OW25204   2.941   0.355   6.818  0.0976  0.2066  0.5965
 4523SOL    HW125205   2.972   0.275   6.859 -0.9775  0.0900  1.1604
 4523SOL    HW225206   3.021   0.385   6.774 -0.7639 -2.6939 -2.9932
 4524SOL     OW25207   3.648   1.429   1.368  0.2551 -0.6626  0.3030
 4524SOL    HW125208   3.631   1.419   1.462 -0.0811  2.2608  0.5337
 4524SOL    HW225209   3.743   1.434   1.375 -0.0309  0.9626  3.2628
 4525SOL     OW25210   1.340   2.392   7.988  0.8938 -0.5511  0.0346
 4525SOL    HW125211   1.312   2.399   8.080 -0.6613  0.2098 -0.4958
 4525SOL    HW225212   1.416   2.451   7.983  0.4700 -0.1929 -2.0060
 4526SOL     OW25213   0.844   4.509   6.567  0.3861 -0.3710 -0.0700
 4526SOL    HW125214   0.832   4.599   6.596 -1.8865 -0.6945 -0.0656
 4526SOL    HW225215   0.797   4.512   6.484  0.9578  3.1583 -0.2456
 4527SOL     OW25216   4.481   4.281   3.439  0.1828 -0.1246 -0.0796
 4527SOL    HW125217   4.542   4.320   3.501  1.0686 -1.5426 -0.0591
 4527SOL    HW225218   4.537   4.250   3.368 -0.0614  0.0623 -0.3509
 4528SOL     OW25219   1.406   3.463  17.392  0.5793  0.6696 -0.2616
 4528SOL    HW125220   1.318   3.483  17.360 -0.4960 -3.4235  0.1672
 4528SOL    HW225221   1.410   3.370  17.372  1.5579  0.1842  2.2246
 4529SOL     OW25222   0.629   1.525   1.804 -0.4764 -0.0174  0.4121
 4529SOL    HW125223   0.552   1.474   1.829 -0.1591 -1.3279 -1.2597
 4529SOL    HW225224   0.704   1.467   1.822  1.4775  2.0517 -1.0945
 4530SOL     OW25225   1.700   3.445   3.272  0.3928 -1.1147 -0.0502
 4530SOL    HW125226   1.725   3.436   3.364  1.5369  1.5734 -0.1009
 4530SOL    HW225227   1.741   3.532   3.264  0.1707 -0.9334  0.8459
 4531SOL     OW25228   3.934   0.971   2.120  0.3491  0.3035 -0.5076
 4531SOL    HW125229   3.841   0.953   2.108  0.7028 -2.5613  1.0185
 4531SOL    HW225230   3.945   0.944   2.211  3.1507 -2.0955 -1.5876
 4532SOL     OW25231   3.814   1.803   2.512  0.1237  0.0158 -0.0571
 4532SOL    HW125232   3.821   1.879   2.571 -0.4684 -0.9541  1.2566
 4532SOL    HW225233   3.733   1.834   2.470  1.3500 -0.5378 -2.8031
 4533SOL     OW25234   3.471   0.353   5.644 -0.2700 -0.1814 -0.2126
 4533SOL    HW125235   3.389   0.382   5.605  0.3913  0.7070 -0.9582
 4533SOL    HW225236   3.444   0.303   5.721  0.2670  0.8895  0.6718
 4534SOL     OW25237   0.582   0.634   2.079  0.1185  0.0293  0.2072
 4534SOL    HW125238   0.664   0.667   2.116  1.4975 -2.0601 -0.9769
 4534SOL    HW225239   0.596   0.649   1.986  1.6966 -0.9265  0.2884
 4535SOL     OW25240   1.046   2.248   3.185  0.2336  0.4783 -0.6745
 4535SOL    HW125241   1.103   2.258   3.110  0.5959 -1.6144 -0.6748
 4535SOL    HW225242   1.108   2.254   3.258  0.7859  2.6347 -1.3205
 4536SOL     OW25243   3.929   1.097   4.516 -0.3246 -0.9308 -0.0386
 4536SOL    HW125244   3.856   1.069   4.571 -1.8832  0.1006 -1.5473
 4536SOL    HW225245   3.928   1.040   4.438 -0.3266 -2.3459  0.9936
 4537SOL     OW25246   2.079   2.897  15.316  0.0652  0.2424 -0.1306
 4537SOL    HW125247   2.052   2.822  15.263  1.9851 -0.3749 -0.2556
 4537SOL    HW225248   2.027   2.873  15.393  0.0903  0.1852 -0.1314
 4538SOL     OW25249   2.069   3.084   2.856  0.1460 -0.3867  0.2337
 4538SOL    HW125250   2.055   3.130   2.773 -0.5154  0.0843  0.6120
 4538SOL    HW225251   2.024   3.002   2.839 -1.0699  0.1376  0.9005
 4539SOL     OW25252   0.420   1.668   4.065  0.2016 -0.3831  0.1456
 4539SOL    HW125253   0.417   1.626   4.151  1.4280 -0.3976  0.1831
 4539SOL    HW225254   0.332   1.657   4.029  1.1389  1.6533 -2.8160
 4540SOL     OW25255   4.227   3.701   8.969 -0.2349 -1.1407 -0.0177
 4540SOL    HW125256   4.232   3.788   9.009 -0.7182 -0.6223 -1.0888
 4540SOL    HW225257   4.258   3.726   8.882 -1.0689  2.1456  0.6212
 4541SOL     OW25258   0.148   2.188   6.706 -0.5015  0.3002 -0.2616
 4541SOL    HW125259   0.236   2.165   6.734 -1.3729 -2.0292  0.5574
 4541SOL    HW225260   0.110   2.100   6.714  0.1874 -0.2784 -3.3158
 4542SOL     OW25261   4.075   1.472   6.868  0.5380  0.4788  0.4415
 4542SOL    HW125262   4.023   1.438   6.795  3.5318 -0.3005 -1.3206
 4542SOL    HW225263   4.029   1.555   6.881 -1.0546 -0.7688  2.6187
 4543SOL     OW25264   3.336   3.044   5.209  0.0356 -0.7483  0.8404
 4543SOL    HW125265   3.317   2.951   5.218 -1.5469 -0.7069 -1.9875
 4543SOL    HW225266   3.280   3.077   5.279 -0.8752  2.0790 -1.2282
 4544SOL     OW25267   3.305   4.388  14.501 -0.1248 -0.2593 -0.3233
 4544SOL    HW125268   3.401   4.386  14.500 -0.1331 -1.3582  0.3945
 4544SOL    HW225269   3.295   4.336  14.581  0.6716  0.3231  0.1540
 4545SOL     OW25270   1.347   3.533   0.788 -0.1979 -0.0009 -0.3196
 4545SOL    HW125271   1.413   3.464   0.791  0.3265  0.4094 -2.2958
 4545SOL    HW225272   1.380   3.594   0.721 -0.0830  1.9537  1.5093
 4546SOL     OW25273   0.899   1.562   3.639 -0.3246  0.5080 -0.5514
 4546SOL    HW125274   0.822   1.597   3.594 -1.9124  0.6529  2.2487
 4546SOL    HW225275   0.921   1.477   3.600  0.4112  1.9545 -3.3017
 4547SOL     OW25276   0.114   4.716   1.278 -0.4853  0.0807 -0.2931
 4547SOL    HW125277   0.156   0.060   1.292  0.4422 -0.8713  2.6103
 4547SOL    HW225278   0.107   4.717   1.182  0.5967 -0.8320 -0.3884
 4548SOL     OW25279   4.737   2.604   4.902 -0.7744  0.3118 -0.3338
 4548SOL    HW125280   4.666   2.629   4.961 -1.8188  0.0474 -1.4907
 4548SOL    HW225281   4.688   2.616   4.821 -0.5759  0.3616 -0.4449
 4549SOL     OW25282   4.035   3.415   3.805 -0.4226 -0.1452 -0.1266
 4549SOL    HW125283   4.001   3.457   3.885  0.3401 -0.7867  0.5348
 4549SOL    HW225284   3.965   3.354   3.782 -1.6656  1.8450 -1.5694
 4550SOL     OW25285   4.023   2.135   6.147  0.4009 -0.3161  0.4321
 4550SOL    HW125286   4.079   2.153   6.222 -1.7083  0.6944  1.7329
 4550SOL    HW225287   4.092   2.137   6.080 -1.0608 -1.9654 -1.1166
 4551SOL     OW25288   2.844   2.597   2.532  0.5257  0.8927  0.1389
 4551SOL    HW125289   2.855   2.505   2.507 -0.0820  0.5798  1.0239
 4551SOL    HW225290   2.750   2.597   2.551  0.4422 -3.4336 -0.3019
 4552SOL     OW25291   1.409   0.280   3.920  0.4756 -0.1794  0.8203
 4552SOL    HW125292   1.370   0.364   3.946 -2.3186 -1.4688  0.8007
 4552SOL    HW225293   1.449   0.301   3.836 -0.9718  0.8573  0.3778
 4553SOL     OW25294   2.569   4.197   3.289 -0.2925 -1.1545  0.1313
 4553SOL    HW125295   2.523   4.273   3.252 -0.3579 -1.0442  0.4352
 4553SOL    HW225296   2.618   4.159   3.216  0.6624  0.7367 -0.2042
 4554SOL     OW25297   3.845   2.995   4.712  0.2272  0.2045  0.0163
 4554SOL    HW125298   3.799   3.006   4.629 -0.9404  3.3789  1.0714
 4554SOL    HW225299   3.888   2.910   4.715 -0.1817  0.0284  1.0289
 4555SOL     OW25300   4.675   0.846   6.054  0.3120  0.0287  0.1410
 4555SOL    HW125301   4.656   0.765   6.101 -0.7187  0.6392  0.7774
 4555SOL    HW225302   4.588   0.881   6.035  1.0425  0.7922 -1.7804
 4556SOL     OW25303   1.770   3.973   2.283 -0.6724  0.1677  0.4319
 4556SOL    HW125304   1.772   3.964   2.378  0.2468 -1.5894  0.2358
 4556SOL    HW225305   1.818   4.056   2.274 -0.6371 -0.0602 -1.4351
 4557SOL     OW25306   4.168   4.697   5.141 -0.4190 -0.0345  0.1594
 4557SOL    HW125307   4.172   0.045   5.105 -0.9436  1.3360  3.4853
 4557SOL    HW225308   4.126   4.653   5.067 -0.6522 -2.6511  1.8249
 4558SOL     OW25309   1.095   0.943   2.679  0.3295  0.0557  0.5826
 4558SOL    HW125310   1.130   0.989   2.603  0.9499  0.6308  1.2188
 4558SOL    HW225311   1.113   0.852   2.655  0.0193 -0.2335  1.4091
 4559SOL     OW25312   4.357   3.507   6.166  0.6599  0.3420 -0.0077
 4559SOL    HW125313   4.349   3.597   6.135 -0.2460  0.8585  1.7557
 4559SOL    HW225314   4.310   3.506   6.249 -0.7394 -1.9016 -0.8379
 4560SOL     OW25315   2.791   2.701   8.772 -0.3672 -0.1990  0.2655
 4560SOL    HW125316   2.751   2.788   8.769 -0.8674 -0.4303  0.2914
 4560SOL    HW225317   2.781   2.677   8.680  0.7844  0.7923 -0.1232
 4561SOL     OW25318   4.512   0.877   5.302 -0.6574 -0.2526  0.4147
 4561SOL    HW125319   4.461   0.943   5.350  0.1194  0.7135 -0.0933
 4561SOL    HW225320   4.554   0.831   5.375 -0.1144 -0.7972 -0.2432
 4562SOL     OW25321   4.505   2.265   2.793  0.3217 -0.3801 -0.3391
 4562SOL    HW125322   4.532   2.335   2.852 -3.1135  1.5489 -1.0577
 4562SOL    HW225323   4.565   2.286   2.721  0.3935 -0.8522 -0.4194
 4563SOL     OW25324   1.761   1.548   4.502  0.4247 -0.5406  0.3018
 4563SOL    HW125325   1.776   1.640   4.483 -0.8452 -0.1802  1.0819
 4563SOL    HW225326   1.699   1.567   4.573  1.7507  2.1280  0.7320
 4564SOL     OW25327   0.945   3.603   1.046  0.2105  0.3830 -0.0827
 4564SOL    HW125328   0.950   3.672   0.981 -0.1224 -0.6753 -1.2268
 4564SOL    HW225329   1.009   3.550   0.999  0.8437 -0.0805  1.2805
 4565SOL     OW25330   1.295   1.913   6.867  0.3212 -0.1491  0.5862
 4565SOL    HW125331   1.301   2.001   6.904  0.0068 -0.9622  2.5749
 4565SOL    HW225332   1.304   1.933   6.773  2.0028  2.6352  1.3444
 4566SOL     OW25333   0.613   2.646   0.865 -0.1052  0.0565  0.5456
 4566SOL    HW125334   0.664   2.700   0.805  0.7913 -0.2906  1.0094
 4566SOL    HW225335   0.681   2.608   0.920 -0.0003 -1.4700 -0.6267
 4567SOL     OW25336   4.723   2.405   6.691  0.2065  0.1814  0.2064
 4567SOL    HW125337   4.704   2.408   6.785 -1.4438  3.2496 -0.2133
 4567SOL    HW225338   0.046   2.334   6.692 -1.2239 -1.1115 -1.6894
 4568SOL     OW25339   3.471   0.262   8.491  0.1521 -0.1847 -0.2491
 4568SOL    HW125340   3.389   0.302   8.462 -0.6204 -0.3075  1.7483
 4568SOL    HW225341   3.450   0.247   8.583 -1.2546  0.0226 -0.5332
 4569SOL     OW25342   0.510   3.510   3.940  0.2563 -0.0308  0.2579
 4569SOL    HW125343   0.437   3.476   3.993  0.0018  3.0136  1.8613
 4569SOL    HW225344   0.465   3.548   3.865 -0.6960 -0.7219  0.4676
 4570SOL     OW25345   0.358   2.221   4.880 -0.3495 -0.1786  0.0638
 4570SOL    HW125346   0.293   2.257   4.819  0.9870 -0.7116 -1.6644
 4570SOL    HW225347   0.352   2.273   4.960 -0.1014 -0.8254  0.4960
 4571SOL     OW25348   3.670   3.358   8.562 -0.2209 -0.1742 -0.4173
 4571SOL    HW125349   3.754   3.398   8.587 -0.5945  0.5841 -0.3986
 4571SOL    HW225350   3.610   3.426   8.593 -0.6041  0.0418 -1.6551
 4572SOL     OW25351   2.896   1.076   6.618  0.6602 -0.3661 -0.8931
 4572SOL    HW125352   2.856   0.995   6.586 -0.1679  0.3843 -1.7440
 4572SOL    HW225353   2.847   1.084   6.700  0.2362  1.6697 -1.3558
 4573SOL     OW25354   3.442   1.810   5.582  0.4411 -0.3265 -0.3036
 4573SOL    HW125355   3.367   1.758   5.555 -1.0162  1.1253  0.9102
 4573SOL    HW225356   3.512   1.782   5.523  0.2622 -1.6412  0.1183
 4574SOL     OW25357   1.399   0.170   4.595  0.4032  0.1375 -0.1979
 4574SOL    HW125358   1.391   0.262   4.617  1.7200  0.1938  0.0285
 4574SOL    HW225359   1.421   0.125   4.677  0.1314  0.5455  0.0937
 4575SOL     OW25360   2.136   2.684   5.367  0.0984 -0.2174  0.1213
 4575SOL    HW125361   2.081   2.662   5.292 -0.8523  3.0134 -0.1357
 4575SOL    HW225362   2.210   2.732   5.331  1.2319 -1.0580  1.3599
 4576SOL     OW25363   2.503   1.409   7.477  0.0016  0.2748 -0.4767
 4576SOL    HW125364   2.465   1.426   7.390  0.2696 -1.2201 -0.8743
 4576SOL    HW225365   2.582   1.359   7.458 -0.4036  0.0280 -1.5073
 4577SOL     OW25366   4.198   0.077  11.187 -0.1005  0.3577  0.0621
 4577SOL    HW125367   4.203   0.133  11.109 -2.2735  0.8618  0.2799
 4577SOL    HW225368   4.288   0.048  11.201 -1.1728 -1.8596  2.3742
 4578SOL     OW25369   3.836   1.691   5.594  0.0229  0.0404 -0.1656
 4578SOL    HW125370   3.808   1.660   5.508 -2.2591  0.0473  0.5786
 4578SOL    HW225371   3.931   1.693   5.585  0.0410  2.4938  0.4589
 4579SOL     OW25372   3.575   3.788   5.350  0.2368 -0.1196  0.0437
 4579SOL    HW125373   3.625   3.713   5.318  0.6674  1.0625 -2.0720
 4579SOL    HW225374   3.576   3.841   5.270 -0.1827 -1.0690 -0.5815
 4580SOL     OW25375   4.401   0.628  14.590  0.5796  0.0471 -0.5253
 4580SOL    HW125376   4.453   0.565  14.639 -0.1395 -1.1651 -1.3097
 4580SOL    HW225377   4.475   0.680  14.561  0.2858  0.1305 -1.1221
 4581SOL     OW25378   0.261   1.694   0.233 -0.0603  0.5315  0.0055
 4581SOL    HW125379   0.282   1.702   0.326  2.1792 -0.2150 -0.4297
 4581SOL    HW225380   0.178   1.648   0.235 -0.0590  0.5071 -0.5650
 4582SOL     OW25381   2.197   1.028   2.290  0.0644  0.4500  0.1248
 4582SOL    HW125382   2.199   1.030   2.195 -0.1820  0.9575  0.1285
 4582SOL    HW225383   2.291   1.014   2.302 -0.2173  0.3589  2.2290
 4583SOL     OW25384   4.454   3.596  16.231  0.2364  0.0376  0.0749
 4583SOL    HW125385   4.376   3.649  16.214  0.2176 -0.1737 -0.5181
 4583SOL    HW225386   4.521   3.643  16.182 -1.0927  1.9397  0.0607
 4584SOL     OW25387   3.185   2.125  15.319  1.0972  0.3315 -0.1251
 4584SOL    HW125388   3.201   2.035  15.288 -1.5098  0.0025 -0.5245
 4584SOL    HW225389   3.261   2.161  15.274  1.2036  2.0425  1.4219
 4585SOL     OW25390   2.447   0.912   2.077  0.2798 -0.0322  0.1738
 4585SOL    HW125391   2.480   0.975   2.013  0.0728  0.3395  0.4351
 4585SOL    HW225392   2.376   0.873   2.027  0.8506 -0.3318 -0.4087
 4586SOL     OW25393   4.138   1.180   3.540  0.5080  0.0891 -0.1736
 4586SOL    HW125394   4.106   1.135   3.617 -0.3730  2.1991  0.6927
 4586SOL    HW225395   4.062   1.236   3.527  0.2337 -0.7293 -2.1775
 4587SOL     OW25396   3.438   4.626   1.436  0.1518  0.8881  0.3472
 4587SOL    HW125397   3.496   4.579   1.496 -0.7197  0.5278  0.9053
 4587SOL    HW225398   3.408   4.693   1.497  1.0056  1.6868 -0.1160
 4588SOL     OW25399   2.013   4.464   6.167 -0.3343 -0.5317 -0.0546
 4588SOL    HW125400   2.048   4.518   6.096 -0.1831 -0.5311  0.0207
 4588SOL    HW225401   1.998   4.383   6.118  0.9297  0.2007 -1.6709
 4589SOL     OW25402   0.951   4.105  15.284  0.1321  0.3121 -0.4641
 4589SOL    HW125403   1.016   4.093  15.214  0.7732  3.3110 -0.3756
 4589SOL    HW225404   0.997   4.081  15.364 -0.0479  1.1466 -0.1083
 4590SOL     OW25405   3.127   2.777   0.229  0.2242 -0.1735  0.1161
 4590SOL    HW125406   3.055   2.839   0.215  0.4265  0.6825  3.0222
 4590SOL    HW225407   3.196   2.827   0.273 -0.3403  0.1720  0.5998
 4591SOL     OW25408   4.133   1.201   6.983  0.4520  0.3916  0.5903
 4591SOL    HW125409   4.161   1.262   7.051 -1.8972 -1.1558  2.9257
 4591SOL    HW225410   4.124   1.265   6.912 -0.7868  0.8205  1.1501
 4592SOL     OW25411   2.859   0.276  15.723 -0.1302 -0.3163 -0.0983
 4592SOL    HW125412   2.883   0.249  15.811 -0.8304 -2.0292 -0.4287
 4592SOL    HW225413   2.823   0.193  15.690 -1.1629  0.3993 -0.7684
 4593SOL     OW25414   4.242   0.164   3.193 -0.0590 -0.2918 -0.4686
 4593SOL    HW125415   4.242   0.256   3.168 -1.1673  0.4372  2.2456
 4593SOL    HW225416   4.148   0.151   3.209 -0.0678 -0.8469 -0.9532
 4594SOL     OW25417   0.392   3.664   2.443  0.4498  0.2704 -0.4094
 4594SOL    HW125418   0.345   3.621   2.515 -1.2278  0.0354 -1.6268
 4594SOL    HW225419   0.401   3.599   2.373  1.7723  1.7385 -1.5939
 4595SOL     OW25420   0.820   0.973   7.693  0.3743  0.1888 -0.4146
 4595SOL    HW125421   0.754   0.965   7.623 -1.5283  2.6146  1.1089
 4595SOL    HW225422   0.843   1.065   7.696 -2.2054  0.7027  3.5491
 4596SOL     OW25423   3.255   1.884   3.658 -0.0139  0.4376 -0.1543
 4596SOL    HW125424   3.305   1.803   3.660  0.0626  0.5025  0.3960
 4596SOL    HW225425   3.244   1.909   3.750 -0.3219 -0.0690 -0.0515
 4597SOL     OW25426   1.485   3.717  16.188  0.1072 -0.1510 -0.1656
 4597SOL    HW125427   1.514   3.653  16.123 -0.5709  0.1366 -0.7608
 4597SOL    HW225428   1.565   3.740  16.234 -1.4212  4.0531  0.4484
 4598SOL     OW25429   3.325   0.441   9.576 -0.3015 -0.0590  0.0682
 4598SOL    HW125430   3.249   0.499   9.584  0.5016  1.2450 -1.9352
 4598SOL    HW225431   3.349   0.454   9.485  0.8688 -2.3654  0.0395
 4599SOL     OW25432   4.683   3.821   6.745  0.0247  0.1823  1.2153
 4599SOL    HW125433   4.720   3.733   6.744  0.4549  0.3664  1.0722
 4599SOL    HW225434   4.735   3.863   6.813  2.6000 -0.7261 -0.1827
 4600SOL     OW25435   3.139   1.745   5.705 -0.0887 -0.0007 -0.0435
 4600SOL    HW125436   3.055   1.700   5.694 -0.1572  0.4326 -1.3582
 4600SOL    HW225437   3.118   1.835   5.678  1.6571 -0.6770 -3.6469
 4601SOL     OW25438   1.582   2.584  17.366  0.3108 -0.2490 -0.5081
 4601SOL    HW125439   1.564   2.528  17.290 -1.3725 -1.8197  1.0694
 4601SOL    HW225440   1.673   2.559  17.380 -0.5661 -2.9453  0.2650
 4602SOL     OW25441   1.160   3.741   8.360  0.3811  0.3310 -0.8716
 4602SOL    HW125442   1.176   3.648   8.375 -0.0752 -0.0199 -2.5626
 4602SOL    HW225443   1.220   3.781   8.422 -0.1875  1.0035 -0.7585
 4603SOL     OW25444   2.965   2.039   5.044  0.1988  0.0897  0.3098
 4603SOL    HW125445   2.925   2.068   4.962 -0.5820  0.6620  0.8958
 4603SOL    HW225446   3.050   2.014   5.008 -0.1328  0.4478 -0.7311
 4604SOL     OW25447   2.208   0.815   6.036  0.3560  0.2257 -0.6992
 4604SOL    HW125448   2.234   0.879   5.971 -2.0945  0.3595 -1.5648
 4604SOL    HW225449   2.290   0.812   6.085 -0.8980 -1.5614  1.3081
 4605SOL     OW25450   1.868   0.264   7.193  0.6173  0.5128  0.2603
 4605SOL    HW125451   1.826   0.351   7.193  2.1691  1.2553  0.6009
 4605SOL    HW225452   1.808   0.221   7.132  0.4630 -0.4183  1.0733
 4606SOL     OW25453   2.069   4.268   4.782 -0.1970 -0.0613 -0.0473
 4606SOL    HW125454   1.981   4.298   4.756  0.3800  1.9726  0.3651
 4606SOL    HW225455   2.054   4.232   4.870  0.3310  2.1997  0.9548
 4607SOL     OW25456   3.066   2.458   5.006  0.2362  0.1962  0.0112
 4607SOL    HW125457   3.100   2.393   5.067  0.6109  0.7909  0.4393
 4607SOL    HW225458   3.107   2.531   5.054  1.6478 -0.0929 -0.7603
 4608SOL     OW25459   3.076   4.136  16.264 -0.0875 -0.4349  0.4779
 4608SOL    HW125460   3.134   4.201  16.225  2.1347 -2.9610 -0.4271
 4608SOL    HW225461   3.082   4.147  16.359  2.8968 -0.6320  0.3034
 4609SOL     OW25462   2.813   2.197   7.994  0.6203  0.5763  0.4970
 4609SOL    HW125463   2.859   2.209   8.077 -0.0886  2.3917  0.6313
 4609SOL    HW225464   2.778   2.109   8.007  0.8801  0.5371  0.9159
 4610SOL     OW25465   3.728   1.869   4.038  0.1902 -0.0205  0.1315
 4610SOL    HW125466   3.808   1.819   4.050 -0.2083 -0.9853 -1.2259
 4610SOL    HW225467   3.690   1.814   3.969 -0.6119  0.3722  0.2565
 4611SOL     OW25468   1.516   4.009   5.902 -0.0298  0.5090 -0.1309
 4611SOL    HW125469   1.537   3.974   5.989 -0.6776 -0.8659 -0.5160
 4611SOL    HW225470   1.451   4.075   5.925  0.3525  0.0014  2.3425
 4612SOL     OW25471   2.273   4.166   2.064  0.0847  0.0172  0.1025
 4612SOL    HW125472   2.223   4.248   2.066 -0.5005 -0.3404  0.1640
 4612SOL    HW225473   2.201   4.107   2.085  0.1647 -0.5752 -1.3300
 4613SOL     OW25474   2.914   1.462   1.915 -0.7561  0.0041  0.3884
 4613SOL    HW125475   2.845   1.435   1.854  0.2814 -2.0110  0.1092
 4613SOL    HW225476   2.857   1.522   1.963  0.4092  0.6215  0.9807
 4614SOL     OW25477   1.903   3.526   2.471 -0.0222  0.1655 -0.0355
 4614SOL    HW125478   1.817   3.517   2.430 -0.3575 -0.5147  0.8324
 4614SOL    HW225479   1.964   3.480   2.414  0.2439  0.3158  0.1250
 4615SOL     OW25480   3.331   3.070   4.903 -0.9233 -0.0375  0.2494
 4615SOL    HW125481   3.295   3.158   4.891 -0.6104  0.0468 -0.0844
 4615SOL    HW225482   3.312   3.057   4.996 -1.7287 -0.2194  0.0593
 4616SOL     OW25483   1.551   4.461   0.949 -0.6328 -0.2099 -0.0922
 4616SOL    HW125484   1.487   4.483   1.017  0.6600  0.2632  0.9641
 4616SOL    HW225485   1.524   4.533   0.892 -0.8716 -0.1532  0.0922
 4617SOL     OW25486   4.044   1.048   8.110 -0.8195 -0.3648 -0.0930
 4617SOL    HW125487   4.025   1.139   8.133 -2.2394 -0.4941 -0.7477
 4617SOL    HW225488   3.983   1.021   8.041  0.2548 -1.5567 -0.5756
 4618SOL     OW25489   4.038   0.536   3.836 -0.1463  0.1904 -0.4929
 4618SOL    HW125490   4.113   0.558   3.891 -0.2837 -1.4730  0.3753
 4618SOL    HW225491   4.082   0.541   3.752 -0.4944 -0.1059 -0.6905
 4619SOL     OW25492   1.002   1.325   6.398  0.2288 -0.1796  0.1856
 4619SOL    HW125493   0.936   1.300   6.334 -2.3076 -0.2453  2.7964
 4619SOL    HW225494   0.975   1.416   6.411 -1.1707 -0.8541  2.1300
 4620SOL     OW25495   2.152   3.698   6.434  0.2843 -0.4159 -0.1213
 4620SOL    HW125496   2.074   3.684   6.380 -0.1579  1.6892  0.0001
 4620SOL    HW225497   2.219   3.719   6.370 -1.1338  0.0790 -1.4587
 4621SOL     OW25498   1.668   3.940  11.655  0.2890 -0.5932  0.0126
 4621SOL    HW125499   1.726   3.917  11.583  1.5871  0.0490  0.8435
 4621SOL    HW225500   1.702   3.874  11.716 -4.0584 -1.9237  0.9354
 4622SOL     OW25501   3.494   2.421   5.699  0.1731  0.0741 -0.4172
 4622SOL    HW125502   3.583   2.420   5.664  0.6620 -1.9020  0.8757
 4622SOL    HW225503   3.447   2.399   5.619 -1.2271  0.0157  0.4087
 4623SOL     OW25504   1.077   3.969  15.491 -0.3198  0.6178  0.4937
 4623SOL    HW125505   1.008   3.949  15.554  0.7410  1.2449  1.8498
 4623SOL    HW225506   1.154   3.950  15.545 -0.9408 -2.8874  0.1216
 4624SOL     OW25507   3.019   0.490  14.956 -0.1289 -0.6246 -0.5261
 4624SOL    HW125508   3.012   0.516  15.048  0.9665 -0.0864 -0.5987
 4624SOL    HW225509   3.007   0.573  14.911 -0.2755  0.7901  2.1104
 4625SOL     OW25510   4.332   4.010   5.161  0.0314  0.6695 -0.1489
 4625SOL    HW125511   4.414   4.052   5.184 -0.3403  0.0499  2.2951
 4625SOL    HW225512   4.344   3.971   5.074 -3.0495  3.1224 -1.6963
 4626SOL     OW25513   3.656   4.378   8.770  0.1384  0.4838 -0.4424
 4626SOL    HW125514   3.716   4.375   8.845 -1.7964 -2.6403  0.9752
 4626SOL    HW225515   3.707   4.348   8.695  0.3367 -0.3265  0.0173
 4627SOL     OW25516   3.114   1.183   4.542 -0.7912 -0.2913 -0.1224
 4627SOL    HW125517   3.149   1.103   4.504 -0.5490  0.5012 -1.5737
 4627SOL    HW225518   3.158   1.194   4.627 -0.2064  0.0120 -0.4632
 4628SOL     OW25519   3.412   3.725   3.155 -0.1212  1.1790  0.0523
 4628SOL    HW125520   3.471   3.760   3.089  1.8258 -0.5123  0.9050
 4628SOL    HW225521   3.329   3.726   3.108  0.6946 -2.5216 -1.4205
 4629SOL     OW25522   3.556   0.458   9.825 -0.2062  0.2571  0.1333
 4629SOL    HW125523   3.483   0.519   9.811 -0.5692 -0.6293 -1.8006
 4629SOL    HW225524   3.508   0.376   9.813  1.4313 -0.6247 -0.3513
 4630SOL     OW25525   4.208   0.502   4.587  0.4164 -0.1979  0.2756
 4630SOL    HW125526   4.184   0.509   4.494 -1.7538 -0.5132  0.8131
 4630SOL    HW225527   4.206   0.594   4.613 -1.2683  0.4226 -2.0262
 4631SOL     OW25528   4.580   1.847   2.632 -0.4575  0.0213  0.6139
 4631SOL    HW125529   4.672   1.874   2.633 -0.0202 -1.4364 -1.1480
 4631SOL    HW225530   4.573   1.802   2.548  1.3604  0.3257  0.3044
 4632SOL     OW25531   4.113   2.250  15.647  0.0523  0.4937  0.1061
 4632SOL    HW125532   4.067   2.170  15.622  0.6037  0.5191 -1.0233
 4632SOL    HW225533   4.198   2.236  15.605  0.2110 -0.9527  0.9068
 4633SOL     OW25534   2.595   0.310   4.176  1.0235  0.8682  0.2704
 4633SOL    HW125535   2.583   0.226   4.221  1.2423 -0.1855 -1.6519
 4633SOL    HW225536   2.503   0.336   4.179  1.3115  1.9565 -0.3314
 4634SOL     OW25537   4.447   1.938  12.998 -0.0419  0.4471  0.1001
 4634SOL    HW125538   4.537   1.950  12.968  0.6269  1.8479  2.7358
 4634SOL    HW225539   4.409   1.999  12.935 -1.2677 -0.6289 -0.2147
 4635SOL     OW25540   4.293   3.369   4.411  0.1528  0.2087 -0.2563
 4635SOL    HW125541   4.200   3.381   4.395 -0.2598 -3.2419 -0.2668
 4635SOL    HW225542   4.315   3.280   4.384  0.2944 -0.0619  0.7849
 4636SOL     OW25543   3.300   4.585  11.295  0.2582  0.2308 -0.9506
 4636SOL    HW125544   3.344   4.668  11.311  1.0088 -0.0082 -1.7803
 4636SOL    HW225545   3.224   4.618  11.246 -0.6713 -2.1043 -1.1049
 4637SOL     OW25546   1.897   4.537   1.957 -0.0309 -0.2744  0.4636
 4637SOL    HW125547   1.887   4.607   1.893  0.7112  0.9961  1.7510
 4637SOL    HW225548   1.873   4.584   2.037  1.7426  1.5609 -0.0893
 4638SOL     OW25549   1.757   3.646   2.646 -0.3260  0.1813 -0.9124
 4638SOL    HW125550   1.814   3.581   2.605  0.5589  1.4061 -1.6378
 4638SOL    HW225551   1.808   3.726   2.633 -1.2399  1.4764  3.2367
 4639SOL     OW25552   0.319   2.488   7.713 -0.0644  0.6972  0.3120
 4639SOL    HW125553   0.395   2.462   7.661 -0.8993 -1.8046  0.3528
 4639SOL    HW225554   0.241   2.481   7.658  0.4064  1.0359 -0.3983
 4640SOL     OW25555   0.898   3.214   5.355 -0.4120 -0.1828 -0.2461
 4640SOL    HW125556   0.866   3.227   5.445  1.1934  1.9310  0.0208
 4640SOL    HW225557   0.948   3.295   5.348 -0.9276  0.4716  3.3600
 4641SOL     OW25558   3.850   4.673   1.959 -0.3737  0.6315  0.0352
 4641SOL    HW125559   3.921   4.708   1.905 -0.2990 -0.7243 -0.7381
 4641SOL    HW225560   3.774   4.661   1.902 -0.9587  2.2656  0.4752
 4642SOL     OW25561   4.135   0.875  17.117 -1.0041 -0.2923 -0.1004
 4642SOL    HW125562   4.087   0.858  17.036 -0.9503  1.2727 -0.4652
 4642SOL    HW225563   4.078   0.831  17.179 -1.9352 -1.5557 -1.8444
 4643SOL     OW25564   2.929   2.980   7.999  0.3148 -0.3900  0.0274
 4643SOL    HW125565   2.965   2.987   8.087 -0.0679  1.5296  0.0459
 4643SOL    HW225566   3.009   3.005   7.954  0.3753  1.4167  1.1275
 4644SOL     OW25567   2.143   0.014   1.198 -0.0851  0.5256 -0.4729
 4644SOL    HW125568   2.228   0.050   1.224 -0.6317  2.4603 -1.3243
 4644SOL    HW225569   2.163   4.662   1.196 -1.9323  0.0978  0.8694
 4645SOL     OW25570   1.486   2.838  17.510  0.5214 -0.3826  0.4829
 4645SOL    HW125571   1.475   2.791  17.428  1.7835 -1.2228  0.7880
 4645SOL    HW225572   1.539   2.779  17.564 -0.1525 -1.9531 -0.5785
 4646SOL     OW25573   3.722   1.310  11.849  0.0502  0.1516 -0.3587
 4646SOL    HW125574   3.666   1.236  11.874  0.6830  0.4633  2.0265
 4646SOL    HW225575   3.666   1.341  11.778 -0.0305  0.8514  0.0084
 4647SOL     OW25576   1.241   2.746   8.366  0.4480  0.5999  0.6080
 4647SOL    HW125577   1.206   2.743   8.455 -0.0100 -1.2338  0.3616
 4647SOL    HW225578   1.165   2.798   8.340  0.7031  0.2840 -0.7646
 4648SOL     OW25579   2.591   1.178  13.351 -0.0756 -0.0975  0.5832
 4648SOL    HW125580   2.594   1.238  13.276 -1.1356 -0.5957  0.1440
 4648SOL    HW225581   2.637   1.100  13.321  0.0510  0.0066  0.5045
 4649SOL     OW25582   2.088   3.424  11.163  0.5869 -0.2810 -0.3619
 4649SOL    HW125583   2.101   3.496  11.225 -2.1870  0.0236 -0.1150
 4649SOL    HW225584   2.151   3.362  11.198 -0.0116  0.3309  1.8179
 4650SOL     OW25585   0.270   3.767   4.999 -0.1850  0.0448 -0.3096
 4650SOL    HW125586   0.267   3.681   4.957  1.6984  0.2007 -0.7703
 4650SOL    HW225587   0.343   3.752   5.060  0.4806  1.8874 -0.6520
 4651SOL     OW25588   2.665   4.480   8.995  0.1383 -0.1689 -0.0966
 4651SOL    HW125589   2.723   4.450   9.065  2.0851 -0.2204 -1.7343
 4651SOL    HW225590   2.641   4.394   8.959 -0.9982  0.5693 -1.1087
 4652SOL     OW25591   1.076   1.569  11.910  0.4825 -0.1387 -0.8894
 4652SOL    HW125592   1.108   1.511  11.979  0.0016  1.5397  0.7371
 4652SOL    HW225593   1.009   1.617  11.959  0.0897 -0.2399 -1.3242
 4653SOL     OW25594   1.984   3.736  16.700  0.6215 -0.2965  0.0824
 4653SOL    HW125595   1.921   3.665  16.709  0.8574 -0.9578 -3.4894
 4653SOL    HW225596   2.066   3.690  16.716  0.3944 -0.4315  0.8925
 4654SOL     OW25597   1.721   2.246   8.015 -0.0806 -0.2560  0.2346
 4654SOL    HW125598   1.716   2.210   8.103  0.7802 -1.9231 -0.3914
 4654SOL    HW225599   1.638   2.220   7.974  0.0925  0.0159 -0.2918
 4655SOL     OW25600   1.123   3.315  11.018 -0.2930 -0.3379  0.1015
 4655SOL    HW125601   1.080   3.238  11.053 -0.0153 -0.2808  0.5792
 4655SOL    HW225602   1.091   3.382  11.079 -0.8661 -0.8891  0.4080
 4656SOL     OW25603   2.086   2.503   0.234  0.3607 -0.3016 -0.2225
 4656SOL    HW125604   2.086   2.594   0.204 -1.4892 -0.6482 -1.2373
 4656SOL    HW225605   2.115   2.513   0.325 -2.4659 -4.1203  1.0655
 4657SOL     OW25606   4.362   4.739   5.579  0.2345  0.0968 -0.2207
 4657SOL    HW125607   4.279   0.021   5.620  1.1574  2.9380  0.0576
 4657SOL    HW225608   4.338   4.692   5.499 -2.8477 -0.2438  0.9139
 4658SOL     OW25609   0.404   2.196   1.920 -0.4902  0.3992 -0.1987
 4658SOL    HW125610   0.332   2.137   1.895 -1.7317  1.9658 -0.3310
 4658SOL    HW225611   0.418   2.238   1.836  2.6320 -1.4094 -0.5705
 4659SOL     OW25612   3.697   4.279   1.807 -0.3923 -0.2122 -0.1872
 4659SOL    HW125613   3.697   4.285   1.712  0.7589  2.1401 -0.0160
 4659SOL    HW225614   3.784   4.313   1.828  0.0487 -1.3505 -0.1683
 4660SOL     OW25615   3.457   3.243   7.782  0.4843 -0.2631 -1.1716
 4660SOL    HW125616   3.525   3.294   7.825  1.0076 -1.6607 -0.3601
 4660SOL    HW225617   3.398   3.313   7.754  1.2474  1.0743  0.6172
 4661SOL     OW25618   3.834   0.391   8.543 -0.4579  0.1243 -0.7188
 4661SOL    HW125619   3.923   0.357   8.539 -0.0622  1.2544 -1.4387
 4661SOL    HW225620   3.835   0.440   8.626 -2.3036 -0.6961 -0.2227
 4662SOL     OW25621   4.304   1.149  11.770 -0.4466  0.6709 -0.2752
 4662SOL    HW125622   4.251   1.227  11.784 -1.2400 -0.0939  1.0928
 4662SOL    HW225623   4.378   1.181  11.821  1.2066  0.0593 -2.2840
 4663SOL     OW25624   0.241   2.870   6.320  0.3559 -0.0043 -0.1848
 4663SOL    HW125625   0.293   2.937   6.275  1.4430 -1.7314 -1.5062
 4663SOL    HW225626   0.287   2.789   6.300  2.2111  0.8581  0.5028
 4664SOL     OW25627   1.640   4.721   3.262  0.1349  0.3486  0.0874
 4664SOL    HW125628   1.680   0.002   3.346  1.8504  1.8093 -1.1057
 4664SOL    HW225629   1.556   0.026   3.264 -0.2412 -0.4473  2.6035
 4665SOL     OW25630   0.343   1.323   6.522 -0.0844 -0.3174  0.2457
 4665SOL    HW125631   0.299   1.259   6.579  0.4471  1.2704  2.4198
 4665SOL    HW225632   0.281   1.395   6.537 -0.4446 -0.1578 -1.8911
 4666SOL     OW25633   0.150   2.405   3.451 -0.3739  0.1166 -0.5123
 4666SOL    HW125634   0.171   2.314   3.434 -0.5426 -0.0160 -0.0385
 4666SOL    HW225635   0.220   2.452   3.407  0.2926  2.0309  2.5779
 4667SOL     OW25636   3.739   3.938   3.658 -0.5331  0.1710 -0.5737
 4667SOL    HW125637   3.652   3.970   3.633 -0.9085 -0.8229 -0.5455
 4667SOL    HW225638   3.772   3.919   3.570 -0.4108  3.8879 -1.3351
 4668SOL     OW25639   2.360   2.193   2.832  0.2886 -0.1946  0.7356
 4668SOL    HW125640   2.308   2.192   2.752 -0.0505 -1.2722  0.9636
 4668SOL    HW225641   2.296   2.155   2.893 -2.1473  0.3930 -1.4599
 4669SOL     OW25642   1.032   4.090  17.270  0.3149  0.7046 -0.2029
 4669SOL    HW125643   1.030   4.091  17.174 -1.7821  1.5777 -0.1545
 4669SOL    HW225644   0.997   4.178  17.284 -1.2344 -0.2125  1.7136
 4670SOL     OW25645   4.362   0.362  13.136  0.2541 -0.5449  0.2669
 4670SOL    HW125646   4.356   0.381  13.042 -1.6108 -0.7790  0.3469
 4670SOL    HW225647   4.420   0.286  13.134  3.0327  1.5549 -0.5160
 4671SOL     OW25648   0.118   4.661   0.952  0.3266  0.0876  0.4717
 4671SOL    HW125649   0.048   4.596   0.957  1.4802 -1.3466 -2.5067
 4671SOL    HW225650   0.181   4.606   0.906  0.1961  0.3916 -0.0583
 4672SOL     OW25651   2.037   3.037   8.076  0.0133 -0.2255  0.0093
 4672SOL    HW125652   2.103   3.100   8.105 -0.3695  0.2803 -0.2016
 4672SOL    HW225653   2.003   3.088   8.002  0.6192  0.9487  0.5362
 4673SOL     OW25654   0.503   4.496  17.497 -0.0548  0.0302  0.1217
 4673SOL    HW125655   0.530   4.409  17.470 -0.1417 -1.1766  4.0085
 4673SOL    HW225656   0.450   4.513  17.418 -0.6471 -1.0638  0.2801
 4674SOL     OW25657   1.947   3.466   4.663  0.2364  0.0979 -0.6047
 4674SOL    HW125658   2.013   3.526   4.629  0.9773 -1.4001 -1.8087
 4674SOL    HW225659   1.990   3.448   4.747  0.6555 -0.1186 -0.8644
 4675SOL     OW25660   1.743   4.355   1.828 -0.2182 -0.1454 -0.1530
 4675SOL    HW125661   1.683   4.378   1.898 -1.0049 -1.8213 -0.2692
 4675SOL    HW225662   1.816   4.411   1.855 -0.8741  0.2382  0.7975
 4676SOL     OW25663   0.353   4.194   0.813  0.0287 -0.3382 -0.7452
 4676SOL    HW125664   0.439   4.205   0.772  0.2500  1.0105  0.0949
 4676SOL    HW225665   0.318   4.126   0.755 -3.1647  2.5138 -2.1363
 4677SOL     OW25666   2.767   2.944   4.312  0.0629  0.3036 -0.1255
 4677SOL    HW125667   2.742   2.865   4.360  0.4678  1.3114  1.7894
 4677SOL    HW225668   2.685   2.967   4.269 -0.7182  1.0858  1.7603
 4678SOL     OW25669   2.971   0.950   5.611 -0.0329 -0.0597 -0.0550
 4678SOL    HW125670   2.905   0.918   5.672  0.2760 -0.9373 -0.1859
 4678SOL    HW225671   2.952   0.901   5.532 -0.8615  0.4562 -0.1720
 4679SOL     OW25672   2.701   1.186   6.468 -0.3119 -0.1494 -0.6010
 4679SOL    HW125673   2.765   1.210   6.401  1.7525 -0.9695  1.0627
 4679SOL    HW225674   2.762   1.163   6.539  0.6429  0.6925 -1.1377
 4680SOL     OW25675   2.114   3.739  12.849 -0.3274 -0.2487  0.0111
 4680SOL    HW125676   2.095   3.832  12.834  0.0005 -0.3042 -0.7520
 4680SOL    HW225677   2.065   3.728  12.931 -0.3194  0.6768  0.1442
 4681SOL     OW25678   2.703   4.171   3.054 -0.2594  0.1788  0.2558
 4681SOL    HW125679   2.637   4.121   3.007 -1.6021  1.8783  0.3451
 4681SOL    HW225680   2.736   4.219   2.978 -0.1796  1.2682  0.9825
 4682SOL     OW25681   1.667   0.484  15.053 -0.3218 -0.1288 -0.2878
 4682SOL    HW125682   1.644   0.571  15.088  1.6105 -0.0613  0.8063
 4682SOL    HW225683   1.598   0.468  14.989 -0.0549 -0.8747 -0.3808
 4683SOL     OW25684   4.347   1.329   7.143  0.6389 -0.3685 -0.0607
 4683SOL    HW125685   4.356   1.238   7.172 -0.1769 -0.1288  0.9707
 4683SOL    HW225686   4.410   1.328   7.072  0.3262  0.0458 -0.3434
 4684SOL     OW25687   3.982   0.892   3.111  0.2120 -0.4799 -0.4405
 4684SOL    HW125688   4.042   0.965   3.127  0.3375 -0.3983 -1.3167
 4684SOL    HW225689   3.916   0.908   3.179 -0.1415 -1.1853 -0.6165
 4685SOL     OW25690   3.593   0.808   5.695  0.1826  0.1563  0.4105
 4685SOL    HW125691   3.519   0.747   5.703  0.2689 -0.2111 -1.5260
 4685SOL    HW225692   3.585   0.854   5.778  1.8746  3.3114 -1.1947
 4686SOL     OW25693   2.247   0.678   8.670  0.2085  0.2670  0.2917
 4686SOL    HW125694   2.328   0.629   8.684 -1.1200 -2.3229 -1.2723
 4686SOL    HW225695   2.268   0.726   8.590  0.3850 -2.6526 -1.3888
 4687SOL     OW25696   3.623   0.766   2.903 -0.2437 -0.0430  0.3263
 4687SOL    HW125697   3.717   0.764   2.922 -0.0718 -2.1915 -0.7602
 4687SOL    HW225698   3.583   0.834   2.956  2.8177  2.0348 -0.0132
 4688SOL     OW25699   3.875   3.293   4.787 -0.3906  0.0430 -0.5266
 4688SOL    HW125700   3.796   3.315   4.837  0.2393  0.7477  0.1632
 4688SOL    HW225701   3.835   3.220   4.740 -0.0587 -0.7011  0.3512
 4689SOL     OW25702   0.457   2.804   2.381 -0.3752 -0.0836  0.3654
 4689SOL    HW125703   0.364   2.823   2.393 -1.4009 -4.0296 -1.4180
 4689SOL    HW225704   0.466   2.820   2.287 -1.1759  1.3187  0.5269
 4690SOL     OW25705   4.050   1.225   8.984 -0.1836  0.6641 -0.5836
 4690SOL    HW125706   4.106   1.268   9.049  1.7181  1.5491 -2.8479
 4690SOL    HW225707   4.031   1.144   9.032 -0.2982  0.4004 -1.0803
 4691SOL     OW25708   0.375   4.558   4.967 -0.1276 -0.0319 -0.0269
 4691SOL    HW125709   0.393   4.651   4.965 -1.1392  0.2154  1.8743
 4691SOL    HW225710   0.331   4.558   4.882 -0.3555 -0.0195  0.0898
 4692SOL     OW25711   0.103   0.131  11.415  0.1061  0.6234  0.0996
 4692SOL    HW125712   0.031   0.081  11.377 -1.8580  3.7147 -0.1996
 4692SOL    HW225713   0.059   0.186  11.479 -4.5905 -0.6309 -2.1043
 4693SOL     OW25714   0.014   2.064  13.938  0.0403 -0.6493 -0.0680
 4693SOL    HW125715   0.063   2.078  13.857  0.1703  0.1694  0.1569
 4693SOL    HW225716   4.692   2.135  13.928  0.2258 -0.6161 -0.9990
 4694SOL     OW25717   2.110   2.958   9.404 -0.4812  0.9296 -0.3689
 4694SOL    HW125718   2.018   2.937   9.388 -0.4219  0.0643  0.4270
 4694SOL    HW225719   2.108   3.017   9.480  1.7811 -1.8478  1.8470
 4695SOL     OW25720   2.526   4.268  16.358  0.1000 -0.2025  0.1273
 4695SOL    HW125721   2.439   4.251  16.395  1.1075 -0.1723  2.5652
 4695SOL    HW225722   2.571   4.196  16.404 -0.1572  0.1932  0.9950
 4696SOL     OW25723   2.658   4.717  10.946 -0.0153  0.0678 -0.7765
 4696SOL    HW125724   2.715   4.740  11.020  1.0632  1.3905 -2.0070
 4696SOL    HW225725   2.635   0.065  10.918  1.7526  0.8963  0.3932
 4697SOL     OW25726   0.702   1.611   5.225 -0.0409 -0.8536 -0.8308
 4697SOL    HW125727   0.644   1.564   5.286  0.1529 -0.9051 -0.6866
 4697SOL    HW225728   0.787   1.576   5.253 -0.9071 -2.2975  0.0230
 4698SOL     OW25729   3.878   1.261   5.358  0.1914 -0.0657  0.0832
 4698SOL    HW125730   3.799   1.314   5.350  1.1943  0.9615 -2.9562
 4698SOL    HW225731   3.886   1.273   5.453  0.3987 -0.5633  0.1271
 4699SOL     OW25732   2.959   3.252   0.903  0.5191  0.4163  0.6161
 4699SOL    HW125733   2.911   3.249   0.985 -1.5379 -0.1597 -0.6092
 4699SOL    HW225734   2.891   3.227   0.841  1.9578  0.3179 -0.9553
 4700SOL     OW25735   1.629   2.233   8.956 -0.5226  0.2530  0.4527
 4700SOL    HW125736   1.590   2.293   9.019 -0.0676  0.3708  0.6245
 4700SOL    HW225737   1.570   2.165   8.988 -1.0273 -0.2587 -1.5486
 4701SOL     OW25738   0.794   4.300   4.427 -0.0435 -0.3879  0.5191
 4701SOL    HW125739   0.802   4.225   4.367  0.2186 -0.1080  0.2067
 4701SOL    HW225740   0.753   4.360   4.366  0.6352  0.3644  0.8029
 4702SOL     OW25741   0.491   4.340   3.039  0.1697  0.1808  0.1898
 4702SOL    HW125742   0.415   4.292   3.007  0.6790 -0.1593 -0.4974
 4702SOL    HW225743   0.473   4.316   3.130  0.9249 -1.0187  0.0161
 4703SOL     OW25744   2.373   1.792  12.150  0.0265 -0.0618  0.2861
 4703SOL    HW125745   2.429   1.848  12.098 -1.2695  1.5518  0.6325
 4703SOL    HW225746   2.286   1.824  12.125 -0.1908 -0.5020  0.4657
 4704SOL     OW25747   1.982   2.671   4.500  0.6897  0.4699  0.0981
 4704SOL    HW125748   2.019   2.719   4.573  0.5351 -2.2841  1.9564
 4704SOL    HW225749   2.003   2.581   4.525  1.5627  1.1968  1.9750
 4705SOL     OW25750   2.017   3.231   2.654 -0.3668 -0.0471  0.5720
 4705SOL    HW125751   2.076   3.304   2.633 -0.4899  0.2498  1.2528
 4705SOL    HW225752   1.934   3.277   2.667 -1.8032 -1.9117 -2.2073
 4706SOL     OW25753   3.054   0.951  16.712  0.0143  0.8136 -0.2972
 4706SOL    HW125754   3.059   0.882  16.778 -0.0681 -0.4927 -1.6612
 4706SOL    HW225755   3.094   0.904  16.638  1.2739  2.5063 -0.6996
 4707SOL     OW25756   4.378   3.894   7.344 -0.0442 -0.2267  0.8293
 4707SOL    HW125757   4.289   3.898   7.311  0.4973  0.6013 -0.5073
 4707SOL    HW225758   4.369   3.971   7.400  2.7735 -0.6928  1.9560
 4708SOL     OW25759   2.012   2.590   7.383  0.0387 -0.9790 -0.3164
 4708SOL    HW125760   2.031   2.550   7.298  0.0813 -1.3714 -0.1248
 4708SOL    HW225761   1.957   2.516   7.410  0.3600 -1.0689  0.0926
 4709SOL     OW25762   1.259   3.301   1.098  0.8770  0.2594 -0.3181
 4709SOL    HW125763   1.237   3.282   1.189  3.4459  2.2987  0.7086
 4709SOL    HW225764   1.354   3.301   1.107  0.8140 -1.1656  0.3156
 4710SOL     OW25765   1.985   1.695   8.325  0.0933 -0.3630 -0.1478
 4710SOL    HW125766   2.063   1.649   8.293  1.1881  0.8343  0.7838
 4710SOL    HW225767   2.024   1.738   8.401  0.5197  1.4368 -1.3640
 4711SOL     OW25768   1.917   0.190   3.192  0.1835 -0.2744  0.5624
 4711SOL    HW125769   1.840   0.230   3.233  0.2656 -0.6732  1.1147
 4711SOL    HW225770   1.950   0.144   3.270 -0.2764 -2.5687 -0.5770
 4712SOL     OW25771   0.309   4.077   0.087 -0.6667 -0.6149 -0.1304
 4712SOL    HW125772   0.251   4.153   0.080  1.3030  0.9957  0.9613
 4712SOL    HW225773   0.386   4.111   0.044  1.9926 -2.3793  3.1988
 4713SOL     OW25774   2.464   0.289   1.708 -0.2961 -0.0430  0.2773
 4713SOL    HW125775   2.383   0.291   1.658  1.1559 -2.3658 -2.0951
 4713SOL    HW225776   2.521   0.350   1.661 -2.1142  0.2362 -1.5498
 4714SOL     OW25777   4.155   1.010   6.348  0.0030  0.2338 -0.4332
 4714SOL    HW125778   4.125   0.920   6.331  2.1028 -0.8127  1.3018
 4714SOL    HW225779   4.132   1.038   6.259 -1.4057 -0.0317 -0.1492
 4715SOL     OW25780   0.607   1.859   1.898  0.3961 -0.3917 -0.3451
 4715SOL    HW125781   0.560   1.942   1.907  2.0246  0.4491  0.3467
 4715SOL    HW225782   0.541   1.795   1.871 -0.0807  0.7903 -1.9349
 4716SOL     OW25783   4.392   0.385   4.142 -0.0184 -0.3478  0.7214
 4716SOL    HW125784   4.417   0.475   4.121  1.0540 -0.4691  1.5125
 4716SOL    HW225785   4.436   0.375   4.226  0.7655 -1.1771  0.2142
 4717SOL     OW25786   2.303   4.079   8.065  0.5385  0.1963  0.0981
 4717SOL    HW125787   2.337   4.138   7.998  1.6343 -0.5840 -0.0358
 4717SOL    HW225788   2.252   4.016   8.015 -1.0685  0.1398  1.8202
 4718SOL     OW25789   1.800   2.127  10.211 -0.7909  0.2746 -0.5271
 4718SOL    HW125790   1.854   2.189  10.161 -0.1118  0.6005  0.6115
 4718SOL    HW225791   1.830   2.041  10.182  0.4474  0.9713 -1.3288
 4719SOL     OW25792   3.790   2.499   5.000  0.2513 -0.6752  0.0179
 4719SOL    HW125793   3.764   2.567   4.938  2.0987 -0.7560 -0.8605
 4719SOL    HW225794   3.729   2.509   5.073  1.8088  2.6849  0.8785
 4720SOL     OW25795   2.758   4.073   9.655  0.3267 -0.3764  0.5993
 4720SOL    HW125796   2.761   3.977   9.657 -0.0241 -0.3664  1.7456
 4720SOL    HW225797   2.791   4.093   9.742  2.3275 -1.0672 -0.0156
 4721SOL     OW25798   2.067   1.247   2.414  0.0755 -0.4385  0.0457
 4721SOL    HW125799   1.990   1.266   2.361  1.2943 -0.5425 -1.7441
 4721SOL    HW225800   2.110   1.182   2.358  1.1367  1.6676 -1.5608
 4722SOL     OW25801   1.256   3.628   9.365  0.9929  0.2951 -0.4933
 4722SOL    HW125802   1.209   3.690   9.311  0.2988 -0.1677 -0.4182
 4722SOL    HW225803   1.344   3.643   9.330  0.3139  1.4636 -1.6935
 4723SOL     OW25804   0.185   3.834   2.510  0.1718 -0.7101 -0.2609
 4723SOL    HW125805   0.188   3.910   2.568  1.0025 -0.8007 -0.1876
 4723SOL    HW225806   0.278   3.823   2.490  0.2679 -1.3707  0.5882
 4724SOL     OW25807   4.675   2.259   3.069 -0.3715 -0.2635 -0.3105
 4724SOL    HW125808   4.711   2.189   3.014  0.8149  1.2445 -1.4497
 4724SOL    HW225809   0.005   2.322   3.054 -0.9236 -0.2634 -2.9912
 4725SOL     OW25810   0.284   3.815   7.709  0.0019  0.2797 -0.4267
 4725SOL    HW125811   0.294   3.770   7.626  0.7487  0.8413 -0.6404
 4725SOL    HW225812   0.190   3.808   7.725  0.3282  0.3887  1.5477
 4726SOL     OW25813   4.499   2.878   2.654  0.2229  0.0986  0.3611
 4726SOL    HW125814   4.573   2.821   2.675 -0.3054 -0.2947  1.1991
 4726SOL    HW225815   4.542   2.952   2.612  2.1744 -0.8512  0.6906
 4727SOL     OW25816   0.711   1.129  13.092  0.4308 -0.6031 -0.1260
 4727SOL    HW125817   0.648   1.127  13.163 -3.3526  1.4311 -3.4328
 4727SOL    HW225818   0.761   1.210  13.091  0.8822 -0.8719  0.9657
 4728SOL     OW25819   3.091   0.340   3.249 -0.5424  0.0367 -0.5783
 4728SOL    HW125820   3.022   0.361   3.185  0.6267 -2.6063 -2.7166
 4728SOL    HW225821   3.155   0.294   3.194 -0.9193 -1.1269 -0.0377
 4729SOL     OW25822   0.767   0.666   2.478  0.7605 -0.2012  0.1638
 4729SOL    HW125823   0.835   0.622   2.528 -0.0617 -2.4706 -0.7291
 4729SOL    HW225824   0.809   0.675   2.392  0.5494  1.8042  0.2644
 4730SOL     OW25825   0.256   2.413   6.975 -0.5057  0.5744  0.2347
 4730SOL    HW125826   0.195   2.433   7.046  0.9474  1.2521  1.2697
 4730SOL    HW225827   0.250   2.319   6.989 -0.9592  0.6721  0.7072
 4731SOL     OW25828   0.785   0.730  12.379  0.3060  0.3418 -0.1289
 4731SOL    HW125829   0.880   0.717  12.377  0.1710 -0.5493 -1.0786
 4731SOL    HW225830   0.761   0.781  12.456  0.9315 -1.4693  1.2488
 4732SOL     OW25831   1.739   2.684  10.018 -0.5170 -0.0123 -0.1029
 4732SOL    HW125832   1.821   2.717  10.055 -0.1922 -0.0682 -0.7772
 4732SOL    HW225833   1.755   2.591  10.034 -1.2007 -0.3068 -1.0694
 4733SOL     OW25834   0.665   0.464  13.895 -0.4834  0.4461  0.1639
 4733SOL    HW125835   0.757   0.491  13.895 -0.4405  0.1588 -4.0764
 4733SOL    HW225836   0.643   0.463  13.989 -2.7510 -0.6523 -0.3809
 4734SOL     OW25837   4.532   3.685   9.062 -0.5117 -0.5715  0.5299
 4734SOL    HW125838   4.531   3.778   9.037 -2.5093 -0.6400  0.3610
 4734SOL    HW225839   4.488   3.687   9.147 -0.2264 -1.3574  0.6965
 4735SOL     OW25840   4.490   0.113  13.127 -0.0365 -0.2257  0.0233
 4735SOL    HW125841   4.415   0.055  13.126  0.7070 -1.1931  0.0782
 4735SOL    HW225842   4.554   0.073  13.186  0.1414 -0.7743 -0.5334
 4736SOL     OW25843   0.083   1.207   7.547 -0.3336  0.6652  0.5570
 4736SOL    HW125844   0.018   1.276   7.561  0.2916  0.9021  2.1918
 4736SOL    HW225845   0.109   1.223   7.456  0.5141 -1.4970  0.4299
 4737SOL     OW25846   3.768   1.646   3.852  0.1863  0.4161  0.1751
 4737SOL    HW125847   3.766   1.605   3.766 -1.1634  0.5813  0.1257
 4737SOL    HW225848   3.746   1.569   3.905  3.1619 -0.3012  0.4133
 4738SOL     OW25849   3.488   3.980   5.818 -0.3832  0.4555  0.5665
 4738SOL    HW125850   3.434   4.036   5.874  0.4059  2.3276 -0.5405
 4738SOL    HW225851   3.455   3.891   5.831  1.5933 -0.2025  1.0703
 4739SOL     OW25852   1.075   0.794   3.757 -0.0275 -0.5846  0.2582
 4739SOL    HW125853   1.024   0.795   3.838 -2.4661 -1.8633 -1.2448
 4739SOL    HW225854   1.089   0.888   3.749  0.3601 -0.6083  0.6623
 4740SOL     OW25855   4.488   4.199   0.181 -0.1185 -0.4690 -0.4089
 4740SOL    HW125856   4.495   4.182   0.087 -1.9962  1.9915 -0.9778
 4740SOL    HW225857   4.461   4.290   0.181 -1.6078 -0.9313  1.4724
 4741SOL     OW25858   2.390   4.458   2.660 -0.1781 -0.2001 -0.3125
 4741SOL    HW125859   2.334   4.511   2.603 -0.7145  0.8742  1.2171
 4741SOL    HW225860   2.392   4.373   2.616 -1.3882  0.6218 -1.9729
 4742SOL     OW25861   0.284   4.728   5.930 -0.0624  0.5749  0.4111
 4742SOL    HW125862   0.278   0.081   5.914  0.9103  0.7329  0.9970
 4742SOL    HW225863   0.300   4.682   5.847  0.5991  0.7967  0.4168
 4743SOL     OW25864   4.240   4.716   3.831  0.5616 -0.8459  0.5102
 4743SOL    HW125865   4.329   4.732   3.799  1.1665  1.0117  3.1239
 4743SOL    HW225866   4.245   0.036   3.905 -1.4964 -0.7684  0.5690
 4744SOL     OW25867   2.550   3.304   7.694 -0.3246 -0.1687  0.2498
 4744SOL    HW125868   2.525   3.218   7.660  2.5238 -0.7602 -0.4165
 4744SOL    HW225869   2.487   3.367   7.660  1.4649  1.3384 -0.2515
 4745SOL     OW25870   3.844   2.409   7.009 -0.0994  0.1707 -0.1337
 4745SOL    HW125871   3.766   2.365   7.044 -0.3979  0.5122 -0.3649
 4745SOL    HW225872   3.909   2.383   7.074 -0.1438  0.7182  0.1325
 4746SOL     OW25873   2.596   3.345  11.875 -0.7825 -0.2472 -0.4330
 4746SOL    HW125874   2.554   3.267  11.912 -2.4422 -0.2790 -2.4214
 4746SOL    HW225875   2.659   3.377  11.939 -0.0085 -1.8691 -0.3812
 4747SOL     OW25876   1.726   2.547   7.009 -0.1962 -0.0409 -0.3724
 4747SOL    HW125877   1.795   2.604   7.044 -1.2596  0.6384  0.6518
 4747SOL    HW225878   1.682   2.521   7.090  1.6667 -1.5538  0.1527
 4748SOL     OW25879   2.956   0.686   2.892 -0.6453 -0.3613  0.0880
 4748SOL    HW125880   3.013   0.759   2.869  0.4341 -0.4720  2.4084
 4748SOL    HW225881   2.938   0.702   2.984 -0.7140  0.7629 -0.1258
 4749SOL     OW25882   4.610   0.861   9.152 -0.0546 -0.0142 -0.4443
 4749SOL    HW125883   4.547   0.794   9.123 -1.8301  0.4703  2.2848
 4749SOL    HW225884   4.693   0.815   9.143 -0.1461 -0.2264 -0.2150
 4750SOL     OW25885   2.641   0.843   9.667  0.6904 -0.0011 -0.5229
 4750SOL    HW125886   2.593   0.861   9.586  1.3204 -1.2146 -1.1552
 4750SOL    HW225887   2.573   0.849   9.735  1.9172 -0.2937  0.7255
 4751SOL     OW25888   1.056   1.117   3.234  0.3747 -0.0914  0.0280
 4751SOL    HW125889   1.111   1.193   3.215 -1.0104  0.9512  0.1881
 4751SOL    HW225890   0.972   1.157   3.256  2.0232  1.8974  2.5438
 4752SOL     OW25891   2.364   1.227   3.179 -0.3936  0.2154 -0.4988
 4752SOL    HW125892   2.440   1.245   3.234 -0.3981 -1.9138  0.2085
 4752SOL    HW225893   2.412   1.232   3.096  3.1311 -0.2843  1.4982
 4753SOL     OW25894   1.305   4.151   5.534  0.1250 -0.5820  0.5659
 4753SOL    HW125895   1.245   4.137   5.608  0.0271  1.9873  0.9783
 4753SOL    HW225896   1.244   4.187   5.470 -0.6124 -0.7420  1.1751
 4754SOL     OW25897   2.454   3.389   5.674 -0.8240 -0.3181  0.1123
 4754SOL    HW125898   2.398   3.466   5.683  0.8956  0.9219  0.2036
 4754SOL    HW225899   2.466   3.366   5.766  2.0030  0.7132  0.0010
 4755SOL     OW25900   2.357   1.937   4.225 -0.2852 -0.6629  0.4769
 4755SOL    HW125901   2.375   1.913   4.316  1.9475 -2.0600 -0.3286
 4755SOL    HW225902   2.364   2.032   4.231  2.9229 -1.0014  2.1767
 4756SOL     OW25903   4.740   2.790   3.923  0.2479  0.4942 -0.0359
 4756SOL    HW125904   4.675   2.858   3.909 -0.4894 -0.1281  0.4211
 4756SOL    HW225905   0.080   2.822   3.882  0.7615  0.5049  0.9920
 4757SOL     OW25906   1.306   0.439   3.578 -0.3853  0.3181  0.3246
 4757SOL    HW125907   1.384   0.386   3.589  0.1065  0.6257 -1.7111
 4757SOL    HW225908   1.320   0.508   3.643  0.1923  0.2007  0.3198
 4758SOL     OW25909   4.277   3.436  10.466  0.2530  0.4583  0.2440
 4758SOL    HW125910   4.266   3.520  10.511  0.7101 -0.9145  2.9200
 4758SOL    HW225911   4.239   3.452  10.380 -0.1568  1.1738  0.5542
 4759SOL     OW25912   2.151   3.376   5.310  0.2592 -0.1703 -0.0644
 4759SOL    HW125913   2.186   3.338   5.391 -0.5038 -0.7916 -0.0283
 4759SOL    HW225914   2.060   3.392   5.332  0.4829  0.7151  0.2532
 4760SOL     OW25915   0.376   2.613   1.977 -0.4475 -0.2459  0.2149
 4760SOL    HW125916   0.301   2.594   2.033  0.1691 -0.4816  0.9482
 4760SOL    HW225917   0.454   2.593   2.028 -0.6183  0.0559  0.5899
 4761SOL     OW25918   4.048   1.055   0.342  0.1544 -0.4268 -0.3796
 4761SOL    HW125919   3.978   1.113   0.372  1.2316  1.3782 -1.3650
 4761SOL    HW225920   4.001   0.998   0.281 -1.8188  0.2904  0.4741
 4762SOL     OW25921   0.031   0.969   1.861 -0.0812 -0.1524 -0.1695
 4762SOL    HW125922   4.732   0.912   1.927  0.6941 -2.7525 -1.9466
 4762SOL    HW225923   4.719   1.046   1.881 -2.0331 -1.3227 -0.8836
 4763SOL     OW25924   4.023   2.706  17.615 -0.1875 -0.1559  0.0144
 4763SOL    HW125925   3.958   2.750  17.561 -0.9937 -0.5397  0.6873
 4763SOL    HW225926   3.976   2.707  17.698  1.0427 -0.8244  0.7194
 4764SOL     OW25927   0.485   1.310   9.842  0.7356  0.5726  0.0577
 4764SOL    HW125928   0.552   1.262   9.891  1.9398 -0.4387 -2.5696
 4764SOL    HW225929   0.496   1.282   9.751 -1.0811 -2.2242  0.7163
 4765SOL     OW25930   3.195   1.540   7.685 -0.2726  0.6381 -0.8813
 4765SOL    HW125931   3.284   1.531   7.651  0.6371 -0.2269  1.7540
 4765SOL    HW225932   3.168   1.611   7.626  0.4690  1.1024 -0.6625
 4766SOL     OW25933   2.502   1.899   8.502 -0.2099  0.1679 -0.2217
 4766SOL    HW125934   2.591   1.925   8.479 -0.1108 -1.3998 -1.6851
 4766SOL    HW225935   2.447   1.961   8.454  0.8849  0.0882 -1.6066
 4767SOL     OW25936   1.240   1.327   8.021  0.0436  0.2814  0.2118
 4767SOL    HW125937   1.150   1.316   7.989  0.2622  1.8999 -0.9824
 4767SOL    HW225938   1.272   1.363   7.939  1.2145 -1.0619  0.0816
 4768SOL     OW25939   1.177   4.680   2.836 -0.4445 -0.1985  0.2205
 4768SOL    HW125940   1.113   0.010   2.847 -1.0473 -0.5895 -0.7922
 4768SOL    HW225941   1.233   4.718   2.768 -0.2015 -2.6107 -0.9176
 4769SOL     OW25942   1.627   2.867   6.646  0.3506 -0.1007 -0.0760
 4769SOL    HW125943   1.570   2.792   6.627 -1.9021  1.8064 -0.8283
 4769SOL    HW225944   1.571   2.945   6.642  3.6510  2.1967 -1.3174
 4770SOL     OW25945   0.488   4.585   1.595  0.0056  0.3352 -0.0040
 4770SOL    HW125946   0.531   4.499   1.598  0.6844  0.6523 -0.8925
 4770SOL    HW225947   0.418   4.581   1.661  1.2296  0.6296  1.2997
 4771SOL     OW25948   3.492   3.490   6.315 -0.1245 -0.0634 -0.1831
 4771SOL    HW125949   3.472   3.402   6.347  0.1246  0.1259  0.4774
 4771SOL    HW225950   3.401   3.504   6.288  0.5360  0.1421 -2.3171
 4772SOL     OW25951   3.991   1.415   8.549  0.1828  0.4325 -0.3430
 4772SOL    HW125952   3.941   1.481   8.598  1.3530  0.1978  1.1800
 4772SOL    HW225953   4.071   1.466   8.547  1.3154 -1.2920  0.7515
 4773SOL     OW25954   2.940   0.959  13.996  0.4767 -0.0194 -0.6700
 4773SOL    HW125955   3.013   0.897  14.004  0.0141 -0.6784 -1.4929
 4773SOL    HW225956   2.985   1.035  13.960  1.3118 -1.3178 -2.3954
 4774SOL     OW25957   3.409   3.921  16.677  0.2148  0.0296 -0.0775
 4774SOL    HW125958   3.465   3.872  16.617 -2.3070 -0.4860 -1.9896
 4774SOL    HW225959   3.330   3.943  16.627  0.7242  0.8240 -0.5402
 4775SOL     OW25960   4.410   0.034   7.907  0.1150 -0.0630  0.4477
 4775SOL    HW125961   4.432   0.089   7.982  0.3938 -0.2500  0.5029
 4775SOL    HW225962   4.475   0.047   7.838 -0.2702 -0.0738  0.0871
 4776SOL     OW25963   1.369   0.516   7.375 -0.5070 -0.2142 -0.4407
 4776SOL    HW125964   1.314   0.467   7.435 -0.0090  1.3960  1.3430
 4776SOL    HW225965   1.408   0.448   7.320 -0.8242 -1.4153  0.8285
 4777SOL     OW25966   1.063   3.140   4.730 -0.4808  0.2781  0.7268
 4777SOL    HW125967   0.970   3.147   4.709  0.2849  1.2497 -2.2468
 4777SOL    HW225968   1.063   3.169   4.821  1.6243  1.3756  0.3568
 4778SOL     OW25969   1.393   0.293  13.693 -0.0110 -0.0265 -0.0483
 4778SOL    HW125970   1.438   0.209  13.683 -0.7717  0.0990 -4.5413
 4778SOL    HW225971   1.386   0.319  13.601 -0.4274 -0.6236 -0.1836
 4779SOL     OW25972   1.086   0.302   3.632 -0.4633 -0.3788  0.1984
 4779SOL    HW125973   1.145   0.228   3.637 -1.0937 -0.9114 -0.2590
 4779SOL    HW225974   1.148   0.374   3.617 -1.7002  0.7447  0.4045
 4780SOL     OW25975   2.527   2.808   3.573  0.1870  0.2698 -0.2236
 4780SOL    HW125976   2.476   2.780   3.649  1.6305  0.3346  0.7721
 4780SOL    HW225977   2.554   2.725   3.534  2.8294  0.9651  0.0913
 4781SOL     OW25978   2.363   0.020   2.180  0.4271 -0.0120 -0.0891
 4781SOL    HW125979   2.355   0.042   2.087 -0.3226 -0.8123 -0.2100
 4781SOL    HW225980   2.455   0.040   2.197  0.6449 -0.1035 -1.1243
 4782SOL     OW25981   4.290   2.146  15.424  0.2366  0.3939 -0.2579
 4782SOL    HW125982   4.371   2.110  15.461 -0.4650  0.3295  1.2429
 4782SOL    HW225983   4.318   2.231  15.392  1.5077  0.1283  0.1618
 4783SOL     OW25984   0.312   0.714   1.230  0.1532 -0.3071 -0.1624
 4783SOL    HW125985   0.332   0.651   1.160  0.4517  1.5436 -1.7551
 4783SOL    HW225986   0.272   0.784   1.178  0.6881  1.8619  2.3815
 4784SOL     OW25987   0.035   1.421   1.047 -0.2875  0.1697  0.1054
 4784SOL    HW125988   0.042   1.438   0.954 -0.9552 -2.6400 -0.4760
 4784SOL    HW225989   0.125   1.407   1.075 -0.3202 -0.6973 -0.2199
 4785SOL     OW25990   3.683   1.991   8.004 -0.3845  0.3285 -0.5118
 4785SOL    HW125991   3.602   1.990   7.953 -0.5284  0.3975 -0.2849
 4785SOL    HW225992   3.739   1.955   7.936 -2.4919  0.3967 -2.2873
 4786SOL     OW25993   2.282   1.719   2.645  0.6389 -0.1221 -0.2249
 4786SOL    HW125994   2.192   1.710   2.615  0.0165 -0.4980  1.7882
 4786SOL    HW225995   2.265   1.723   2.739  0.8049  1.8461 -0.2765
 4787SOL     OW25996   0.276   4.488  12.363 -0.2901  0.0201  0.1047
 4787SOL    HW125997   0.227   4.498  12.282 -0.2007  2.2499  0.3216
 4787SOL    HW225998   0.342   4.422  12.341 -0.1344 -0.0026  0.6318
 4788SOL     OW25999   3.852   3.106   7.892 -0.4784  0.3677 -0.7298
 4788SOL    HW126000   3.798   3.185   7.899  0.9653  1.0421  3.0461
 4788SOL    HW226001   3.811   3.063   7.967  2.1004  0.0211  0.4744
 4789SOL     OW26002   1.152   2.456   2.165  0.4152  0.6965  0.1781
 4789SOL    HW126003   1.228   2.426   2.115  1.0613  0.5770  1.2392
 4789SOL    HW226004   1.113   2.370   2.177  1.7021  0.1323  0.3355
 4790SOL     OW26005   3.336   2.041   8.479  0.0754  0.3499 -0.2862
 4790SOL    HW126006   3.259   2.060   8.533  0.2735  0.1895  0.0510
 4790SOL    HW226007   3.350   2.126   8.437 -0.7353  0.0558 -1.1410
 4791SOL     OW26008   3.661   4.699   2.556  0.3983  0.1583 -0.4265
 4791SOL    HW126009   3.728   4.632   2.571  0.4759  0.2444 -0.3887
 4791SOL    HW226010   3.690   0.029   2.614 -1.5485 -0.8468  1.7844
 4792SOL     OW26011   0.484   2.600   4.887  0.0840 -0.0832  0.1872
 4792SOL    HW126012   0.428   2.540   4.935  0.7256  0.2689  1.3867
 4792SOL    HW226013   0.424   2.657   4.839  1.6433  0.2184 -1.4433
 4793SOL     OW26014   0.871   0.391  13.515 -0.4015  0.0264  0.3201
 4793SOL    HW126015   0.948   0.438  13.546  2.0030 -3.3729 -0.4184
 4793SOL    HW226016   0.871   0.413  13.422 -0.7566 -0.6693  0.1521
 4794SOL     OW26017   4.321   1.812   6.394 -0.3227 -0.4809  0.0422
 4794SOL    HW126018   4.233   1.781   6.418 -0.9026  1.0300 -0.1263
 4794SOL    HW226019   4.382   1.751   6.435 -0.0847 -0.2210  0.0705
 4795SOL     OW26020   4.595   0.067   9.098  0.2518  0.1876  0.0869
 4795SOL    HW126021   4.655   0.019   9.040  1.0598  0.8904  0.3486
 4795SOL    HW226022   4.641   0.150   9.109  0.3730  0.4141 -2.0195
 4796SOL     OW26023   4.516   0.885  12.894 -0.2455 -0.4088 -0.3118
 4796SOL    HW126024   4.469   0.853  12.818 -0.4712  0.3496 -0.4937
 4796SOL    HW226025   4.591   0.826  12.887  0.7881  0.8776 -0.0964
 4797SOL     OW26026   3.412   2.969  13.970 -0.0941  0.2001 -0.1915
 4797SOL    HW126027   3.343   3.035  13.958  1.1095  1.0247 -2.3876
 4797SOL    HW226028   3.467   3.023  14.027 -0.1135  0.0621 -0.0410
 4798SOL     OW26029   0.268   0.606  12.360 -0.0336  0.1771 -0.4426
 4798SOL    HW126030   0.270   0.577  12.269  1.5312 -1.4695  0.1071
 4798SOL    HW226031   0.174   0.622  12.366  0.2496  1.7841 -0.3742
 4799SOL     OW26032   1.024   3.826  12.309  0.0911 -0.0791 -0.2322
 4799SOL    HW126033   1.021   3.902  12.250  2.7971  0.2328  0.0687
 4799SOL    HW226034   1.117   3.807  12.317  0.8936  3.4593 -1.0482
 4800SOL     OW26035   2.390   4.572   5.055 -0.0737  0.4768  0.2596
 4800SOL    HW126036   2.423   4.652   5.096  0.4232  0.0306  0.7259
 4800SOL    HW226037   2.296   4.590   5.047 -0.1787 -0.8102 -1.5394
 4801SOL     OW26038   3.908   4.424   3.108 -0.5401 -0.6680 -0.6947
 4801SOL    HW126039   3.933   4.335   3.084 -1.9215 -1.0012 -0.8534
 4801SOL    HW226040   3.871   4.417   3.196 -1.1159  0.0768 -0.8740
 4802SOL     OW26041   0.433   0.082  11.590 -0.8842 -0.5782 -0.2808
 4802SOL    HW126042   0.368   0.149  11.611 -1.3740 -0.9395 -0.6436
 4802SOL    HW226043   0.379   0.011  11.624  0.3708  0.2287  3.4225
 4803SOL     OW26044   2.217   3.102   1.546 -0.1157  0.5120 -0.0153
 4803SOL    HW126045   2.203   3.191   1.579  0.9348 -0.2153  2.4236
 4803SOL    HW226046   2.145   3.105   1.483  0.3575 -1.6831 -0.6672
 4804SOL     OW26047   1.093   2.837   9.194 -0.4479 -1.1540 -0.4295
 4804SOL    HW126048   1.060   2.890   9.121  0.3824  0.0283  0.0510
 4804SOL    HW226049   1.082   2.747   9.162  2.8554 -2.1874  1.3382
 4805SOL     OW26050   2.449   1.595   2.474 -0.3675  0.0765 -0.1663
 4805SOL    HW126051   2.391   1.541   2.420 -0.2568 -1.3861  1.1691
 4805SOL    HW226052   2.388   1.640   2.533 -0.1348 -1.6477  1.3770
 4806SOL     OW26053   0.966   3.445   0.692  0.3001 -0.1473 -0.0810
 4806SOL    HW126054   1.048   3.448   0.741  0.5858  0.4249 -0.5897
 4806SOL    HW226055   0.982   3.446   0.597  1.1192  1.1957  0.0666
 4807SOL     OW26056   2.445   0.380   2.842  0.3048 -0.1419 -0.4765
 4807SOL    HW126057   2.474   0.447   2.780  0.3450  0.8548  0.6027
 4807SOL    HW226058   2.531   0.347   2.867  0.1550  0.0484  0.2886
 4808SOL     OW26059   1.040   1.095  13.984  0.2179  0.1811  0.2974
 4808SOL    HW126060   1.121   1.100  14.034  0.3565 -2.6888  0.3777
 4808SOL    HW226061   1.015   1.187  13.985 -1.8565 -0.3825 -0.0288
 4809SOL     OW26062   3.951   4.732  12.033  0.2674 -0.6318  0.3014
 4809SOL    HW126063   4.024   0.044  12.066 -1.0868  1.3793  0.0408
 4809SOL    HW226064   3.995   4.668  11.977  0.5577  0.6203 -0.9185
 4810SOL     OW26065   1.027   1.627   7.572  0.2110 -0.1020  0.4938
 4810SOL    HW126066   1.047   1.721   7.577  1.7624 -0.4253  0.3699
 4810SOL    HW226067   1.007   1.609   7.664 -0.5566  1.4868  0.6495
 4811SOL     OW26068   4.065   4.628   7.170 -0.2409 -0.2330 -0.0533
 4811SOL    HW126069   4.020   4.687   7.110  0.5565 -0.6085 -1.0061
 4811SOL    HW226070   3.999   4.632   7.240  0.1425  1.5697  0.1859
 4812SOL     OW26071   2.689   1.277  11.415  0.0867  0.0531 -0.5665
 4812SOL    HW126072   2.619   1.262  11.478  0.9677  0.9324  0.6587
 4812SOL    HW226073   2.721   1.355  11.462 -0.2909  0.2406 -0.6188
 4813SOL     OW26074   2.027   3.103  13.457  0.7410  0.6598  0.0141
 4813SOL    HW126075   1.976   3.131  13.533  1.6756 -1.0899  1.2882
 4813SOL    HW226076   2.102   3.060  13.498  1.7838 -1.3414 -3.9122
 4814SOL     OW26077   3.241   1.064   0.746  0.4129  0.0311  0.1527
 4814SOL    HW126078   3.273   1.087   0.834  1.1948  1.2636 -0.4562
 4814SOL    HW226079   3.251   0.970   0.737  2.5103  0.1305  1.3702
 4815SOL     OW26080   0.333   2.968   4.668  0.4115  0.1555  0.6721
 4815SOL    HW126081   0.338   2.930   4.581  2.1992  1.6351  0.1044
 4815SOL    HW226082   0.307   2.887   4.712  0.4762  0.4388  1.2367
 4816SOL     OW26083   4.025   1.124  13.087  0.0335 -0.0833 -0.2365
 4816SOL    HW126084   3.948   1.069  13.068 -0.1351  0.0535  0.0538
 4816SOL    HW226085   4.065   1.130  13.000 -1.1727 -1.8482 -0.9153
 4817SOL     OW26086   2.957   0.342   5.233  0.4339  0.3204 -0.4671
 4817SOL    HW126087   2.973   0.273   5.169 -2.2853 -1.3993  0.7218
 4817SOL    HW226088   2.919   0.412   5.182  1.5058  0.4605 -1.0816
 4818SOL     OW26089   1.089   2.425   5.979 -0.4345 -0.1089 -0.2122
 4818SOL    HW126090   1.100   2.331   5.965 -0.4300  0.1632 -2.0544
 4818SOL    HW226091   1.079   2.441   6.073  0.3501 -0.8043 -0.0068
 4819SOL     OW26092   0.423   0.207   0.613 -0.1464  0.0474  0.3367
 4819SOL    HW126093   0.389   0.296   0.614  2.6792  1.1429  0.7257
 4819SOL    HW226094   0.509   0.209   0.656  0.7306  0.2313 -1.4126
 4820SOL     OW26095   3.611   2.702   4.463  0.2770 -0.4317 -0.3621
 4820SOL    HW126096   3.637   2.639   4.395  1.1277  0.3979 -0.8134
 4820SOL    HW226097   3.548   2.641   4.502  0.9704  0.2880  1.9120
 4821SOL     OW26098   4.630   1.712   7.136 -0.2700  0.1841 -0.5922
 4821SOL    HW126099   4.716   1.752   7.146 -0.1238 -0.2193 -0.2506
 4821SOL    HW226100   4.637   1.653   7.211 -0.6352 -0.1739 -0.8423
 4822SOL     OW26101   2.431   3.024   2.521 -0.5280 -0.8403  0.0127
 4822SOL    HW126102   2.479   3.104   2.501 -2.9740  0.6758  0.2925
 4822SOL    HW226103   2.499   2.960   2.497  0.1009 -1.0801  2.4567
 4823SOL     OW26104   0.846   3.998  17.446 -0.3485 -0.6626  0.5418
 4823SOL    HW126105   0.912   4.018  17.378  1.8885 -0.3272  2.8061
 4823SOL    HW226106   0.766   3.973  17.399  0.2303 -0.8654 -0.3551
 4824SOL     OW26107   3.962   0.432   2.924 -0.3949  0.4208 -0.1138
 4824SOL    HW126108   3.989   0.521   2.949  0.3296  0.2162 -0.1508
 4824SOL    HW226109   3.869   0.441   2.905 -0.7225 -0.5012  1.0113
 4825SOL     OW26110   4.012   2.007   3.146  0.2356  0.3737  0.4006
 4825SOL    HW126111   3.951   2.064   3.099  0.8480  1.0506  0.4189
 4825SOL    HW226112   4.095   2.014   3.099 -0.6357  3.6323 -0.6803
 4826SOL     OW26113   3.312   3.439   7.089 -0.7495 -0.5377  0.3028
 4826SOL    HW126114   3.267   3.451   7.006  0.5247 -2.4642 -0.6580
 4826SOL    HW226115   3.404   3.436   7.065 -0.7558  1.3110  0.0482
 4827SOL     OW26116   1.128   3.805   2.540 -0.3407 -0.4383  0.0638
 4827SOL    HW126117   1.208   3.851   2.563 -0.5156 -0.4018  0.5998
 4827SOL    HW226118   1.114   3.830   2.449  0.2465 -1.1078 -0.2077
 4828SOL     OW26119   1.832   1.747   2.413  0.6640  0.4547  0.2919
 4828SOL    HW126120   1.744   1.731   2.379 -0.2119 -0.0465  2.8418
 4828SOL    HW226121   1.816   1.824   2.467 -0.5544  0.1222  0.4111
 4829SOL     OW26122   1.902   1.203  13.133  0.2657  0.1788  0.5246
 4829SOL    HW126123   1.835   1.241  13.191  0.3586 -0.5302  1.0954
 4829SOL    HW226124   1.895   1.264  13.060  0.9850  0.9758  1.1135
 4830SOL     OW26125   1.306   3.567   0.251 -0.3441  1.1002  0.1723
 4830SOL    HW126126   1.309   3.473   0.231 -0.3111  1.1295  0.0397
 4830SOL    HW226127   1.350   3.606   0.176  0.0936  0.8228  0.2810
 4831SOL     OW26128   1.346   4.214   4.190  0.2622  0.6395 -0.8260
 4831SOL    HW126129   1.265   4.174   4.159 -0.4654  1.7260 -0.3369
 4831SOL    HW226130   1.377   4.152   4.256 -4.3132  1.5248  2.0900
 4832SOL     OW26131   0.450   0.296   5.379 -0.0838  0.4467 -0.2529
 4832SOL    HW126132   0.406   0.363   5.327 -0.7217 -0.1877 -0.5318
 4832SOL    HW226133   0.471   0.337   5.463  1.8403 -0.2748 -0.3705
 4833SOL     OW26134   0.479   2.540   3.419  0.1322 -0.3049 -0.0951
 4833SOL    HW126135   0.498   2.550   3.512  1.1789 -0.3514 -0.3121
 4833SOL    HW226136   0.490   2.630   3.387 -1.6666  0.7194  2.1970
 4834SOL     OW26137   4.499   3.596   5.787 -0.4966  0.5010  0.3926
 4834SOL    HW126138   4.431   3.528   5.786 -0.6546  0.6638  0.0617
 4834SOL    HW226139   4.478   3.666   5.849  0.6476  0.4840  0.8085
 4835SOL     OW26140   3.549   1.533   4.721  0.2355 -0.4042 -0.4002
 4835SOL    HW126141   3.532   1.520   4.627  0.4549 -0.6026 -0.4128
 4835SOL    HW226142   3.479   1.485   4.765  1.1290 -0.0396  1.3741
 4836SOL     OW26143   4.302   3.388   9.911 -0.0898 -0.0792  0.4543
 4836SOL    HW126144   4.268   3.309   9.953  0.8105 -0.2754  0.8185
 4836SOL    HW226145   4.282   3.377   9.818 -0.7698  1.3227  0.4414
 4837SOL     OW26146   4.343   2.919  16.190  0.0491  0.4285  0.5858
 4837SOL    HW126147   4.333   2.829  16.157 -1.2323  0.8290 -0.1272
 4837SOL    HW226148   4.436   2.934  16.176  0.1517  0.9801  1.9294
 4838SOL     OW26149   4.246   3.879   6.721 -0.2607 -0.3564 -1.1810
 4838SOL    HW126150   4.174   3.931   6.755  0.1863  0.3919 -1.3932
 4838SOL    HW226151   4.278   3.840   6.802 -0.7003  0.6318 -0.5336
 4839SOL     OW26152   2.646   3.063   6.821  0.3206 -0.0297 -0.1215
 4839SOL    HW126153   2.567   3.067   6.874 -0.2283 -0.8167 -0.9024
 4839SOL    HW226154   2.710   3.027   6.882 -0.2901 -1.6747 -0.4745
 4840SOL     OW26155   2.083   3.025   6.873  0.1647 -0.1312  0.0723
 4840SOL    HW126156   2.052   2.947   6.827  3.0064 -0.3898 -1.4153
 4840SOL    HW226157   2.140   3.069   6.810 -0.2622  0.4682  0.1016
 4841SOL     OW26158   1.648   3.433   9.408  0.3363 -0.4286 -0.2778
 4841SOL    HW126159   1.651   3.526   9.430  0.7872 -0.5982  0.3756
 4841SOL    HW226160   1.621   3.394   9.492  0.7726  2.7117  1.3121
 4842SOL     OW26161   4.582   1.291   2.303 -0.0901 -0.6457  0.6339
 4842SOL    HW126162   4.635   1.213   2.320 -0.9206 -1.3961 -0.2370
 4842SOL    HW226163   4.533   1.306   2.384 -0.5696 -1.1346  0.4274
 4843SOL     OW26164   1.540   1.425  10.716  0.2872 -0.0521 -0.1242
 4843SOL    HW126165   1.538   1.374  10.797 -2.7507  1.1304  0.5440
 4843SOL    HW226166   1.456   1.394  10.681  1.1006  0.3067 -2.4292
 4844SOL     OW26167   1.279   3.702   2.753 -0.1302 -0.2210 -0.5401
 4844SOL    HW126168   1.266   3.693   2.658  0.4687 -1.0057 -0.5548
 4844SOL    HW226169   1.226   3.636   2.797 -0.9644  1.0695  0.3620
 4845SOL     OW26170   3.843   0.021   5.273  0.1157  0.2708  0.2527
 4845SOL    HW126171   3.816   4.670   5.282 -1.2442  0.5539 -1.0265
 4845SOL    HW226172   3.768   0.066   5.311  0.0073  1.2222 -1.1011
 4846SOL     OW26173   1.447   0.629   5.725  0.5295 -0.4238  0.7131
 4846SOL    HW126174   1.367   0.641   5.674  1.1425  2.3112  0.4109
 4846SOL    HW226175   1.451   0.720   5.754  1.9241  0.4362 -2.2000
 4847SOL     OW26176   3.951   4.286   5.983 -0.4876 -0.1451 -0.6338
 4847SOL    HW126177   3.920   4.239   5.905 -0.4551 -1.0207 -0.1158
 4847SOL    HW226178   4.033   4.238   5.994 -1.6522 -2.3395 -1.4113
 4848SOL     OW26179   1.035   4.307   1.143 -0.2852  0.6463  0.3405
 4848SOL    HW126180   0.981   4.288   1.220  0.8600  0.5101  1.1090
 4848SOL    HW226181   1.109   4.351   1.186 -0.1709  1.4730 -0.7018
 4849SOL     OW26182   2.081   3.594   0.124 -0.2396  0.2061  0.3662
 4849SOL    HW126183   2.108   3.600   0.216 -0.9173 -0.7104  0.6254
 4849SOL    HW226184   1.991   3.564   0.126 -0.2984  0.4587  1.5018
 4850SOL     OW26185   2.726   2.025  11.400 -0.5601 -0.1671 -0.6284
 4850SOL    HW126186   2.780   1.951  11.372 -0.2308 -0.6529  1.3001
 4850SOL    HW226187   2.639   1.997  11.374 -1.9637  2.6376  0.9877
 4851SOL     OW26188   0.139   2.746  10.281 -0.0521 -0.2210  0.1269
 4851SOL    HW126189   0.046   2.725  10.271 -0.4486  1.3900  0.3392
 4851SOL    HW226190   0.136   2.804  10.357 -0.3494  0.2295 -0.2279
 4852SOL     OW26191   1.198   2.495   2.717  0.3952  0.4742  0.2754
 4852SOL    HW126192   1.226   2.584   2.737  2.3384  0.1297 -0.8970
 4852SOL    HW226193   1.108   2.496   2.749 -0.2731 -2.0993 -1.5099
 4853SOL     OW26194   0.207   1.601   9.031 -0.8707 -0.2546  0.1563
 4853SOL    HW126195   0.262   1.644   9.097  0.6262 -1.6992 -0.1443
 4853SOL    HW226196   0.165   1.673   8.984  0.5807  0.5065  0.0128
 4854SOL     OW26197   3.273   0.637   0.903 -0.1415 -0.1299 -0.3321
 4854SOL    HW126198   3.290   0.717   0.853  1.8955 -1.1585 -1.2752
 4854SOL    HW226199   3.353   0.592   0.877 -0.0036  0.4074 -0.8632
 4855SOL     OW26200   4.536   3.058   2.211  0.1853 -0.0805 -0.0439
 4855SOL    HW126201   4.516   2.964   2.216 -1.4819  0.4262  3.2450
 4855SOL    HW226202   4.445   3.087   2.220 -0.7942 -2.9657 -0.5212
 4856SOL     OW26203   3.894   3.983  14.675 -0.4159  0.4516 -0.4950
 4856SOL    HW126204   3.901   4.006  14.768  0.3078  1.2923 -0.7601
 4856SOL    HW226205   3.807   3.946  14.687 -0.0143  0.3314  2.1502
 4857SOL     OW26206   4.576   3.336   2.400  0.3708 -0.7684  0.2004
 4857SOL    HW126207   4.558   3.430   2.390 -0.0034 -0.9748 -1.0792
 4857SOL    HW226208   4.624   3.324   2.318 -0.1456  1.1005 -0.3913
 4858SOL     OW26209   3.451   4.608   7.869 -0.4087  0.6928  0.5815
 4858SOL    HW126210   3.542   4.597   7.897 -0.4134  2.6154  1.3066
 4858SOL    HW226211   3.457   4.621   7.774 -0.4420 -0.8986  0.3644
 4859SOL     OW26212   0.576   0.531   6.319 -0.5849  0.6355 -0.5633
 4859SOL    HW126213   0.668   0.508   6.304 -0.3589  0.6765  0.6842
 4859SOL    HW226214   0.571   0.625   6.306 -0.9402  0.9049  1.3995
 4860SOL     OW26215   2.345   2.920   4.925  0.4515 -0.8477  0.3457
 4860SOL    HW126216   2.277   2.927   4.858  1.0064  0.3857 -0.0863
 4860SOL    HW226217   2.355   2.825   4.930  0.4475 -0.7918  1.4421
 4861SOL     OW26218   4.232   0.051   7.269  0.7032  0.7049  0.7751
 4861SOL    HW126219   4.180   4.724   7.225  1.2299  1.0651 -0.4111
 4861SOL    HW226220   4.284   0.005   7.335  0.4870 -1.4214 -0.5235
 4862SOL     OW26221   2.408   4.076  16.020 -0.1751  0.2219  0.1846
 4862SOL    HW126222   2.445   4.035  16.099  1.8198 -0.6190 -1.2042
 4862SOL    HW226223   2.450   4.026  15.951 -1.3311  0.3727 -0.6235
 4863SOL     OW26224   1.538   0.796   8.059  0.0209  0.0344  0.1745
 4863SOL    HW126225   1.499   0.711   8.079 -0.0931 -0.3140 -1.5246
 4863SOL    HW226226   1.611   0.775   8.002  1.3193  1.0606  1.4642
 4864SOL     OW26227   1.362   3.218   9.784  0.8300 -1.0495 -0.8103
 4864SOL    HW126228   1.282   3.174   9.755 -0.1407 -1.2559  2.1914
 4864SOL    HW226229   1.320   3.300   9.810 -2.2856 -2.4419 -1.3983
 4865SOL     OW26230   1.311   4.666   5.536 -0.3121  0.2785  0.5130
 4865SOL    HW126231   1.254   4.592   5.556 -0.8058  0.0428 -1.7429
 4865SOL    HW226232   1.392   4.631   5.574 -2.4100 -4.1443  0.9398
 4866SOL     OW26233   3.084   3.420   4.628 -0.1640 -0.4943 -0.3304
 4866SOL    HW126234   3.099   3.485   4.558  5.1479  0.2259  1.4899
 4866SOL    HW226235   2.988   3.422   4.628 -0.0998  2.5381  1.4925
 4867SOL     OW26236   0.161   2.632   1.465  0.1258 -0.1428 -0.3801
 4867SOL    HW126237   0.130   2.720   1.487  0.7782  0.0565 -0.2650
 4867SOL    HW226238   0.245   2.660   1.429  0.6494  0.6615  1.4993
 4868SOL     OW26239   2.765   1.751   1.664  0.5925  0.1550 -0.0460
 4868SOL    HW126240   2.726   1.835   1.691  2.8072  0.9756  0.5657
 4868SOL    HW226241   2.857   1.769   1.680  0.9437 -1.8657  0.1529
 4869SOL     OW26242   3.067   0.176  15.443 -0.0578  0.1152  0.0319
 4869SOL    HW126243   2.987   0.156  15.395  0.2681  0.1356 -0.5225
 4869SOL    HW226244   3.092   0.099  15.494  1.2770 -0.2060 -1.1209
 4870SOL     OW26245   1.475   2.441   8.405 -0.3438  0.1581 -0.3138
 4870SOL    HW126246   1.551   2.395   8.369 -0.5001  1.5077 -2.3321
 4870SOL    HW226247   1.529   2.506   8.451  0.4438  0.6254 -1.8946
 4871SOL     OW26248   3.286   3.752   5.859  0.4631 -0.8477 -0.5745
 4871SOL    HW126249   3.256   3.759   5.768  0.8553 -2.2029 -0.8150
 4871SOL    HW226250   3.345   3.677   5.853  0.3440 -0.8261 -2.0641
 4872SOL     OW26251   0.131   3.762   9.079  0.4736  0.0604  0.0992
 4872SOL    HW126252   0.050   3.711   9.078 -0.2449  1.2523 -2.0188
 4872SOL    HW226253   0.154   3.748   9.171  0.2888  1.7161  0.3899
 4873SOL     OW26254   2.269   1.674   7.632  0.5138  0.5842  0.2947
 4873SOL    HW126255   2.190   1.719   7.603 -1.3018 -0.8317  2.9480
 4873SOL    HW226256   2.236   1.587   7.656 -2.8588  2.3074  1.8941
 4874SOL     OW26257   1.026   3.007   8.604 -0.0701  0.5042  0.0855
 4874SOL    HW126258   1.035   3.102   8.605 -1.4139  0.6307  0.6533
 4874SOL    HW226259   0.949   2.998   8.661  1.1473 -0.1456  1.6248
 4875SOL     OW26260   4.620   2.395   8.857 -0.3532 -0.7446  0.1396
 4875SOL    HW126261   4.688   2.368   8.918  0.0772  0.5163  0.2164
 4875SOL    HW226262   4.581   2.310   8.835 -0.4997 -0.0305 -2.3878
 4876SOL     OW26263   0.909   3.661   2.696  0.6953  0.0420  0.2431
 4876SOL    HW126264   0.987   3.694   2.651  0.1868 -0.1865 -0.8082
 4876SOL    HW226265   0.838   3.719   2.669 -0.6163 -1.2979  0.7785
 4877SOL     OW26266   2.782   3.353   7.564  0.3877  0.2217  0.5798
 4877SOL    HW126267   2.720   3.348   7.636  1.2831  0.4719  1.3774
 4877SOL    HW226268   2.789   3.258   7.556  1.7765  0.0665  3.6248
 4878SOL     OW26269   3.009   3.801  15.297  0.2858 -0.1511  0.3699
 4878SOL    HW126270   3.017   3.733  15.364  2.0693 -0.4022 -0.1005
 4878SOL    HW226271   2.934   3.771  15.245  0.4840  1.3274 -0.7615
 4879SOL     OW26272   1.663   1.656   8.965  0.5104 -0.5121  0.3318
 4879SOL    HW126273   1.730   1.629   8.902  0.1720 -3.2926  1.1584
 4879SOL    HW226274   1.672   1.751   8.962 -1.3238 -0.2871  2.2478
 4880SOL     OW26275   4.321   2.363   4.208  0.5474 -0.3292  0.0315
 4880SOL    HW126276   4.279   2.431   4.155  2.2779 -0.7655 -1.8939
 4880SOL    HW226277   4.360   2.309   4.139 -1.2573 -0.4899 -0.8848
 4881SOL     OW26278   1.806   4.423   7.863  0.4641 -0.0270 -0.4814
 4881SOL    HW126279   1.751   4.497   7.840  2.3022  1.2480 -0.7226
 4881SOL    HW226280   1.817   4.377   7.780  0.2033 -0.1899 -0.4272
 4882SOL     OW26281   4.642   0.382  12.460 -0.7181  0.2158  0.2506
 4882SOL    HW126282   4.712   0.330  12.500 -1.6687 -3.1031 -2.4347
 4882SOL    HW226283   4.653   0.362  12.367  1.1462  0.1861  0.4863
 4883SOL     OW26284   2.804   3.739  16.085 -0.3921  0.4754  0.2652
 4883SOL    HW126285   2.867   3.787  16.139 -0.2521  1.8967 -1.1700
 4883SOL    HW226286   2.847   3.654  16.079 -0.3849  0.4097  1.2359
 4884SOL     OW26287   3.848   0.911   9.095  0.1718 -0.2729 -0.1483
 4884SOL    HW126288   3.919   0.966   9.127 -1.3339 -0.3894  3.4354
 4884SOL    HW226289   3.787   0.916   9.169  1.4519 -0.8926  0.9355
 4885SOL     OW26290   1.193   1.791   4.292 -0.1137 -0.0559 -0.5232
 4885SOL    HW126291   1.266   1.735   4.267 -0.7462 -1.0540 -0.1439
 4885SOL    HW226292   1.236   1.876   4.295  1.1440 -0.6418 -1.8401
 4886SOL     OW26293   3.174   2.756   9.525  0.0330 -0.0726  0.0862
 4886SOL    HW126294   3.079   2.743   9.531 -0.0556  0.7155  0.4069
 4886SOL    HW226295   3.176   2.847   9.554  0.6190 -0.0131 -0.1478
 4887SOL     OW26296   2.324   2.153   5.428 -0.5563  0.1517  0.1846
 4887SOL    HW126297   2.403   2.204   5.446 -0.3914  0.0022 -0.1265
 4887SOL    HW226298   2.305   2.110   5.511 -0.2359 -0.4503 -0.0563
 4888SOL     OW26299   3.289   1.928   1.033 -0.1372  0.1631  0.5715
 4888SOL    HW126300   3.336   1.910   1.115 -0.3725  3.9082  1.5392
 4888SOL    HW226301   3.229   1.854   1.033  1.9586 -1.5320 -0.4975
 4889SOL     OW26302   1.636   0.951  17.367  0.0303  0.0850 -0.5854
 4889SOL    HW126303   1.647   1.025  17.307 -0.6073  2.0281  1.6856
 4889SOL    HW226304   1.697   0.887  17.330 -0.7763 -1.5868  0.9884
 4890SOL     OW26305   1.996   0.350   8.170  0.0586  0.0062 -0.2644
 4890SOL    HW126306   1.991   0.444   8.157 -0.7591  0.2623  1.7955
 4890SOL    HW226307   1.971   0.355   8.263  1.7227  0.5531  0.1615
 4891SOL     OW26308   4.417   1.457   8.487 -1.0638 -0.2172 -0.2267
 4891SOL    HW126309   4.363   1.487   8.560 -0.7899 -1.5158  0.5132
 4891SOL    HW226310   4.494   1.445   8.542 -1.0568  2.5766  0.3778
 4892SOL     OW26311   3.038   0.592   6.392  0.4520 -0.1199  0.1162
 4892SOL    HW126312   2.958   0.567   6.345 -1.0865  1.2276  2.0495
 4892SOL    HW226313   3.105   0.539   6.348 -1.0955 -2.3321  0.4189
 4893SOL     OW26314   3.820   2.049   2.649  0.3038  0.0535 -0.1590
 4893SOL    HW126315   3.896   2.074   2.596 -1.4448  2.1351 -1.6819
 4893SOL    HW226316   3.827   2.121   2.712 -0.1124  1.3086 -1.5287
 4894SOL     OW26317   1.972   3.085   3.890  0.5466 -0.1289  0.0620
 4894SOL    HW126318   2.019   3.131   3.959 -0.3545  3.4721 -1.7133
 4894SOL    HW226319   2.015   3.118   3.811  1.4502 -1.4437  0.0090
 4895SOL     OW26320   3.104   3.623   5.700 -0.2105  0.5797 -0.1220
 4895SOL    HW126321   3.034   3.557   5.699  1.3024 -1.0496  1.4312
 4895SOL    HW226322   3.063   3.709   5.705 -1.9416 -0.3252  1.1508
 4896SOL     OW26323   1.873   2.824   0.786  0.3333  0.3382  0.1244
 4896SOL    HW126324   1.857   2.831   0.692  3.5295  0.3663 -0.4087
 4896SOL    HW226325   1.815   2.749   0.798 -0.6742  0.9649 -0.8061
 4897SOL     OW26326   1.717   3.090   3.869 -0.3995  0.6116 -0.0955
 4897SOL    HW126327   1.810   3.094   3.892 -0.5676  0.3993  0.6037
 4897SOL    HW226328   1.722   3.067   3.776 -1.0540 -1.6172  0.4200
 4898SOL     OW26329   3.761   1.257   4.279 -0.1774 -0.0085  0.0428
 4898SOL    HW126330   3.855   1.250   4.296  0.1029  1.7372 -0.8475
 4898SOL    HW226331   3.744   1.205   4.201  0.6712 -1.1269  0.5870
 4899SOL     OW26332   0.924   4.641   5.594 -0.2717  0.1223  0.5895
 4899SOL    HW126333   0.986   4.568   5.606 -0.5677  0.0113  1.4643
 4899SOL    HW226334   0.984   4.713   5.575  2.8014 -2.4345  0.5406
 4900SOL     OW26335   4.000   2.620   7.993 -1.5299 -0.0612 -0.3543
 4900SOL    HW126336   3.982   2.539   8.041  0.2433 -0.5387 -0.4815
 4900SOL    HW226337   4.001   2.689   8.059 -1.0638 -1.2049  0.8192
 4901SOL     OW26338   3.651   4.197   5.759  0.3532  0.1792 -0.4366
 4901SOL    HW126339   3.594   4.236   5.693 -0.5255 -1.1508 -0.4527
 4901SOL    HW226340   3.619   4.107   5.755 -1.8495  0.9028  1.0688
 4902SOL     OW26341   0.578   1.970   7.167 -0.1436  0.0245 -1.3648
 4902SOL    HW126342   0.570   1.875   7.178 -0.5848  0.4379  2.1087
 4902SOL    HW226343   0.611   1.996   7.253  1.2217  0.1933 -1.9419
 4903SOL     OW26344   2.439   4.259   5.059  0.0701 -0.3565 -0.2538
 4903SOL    HW126345   2.419   4.194   4.992 -2.1312  1.8865 -1.7605
 4903SOL    HW226346   2.491   4.325   5.012  0.7737 -0.2999  0.6016
 4904SOL     OW26347   4.479   4.627  12.449 -0.1983  0.1322 -0.0105
 4904SOL    HW126348   4.405   4.600  12.504 -0.7390 -1.2883 -1.4628
 4904SOL    HW226349   4.431   4.659  12.373  0.1231 -1.1706 -0.7451
 4905SOL     OW26350   1.126   3.374   9.020 -0.7474 -0.3985 -0.1336
 4905SOL    HW126351   1.161   3.417   8.942 -1.0221  0.8075  0.4028
 4905SOL    HW226352   1.211   3.375   9.064  0.0517 -2.1984 -1.6278
 4906SOL     OW26353   3.532   0.892   4.270  0.3734 -0.1273 -0.3581
 4906SOL    HW126354   3.454   0.858   4.227  0.1311 -2.1074  1.6941
 4906SOL    HW226355   3.550   0.817   4.326 -0.0221 -0.1637 -0.2794
 4907SOL     OW26356   4.140   2.958   2.690 -0.5610  0.0700 -0.0611
 4907SOL    HW126357   4.167   2.867   2.702 -1.2358 -0.0001  0.9711
 4907SOL    HW226358   4.095   2.947   2.606 -0.5398 -2.9001  0.2936
 4908SOL     OW26359   1.006   4.109   6.622 -0.0535 -0.0253  0.5884
 4908SOL    HW126360   0.922   4.124   6.666 -0.2900 -2.5131  0.9675
 4908SOL    HW226361   1.055   4.185   6.653  0.5399  0.3610 -1.3260
 4909SOL     OW26362   1.001   4.688   1.755 -0.0816 -0.7500 -0.1520
 4909SOL    HW126363   1.036   4.627   1.690  0.1942  1.4104 -2.0391
 4909SOL    HW226364   0.938   4.732   1.698 -0.7088 -0.9304  0.4073
 4910SOL     OW26365   1.370   0.957   0.140  0.4111  0.0933  1.0240
 4910SOL    HW126366   1.420   1.036   0.161 -0.6907  1.5325 -1.7853
 4910SOL    HW226367   1.283   0.979   0.173  0.0659 -0.3207  0.3948
 4911SOL     OW26368   1.205   3.662   5.282  0.3938  0.2485 -0.1293
 4911SOL    HW126369   1.296   3.686   5.268  1.4008 -3.8826 -0.5344
 4911SOL    HW226370   1.199   3.655   5.377  0.7568 -3.4133 -0.4085
 4912SOL     OW26371   0.013   1.872   5.585 -0.9357  0.2605 -0.6670
 4912SOL    HW126372   0.099   1.912   5.572 -0.1080 -0.9401  1.1171
 4912SOL    HW226373   0.005   1.820   5.506 -0.7830  0.0222 -0.5252
 4913SOL     OW26374   2.010   1.498   5.525  0.2116 -0.6679  0.3576
 4913SOL    HW126375   2.070   1.426   5.509  0.8448 -0.0269 -0.1524
 4913SOL    HW226376   2.003   1.502   5.621  1.7134 -1.0427  0.4862
 4914SOL     OW26377   2.021   1.889   6.276 -0.0962  0.0121  0.4061
 4914SOL    HW126378   1.949   1.906   6.216 -0.5014 -1.7299  0.3883
 4914SOL    HW226379   1.965   1.872   6.351 -0.4680 -0.8472 -0.0574
 4915SOL     OW26380   4.170   2.638   9.828 -0.1694  0.0908 -0.4250
 4915SOL    HW126381   4.232   2.640   9.755  1.2343 -0.2643  0.7584
 4915SOL    HW226382   4.106   2.568   9.814  0.4371 -0.7660  1.1048
 4916SOL     OW26383   2.125   0.189  16.394  0.6988  0.3571 -0.4208
 4916SOL    HW126384   2.186   0.169  16.323  1.1649  4.6422 -1.2267
 4916SOL    HW226385   2.186   0.221  16.462  0.7246 -2.7629  1.0404
 4917SOL     OW26386   0.860   2.509   4.982 -0.1043 -0.0635  0.2337
 4917SOL    HW126387   0.913   2.586   5.004 -1.2153  0.9313 -0.5957
 4917SOL    HW226388   0.883   2.445   5.050  0.6212 -0.7524 -0.6605
 4918SOL     OW26389   4.025   0.484  13.984 -1.0729  0.0580  0.1690
 4918SOL    HW126390   4.046   0.539  14.060 -3.7023  2.6770 -0.9872
 4918SOL    HW226391   4.019   0.554  13.918  1.3907 -0.3298 -0.4855
 4919SOL     OW26392   0.882   2.898   7.538  0.1063  0.0704  0.4112
 4919SOL    HW126393   0.882   2.961   7.610 -1.3188  0.8249 -0.2479
 4919SOL    HW226394   0.956   2.841   7.556  0.0432 -0.0823  0.1855
 4920SOL     OW26395   2.161   2.136   4.057  0.0037  0.4217  0.7185
 4920SOL    HW126396   2.068   2.144   4.036  0.1465  1.1614  0.3570
 4920SOL    HW226397   2.170   2.042   4.067 -0.3345  0.3978  0.8076
 4921SOL     OW26398   1.085   1.966   7.572 -0.1577 -0.6370 -0.1684
 4921SOL    HW126399   1.075   1.995   7.663  0.4306 -0.9669  0.0023
 4921SOL    HW226400   1.016   2.016   7.528 -0.1326 -0.9296 -0.5419
 4922SOL     OW26401   0.533   1.610   6.034  0.5296 -0.4284  0.4447
 4922SOL    HW126402   0.595   1.671   6.075 -1.7697  1.2689  1.3854
 4922SOL    HW226403   0.591   1.540   6.005  0.9362 -0.6218  1.7165
 4923SOL     OW26404   1.604   3.141  15.855  0.3851  0.0245  0.1407
 4923SOL    HW126405   1.545   3.103  15.920 -0.5262  0.6139 -0.3315
 4923SOL    HW226406   1.564   3.116  15.772  0.2381 -0.0252  0.2256
 4924SOL     OW26407   4.681   0.761   7.816 -0.4340  0.1590 -0.2186
 4924SOL    HW126408   4.630   0.803   7.885 -1.6589 -2.1486  0.3007
 4924SOL    HW226409   4.668   0.821   7.743 -0.8705 -0.5399 -0.7223
 4925SOL     OW26410   3.010   3.649   4.467 -0.5076  0.6574 -0.2603
 4925SOL    HW126411   3.058   3.636   4.385 -1.7632  0.4650 -0.9617
 4925SOL    HW226412   2.996   3.743   4.476  0.4654  0.8032 -0.3083
 4926SOL     OW26413   1.751   2.755   2.384  0.1843  0.2918  0.1318
 4926SOL    HW126414   1.826   2.756   2.444  0.7205 -1.2217 -0.4933
 4926SOL    HW226415   1.782   2.682   2.330  0.7116  0.5757  0.0558
 4927SOL     OW26416   3.021   3.742   1.862  0.2915 -0.0275  0.0953
 4927SOL    HW126417   3.024   3.676   1.793  0.7880  0.6712 -0.5576
 4927SOL    HW226418   2.949   3.706   1.914  0.2571 -0.0977 -0.0004
 4928SOL     OW26419   1.022   0.892   3.055 -0.2811 -0.3106 -0.1373
 4928SOL    HW126420   0.942   0.848   3.084 -1.2260  2.6104  1.6729
 4928SOL    HW226421   1.014   0.963   3.118  2.7876  0.4896 -0.6367
 4929SOL     OW26422   0.404   2.852   7.597  0.4143 -0.1171  0.0032
 4929SOL    HW126423   0.390   2.757   7.605  0.7285  0.0240  2.1145
 4929SOL    HW226424   0.496   2.844   7.572  1.0942 -0.4845  2.5806
 4930SOL     OW26425   3.521   0.028   8.155  0.0009 -0.1455  0.2220
 4930SOL    HW126426   3.510   0.122   8.140  1.9602 -0.0772 -0.8201
 4930SOL    HW226427   3.524   0.015   8.249 -0.6211 -2.0095 -0.0090
 4931SOL     OW26428   3.271   2.124   0.340  0.4740 -0.6256  0.0148
 4931SOL    HW126429   3.344   2.176   0.376  0.8948 -0.1720 -1.4881
 4931SOL    HW226430   3.210   2.124   0.414  0.7134 -2.6133  0.2181
 4932SOL     OW26431   2.806   1.639   7.353  0.5991 -0.4188 -0.0516
 4932SOL    HW126432   2.780   1.726   7.381  0.6175  0.1117 -1.6610
 4932SOL    HW226433   2.775   1.581   7.422 -1.4142 -0.3678 -0.9108
 4933SOL     OW26434   1.493   1.407   6.849  0.4086 -0.4496 -0.8172
 4933SOL    HW126435   1.570   1.406   6.906  0.0109  0.6408 -0.2673
 4933SOL    HW226436   1.432   1.393   6.921  1.0384  1.4468  0.0913
 4934SOL     OW26437   3.218   0.442   5.023  0.1522  0.3474  0.0515
 4934SOL    HW126438   3.217   0.346   5.021 -2.7230  0.3506  1.2135
 4934SOL    HW226439   3.235   0.460   5.116  1.8240 -0.2093 -0.1345
 4935SOL     OW26440   1.076   2.205  14.131 -0.1518 -0.3469  0.5438
 4935SOL    HW126441   1.059   2.289  14.090  0.9921  0.5395  1.8855
 4935SOL    HW226442   0.997   2.191  14.184  1.1450 -0.2688  2.5198
 4936SOL     OW26443   0.560   2.804   7.858 -0.0259 -0.0649 -0.3989
 4936SOL    HW126444   0.466   2.810   7.841  0.1572  2.1764 -0.6138
 4936SOL    HW226445   0.599   2.829   7.775 -0.3308  0.5304 -0.3591
 4937SOL     OW26446   0.080   2.078  11.965  0.0987  0.1791  0.7960
 4937SOL    HW126447   0.102   1.998  12.012 -0.9096 -0.5005  0.1219
 4937SOL    HW226448   4.733   2.054  11.933 -0.0019 -0.0888  1.2854
 4938SOL     OW26449   4.360   0.728   9.160 -0.4099  0.1243 -0.2108
 4938SOL    HW126450   4.282   0.694   9.202  0.6978 -0.6519  1.2016
 4938SOL    HW226451   4.319   0.787   9.097  1.7986  0.7129 -1.1238
 4939SOL     OW26452   3.015   2.157   7.145 -0.0518  0.7468  0.4231
 4939SOL    HW126453   3.083   2.224   7.141 -1.0953  1.8069  0.3006
 4939SOL    HW226454   2.933   2.207   7.150 -0.0751  0.5703  1.8187
 4940SOL     OW26455   2.008   3.269   9.178 -0.0495 -0.4687 -0.4069
 4940SOL    HW126456   2.067   3.324   9.230  0.0308  0.5007 -1.5184
 4940SOL    HW226457   2.072   3.245   9.111 -0.3856 -2.4298 -0.0494
 4941SOL     OW26458   3.978   3.570   6.722  0.4296  0.3864 -0.7946
 4941SOL    HW126459   3.967   3.664   6.709 -0.2370  0.4236  0.0199
 4941SOL    HW226460   4.071   3.562   6.743  0.0539 -0.4729  0.5148
 4942SOL     OW26461   2.638   4.260   4.228  0.0721 -0.2202  0.2648
 4942SOL    HW126462   2.608   4.262   4.319 -2.1432 -0.1929 -0.4550
 4942SOL    HW226463   2.677   4.344   4.207  1.0636 -1.5797 -3.2401
 4943SOL     OW26464   3.711   3.508   8.210  0.1607  0.6369 -0.0037
 4943SOL    HW126465   3.765   3.434   8.238 -0.0912  0.1802 -0.7196
 4943SOL    HW226466   3.704   3.555   8.293 -1.7971  0.5668 -0.1294
 4944SOL     OW26467   1.377   4.637   4.131 -0.4478 -0.3961  0.1409
 4944SOL    HW126468   1.394   4.566   4.192  0.3883 -0.4527 -0.1533
 4944SOL    HW226469   1.290   4.619   4.097 -0.8396  2.9863 -0.6935
 4945SOL     OW26470   1.382   0.246  17.291 -0.1523 -0.9605 -0.0124
 4945SOL    HW126471   1.326   0.254  17.367  0.8326 -2.4170  0.8506
 4945SOL    HW226472   1.379   0.335  17.253  0.7560 -0.9825 -0.1438
 4946SOL     OW26473   4.555   1.460  17.497  0.1789 -0.0529  0.0958
 4946SOL    HW126474   4.519   1.466  17.408  1.8673  1.8595 -0.4765
 4946SOL    HW226475   4.478   1.484  17.547  2.2089  0.7897  2.8381
 4947SOL     OW26476   2.707   1.918  17.083  0.1616  0.1232 -0.1210
 4947SOL    HW126477   2.800   1.937  17.068  0.0450  0.3927 -0.4730
 4947SOL    HW226478   2.722   1.862  17.160 -0.9016  0.7180  0.5116
 4948SOL     OW26479   1.020   1.894   9.656 -0.8287  0.2110 -0.3233
 4948SOL    HW126480   1.023   1.815   9.711 -1.7287 -0.2908 -0.9943
 4948SOL    HW226481   1.111   1.920   9.670 -1.0846  1.0178 -0.1486
 4949SOL     OW26482   1.273   4.491   7.829 -0.3298 -0.0377 -0.1992
 4949SOL    HW126483   1.236   4.574   7.799  0.4780 -0.3822 -2.1608
 4949SOL    HW226484   1.191   4.448   7.855  0.2660 -0.3199  1.2178
 4950SOL     OW26485   0.454   3.764  15.562  0.6495 -0.0192  0.6876
 4950SOL    HW126486   0.372   3.806  15.588 -0.1866 -1.8262  0.9249
 4950SOL    HW226487   0.412   3.695  15.511  1.0890 -1.1159  1.8225
 4951SOL     OW26488   3.511   4.720   7.631 -0.0893 -0.1213  0.2390
 4951SOL    HW126489   3.592   0.019   7.602  1.1108 -0.4299  3.0979
 4951SOL    HW226490   3.456   4.724   7.553  2.6909  0.6852 -1.6463
 4952SOL     OW26491   4.671   0.659  12.848  0.2904 -0.4133  0.3706
 4952SOL    HW126492   4.663   0.564  12.849  1.1174 -0.5218 -2.2388
 4952SOL    HW226493   4.670   0.667  12.753 -1.5035 -2.3314  0.2271
 4953SOL     OW26494   1.531   0.217   7.490 -0.5803 -0.3799  0.7625
 4953SOL    HW126495   1.446   0.199   7.531 -0.5487 -0.9422  0.5847
 4953SOL    HW226496   1.509   0.208   7.397  1.8469  1.4421  0.0153
 4954SOL     OW26497   4.256   1.744  17.302 -0.1745 -0.7090  0.0351
 4954SOL    HW126498   4.351   1.746  17.306 -0.2370  0.8152  0.6644
 4954SOL    HW226499   4.241   1.699  17.219 -1.0580 -1.7834  0.7633
 4955SOL     OW26500   3.265   2.936   9.900 -0.0531  0.3196 -0.5051
 4955SOL    HW126501   3.327   3.005   9.923  1.0884 -1.3938  1.5374
 4955SOL    HW226502   3.232   2.968   9.816 -0.3801  1.3016 -0.0033
 4956SOL     OW26503   0.940   2.765  12.695  0.0329 -0.1828  0.1667
 4956SOL    HW126504   0.996   2.701  12.739  0.5928 -0.5804 -1.1197
 4956SOL    HW226505   1.001   2.782  12.623  1.0278  0.9600  1.2868
 4957SOL     OW26506   0.081   2.068   8.935  0.0120  0.5075  0.5985
 4957SOL    HW126507   0.074   2.154   8.978 -2.1312  0.5241  0.2016
 4957SOL    HW226508   0.142   2.035   9.000  0.4147  0.3674  0.1504
 4958SOL     OW26509   1.344   2.344  17.368 -0.5852 -0.4332 -0.3815
 4958SOL    HW126510   1.427   2.363  17.324  0.0139 -0.1569  0.8708
 4958SOL    HW226511   1.300   2.426  17.345  0.9125  0.9626  1.8370
 4959SOL     OW26512   3.628   3.796   2.995 -0.5509 -0.1060 -0.2148
 4959SOL    HW126513   3.722   3.794   2.973 -0.6435 -0.3714 -0.5953
 4959SOL    HW226514   3.600   3.836   2.912  1.5647  3.5220  0.8063
 4960SOL     OW26515   0.867   1.894   8.642  0.1087 -0.0105  0.3995
 4960SOL    HW126516   0.868   1.799   8.639  1.1076 -0.0203  0.9987
 4960SOL    HW226517   0.927   1.927   8.709  0.1415  2.2610 -0.7612
 4961SOL     OW26518   2.474   2.610  13.739 -0.4316 -0.0822 -1.1836
 4961SOL    HW126519   2.555   2.599  13.789 -0.5770 -0.8030 -1.1071
 4961SOL    HW226520   2.452   2.522  13.709 -0.1025 -0.5168 -0.1691
 4962SOL     OW26521   0.472   0.656   3.255 -0.4560  0.3764 -0.5414
 4962SOL    HW126522   0.561   0.621   3.260 -0.4059  0.7073  0.7845
 4962SOL    HW226523   0.450   0.682   3.344  0.6452 -0.3869 -0.0541
 4963SOL     OW26524   0.157   1.113  13.384 -0.1490 -0.3259 -0.0276
 4963SOL    HW126525   0.224   1.045  13.376 -0.0274 -0.1931 -0.1324
 4963SOL    HW226526   0.092   1.082  13.320  0.4420 -0.4046 -0.5940
 4964SOL     OW26527   2.701   4.477   3.557  0.1640 -0.0835  0.0686
 4964SOL    HW126528   2.622   4.508   3.602  1.3926  3.1347  0.0339
 4964SOL    HW226529   2.706   4.390   3.596 -1.3356  0.5515  1.6985
 4965SOL     OW26530   2.501   3.158   3.845 -0.6380 -0.0907 -0.3574
 4965SOL    HW126531   2.449   3.208   3.783 -0.0141 -0.8699 -1.4946
 4965SOL    HW226532   2.441   3.091   3.880 -0.5044 -0.4783 -0.8825
 4966SOL     OW26533   3.298   0.532  13.797 -0.1180  0.5503  0.1172
 4966SOL    HW126534   3.340   0.582  13.727 -1.4871 -1.3102 -2.0334
 4966SOL    HW226535   3.355   0.563  13.867 -0.8996  2.5957 -0.1538
 4967SOL     OW26536   0.715   3.555   5.854 -0.1043  0.2705  0.3634
 4967SOL    HW126537   0.632   3.509   5.836 -0.4959  1.5425 -1.1200
 4967SOL    HW226538   0.765   3.482   5.890 -2.4305 -0.5409  1.9442
 4968SOL     OW26539   1.923   0.240  16.676 -0.1021 -0.2098  0.1641
 4968SOL    HW126540   1.953   0.331  16.674 -1.6666  0.1909 -3.4985
 4968SOL    HW226541   1.912   0.229  16.582  0.4242  1.4058 -0.0833
 4969SOL     OW26542   2.048   3.985  16.874 -0.0710  0.3730 -0.1880
 4969SOL    HW126543   2.022   3.912  16.818  0.3673  0.3365 -0.3491
 4969SOL    HW226544   2.003   3.960  16.955 -1.1123  1.4950 -0.4404
 4970SOL     OW26545   3.526   3.863   2.202  0.2262  0.3085 -0.2796
 4970SOL    HW126546   3.529   3.791   2.264  0.4636  1.2644  0.8169
 4970SOL    HW226547   3.605   3.915   2.219 -0.8908  1.8564  0.1902
 4971SOL     OW26548   1.334   2.501   4.173 -0.0467  0.3470 -0.2056
 4971SOL    HW126549   1.383   2.575   4.210  2.1113 -2.1004  1.7352
 4971SOL    HW226550   1.372   2.426   4.218  0.0090  0.9374  0.7295
 4972SOL     OW26551   0.252   2.632  11.559  0.1982 -0.4852  0.4213
 4972SOL    HW126552   0.179   2.688  11.535  1.2622  1.0646  0.7783
 4972SOL    HW226553   0.207   2.578  11.624  2.2883 -1.7356  0.8248
 4973SOL     OW26554   2.252   0.123   6.888  0.3280  0.0594 -0.5627
 4973SOL    HW126555   2.253   0.163   6.976  0.4810  0.2209 -0.6386
 4973SOL    HW226556   2.159   0.125   6.864 -0.5523  0.5247  2.7709
 4974SOL     OW26557   1.236   1.437  10.963 -0.0001 -0.4315 -0.5574
 4974SOL    HW126558   1.213   1.434  10.870 -0.5994  1.0499 -0.4591
 4974SOL    HW226559   1.244   1.344  10.982 -0.0185  0.0444  1.7426
 4975SOL     OW26560   0.592   0.945   4.497  0.6951  0.0436 -0.6547
 4975SOL    HW126561   0.625   1.032   4.475 -0.5915 -0.2147 -3.7104
 4975SOL    HW226562   0.638   0.892   4.432  1.8993 -1.1691  1.1913
 4976SOL     OW26563   3.710   3.963  17.562 -0.0932 -0.5158 -0.3084
 4976SOL    HW126564   3.702   3.877  17.521 -0.4448 -1.9101  2.6879
 4976SOL    HW226565   3.729   3.947  17.655  0.8937  2.0627 -0.0607
 4977SOL     OW26566   3.111   2.841  16.452  0.2880  0.0388 -0.0795
 4977SOL    HW126567   3.107   2.838  16.547  0.8365  0.8339 -0.0278
 4977SOL    HW226568   3.152   2.926  16.435  1.6073 -1.1602 -2.9087
 4978SOL     OW26569   0.343   4.508   3.663  0.3291  0.5216 -0.4515
 4978SOL    HW126570   0.388   4.582   3.622  1.4310  0.1674  0.1098
 4978SOL    HW226571   0.331   4.444   3.592 -1.3841 -1.0012  1.2394
 4979SOL     OW26572   3.463   0.748   2.626 -0.2071 -0.3365 -0.2211
 4979SOL    HW126573   3.510   0.762   2.708  0.5737 -1.6751 -0.4497
 4979SOL    HW226574   3.528   0.753   2.556  0.2954 -1.7274  0.1346
 4980SOL     OW26575   1.209   1.904  14.861 -0.3572  0.1663 -0.5135
 4980SOL    HW126576   1.305   1.904  14.865 -0.5066 -2.8981  2.9895
 4980SOL    HW226577   1.185   1.992  14.833 -2.4947  0.6037  2.7081
 4981SOL     OW26578   4.179   3.284   2.056  0.0538 -0.0251 -0.1966
 4981SOL    HW126579   4.253   3.342   2.040 -2.7549  3.3068 -1.1375
 4981SOL    HW226580   4.111   3.350   2.041  0.5238  0.3695 -0.6026
 4982SOL     OW26581   2.127   0.271   7.188 -0.0361  0.1966  0.3204
 4982SOL    HW126582   2.032   0.276   7.198 -0.0752 -0.9461  0.5558
 4982SOL    HW226583   2.143   0.176   7.193 -0.0660 -0.0209 -3.2366
 4983SOL     OW26584   1.576   2.439   5.195  0.1567  0.2611  0.4394
 4983SOL    HW126585   1.496   2.447   5.247  0.0485  1.3141  0.1048
 4983SOL    HW226586   1.540   2.412   5.110  0.8232  1.0918 -0.1101
 4984SOL     OW26587   0.906   0.028   7.829  0.0325 -0.3423  0.1382
 4984SOL    HW126588   0.894   0.097   7.894  1.2643 -1.7963  1.9002
 4984SOL    HW226589   0.820   0.036   7.787 -0.2156 -1.1171  0.4950
 4985SOL     OW26590   1.880   4.392   8.563  0.4462 -0.3215 -0.1145
 4985SOL    HW126591   1.862   4.483   8.585  3.2354  0.7985 -2.5416
 4985SOL    HW226592   1.855   4.350   8.646 -0.7024 -0.6237 -0.6153
 4986SOL     OW26593   2.716   2.611   5.987 -0.0680 -0.0826  0.2632
 4986SOL    HW126594   2.683   2.532   6.031  0.0338 -0.7760 -0.9080
 4986SOL    HW226595   2.805   2.603   6.023 -0.7992  1.8371  2.5363
 4987SOL     OW26596   3.679   4.124  11.995 -0.2829 -0.6460 -0.5752
 4987SOL    HW126597   3.635   4.116  12.080  0.5876  0.0985 -0.0640
 4987SOL    HW226598   3.735   4.048  12.011 -0.5886 -0.7093  0.2016
 4988SOL     OW26599   0.803   2.580  16.219 -0.2466  0.3091  0.2022
 4988SOL    HW126600   0.776   2.585  16.127  0.2958  0.4300  0.0499
 4988SOL    HW226601   0.893   2.612  16.215  0.2564 -1.1008  0.2704
 4989SOL     OW26602   1.012   2.890   9.874  0.0540  0.2763  0.1134
 4989SOL    HW126603   1.056   2.896   9.959  2.0799 -2.7777 -0.7286
 4989SOL    HW226604   0.983   2.800   9.886 -0.7829  0.6371  0.7760
 4990SOL     OW26605   3.049   0.270   7.286  0.1758  0.4322 -0.2000
 4990SOL    HW126606   3.086   0.344   7.334 -1.8576  0.7760  0.8334
 4990SOL    HW226607   3.054   0.200   7.352 -1.4101  0.0264 -0.5124
 4991SOL     OW26608   2.094   4.205   7.211  0.4130 -0.2662  0.0837
 4991SOL    HW126609   2.058   4.187   7.298 -2.3676  2.7860 -0.4528
 4991SOL    HW226610   2.011   4.200   7.164  1.0110 -1.3898 -0.8473
 4992SOL     OW26611   0.796   0.761   5.720 -0.1268  0.1999  0.1613
 4992SOL    HW126612   0.756   0.847   5.704 -4.1944 -1.6533  0.2675
 4992SOL    HW226613   0.888   0.786   5.725 -0.1332  0.3861 -0.6661
 4993SOL     OW26614   2.757   4.230   6.470  0.4821  0.0534  0.0745
 4993SOL    HW126615   2.735   4.180   6.549 -0.7941 -1.4389 -1.2148
 4993SOL    HW226616   2.691   4.193   6.411 -1.0348  0.3917  1.5365
 4994SOL     OW26617   3.809   1.979   2.233  0.0837  0.2087 -0.6817
 4994SOL    HW126618   3.813   1.934   2.149  0.2872 -2.5586  0.8034
 4994SOL    HW226619   3.895   1.971   2.273  0.4637 -2.1475 -2.0181
 4995SOL     OW26620   1.340   0.682   3.731 -0.7225 -0.8312  0.9792
 4995SOL    HW126621   1.392   0.705   3.808  0.9216 -0.8819 -0.1122
 4995SOL    HW226622   1.254   0.714   3.759 -0.4967  1.8125 -1.3322
 4996SOL     OW26623   2.056   0.595   3.118  0.1861 -0.1931  0.0894
 4996SOL    HW126624   1.971   0.578   3.077  0.0083  2.5367 -0.6391
 4996SOL    HW226625   2.084   0.504   3.127  0.7971 -0.0636 -0.5343
 4997SOL     OW26626   2.667   2.048   3.171 -0.0192 -0.4385 -0.2140
 4997SOL    HW126627   2.684   2.052   3.266  3.7023 -0.5504 -0.8683
 4997SOL    HW226628   2.755   2.076   3.144  1.2137 -1.5379  2.5357
 4998SOL     OW26629   2.871   1.016   8.105  0.5769  0.0727 -0.4429
 4998SOL    HW126630   2.865   0.987   8.196  0.3942 -0.0543 -0.4962
 4998SOL    HW226631   2.835   0.939   8.062 -1.2034 -0.2775  1.6929
 4999SOL     OW26632   0.276   3.113   2.612  0.0215  0.3773  0.3495
 4999SOL    HW126633   0.254   3.105   2.705  3.2703  2.3266  1.2597
 4999SOL    HW226634   0.367   3.140   2.618  0.3298 -0.9708  1.8068
 5000SOL     OW26635   1.841   0.600  12.851 -0.4486 -0.7773 -0.4154
 5000SOL    HW126636   1.860   0.591  12.758  1.1716 -1.6995  0.0098
 5000SOL    HW226637   1.788   0.680  12.848  0.2481 -0.3262 -0.6587
 5001SOL     OW26638   4.276   2.945   3.390 -0.3060  0.0105  0.3991
 5001SOL    HW126639   4.201   2.993   3.354 -2.1417 -1.5796  2.0781
 5001SOL    HW226640   4.242   2.856   3.388  0.3211 -0.2370  0.8812
 5002SOL     OW26641   4.681   1.237   8.872 -0.2587 -0.0060 -0.4844
 5002SOL    HW126642   0.004   1.168   8.854  0.6708  0.4252  1.2193
 5002SOL    HW226643   4.724   1.290   8.938 -1.9798  1.6036 -0.6640
 5003SOL     OW26644   1.834   3.885   4.990  0.0882  0.1093 -0.1034
 5003SOL    HW126645   1.867   3.920   5.073  0.5077 -0.6663  0.0548
 5003SOL    HW226646   1.903   3.819   4.995  0.3908  0.5086  0.8915
 5004SOL     OW26647   4.011   4.209   7.258 -0.0877  0.5313 -0.3625
 5004SOL    HW126648   3.945   4.264   7.215 -1.3182  0.6522  1.6883
 5004SOL    HW226649   3.951   4.148   7.300 -1.8817  2.6533  0.1832
 5005SOL     OW26650   0.267   0.045   2.752 -0.2393  0.5018 -0.3658
 5005SOL    HW126651   0.280   0.058   2.658 -1.1838  0.8556 -0.4525
 5005SOL    HW226652   0.241   4.694   2.750  0.5587  0.2400  1.3983
 5006SOL     OW26653   3.297   4.514   6.578 -0.5675 -0.0330  0.9129
 5006SOL    HW126654   3.273   4.428   6.542  1.3163  0.1624 -0.7691
 5006SOL    HW226655   3.242   4.532   6.654 -1.1991 -1.0328  0.7003
 5007SOL     OW26656   1.645   0.190   3.492  0.2661  0.3761  0.1616
 5007SOL    HW126657   1.704   0.237   3.550  1.0385  1.3594 -1.4310
 5007SOL    HW226658   1.660   0.236   3.409  1.1454  1.0972  0.7316
 5008SOL     OW26659   4.339   1.609   4.263  0.2565 -0.5038  0.0213
 5008SOL    HW126660   4.425   1.571   4.280 -0.9959 -4.5465 -2.7881
 5008SOL    HW226661   4.342   1.631   4.170 -1.1511 -2.4682 -0.4679
 5009SOL     OW26662   2.923   2.351   1.987 -0.1389  0.2045  0.3123
 5009SOL    HW126663   2.962   2.270   2.018 -0.2594  1.0879  2.7336
 5009SOL    HW226664   2.944   2.410   2.059  0.3644  0.0652  0.2818
 5010SOL     OW26665   3.385   3.461   7.425  0.1116  0.3597  0.4400
 5010SOL    HW126666   3.420   3.425   7.344  0.6097  0.9518  0.3959
 5010SOL    HW226667   3.291   3.476   7.411  0.0002 -2.1153 -1.4451
 5011SOL     OW26668   0.058   4.536   8.062  0.4884  0.4384  0.3429
 5011SOL    HW126669   4.724   4.504   8.011  1.7316 -2.7797  0.5858
 5011SOL    HW226670   0.019   4.615   8.101  0.6112  1.0680 -0.7825
 5012SOL     OW26671   2.403   0.613   5.438  0.7030  0.3834  0.1274
 5012SOL    HW126672   2.368   0.651   5.519  0.9837  1.5344 -0.2875
 5012SOL    HW226673   2.366   0.671   5.372  1.0158  1.7700  1.1612
 5013SOL     OW26674   3.613   2.202   9.614 -0.5020  0.4379 -0.1575
 5013SOL    HW126675   3.598   2.231   9.524 -1.4074  1.6527  0.3787
 5013SOL    HW226676   3.607   2.106   9.615  1.0920  0.3552  3.1484
 5014SOL     OW26677   1.483   4.177   2.324 -0.1824 -0.1686 -0.3570
 5014SOL    HW126678   1.554   4.115   2.306  0.7218  0.9619 -0.6515
 5014SOL    HW226679   1.471   4.176   2.419 -1.0871  2.1268 -0.4457
 5015SOL     OW26680   4.377   4.640   7.451 -0.0211 -0.5699 -0.2059
 5015SOL    HW126681   4.330   4.628   7.533 -1.1982  1.2367 -0.6158
 5015SOL    HW226682   4.467   4.652   7.480 -0.2818 -0.4399  0.5318
 5016SOL     OW26683   2.740   4.645   2.879  0.4549 -0.2911  0.0731
 5016SOL    HW126684   2.745   4.549   2.878  0.2250 -0.2619 -3.2958
 5016SOL    HW226685   2.833   4.668   2.885  0.3373  0.0348  0.6406
 5017SOL     OW26686   2.599   0.027   3.652  0.1663  1.0004  0.3076
 5017SOL    HW126687   2.507   0.020   3.679  0.3969  0.6532  0.9845
 5017SOL    HW226688   2.579   0.064   3.566  0.4100 -1.3570 -0.7586
 5018SOL     OW26689   3.234   3.011   1.105 -0.5781 -0.2052 -0.1778
 5018SOL    HW126690   3.318   3.035   1.145 -0.4548 -0.4529 -0.2842
 5018SOL    HW226691   3.179   3.083   1.135  0.5739  2.0512 -3.4473
 5019SOL     OW26692   1.011   3.500   4.981  0.1835 -0.0674 -0.8972
 5019SOL    HW126693   1.055   3.584   4.993 -0.2636 -0.0036  0.2797
 5019SOL    HW226694   0.932   3.514   4.929  0.8463  1.5099 -1.4743
 5020SOL     OW26695   2.729   0.052   6.928 -0.2379  0.0713  0.4300
 5020SOL    HW126696   2.794   4.739   6.883 -1.7524 -1.8366  0.5151
 5020SOL    HW226697   2.748   0.023   7.017  0.7660 -1.2158 -0.1955
 5021SOL     OW26698   1.392   3.218  17.291 -0.3845 -0.0882  0.2168
 5021SOL    HW126699   1.332   3.188  17.223  0.8068 -0.6208 -0.5857
 5021SOL    HW226700   1.387   3.155  17.363  0.7984  0.0290  0.4051
 5022SOL     OW26701   3.488   2.847   9.010  0.1286 -0.0686  0.1112
 5022SOL    HW126702   3.400   2.809   9.021 -0.1278  0.5953  0.3075
 5022SOL    HW226703   3.471   2.940   8.999  1.5460  0.1290 -0.3672
 5023SOL     OW26704   0.202   0.039   9.833  0.1933 -0.2960  0.4030
 5023SOL    HW126705   0.228   0.127   9.806  0.0270 -0.3205  0.1639
 5023SOL    HW226706   0.111   0.034   9.804 -0.1883  2.2159  1.1030
 5024SOL     OW26707   2.310   1.178  16.003  0.1736  0.1146 -0.3038
 5024SOL    HW126708   2.316   1.137  15.916  0.7956  2.5829 -1.4502
 5024SOL    HW226709   2.285   1.268  15.981 -2.3953  0.0448  2.4391
 5025SOL     OW26710   0.058   1.666   1.503 -0.4307 -0.3727  0.5073
 5025SOL    HW126711   0.045   1.755   1.535  0.8875  0.4274 -1.1718
 5025SOL    HW226712   0.147   1.671   1.467 -0.6513 -0.0607  0.0211
 5026SOL     OW26713   4.191   2.618   4.050  0.1716  0.4385 -0.5336
 5026SOL    HW126714   4.135   2.678   4.000 -1.7171 -0.5351  0.4027
 5026SOL    HW226715   4.250   2.592   3.979  1.5670 -0.1339  0.8491
 5027SOL     OW26716   4.154   1.372   4.069 -0.2991  0.0253 -0.5943
 5027SOL    HW126717   4.129   1.446   4.013  0.0778  0.3591 -0.3210
 5027SOL    HW226718   4.113   1.405   4.149  1.1401  2.0561 -0.6915
 5028SOL     OW26719   0.398   0.732   1.492 -0.2148 -0.1816 -0.2443
 5028SOL    HW126720   0.445   0.649   1.484 -0.0901 -0.0951 -0.3988
 5028SOL    HW226721   0.364   0.744   1.403  0.2336 -1.3953 -0.5851
 5029SOL     OW26722   3.616   3.400   7.259 -0.2926  0.6597  0.0877
 5029SOL    HW126723   3.602   3.432   7.170 -1.9439  0.1297  0.1491
 5029SOL    HW226724   3.705   3.364   7.262 -0.0071  1.0483 -4.0714
 5030SOL     OW26725   3.963   1.579   9.715  0.3800  0.0259  0.0996
 5030SOL    HW126726   4.001   1.492   9.700  2.0291  0.6639  0.5971
 5030SOL    HW226727   3.960   1.570   9.811 -0.0478 -1.2968 -0.0352
 5031SOL     OW26728   3.168   0.590   9.962 -0.0311  0.0454 -0.5232
 5031SOL    HW126729   3.221   0.598  10.041 -5.1065 -0.6775  2.9537
 5031SOL    HW226730   3.227   0.616   9.891  1.1015 -1.2289 -0.0455
 5032SOL     OW26731   0.288   4.476   0.837 -0.0608 -0.9228 -0.0918
 5032SOL    HW126732   0.285   4.380   0.839  1.4570 -0.9408  1.4675
 5032SOL    HW226733   0.294   4.493   0.743  0.9361 -0.0449  0.1359
 5033SOL     OW26734   2.467   2.549   6.713  0.4000 -0.4210  0.0326
 5033SOL    HW126735   2.432   2.493   6.643  1.0400  0.7910 -1.2352
 5033SOL    HW226736   2.484   2.629   6.664 -1.7399 -0.7125 -1.1946
 5034SOL     OW26737   0.580   4.162   0.647 -0.5598  0.3708 -0.4807
 5034SOL    HW126738   0.623   4.078   0.633 -0.8764 -0.1172  1.4658
 5034SOL    HW226739   0.640   4.217   0.598 -1.0235  0.5374 -0.8653
 5035SOL     OW26740   3.364   3.646   9.529  0.0111  0.4859 -0.7377
 5035SOL    HW126741   3.394   3.727   9.571  1.2793  1.2516 -3.0952
 5035SOL    HW226742   3.380   3.575   9.592 -0.9395  0.4846 -0.4986
 5036SOL     OW26743   0.425   0.920   5.118  0.9516  0.0717  0.2636
 5036SOL    HW126744   0.387   0.988   5.062  0.5727  0.1864  0.6658
 5036SOL    HW226745   0.368   0.949   5.189  0.8198  0.0227  0.1787
 5037SOL     OW26746   3.359   3.456  16.313 -0.0673  0.1114 -0.2310
 5037SOL    HW126747   3.380   3.408  16.393 -0.7372 -2.3729 -1.5682
 5037SOL    HW226748   3.282   3.413  16.277  0.1474 -0.2071 -0.3182
 5038SOL     OW26749   1.358   1.999   5.488 -0.4044  0.1001  0.0868
 5038SOL    HW126750   1.374   1.909   5.460 -1.0748  0.5126 -1.6135
 5038SOL    HW226751   1.435   2.051   5.463 -0.4136  0.2897  0.4523
 5039SOL     OW26752   1.288   3.320   9.377  0.0378 -0.1789  0.4222
 5039SOL    HW126753   1.202   3.280   9.387 -0.8258  1.3789 -0.6354
 5039SOL    HW226754   1.268   3.398   9.429 -0.0356  0.4489 -0.5269
 5040SOL     OW26755   3.544   1.649   8.591 -0.0905  0.0100 -1.0408
 5040SOL    HW126756   3.540   1.644   8.687 -0.9195 -1.8862 -1.1821
 5040SOL    HW226757   3.452   1.632   8.573  0.4175 -1.6357 -2.0172
 5041SOL     OW26758   4.122   1.945  15.338 -0.5085  0.2193  0.4039
 5041SOL    HW126759   4.195   2.002  15.364  0.1025  0.2868 -1.4761
 5041SOL    HW226760   4.048   1.983  15.387 -0.8420  2.4009 -1.7635
 5042SOL     OW26761   2.871   3.946  17.011 -0.4474  0.2367  0.1506
 5042SOL    HW126762   2.855   4.039  17.029 -0.7915 -0.2312  2.3230
 5042SOL    HW226763   2.914   3.916  17.091  1.5122 -1.6379 -1.5964
 5043SOL     OW26764   4.038   2.738   7.170 -0.5377 -0.0343 -0.7920
 5043SOL    HW126765   4.038   2.672   7.239  1.0484 -1.6362 -2.3307
 5043SOL    HW226766   4.047   2.683   7.091  0.4893  1.2110 -1.5388
 5044SOL     OW26767   1.769   1.821   3.893  0.0649 -0.2143 -0.1932
 5044SOL    HW126768   1.714   1.881   3.843  0.9421 -1.5288 -2.7470
 5044SOL    HW226769   1.741   1.833   3.984 -1.4055  1.2608 -0.8569
 5045SOL     OW26770   1.164   2.731   2.140 -0.2946  0.0649 -0.7757
 5045SOL    HW126771   1.154   2.636   2.151 -2.2457  0.6416  2.2205
 5045SOL    HW226772   1.176   2.752   2.233 -0.0541  0.2548 -0.8506
 5046SOL     OW26773   1.544   3.718  13.672  0.6844  0.0209 -0.0104
 5046SOL    HW126774   1.494   3.796  13.698  0.2143 -0.6655  1.1031
 5046SOL    HW226775   1.606   3.709  13.744  2.0154 -0.9608 -1.2758
 5047SOL     OW26776   4.050   4.197   3.879 -0.2374  0.1423 -0.3723
 5047SOL    HW126777   4.056   4.269   3.941 -0.9531 -0.7023  0.6895
 5047SOL    HW226778   3.955   4.194   3.869 -0.2923 -2.5267  0.9284
 5048SOL     OW26779   0.881   4.684   8.945 -0.4280  0.3748 -0.4723
 5048SOL    HW126780   0.815   4.672   8.876 -0.0581  2.1039 -1.1221
 5048SOL    HW226781   0.841   4.638   9.020 -2.9237  2.5133 -0.4756
 5049SOL     OW26782   4.330   3.859  10.280 -0.5095 -0.4870  0.9236
 5049SOL    HW126783   4.299   3.850  10.370  1.6495 -1.3331  1.5591
 5049SOL    HW226784   4.268   3.924  10.246 -0.2604 -0.7965 -0.1138
 5050SOL     OW26785   0.439   3.760  14.194  0.1046  0.4228 -0.0756
 5050SOL    HW126786   0.502   3.706  14.242 -0.4467  0.0056  0.1779
 5050SOL    HW226787   0.403   3.822  14.257  0.1865  0.0524  0.3350
 5051SOL     OW26788   2.187   2.633  15.511 -0.4792 -0.1831  0.0222
 5051SOL    HW126789   2.114   2.664  15.457 -1.2301  1.6732  2.1025
 5051SOL    HW226790   2.263   2.666  15.464 -1.2968  2.7232  0.7338
 5052SOL     OW26791   1.557   2.613  16.927 -0.1564  0.1977 -0.1900
 5052SOL    HW126792   1.478   2.621  16.874 -0.3853  0.6812  0.2259
 5052SOL    HW226793   1.592   2.702  16.932  1.7780 -0.5775  0.2758
 5053SOL     OW26794   4.221   4.415   4.942 -0.1787  0.1699  0.0666
 5053SOL    HW126795   4.158   4.344   4.951 -0.4938  0.5198  0.6550
 5053SOL    HW226796   4.257   4.420   5.031 -2.3236  2.1286  0.8410
 5054SOL     OW26797   3.692   0.501   4.237  0.5407 -0.0934 -0.4298
 5054SOL    HW126798   3.750   0.432   4.204 -0.4635 -2.0416  1.8686
 5054SOL    HW226799   3.621   0.451   4.277  1.4683 -0.9290  0.1793
 5055SOL     OW26800   3.573   4.104   4.391 -0.3493 -0.1683 -0.6437
 5055SOL    HW126801   3.662   4.085   4.361  0.1621 -0.3221  0.9197
 5055SOL    HW226802   3.519   4.087   4.314  0.1625 -0.6675 -0.8904
 5056SOL     OW26803   0.231   3.484   1.314  0.3430 -0.5311 -0.0423
 5056SOL    HW126804   0.308   3.538   1.330  1.2634 -1.6399 -0.7124
 5056SOL    HW226805   0.179   3.482   1.394  1.4023 -0.7472  0.6388
 5057SOL     OW26806   1.437   0.749   3.987 -0.5073 -0.5802  0.3920
 5057SOL    HW126807   1.364   0.808   4.007 -0.6928 -0.2595 -1.2830
 5057SOL    HW226808   1.416   0.668   4.035 -0.6154 -0.1216  1.1197
 5058SOL     OW26809   4.018   1.661   2.358  0.5463 -0.0572  0.5234
 5058SOL    HW126810   3.935   1.699   2.387  0.4637  0.3535 -0.2500
 5058SOL    HW226811   4.083   1.715   2.405  2.6609 -0.8365 -1.5362
 5059SOL     OW26812   0.657   1.128   5.454  0.3057 -0.0704 -0.3339
 5059SOL    HW126813   0.696   1.145   5.368 -2.4886  0.7834 -1.4222
 5059SOL    HW226814   0.582   1.187   5.449  0.2265 -0.2242 -0.8632
 5060SOL     OW26815   3.357   2.668   3.177  0.0132 -0.0485 -0.7537
 5060SOL    HW126816   3.402   2.753   3.177 -0.3241  0.1224  0.7928
 5060SOL    HW226817   3.419   2.605   3.213 -0.4294  0.4066  0.7736
 5061SOL     OW26818   3.512   2.134   3.792  0.0483  0.0524  0.7486
 5061SOL    HW126819   3.420   2.112   3.808 -0.1889 -0.3208 -1.0817
 5061SOL    HW226820   3.547   2.060   3.741  0.4062  0.2921  0.6452
 5062SOL     OW26821   3.663   2.735   8.233 -0.0580 -0.2008  0.0393
 5062SOL    HW126822   3.636   2.656   8.187  3.0648  0.1804 -2.4161
 5062SOL    HW226823   3.746   2.708   8.272 -0.7671 -0.7740  1.1469
 5063SOL     OW26824   0.974   2.956  13.130 -0.2311  0.4948 -0.2803
 5063SOL    HW126825   1.027   2.909  13.195  1.4781  1.3115 -1.0847
 5063SOL    HW226826   0.915   2.883  13.114 -0.1711  0.0575  1.4567
 5064SOL     OW26827   2.796   0.106   4.408  0.0881  0.7793 -0.3996
 5064SOL    HW126828   2.740   0.173   4.449  0.1017  1.2719 -1.1818
 5064SOL    HW226829   2.832   0.061   4.484 -0.9814 -0.7155 -0.7771
 5065SOL     OW26830   0.024   3.749   1.107 -0.0503 -0.0460 -0.3805
 5065SOL    HW126831   0.110   3.709   1.097  0.8828  1.6591  0.6802
 5065SOL    HW226832   0.009   3.739   1.201 -1.0363  0.2897 -0.5001
 5066SOL     OW26833   3.827   4.733  13.227 -0.3683  0.0990  0.1889
 5066SOL    HW126834   3.879   4.664  13.268 -2.7930 -1.7978  0.0234
 5066SOL    HW226835   3.862   0.001  13.139 -1.5994 -1.5890 -0.4616
 5067SOL     OW26836   3.130   3.155   7.449 -0.3695  0.3407 -0.4007
 5067SOL    HW126837   3.138   3.250   7.437  0.8102  0.3790  0.6759
 5067SOL    HW226838   3.182   3.140   7.371  1.2634  3.0182  0.1704
 5068SOL     OW26839   0.647   3.348   8.690 -0.2889  0.3161 -0.5178
 5068SOL    HW126840   0.606   3.406   8.626  0.0166 -0.3221 -1.3111
 5068SOL    HW226841   0.636   3.264   8.646 -1.5844 -0.1241  0.6603
 5069SOL     OW26842   1.900   4.279  14.526 -0.7261 -0.0564 -0.0024
 5069SOL    HW126843   1.899   4.189  14.495 -0.9650 -0.1849  0.3799
 5069SOL    HW226844   1.981   4.274  14.575  0.9744  1.0702 -2.6969
 5070SOL     OW26845   2.976   0.600   8.437 -0.2937 -0.4192 -0.1235
 5070SOL    HW126846   3.039   0.658   8.479  0.6447 -1.5692  0.0570
 5070SOL    HW226847   2.991   0.617   8.344 -2.1507  0.9788 -0.1734
 5071SOL     OW26848   4.249   0.999   6.825 -0.7211  0.5550  0.1528
 5071SOL    HW126849   4.198   1.063   6.874 -1.1783  2.2561 -2.5535
 5071SOL    HW226850   4.273   1.045   6.745  0.1368 -0.3030 -0.0850
 5072SOL     OW26851   4.256   4.251  11.648 -0.0655 -0.4703  0.0055
 5072SOL    HW126852   4.224   4.247  11.557  0.2038  1.6315 -0.1811
 5072SOL    HW226853   4.173   4.228  11.690 -0.0852 -0.5650 -0.0815
 5073SOL     OW26854   3.023   1.662   6.144  0.2219 -0.2193  0.0434
 5073SOL    HW126855   3.076   1.734   6.177 -1.5336  1.5688 -1.0413
 5073SOL    HW226856   3.015   1.600   6.216 -0.0098  0.4438  0.5903
 5074SOL     OW26857   2.142   3.084   8.830  1.0650  0.2194  0.4390
 5074SOL    HW126858   2.060   3.043   8.801  0.4267  1.5707  0.3280
 5074SOL    HW226859   2.138   3.062   8.923 -2.8617 -0.1429  0.1995
 5075SOL     OW26860   3.102   0.097  17.054  0.5038 -0.2369  0.1721
 5075SOL    HW126861   3.191   0.121  17.079 -0.0581 -0.8274  2.6997
 5075SOL    HW226862   3.068   0.095  17.143  0.5912 -1.0454  0.1887
 5076SOL     OW26863   3.403   0.486   2.661 -0.2261  0.0467 -0.0063
 5076SOL    HW126864   3.313   0.491   2.695 -0.9409 -1.4270 -1.6701
 5076SOL    HW226865   3.419   0.579   2.651 -1.5813  0.1805 -0.9675
 5077SOL     OW26866   2.379   2.806   5.291  0.0610  0.1305 -0.4048
 5077SOL    HW126867   2.475   2.805   5.292  0.0734  1.3449 -0.4620
 5077SOL    HW226868   2.360   2.880   5.348 -2.6332 -0.7667 -0.1338
 5078SOL     OW26869   3.100   3.606   6.019  0.1455  0.1190 -0.2206
 5078SOL    HW126870   3.166   3.675   6.017 -1.0038  1.2631  0.8114
 5078SOL    HW226871   3.088   3.577   5.929 -0.9657  2.0399 -0.6828
 5079SOL     OW26872   4.565   2.558   6.529 -0.2830 -0.4429  0.3413
 5079SOL    HW126873   4.554   2.644   6.572  0.5389  0.3155 -0.9697
 5079SOL    HW226874   4.628   2.509   6.582  0.2673  0.4869  0.5461
 5080SOL     OW26875   3.683   0.255   3.699  0.6453 -0.5276 -0.5326
 5080SOL    HW126876   3.651   0.321   3.761 -0.1101 -3.1154  1.8652
 5080SOL    HW226877   3.682   0.316   3.626  2.2018  1.2772  0.9556
 5081SOL     OW26878   4.558   1.283   9.575 -0.2758 -0.2699 -0.0985
 5081SOL    HW126879   4.581   1.316   9.488 -0.0091 -2.3929 -0.8215
 5081SOL    HW226880   4.645   1.273   9.612 -0.1856 -1.4149 -0.6105
 5082SOL     OW26881   3.763   4.550  15.247 -0.2165  0.3603  0.3220
 5082SOL    HW126882   3.747   4.501  15.327 -1.0224  1.7718  1.0305
 5082SOL    HW226883   3.844   4.597  15.266  1.1979 -2.2713  0.6990
 5083SOL     OW26884   1.297   3.580   4.357  0.2907  0.1022 -0.2482
 5083SOL    HW126885   1.268   3.630   4.280  2.8153  0.9688 -0.6259
 5083SOL    HW226886   1.374   3.533   4.324 -0.2516 -0.4378 -0.7445
 5084SOL     OW26887   1.561   0.407   5.834  0.3142  0.2346 -0.3061
 5084SOL    HW126888   1.554   0.480   5.772 -1.0722  2.4087  2.4405
 5084SOL    HW226889   1.486   0.356   5.801 -0.3491  0.6842  0.5091
 5085SOL     OW26890   3.707   3.279   4.158  0.0945  0.3315  0.0190
 5085SOL    HW126891   3.649   3.313   4.089  1.1178 -0.3268 -1.1708
 5085SOL    HW226892   3.662   3.322   4.231 -4.8638  2.0871 -4.0594
 5086SOL     OW26893   2.736   0.631   5.562 -0.1375  0.2152 -0.2376
 5086SOL    HW126894   2.692   0.548   5.580  0.7261 -0.1951  0.0048
 5086SOL    HW226895   2.767   0.652   5.650 -1.2670 -2.7199  0.8602
 5087SOL     OW26896   2.258   3.927   3.309  0.6544  0.4787 -0.3770
 5087SOL    HW126897   2.186   3.960   3.255 -1.5757 -0.3885  2.0907
 5087SOL    HW226898   2.308   3.875   3.246  2.4091  0.2036  1.2556
 5088SOL     OW26899   0.149   4.164  13.230 -0.2310 -0.1062  0.3639
 5088SOL    HW126900   0.221   4.110  13.262 -1.6618 -2.0978  0.1624
 5088SOL    HW226901   0.195   4.173  13.146  0.8327  0.1561  0.9722
 5089SOL     OW26902   2.305   1.059   7.875  0.0330 -0.1824  0.1811
 5089SOL    HW126903   2.274   0.970   7.855 -0.6785 -0.2409  1.5142
 5089SOL    HW226904   2.348   1.082   7.793  0.4464  0.7578  0.6666
 5090SOL     OW26905   1.086   2.517  16.641  0.6729  0.0102 -0.0867
 5090SOL    HW126906   1.118   2.602  16.612 -0.5825  0.3890 -0.3585
 5090SOL    HW226907   1.034   2.476  16.571 -1.0207  3.1765 -0.6719
 5091SOL     OW26908   2.220   1.926  14.313 -0.4184 -0.2807  0.2102
 5091SOL    HW126909   2.184   1.878  14.238  1.6187  1.8041 -2.1365
 5091SOL    HW226910   2.282   1.988  14.275 -0.1501 -1.1972 -0.8447
 5092SOL     OW26911   4.258   1.328   9.145 -0.9234  0.1167 -0.1931
 5092SOL    HW126912   4.233   1.403   9.198  0.4947  0.3308  0.1548
 5092SOL    HW226913   4.350   1.318   9.168 -1.2635 -1.1505  0.6751
 5093SOL     OW26914   3.173   2.646   5.164 -0.1635 -0.3320  0.2402
 5093SOL    HW126915   3.220   2.686   5.237  1.8010 -0.0021 -1.2328
 5093SOL    HW226916   3.155   2.731   5.123  0.2924 -1.2748 -1.8960
 5094SOL     OW26917   0.393   1.366   3.537  0.5170 -0.2691 -0.0369
 5094SOL    HW126918   0.380   1.279   3.575  0.4017  0.3651  1.3711
 5094SOL    HW226919   0.302   1.395   3.541  1.0613  1.4459 -0.1926
 5095SOL     OW26920   1.398   0.327   8.275  0.4145  0.3905 -0.0248
 5095SOL    HW126921   1.484   0.300   8.305 -0.4894  0.5227  2.6547
 5095SOL    HW226922   1.350   0.281   8.343  1.2921 -1.9042 -0.9818
 5096SOL     OW26923   3.761   2.850   5.128  0.2633 -0.3964 -0.1528
 5096SOL    HW126924   3.731   2.917   5.067 -1.3120 -1.3093 -0.3826
 5096SOL    HW226925   3.854   2.867   5.140 -0.0140  1.2700 -0.2445
 5097SOL     OW26926   2.541   1.936  12.028 -0.4488 -0.0457 -0.1351
 5097SOL    HW126927   2.603   1.923  11.956  1.5544 -1.3661  1.8225
 5097SOL    HW226928   2.590   1.996  12.084  1.3295  0.3565 -2.0993
 5098SOL     OW26929   4.085   2.365  13.623 -0.2087 -0.5952  0.0509
 5098SOL    HW126930   4.128   2.382  13.707 -0.8132 -1.5490  0.5707
 5098SOL    HW226931   4.082   2.453  13.588 -0.0052  0.5983  3.0076
 5099SOL     OW26932   1.435   1.200   2.036 -0.4693 -0.7048 -0.0563
 5099SOL    HW126933   1.346   1.201   2.001 -0.1124 -0.7262 -0.9836
 5099SOL    HW226934   1.452   1.294   2.030 -0.0886 -0.7744 -0.1088
 5100SOL     OW26935   4.689   4.726   6.406  0.1300  0.5421 -0.5223
 5100SOL    HW126936   0.031   4.700   6.447  0.8911 -0.1219 -2.4809
 5100SOL    HW226937   4.622   4.684   6.460  0.4632 -0.3516 -0.7958
 5101SOL     OW26938   0.497   1.254   9.575 -0.0526 -0.1403  0.4711
 5101SOL    HW126939   0.464   1.177   9.528 -0.6351 -0.2504  1.0537
 5101SOL    HW226940   0.560   1.291   9.514 -1.0168 -0.8099 -0.9321
 5102SOL     OW26941   2.920   4.265   7.311 -0.2465  0.5825 -0.3118
 5102SOL    HW126942   2.826   4.249   7.300 -0.3898  0.0773  1.7049
 5102SOL    HW226943   2.937   4.208   7.386 -0.7069  1.2419  0.2931
 5103SOL     OW26944   4.338   0.504   8.989  0.7001 -0.0916  0.5594
 5103SOL    HW126945   4.357   0.597   8.976  0.6751 -0.1818 -0.1440
 5103SOL    HW226946   4.308   0.469   8.905  0.1918 -0.0145  0.7116
 5104SOL     OW26947   0.270   3.607  11.369  0.0896 -0.0236 -0.5813
 5104SOL    HW126948   0.266   3.696  11.404 -0.5657 -0.6588  0.9992
 5104SOL    HW226949   0.189   3.609  11.318 -0.9132  0.5758  1.0028
 5105SOL     OW26950   3.270   2.531   2.935  0.2368  0.1863 -0.0318
 5105SOL    HW126951   3.302   2.582   3.009 -0.9155 -1.8387  1.8592
 5105SOL    HW226952   3.209   2.593   2.895  0.0897 -1.2141 -2.0062
 5106SOL     OW26953   2.464   2.158   8.382  0.1087 -0.1028 -0.1280
 5106SOL    HW126954   2.533   2.223   8.370 -0.6305  1.0035  1.6273
 5106SOL    HW226955   2.445   2.184   8.473  0.0821 -0.2299 -0.0976
 5107SOL     OW26956   2.334   1.049   9.598 -0.1116  0.2045  0.2155
 5107SOL    HW126957   2.378   0.997   9.531  2.3328  0.1161  1.8625
 5107SOL    HW226958   2.282   0.982   9.642  1.4392 -1.2647 -0.1736
 5108SOL     OW26959   0.290   1.932   9.886  0.3073  0.5813 -0.0024
 5108SOL    HW126960   0.200   1.920   9.916  0.7892  0.6129  1.4259
 5108SOL    HW226961   0.282   2.026   9.866  1.4275  0.6009 -0.3544
 5109SOL     OW26962   2.110   2.490   6.604 -0.0326 -0.4525 -0.5673
 5109SOL    HW126963   2.140   2.532   6.524 -1.4070 -0.1423 -0.9238
 5109SOL    HW226964   2.066   2.417   6.560  0.7559 -1.5801  0.4991
 5110SOL     OW26965   0.261   3.202   9.410 -0.2936 -0.2987 -0.3570
 5110SOL    HW126966   0.203   3.269   9.374 -0.8499  0.0658  1.2323
 5110SOL    HW226967   0.332   3.190   9.347  0.3532 -0.0117  0.3278
 5111SOL     OW26968   1.874   2.831   9.346 -0.4164  0.1931  0.2967
 5111SOL    HW126969   1.831   2.747   9.332  0.4327 -0.5398  2.1052
 5111SOL    HW226970   1.870   2.871   9.259 -1.5076  0.2586  0.3697
 5112SOL     OW26971   0.705   0.294   3.897  0.0082  0.2439  0.0385
 5112SOL    HW126972   0.694   0.246   3.815  0.0109  3.3943 -1.8051
 5112SOL    HW226973   0.753   0.226   3.944  2.4169  2.6434  1.0717
 5113SOL     OW26974   0.803   4.235  15.060 -0.4799 -0.4927 -0.1771
 5113SOL    HW126975   0.739   4.292  15.102  0.7465 -0.7459  2.0887
 5113SOL    HW226976   0.832   4.183  15.135  0.3911  0.6428  0.2874
 5114SOL     OW26977   4.049   3.512   4.387  0.5216 -0.4672 -0.5370
 5114SOL    HW126978   3.996   3.544   4.460  2.6044 -1.5438  1.4160
 5114SOL    HW226979   4.041   3.586   4.327 -0.5158 -1.3419 -1.4889
 5115SOL     OW26980   2.459   0.335   7.621 -0.1472 -0.1555  0.1135
 5115SOL    HW126981   2.390   0.397   7.644 -0.3908 -0.5166  0.3544
 5115SOL    HW226982   2.414   0.254   7.598 -1.2914  1.2932 -2.7536
 5116SOL     OW26983   1.446   2.334   6.731  0.4185 -0.0224 -0.1646
 5116SOL    HW126984   1.512   2.283   6.779  0.1263 -0.7026 -0.4890
 5116SOL    HW226985   1.428   2.400   6.798  0.5200  0.7494 -0.9002
 5117SOL     OW26986   3.071   2.106   3.560 -0.3799 -0.3329  0.4394
 5117SOL    HW126987   3.022   2.027   3.586 -0.0990 -0.4417  0.6420
 5117SOL    HW226988   3.108   2.139   3.642  0.8075 -0.4767 -0.0325
 5118SOL     OW26989   2.884   4.385   2.333  0.1398  0.3582  0.2062
 5118SOL    HW126990   2.855   4.361   2.245  1.2574 -1.0562  0.2233
 5118SOL    HW226991   2.813   4.430   2.379  0.1953 -0.6996  1.2974
 5119SOL     OW26992   3.178   3.099   7.723  0.3411  0.9083  0.0508
 5119SOL    HW126993   3.156   3.124   7.633  0.1025  1.6102  0.3069
 5119SOL    HW226994   3.207   3.183   7.759 -0.5345  1.7381 -1.1832
 5120SOL     OW26995   2.831   2.785   2.129  0.0380  0.6376 -0.8764
 5120SOL    HW126996   2.753   2.733   2.147 -0.5102  2.8848  3.2621
 5120SOL    HW226997   2.850   2.747   2.043  1.7715  0.4850 -0.4355
 5121SOL     OW26998   2.224   3.350  15.248 -0.0962 -0.4778  0.1333
 5121SOL    HW126999   2.166   3.426  15.248 -0.2714 -0.6136  1.0101
 5121SOL    HW227000   2.173   3.286  15.197 -1.5129  0.7911 -0.0428
 5122SOL     OW27001   0.303   0.148   6.510  0.5962 -0.1859 -0.4279
 5122SOL    HW127002   0.304   0.160   6.415 -1.2798 -2.8244 -0.7915
 5122SOL    HW227003   0.347   0.227   6.541  1.3108 -0.0798 -1.7125
 5123SOL     OW27004   0.656   1.073   3.208 -0.1213  0.3381 -0.1659
 5123SOL    HW127005   0.661   1.032   3.122  0.3787  0.1651 -0.0535
 5123SOL    HW227006   0.680   1.163   3.186 -0.7433 -0.5523 -4.4297
 5124SOL     OW27007   1.463   2.633   2.286 -0.4218  0.2456  0.5426
 5124SOL    HW127008   1.372   2.615   2.312 -0.6910  0.1609 -0.4640
 5124SOL    HW227009   1.443   2.685   2.209 -1.3803 -0.7910  0.0797
 5125SOL     OW27010   3.390   0.265  15.602  1.0154  0.2635 -0.1319
 5125SOL    HW127011   3.340   0.212  15.540 -0.8156 -0.2448  1.7923
 5125SOL    HW227012   3.415   0.205  15.672  1.5230  0.2640 -0.3086
 5126SOL     OW27013   2.667   0.634   7.831 -0.2575  0.0455  0.2795
 5126SOL    HW127014   2.729   0.707   7.825  0.8869 -1.1368 -2.0944
 5126SOL    HW227015   2.638   0.629   7.740  0.3862  0.8404  0.0349
 5127SOL     OW27016   0.980   3.237   5.640 -0.2242 -0.2169 -0.4245
 5127SOL    HW127017   0.983   3.253   5.734  1.2288 -0.9747 -0.3368
 5127SOL    HW227018   0.963   3.326   5.609 -0.5276  0.3653  1.4287
 5128SOL     OW27019   4.161   0.189   5.007  0.1035  0.7172 -0.2089
 5128SOL    HW127020   4.190   0.268   5.052  0.2161  0.2971  0.4659
 5128SOL    HW227021   4.136   0.211   4.918 -0.4034  0.1165 -0.2200
 5129SOL     OW27022   3.067   0.033   7.068  0.1391 -0.2118  0.4348
 5129SOL    HW127023   3.023   4.731   6.995  1.0455 -2.5592  1.2760
 5129SOL    HW227024   3.031   4.719   7.137 -0.3621 -2.4830 -1.6498
 5130SOL     OW27025   3.538   0.077   3.269 -0.1010  0.0637 -0.1134
 5130SOL    HW127026   3.603   0.010   3.245  0.4471  1.0752 -1.4207
 5130SOL    HW227027   3.596   0.151   3.253 -0.1053 -0.0233 -0.5343
 5131SOL     OW27028   1.239   2.886  11.673 -0.3817 -0.1996  0.4604
 5131SOL    HW127029   1.286   2.835  11.740  0.2285  2.8207  2.3434
 5131SOL    HW227030   1.251   2.832  11.595 -1.7232  0.0820  0.0528
 5132SOL     OW27031   3.520   3.824  16.423  0.4613  0.4320  0.5108
 5132SOL    HW127032   3.521   3.736  16.460 -4.0078  0.1748  0.0175
 5132SOL    HW227033   3.599   3.820  16.368 -0.0381 -0.0448 -0.1664
 5133SOL     OW27034   2.703   2.332   3.697  0.3367  0.1901 -0.0015
 5133SOL    HW127035   2.751   2.332   3.780  1.3521 -0.1709 -0.5877
 5133SOL    HW227036   2.775   2.315   3.636 -0.0226  0.4170 -0.4885
 5134SOL     OW27037   0.259   3.788   3.091 -0.1797 -0.1306 -0.7453
 5134SOL    HW127038   0.326   3.803   3.025 -0.1898 -0.7398 -0.8937
 5134SOL    HW227039   0.319   3.762   3.161 -2.0588 -2.6172 -0.0425
 5135SOL     OW27040   0.500   2.250   6.234 -0.4665 -0.2333 -0.2659
 5135SOL    HW127041   0.451   2.273   6.312  0.9107  0.2836  0.4487
 5135SOL    HW227042   0.474   2.319   6.173 -0.3306  0.2511  0.2255
 5136SOL     OW27043   2.051   4.680  16.948  0.4210 -0.5765  0.3541
 5136SOL    HW127044   2.097   0.011  16.905  1.3641 -1.3577  0.0736
 5136SOL    HW227045   2.078   4.603  16.898  0.3481 -0.1074 -0.4051
 5137SOL     OW27046   1.314   3.692   6.033 -0.3658  0.2026 -0.4301
 5137SOL    HW127047   1.315   3.714   6.126 -0.1893  1.0760 -0.6296
 5137SOL    HW227048   1.221   3.695   6.013 -0.3699  1.1977 -0.2954
 5138SOL     OW27049   3.773   2.783  11.436 -0.1934 -0.3876 -0.4413
 5138SOL    HW127050   3.697   2.841  11.428  0.8923  1.0601 -0.2737
 5138SOL    HW227051   3.765   2.739  11.351 -1.4764 -0.9508 -0.0211
 5139SOL     OW27052   1.302   3.591   7.672  0.4468  0.5370  0.2058
 5139SOL    HW127053   1.349   3.524   7.721  0.0353 -1.4096 -2.0996
 5139SOL    HW227054   1.316   3.668   7.728  2.3572 -0.9504  1.7386
 5140SOL     OW27055   3.595   2.438   8.398  0.3269  0.1909 -0.0531
 5140SOL    HW127056   3.681   2.397   8.384  0.0954  0.4712 -2.3646
 5140SOL    HW227057   3.621   2.497   8.469  1.5382 -0.5634  0.1311
 5141SOL     OW27058   0.760   3.671   2.061 -0.5829  0.5316 -0.4632
 5141SOL    HW127059   0.842   3.712   2.035 -0.1934  1.2689  1.9165
 5141SOL    HW227060   0.713   3.740   2.108 -0.6764  0.2522 -0.1511
 5142SOL     OW27061   2.047   0.844   1.989  0.4863 -0.4586  0.1829
 5142SOL    HW127062   2.051   0.823   1.896 -1.1336  2.1451 -0.4624
 5142SOL    HW227063   2.092   0.929   1.993 -2.0364  1.0205 -2.6937
 5143SOL     OW27064   2.160   2.188   9.533 -0.4605  0.6026 -0.2687
 5143SOL    HW127065   2.168   2.100   9.571  0.4655  0.6180 -0.4210
 5143SOL    HW227066   2.218   2.182   9.457  0.2482 -0.3429  0.3400
 5144SOL     OW27067   2.168   0.303   8.469  0.0736 -0.1240 -1.0109
 5144SOL    HW127068   2.203   0.360   8.400 -1.4319  0.5321 -1.2357
 5144SOL    HW227069   2.224   0.228   8.450  2.5615  1.5311 -0.1243
 5145SOL     OW27070   3.682   1.804   5.142 -0.1179  0.1419  0.6922
 5145SOL    HW127071   3.651   1.763   5.061  2.7977 -0.5755 -0.0417
 5145SOL    HW227072   3.776   1.785   5.144  0.3937  2.8336  1.5393
 5146SOL     OW27073   3.657   1.434  11.270  0.7088 -0.4956  0.5302
 5146SOL    HW127074   3.604   1.356  11.255 -1.4464  1.0905  0.0134
 5146SOL    HW227075   3.737   1.385  11.289 -0.3140 -2.9870 -1.5571
 5147SOL     OW27076   3.273   1.947   5.917 -0.0357  0.0790  0.3728
 5147SOL    HW127077   3.234   1.888   5.853 -0.6149  1.2279 -0.3442
 5147SOL    HW227078   3.360   1.908   5.916 -0.6505 -1.2685 -0.9072
 5148SOL     OW27079   3.257   3.514   6.830 -0.2339 -0.2467  0.2263
 5148SOL    HW127080   3.277   3.428   6.793 -0.1476  0.4170 -1.2887
 5148SOL    HW227081   3.315   3.566   6.773  1.0471 -0.6100  1.1883
 5149SOL     OW27082   3.338   4.194   4.926  0.5455  0.5887 -0.6516
 5149SOL    HW127083   3.413   4.236   4.885  0.2415  0.6059 -1.1963
 5149SOL    HW227084   3.354   4.199   5.020 -0.2583  1.6763 -0.5755
 5150SOL     OW27085   4.072   3.611   9.370  0.2891 -0.1830 -0.0913
 5150SOL    HW127086   4.125   3.544   9.327 -0.8077 -1.9178  1.2429
 5150SOL    HW227087   3.992   3.595   9.320  2.0939  0.2918 -3.0876
 5151SOL     OW27088   1.415   3.841  14.477  0.3236 -0.3166  0.3764
 5151SOL    HW127089   1.434   3.914  14.418 -2.3253  1.2669  1.4870
 5151SOL    HW227090   1.495   3.820  14.524  0.4447 -0.1321  0.2562
 5152SOL     OW27091   1.271   0.063   3.606  0.4323  0.2001 -0.6864
 5152SOL    HW127092   1.244   4.715   3.581 -1.0231  0.8315 -1.3425
 5152SOL    HW227093   1.303   0.049   3.695 -0.8209 -0.1988 -0.3045
 5153SOL     OW27094   2.952   2.662   4.284 -0.0770 -0.2411  0.2547
 5153SOL    HW127095   3.045   2.639   4.278 -0.3948 -1.6787  0.9212
 5153SOL    HW227096   2.953   2.735   4.222  0.7829  0.8757  1.5735
 5154SOL     OW27097   1.768   0.945   1.604  0.5263  0.7175  0.0810
 5154SOL    HW127098   1.799   0.939   1.513 -0.2886 -0.8836 -0.0867
 5154SOL    HW227099   1.811   1.026   1.632  1.2700  0.7763 -1.2184
 5155SOL     OW27100   2.887   0.344   2.619  0.4726 -0.0176  0.8097
 5155SOL    HW127101   2.850   0.256   2.625  1.3342 -0.5292 -1.3978
 5155SOL    HW227102   2.807   0.391   2.643  0.8496  1.5564 -1.0540
 5156SOL     OW27103   1.619   4.605   2.428 -0.1525 -0.0389 -0.3658
 5156SOL    HW127104   1.541   4.586   2.375  1.6883  1.3049 -3.5203
 5156SOL    HW227105   1.601   4.551   2.505  0.4831  0.4613  0.1259
 5157SOL     OW27106   3.719   3.448   8.993 -0.0268 -0.2667  0.5262
 5157SOL    HW127107   3.629   3.416   8.984 -0.1891  0.0403  1.0155
 5157SOL    HW227108   3.714   3.511   9.066  0.8322 -0.3777  0.6784
 5158SOL     OW27109   2.636   1.495  17.656 -0.7797 -0.0372 -0.5185
 5158SOL    HW127110   2.654   1.547  17.733 -1.1857  0.3263 -0.6683
 5158SOL    HW227111   2.723   1.468  17.626 -1.3701 -0.0798 -2.2075
 5159SOL     OW27112   4.104   1.686   5.525  0.4546  0.5282 -0.1894
 5159SOL    HW127113   4.183   1.641   5.556 -0.5238 -2.5177 -2.1265
 5159SOL    HW227114   4.118   1.682   5.430 -1.2970 -0.9130 -0.3795
 5160SOL     OW27115   3.064   4.682  11.174 -0.0223  0.4364 -0.4001
 5160SOL    HW127116   2.975   4.718  11.178 -0.0476  0.4680 -1.2555
 5160SOL    HW227117   3.055   4.611  11.111  0.2781  0.5246 -0.5433
 5161SOL     OW27118   4.242   3.753  16.668  0.1538 -0.2213 -0.0381
 5161SOL    HW127119   4.256   3.658  16.669  0.1801 -0.1970  1.1872
 5161SOL    HW227120   4.148   3.755  16.649  0.1880 -0.5929 -0.2582
 5162SOL     OW27121   4.136   3.081   4.424  0.2234 -0.5812  0.1302
 5162SOL    HW127122   4.184   3.038   4.352  3.5007 -0.0689  2.0102
 5162SOL    HW227123   4.074   3.147   4.392  1.9357  2.1430  2.4179
 5163SOL     OW27124   3.210   1.590   2.146 -0.3227  0.6876 -0.2568
 5163SOL    HW127125   3.276   1.647   2.186  0.3061  0.2979 -0.7519
 5163SOL    HW227126   3.268   1.536   2.093 -1.0758  1.6583 -2.0561
 5164SOL     OW27127   1.987   0.900  13.131 -0.3196  0.0847 -0.2108
 5164SOL    HW127128   2.022   0.935  13.050  1.6594 -0.7198  0.2958
 5164SOL    HW227129   1.968   0.986  13.169 -0.0797  0.6691 -1.4452
 5165SOL     OW27130   1.416   3.787  11.682 -0.4289  0.5468 -0.0273
 5165SOL    HW127131   1.410   3.818  11.772 -0.6787  1.9190 -0.5261
 5165SOL    HW227132   1.491   3.831  11.642 -0.6004 -1.3453 -2.4471
 5166SOL     OW27133   1.130   4.471   6.601 -0.0370  0.4977 -0.1664
 5166SOL    HW127134   1.037   4.460   6.579 -0.9647  3.4374  2.3671
 5166SOL    HW227135   1.129   4.495   6.694 -1.4922  1.5689 -0.4706
 5167SOL     OW27136   0.871   0.103   3.600 -0.0536 -0.8752 -0.4787
 5167SOL    HW127137   0.844   0.111   3.508  0.6649  0.5796 -0.5713
 5167SOL    HW227138   0.956   0.148   3.601  0.3934 -1.7174 -0.7918
 5168SOL     OW27139   1.180   2.176   6.898  0.3518  0.0227  0.3715
 5168SOL    HW127140   1.099   2.155   6.945  1.2971  0.2100  2.0947
 5168SOL    HW227141   1.168   2.270   6.887 -0.4453 -0.4301 -2.6073
 5169SOL     OW27142   4.500   4.051  14.552 -0.6376  0.4832 -0.1074
 5169SOL    HW127143   4.423   4.068  14.605  0.0785  0.0489  1.0806
 5169SOL    HW227144   4.526   3.965  14.587  0.7111  0.3783 -1.3662
 5170SOL     OW27145   4.206   0.220   5.772 -0.0276  0.1971 -0.0177
 5170SOL    HW127146   4.130   0.278   5.779 -0.2403  0.0077 -0.7879
 5170SOL    HW227147   4.229   0.212   5.865  0.3300  1.7855  0.0442
 5171SOL     OW27148   1.392   0.467   8.001  0.5106 -0.0616 -0.9823
 5171SOL    HW127149   1.330   0.396   7.991  0.7957 -0.3637 -0.6194
 5171SOL    HW227150   1.345   0.542   8.038  0.7883  0.3455 -1.4515
 5172SOL     OW27151   0.701   0.601   5.892  0.1816 -0.4018  0.1012
 5172SOL    HW127152   0.737   0.667   5.834 -0.8383 -1.2303 -1.4921
 5172SOL    HW227153   0.735   0.622   5.979  0.7198 -0.5440 -0.0752
 5173SOL     OW27154   2.798   4.378   2.891  0.1239 -0.7614 -0.4668
 5173SOL    HW127155   2.837   4.383   2.978 -0.7949  2.5512 -0.2494
 5173SOL    HW227156   2.877   4.359   2.840  0.9873 -2.3461  1.4670
 5174SOL     OW27157   1.273   1.838   8.641 -0.1044 -0.2950  0.5219
 5174SOL    HW127158   1.220   1.759   8.647  0.2427 -0.6631 -1.0803
 5174SOL    HW227159   1.205   1.900   8.668 -1.4770 -1.1700 -0.9349
 5175SOL     OW27160   3.119   4.626  12.722 -0.4428  0.1557  0.5390
 5175SOL    HW127161   3.200   4.602  12.678 -1.8586 -0.3354 -1.8108
 5175SOL    HW227162   3.054   4.564  12.689  0.3577 -1.6801  2.3999
 5176SOL     OW27163   0.133   1.051   8.838 -0.1709  0.7969  0.4159
 5176SOL    HW127164   0.224   1.075   8.854 -0.1737  1.0004  0.1314
 5176SOL    HW227165   0.136   0.957   8.858 -0.4543  0.6715 -0.1226
 5177SOL     OW27166   2.465   2.323   4.910  0.2966  0.2354 -0.0379
 5177SOL    HW127167   2.480   2.242   4.862 -2.1186 -0.9034  1.1326
 5177SOL    HW227168   2.471   2.296   5.001  0.8091  1.0002  0.1547
 5178SOL     OW27169   1.766   0.764   1.109  0.3366 -0.1857 -0.0502
 5178SOL    HW127170   1.803   0.679   1.084 -1.3408 -0.6810 -0.8821
 5178SOL    HW227171   1.712   0.740   1.185  0.2291  0.9564  0.2221
 5179SOL     OW27172   4.519   3.193   7.998 -0.2591 -0.3657 -0.2804
 5179SOL    HW127173   4.533   3.098   7.999  0.1507 -0.3093 -0.5367
 5179SOL    HW227174   4.505   3.199   7.904 -2.3807 -1.0711  0.0028
 5180SOL     OW27175   4.023   1.014   5.700  0.2411  0.1795  0.4710
 5180SOL    HW127176   3.978   1.045   5.779 -1.8837  2.0190 -1.4427
 5180SOL    HW227177   4.089   0.950   5.725  2.3667  2.3999  0.5850
 5181SOL     OW27178   3.000   4.613   2.870 -0.7127  0.1331  0.0638
 5181SOL    HW127179   3.022   4.546   2.935 -1.2787  0.9957  1.1351
 5181SOL    HW227180   3.065   4.591   2.802 -0.1568  1.6341  0.1205
 5182SOL     OW27181   3.990   0.909   2.391  0.1677 -0.2948  0.3919
 5182SOL    HW127182   3.954   0.832   2.436 -1.7189 -0.3845 -1.2639
 5182SOL    HW227183   4.084   0.909   2.408 -0.4013 -0.7046  3.5982
 5183SOL     OW27184   1.998   1.100   3.044  0.1138 -0.1844 -0.0819
 5183SOL    HW127185   1.935   1.147   2.989 -0.4468 -0.3029  0.4592
 5183SOL    HW227186   2.050   1.046   2.984  0.5764 -0.2174  0.3476
 5184SOL     OW27187   1.528   2.269   5.663 -0.5775 -0.0085 -0.2986
 5184SOL    HW127188   1.486   2.232   5.740 -2.2612 -0.0034 -1.2246
 5184SOL    HW227189   1.620   2.277   5.688 -0.4091 -0.4959 -0.7555
 5185SOL     OW27190   2.845   0.292   6.468 -0.2695  0.0830 -0.3684
 5185SOL    HW127191   2.781   0.332   6.525 -0.7498  0.5063 -1.2055
 5185SOL    HW227192   2.833   0.337   6.384 -1.3321  0.5630  0.0528
 5186SOL     OW27193   3.383   4.536   3.141  0.2712 -0.0399  0.1572
 5186SOL    HW127194   3.450   4.496   3.086 -0.7333  1.9180 -2.4707
 5186SOL    HW227195   3.320   4.463   3.140 -0.0991  0.2704  0.7616
 5187SOL     OW27196   2.243   3.576   3.878 -0.4696  0.4276 -0.4262
 5187SOL    HW127197   2.253   3.535   3.964  0.3846  0.2576 -0.5996
 5187SOL    HW227198   2.283   3.506   3.826 -0.2888 -0.0182  0.3228
 5188SOL     OW27199   2.717   0.627   9.100 -0.6921 -0.4950  0.8303
 5188SOL    HW127200   2.691   0.715   9.124 -1.6488 -0.3603 -0.6861
 5188SOL    HW227201   2.681   0.622   9.011  0.7296  0.5751  0.1849
 5189SOL     OW27202   0.117   1.947   4.991 -0.7177  0.0424  0.5968
 5189SOL    HW127203   0.121   2.041   5.010  0.0847  0.7489 -3.0790
 5189SOL    HW227204   0.026   1.936   4.963 -0.6796 -0.1676  0.5585
 5190SOL     OW27205   2.647   1.971  14.755 -0.1753  0.0865 -0.3597
 5190SOL    HW127206   2.739   1.996  14.747  0.2765 -1.4358  0.0187
 5190SOL    HW227207   2.630   1.990  14.847 -1.5930  1.1242 -0.8494
 5191SOL     OW27208   0.542   0.130   5.780  0.0306 -0.0005  0.4710
 5191SOL    HW127209   0.605   0.059   5.770 -1.8429 -1.8663  1.8719
 5191SOL    HW227210   0.466   0.107   5.727  0.5146  2.2061 -1.1831
 5192SOL     OW27211   4.520   3.493   7.788 -0.6042  0.4162  0.2262
 5192SOL    HW127212   4.509   3.474   7.882 -0.7115 -1.0306 -0.0761
 5192SOL    HW227213   4.520   3.408   7.743 -0.3868 -0.6811  2.2649
 5193SOL     OW27214   3.073   3.347  15.877 -0.9611  0.4406  0.5040
 5193SOL    HW127215   3.031   3.261  15.870  0.8059 -0.4170  0.5081
 5193SOL    HW227216   3.150   3.331  15.823 -1.2065 -0.7325  0.5003
 5194SOL     OW27217   2.595   3.054   3.197  0.5679  0.0358  0.2498
 5194SOL    HW127218   2.501   3.049   3.217  0.4411 -0.4861 -0.4976
 5194SOL    HW227219   2.633   3.019   3.278 -1.1016 -2.1567  0.1069
 5195SOL     OW27220   1.255   1.581  16.395  0.2763  0.0755  0.2684
 5195SOL    HW127221   1.329   1.632  16.361  0.0471  1.3513  1.7006
 5195SOL    HW227222   1.189   1.648  16.378 -0.1769 -0.2201  0.9006
 5196SOL     OW27223   2.614   3.646   4.061 -0.5336  0.0372 -0.0540
 5196SOL    HW127224   2.564   3.622   3.983  0.0537  0.1772 -0.4699
 5196SOL    HW227225   2.699   3.673   4.025 -0.4072  0.5956  0.6676
 5197SOL     OW27226   4.470   1.725  11.817 -0.0398 -0.5788  0.2134
 5197SOL    HW127227   4.414   1.705  11.743  0.0733  0.3016 -0.1117
 5197SOL    HW227228   4.544   1.682  11.775  2.4660  1.2694  2.6904
 5198SOL     OW27229   0.610   4.496  13.991  0.0021 -0.0196 -0.5288
 5198SOL    HW127230   0.688   4.510  14.045  0.5480 -0.4440 -1.2094
 5198SOL    HW227231   0.649   4.529  13.910  0.4144 -1.2337 -0.8306
 5199SOL     OW27232   3.538   3.857   6.878 -0.1078  0.1619  0.1555
 5199SOL    HW127233   3.553   3.941   6.922 -0.0411  0.3086 -0.1507
 5199SOL    HW227234   3.593   3.803   6.935 -2.1555  2.0630  3.9073
 5200SOL     OW27235   2.226   1.454  14.428  0.1295  0.0098 -0.2237
 5200SOL    HW127236   2.310   1.437  14.386  1.1166  0.0017  1.7722
 5200SOL    HW227237   2.241   1.546  14.448  0.6280 -0.3845  1.2258
 5201SOL     OW27238   4.223   1.574   2.871 -0.5984 -0.5326 -0.4391
 5201SOL    HW127239   4.232   1.644   2.935 -0.1031 -0.6021 -0.4281
 5201SOL    HW227240   4.253   1.495   2.916  0.3120  1.6144  2.7376
 5202SOL     OW27241   1.495   2.813   9.435  0.1355 -0.2180 -0.0920
 5202SOL    HW127242   1.441   2.886   9.403  0.9360 -0.5758 -2.2688
 5202SOL    HW227243   1.490   2.763   9.354  1.2073 -0.1303 -0.2125
 5203SOL     OW27244   3.188   4.470   7.922  0.1209  0.0743  0.4107
 5203SOL    HW127245   3.215   4.388   7.880  0.2659  0.2386  0.1833
 5203SOL    HW227246   3.274   4.502   7.948  0.2482  0.2593 -0.2446
 5204SOL     OW27247   1.549   2.169   2.490 -0.4765  0.8134 -0.0411
 5204SOL    HW127248   1.481   2.115   2.450  0.9505 -0.9405 -0.1522
 5204SOL    HW227249   1.555   2.247   2.435  0.2762 -0.0287 -1.1661
 5205SOL     OW27250   2.597   0.538   5.236 -0.4418  0.4980 -0.2512
 5205SOL    HW127251   2.646   0.477   5.291  0.2229 -0.4520 -1.9021
 5205SOL    HW227252   2.534   0.566   5.301  0.6529 -0.0838  1.0598
 5206SOL     OW27253   4.247   0.795  13.458  0.1571  0.0247 -0.4497
 5206SOL    HW127254   4.159   0.825  13.434 -1.1797 -2.2702  1.6077
 5206SOL    HW227255   4.271   0.874  13.506 -0.2229 -0.5820  0.7283
 5207SOL     OW27256   1.370   3.171   6.130 -0.4761  0.3428  0.1365
 5207SOL    HW127257   1.338   3.215   6.051  1.5946  0.5016 -0.6355
 5207SOL    HW227258   1.452   3.128   6.104 -0.6352  0.1986 -0.1267
 5208SOL     OW27259   4.022   4.408  13.581 -0.3672  0.1999  0.5331
 5208SOL    HW127260   3.935   4.387  13.546 -0.3084 -0.2144  0.6369
 5208SOL    HW227261   4.054   4.319  13.594 -0.0643  0.4521  1.5349
 5209SOL     OW27262   1.972   4.689  15.594  0.2808  0.0213  0.5122
 5209SOL    HW127263   1.937   0.035  15.618  0.5113 -0.0337  1.0472
 5209SOL    HW227264   1.939   4.672  15.506  0.4587  0.8832  0.2743
 5210SOL     OW27265   1.400   0.526  14.958  0.2728 -0.1454  0.1780
 5210SOL    HW127266   1.312   0.539  14.921  0.9433  0.2122 -1.2846
 5210SOL    HW227267   1.383   0.442  15.001  3.5254 -0.4350  0.8927
 5211SOL     OW27268   3.080   0.693  17.498  0.2434 -0.1986  0.4233
 5211SOL    HW127269   3.084   0.630  17.570 -2.2572 -0.0041  0.7227
 5211SOL    HW227270   3.142   0.766  17.511 -0.2337  0.2615  0.1275
 5212SOL     OW27271   2.902   4.456   4.369 -0.1813  0.0180 -0.6536
 5212SOL    HW127272   2.822   4.431   4.415  1.3910 -1.7345  1.1191
 5212SOL    HW227273   2.965   4.435   4.438  0.6704  1.2299 -1.0726
 5213SOL     OW27274   2.013   3.622   8.535 -0.9406  0.4743 -0.3090
 5213SOL    HW127275   1.935   3.593   8.486 -1.0914  0.9562 -0.3530
 5213SOL    HW227276   1.982   3.603   8.624  1.2770  0.6750  0.4972
 5214SOL     OW27277   3.053   2.731  17.230 -0.2978 -0.6309 -0.5768
 5214SOL    HW127278   3.033   2.823  17.214  0.5274 -0.2815  0.3532
 5214SOL    HW227279   2.965   2.695  17.222 -1.0119  0.6865  1.2907
 5215SOL     OW27280   4.570   0.073   1.087  0.2855 -0.6760 -0.0059
 5215SOL    HW127281   4.503   0.122   1.135  0.8031 -0.5760  0.6192
 5215SOL    HW227282   4.615   0.027   1.159 -0.8120 -1.6701  0.0515
 5216SOL     OW27283   1.745   2.565   9.358 -0.3407 -0.5033  0.0905
 5216SOL    HW127284   1.661   2.572   9.405  0.2114  1.7190  0.7759
 5216SOL    HW227285   1.722   2.505   9.288  1.1860  1.3171 -1.9498
 5217SOL     OW27286   3.071   3.541   0.424  0.1038 -1.0617  0.0596
 5217SOL    HW127287   3.099   3.602   0.356 -1.0265 -1.8819 -1.1440
 5217SOL    HW227288   3.146   3.481   0.422  1.0663  0.1101  0.9805
 5218SOL     OW27289   3.584   1.368   3.267 -0.1490 -0.4761  0.1570
 5218SOL    HW127290   3.576   1.349   3.174  1.3101 -0.0183 -0.0522
 5218SOL    HW227291   3.679   1.371   3.276  0.0127 -2.7999 -0.5965
 5219SOL     OW27292   4.575   0.307   4.936 -0.6799 -0.2944  0.1939
 5219SOL    HW127293   4.604   0.325   5.026 -1.0445  0.5734  0.1397
 5219SOL    HW227294   4.544   0.218   4.950 -1.4987 -0.0572 -0.1118
 5220SOL     OW27295   0.254   3.162   5.162  0.2972  0.0762 -0.0779
 5220SOL    HW127296   0.302   3.240   5.191  0.9873  0.2853 -1.7935
 5220SOL    HW227297   0.322   3.103   5.130  0.2607 -0.2593  0.4664
 5221SOL     OW27298   4.107   4.369  16.463 -0.5398  0.2259  0.1574
 5221SOL    HW127299   4.089   4.456  16.429 -3.5692  0.6527  2.7947
 5221SOL    HW227300   4.108   4.376  16.559  0.5115 -1.0084  0.2449
 5222SOL     OW27301   4.329   2.164   7.114 -0.7497 -0.0892  0.2189
 5222SOL    HW127302   4.401   2.142   7.174 -1.8173  0.4970  1.7347
 5222SOL    HW227303   4.255   2.148   7.172  0.2523  0.2008  1.5982
 5223SOL     OW27304   3.572   1.778  15.152 -0.0342  0.0531  0.6297
 5223SOL    HW127305   3.647   1.729  15.119 -0.5470 -1.7527  2.1195
 5223SOL    HW227306   3.599   1.795  15.242  2.4053 -1.6807  0.1997
 5224SOL     OW27307   3.653   3.753  17.377 -0.2938 -0.2151  0.2279
 5224SOL    HW127308   3.660   3.681  17.440 -0.5008 -0.9693 -0.6131
 5224SOL    HW227309   3.572   3.796  17.403  0.1838  0.7594  0.1104
 5225SOL     OW27310   0.002   0.782   5.435  0.1883  0.1140 -0.6129
 5225SOL    HW127311   0.045   0.707   5.392  4.2189  2.1403 -0.0890
 5225SOL    HW227312   0.062   0.805   5.505  0.7941  0.9253 -1.3919
 5226SOL     OW27313   3.462   4.612   6.384 -0.2047  0.3007 -0.3978
 5226SOL    HW127314   3.521   4.667   6.435  0.2428  0.0454 -0.6391
 5226SOL    HW227315   3.411   4.579   6.458  0.7892 -0.0161  0.1423
 5227SOL     OW27316   1.002   3.951   3.506 -0.2476 -0.0963  0.0287
 5227SOL    HW127317   0.926   3.938   3.562  0.7627  1.2516  1.6826
 5227SOL    HW227318   1.012   4.045   3.498 -1.2891  0.0437  0.4358
 5228SOL     OW27319   3.911   3.991  16.312  0.1689 -0.1613 -0.1466
 5228SOL    HW127320   3.893   3.945  16.230  0.3434 -0.8958  0.2320
 5228SOL    HW227321   3.845   4.060  16.306  0.0927 -0.0466  1.9865
 5229SOL     OW27322   2.456   2.734  16.697  0.0734 -0.0792 -0.2160
 5229SOL    HW127323   2.464   2.750  16.791 -1.1552 -2.1809  0.2479
 5229SOL    HW227324   2.541   2.766  16.666 -0.2025  1.6704  0.8442
 5230SOL     OW27325   3.665   0.313   3.256  0.1576 -0.3421  0.3244
 5230SOL    HW127326   3.603   0.354   3.197  1.1381 -0.5801 -0.8711
 5230SOL    HW227327   3.741   0.370   3.243 -0.9124  1.2492  1.0877
 5231SOL     OW27328   1.841   0.596   6.605 -0.0860  0.4774 -0.8446
 5231SOL    HW127329   1.854   0.678   6.558  0.2201 -0.6265 -2.6699
 5231SOL    HW227330   1.915   0.547   6.571  0.4627  0.9416 -0.3085
 5232SOL     OW27331   3.457   2.087   5.579  0.2439  0.0622 -0.0358
 5232SOL    HW127332   3.458   1.992   5.580  1.1969  0.0796  1.2443
 5232SOL    HW227333   3.526   2.098   5.644  2.2043 -1.8633 -1.7959
 5233SOL     OW27334   1.905   1.482  14.134 -0.5817  0.5308  0.8198
 5233SOL    HW127335   1.814   1.491  14.109 -0.5129 -0.3757  0.2371
 5233SOL    HW227336   1.920   1.560  14.187  2.1921 -0.1451  1.0481
 5234SOL     OW27337   3.689   4.646   5.892  0.0384  0.0041 -0.0343
 5234SOL    HW127338   3.734   4.699   5.826 -1.3314  0.2000 -0.8395
 5234SOL    HW227339   3.649   4.708   5.952  0.0828  0.1453 -0.1504
 5235SOL     OW27340   0.568   4.171   7.854  0.2346  0.0687  0.5685
 5235SOL    HW127341   0.618   4.182   7.934  0.1970  0.4153  0.5439
 5235SOL    HW227342   0.495   4.118   7.888 -0.1517  0.1855 -0.0740
 5236SOL     OW27343   0.539   3.629   3.485 -0.1771 -0.6715  0.2682
 5236SOL    HW127344   0.633   3.622   3.501  0.3369  4.5584 -0.4215
 5236SOL    HW227345   0.522   3.707   3.538  1.6808  0.4958 -0.8341
 5237SOL     OW27346   4.223   1.564  13.005  0.1826 -0.0356 -0.4381
 5237SOL    HW127347   4.160   1.584  12.937  0.7256 -0.0791 -0.9503
 5237SOL    HW227348   4.307   1.578  12.960  0.1971 -0.0218 -0.4073
 5238SOL     OW27349   4.050   2.252   7.777  0.4824 -0.3155 -0.2029
 5238SOL    HW127350   4.010   2.218   7.857  1.6616 -2.3846 -0.4968
 5238SOL    HW227351   4.139   2.262   7.812  1.1141  0.4344 -2.0075
 5239SOL     OW27352   2.628   1.601   0.980  0.7023  0.7639  0.1903
 5239SOL    HW127353   2.670   1.667   0.925 -0.1683 -0.8621 -2.4223
 5239SOL    HW227354   2.631   1.652   1.061 -0.5336  1.6441 -0.3152
 5240SOL     OW27355   2.095   4.181   6.541  0.4138 -0.1684 -0.5843
 5240SOL    HW127356   2.058   4.148   6.459  2.4770  1.5036 -2.1847
 5240SOL    HW227357   2.187   4.157   6.530 -0.0597 -1.9105 -0.8000
 5241SOL     OW27358   4.513   4.169   8.664 -0.0479  0.3171 -0.3559
 5241SOL    HW127359   4.491   4.078   8.683  1.4952 -0.0720 -0.4214
 5241SOL    HW227360   4.502   4.185   8.570 -2.7664 -1.4661 -0.3572
 5242SOL     OW27361   3.747   1.681   6.071  0.2343  0.5936 -0.1590
 5242SOL    HW127362   3.668   1.648   6.114  0.6576 -0.0459  0.1280
 5242SOL    HW227363   3.721   1.755   6.017  1.0817  2.1431  1.5628
 5243SOL     OW27364   4.729   3.807   8.090  0.5984  0.2292 -0.1180
 5243SOL    HW127365   4.653   3.770   8.047 -0.5514 -1.2444  3.1926
 5243SOL    HW227366   0.000   3.884   8.035  1.9743 -0.4395 -0.7546
 5244SOL     OW27367   0.348   3.490   0.662 -0.1989 -0.3851 -0.1193
 5244SOL    HW127368   0.253   3.492   0.662 -0.1868  0.4962  1.6898
 5244SOL    HW227369   0.363   3.555   0.593 -1.5733  0.6849  0.5882
 5245SOL     OW27370   0.052   0.446   6.497  0.1373 -0.2355 -0.0406
 5245SOL    HW127371   0.143   0.423   6.479  0.3976  1.1327 -0.5424
 5245SOL    HW227372   0.045   0.435   6.591  2.3883 -2.8828 -0.1852
 5246SOL     OW27373   4.115   2.653   1.689  0.3048  0.3551 -0.2211
 5246SOL    HW127374   4.117   2.582   1.625 -0.1220 -0.6078  0.8242
 5246SOL    HW227375   4.108   2.735   1.640 -0.8526  0.6378  0.4220
 5247SOL     OW27376   4.371   1.546   7.433 -0.0133  0.2648 -0.4026
 5247SOL    HW127377   4.276   1.559   7.432 -0.1270 -0.5814 -0.7936
 5247SOL    HW227378   4.391   1.553   7.526 -0.0328  0.6634 -0.4286
 5248SOL     OW27379   1.019   0.271   6.450  0.3148 -0.0956 -0.0873
 5248SOL    HW127380   1.004   0.233   6.537  2.2964  3.1880  1.6873
 5248SOL    HW227381   1.112   0.254   6.434  0.6594  1.1668  0.6127
 5249SOL     OW27382   1.189   1.663   4.544 -0.0308  0.3130  0.4025
 5249SOL    HW127383   1.187   1.731   4.477 -3.2910 -0.6711 -0.4863
 5249SOL    HW227384   1.255   1.603   4.509  0.6167  2.1335 -1.4935
 5250SOL     OW27385   4.653   3.646   3.098  0.2979  0.6752 -0.0402
 5250SOL    HW127386   4.658   3.587   3.172 -0.9193  0.0682 -0.4459
 5250SOL    HW227387   4.690   3.727   3.134  0.2340  1.7849 -2.4119
 5251SOL     OW27388   4.209   3.516   5.573 -0.2477  0.6698 -0.0108
 5251SOL    HW127389   4.132   3.461   5.583 -0.8875  1.3108 -1.4660
 5251SOL    HW227390   4.285   3.465   5.602  0.5371  0.3698 -2.6130
 5252SOL     OW27391   0.543   2.515   7.861  0.1652  0.3032  0.1762
 5252SOL    HW127392   0.536   2.610   7.864 -2.6467  0.0892  0.7795
 5252SOL    HW227393   0.449   2.500   7.877 -0.8950  2.4409 -3.9264
 5253SOL     OW27394   1.778   2.554   4.766  0.7788 -0.1801 -0.2267
 5253SOL    HW127395   1.860   2.595   4.793  1.4418 -1.5253 -0.2152
 5253SOL    HW227396   1.726   2.569   4.845  2.5875  1.5420  0.6246
 5254SOL     OW27397   1.832   3.316  15.669 -0.1134  0.0341  0.2699
 5254SOL    HW127398   1.791   3.233  15.692  0.8811 -0.7268 -0.6907
 5254SOL    HW227399   1.839   3.306  15.574  2.0020 -0.3260  0.4518
 5255SOL     OW27400   4.481   3.099   4.317 -0.2663 -0.2310  0.2159
 5255SOL    HW127401   4.516   3.158   4.384  2.2760  0.1400 -1.4686
 5255SOL    HW227402   4.495   3.012   4.354 -1.1156 -0.4054  0.1306
 5256SOL     OW27403   3.751   3.109   5.284 -0.8790  0.0575  0.0962
 5256SOL    HW127404   3.715   3.025   5.259 -2.7812  1.3079 -1.3672
 5256SOL    HW227405   3.834   3.078   5.319  0.4999  1.5313 -1.8180
 5257SOL     OW27406   3.018   1.737  16.416  0.3753 -0.1085  0.0727
 5257SOL    HW127407   2.929   1.772  16.412  0.3079 -0.1528  1.1102
 5257SOL    HW227408   3.024   1.675  16.344 -0.6738  1.0810 -1.0364
 5258SOL     OW27409   3.794   3.574  16.320 -0.0891 -0.3475  0.2723
 5258SOL    HW127410   3.786   3.505  16.385 -2.1583  0.6151  1.0286
 5258SOL    HW227411   3.702   3.580  16.295  0.2636  0.9823 -0.7219
 5259SOL     OW27412   3.280   3.326  16.570  0.0980  0.8496 -0.4245
 5259SOL    HW127413   3.273   3.415  16.536  0.7633  0.7240 -0.8853
 5259SOL    HW227414   3.298   3.341  16.663  0.9570  1.2704 -0.6688
 5260SOL     OW27415   1.908   3.673  10.835  0.0916  0.1983 -0.3972
 5260SOL    HW127416   1.902   3.700  10.926 -1.3705  1.1803 -0.7939
 5260SOL    HW227417   1.854   3.594  10.833 -0.4397  0.5801 -1.1432
 5261SOL     OW27418   1.810   3.190   9.360 -0.6160  0.4181 -0.7193
 5261SOL    HW127419   1.874   3.219   9.295  0.8539 -0.5006  0.3219
 5261SOL    HW227420   1.748   3.262   9.356 -1.3901 -0.1648  0.9895
 5262SOL     OW27421   3.999   4.680  15.283  0.6321  0.4137  0.0671
 5262SOL    HW127422   4.030   4.714  15.199  1.9368  0.5388  0.5929
 5262SOL    HW227423   4.016   0.015  15.339  0.2218 -0.1936  1.0095
 5263SOL     OW27424   0.053   2.726   8.978 -0.7689 -0.5247  0.1954
 5263SOL    HW127425   4.732   2.700   9.046 -0.3437 -0.9320  0.4203
 5263SOL    HW227426   4.731   2.764   8.916 -0.5541 -1.8006 -0.7964
 5264SOL     OW27427   4.710   0.301   7.774  0.0943 -0.1636  0.2306
 5264SOL    HW127428   4.651   0.375   7.783  1.5772  0.8995  1.1415
 5264SOL    HW227429   4.649   0.227   7.768 -1.0922  0.6928  1.7834
 5265SOL     OW27430   2.256   1.404   6.863 -1.0750  0.5170 -0.0335
 5265SOL    HW127431   2.164   1.414   6.886 -0.2884  0.9237  3.0274
 5265SOL    HW227432   2.269   1.309   6.863  0.3423  0.7151 -1.0588
 5266SOL     OW27433   3.490   3.289   2.189 -0.0831 -0.5645 -0.0892
 5266SOL    HW127434   3.418   3.286   2.126 -0.3036  1.5077  0.0707
 5266SOL    HW227435   3.475   3.372   2.235  0.4713  0.3292 -1.4981
 5267SOL     OW27436   1.510   0.876   8.607  0.0531  0.0918 -0.8761
 5267SOL    HW127437   1.602   0.893   8.584 -0.2060  0.8968 -1.3475
 5267SOL    HW227438   1.524   0.833   8.691  0.5501  0.2196 -0.8946
 5268SOL     OW27439   0.084   3.285   1.770  0.7590  0.6194 -0.2097
 5268SOL    HW127440   0.099   3.226   1.844 -2.5151  1.2488  0.9343
 5268SOL    HW227441   0.167   3.331   1.759  0.8830  0.0996 -1.4384
 5269SOL     OW27442   2.565   0.200   7.306 -0.8284  0.1194  0.4987
 5269SOL    HW127443   2.606   0.249   7.377  0.9589  3.6855 -2.9700
 5269SOL    HW227444   2.638   0.149   7.272  0.3196  1.4576  0.9517
 5270SOL     OW27445   3.738   3.086   4.980  0.0246 -0.3356 -0.1829
 5270SOL    HW127446   3.783   3.059   4.900 -1.2029  1.3377 -1.4471
 5270SOL    HW227447   3.665   3.133   4.940  0.6987  1.5022  0.7417
 5271SOL     OW27448   4.417   1.250   7.617 -0.4228  0.4974  0.1587
 5271SOL    HW127449   4.424   1.182   7.551 -1.6849  0.0910  0.4564
 5271SOL    HW227450   4.325   1.228   7.632 -0.3569 -0.7034 -1.2938
 5272SOL     OW27451   0.644   4.394  14.814  0.1456 -0.2394 -0.4346
 5272SOL    HW127452   0.560   4.366  14.777  0.5271 -1.0222 -0.7107
 5272SOL    HW227453   0.616   4.472  14.861  0.7111 -1.9782  2.7646
 5273SOL     OW27454   1.845   3.911   0.263 -0.0191  0.9159  0.0668
 5273SOL    HW127455   1.929   3.953   0.281  1.1386 -0.2639 -2.5993
 5273SOL    HW227456   1.867   3.852   0.191 -1.4380  0.9113 -0.3697
 5274SOL     OW27457   1.647   0.925   6.605 -0.0967 -0.3628  0.3565
 5274SOL    HW127458   1.708   0.868   6.653  0.1423  1.0427  1.7292
 5274SOL    HW227459   1.611   0.974   6.678 -0.0835  2.4811 -1.5361
 5275SOL     OW27460   4.383   4.309   1.459 -0.2404  0.2840 -0.4715
 5275SOL    HW127461   4.292   4.325   1.436 -0.8049  0.3609  1.8452
 5275SOL    HW227462   4.399   4.229   1.410 -1.9862 -0.5199  0.3043
 5276SOL     OW27463   1.200   4.370   6.305 -0.6327  0.4247 -0.5201
 5276SOL    HW127464   1.267   4.428   6.269 -1.1351  2.7648  2.2491
 5276SOL    HW227465   1.185   4.433   6.376  1.8464  1.0144 -0.5104
 5277SOL     OW27466   1.807   2.380  13.190 -0.3862 -0.2115 -0.2639
 5277SOL    HW127467   1.900   2.398  13.196 -0.7675  0.8884  2.0645
 5277SOL    HW227468   1.814   2.300  13.138 -0.1901 -0.7331  0.5718
 5278SOL     OW27469   4.706   4.608  12.296  0.0975  0.0823  0.0331
 5278SOL    HW127470   4.704   4.515  12.274  0.4452  0.1845 -0.4175
 5278SOL    HW227471   4.632   4.615  12.357  0.3438  1.3942  0.1925
 5279SOL     OW27472   1.214   1.778   3.946 -0.6048  0.2689 -0.1382
 5279SOL    HW127473   1.181   1.778   3.856  1.8177  0.7826 -1.0106
 5279SOL    HW227474   1.148   1.722   3.987 -0.2745 -0.8684 -1.1282
 5280SOL     OW27475   2.401   4.122   1.503  0.1839  0.2270 -0.3535
 5280SOL    HW127476   2.452   4.184   1.554  0.5755 -0.2497 -0.1661
 5280SOL    HW227477   2.350   4.094   1.579  1.3497  0.0495  0.3560
 5281SOL     OW27478   1.698   2.589   4.503  0.0777 -0.2316  0.4081
 5281SOL    HW127479   1.791   2.609   4.499 -0.0860  0.9335  2.4591
 5281SOL    HW227480   1.693   2.567   4.596  1.3909 -0.2935  0.4656
 5282SOL     OW27481   2.949   0.753   7.581 -0.1018 -0.2627 -0.1581
 5282SOL    HW127482   2.881   0.691   7.556 -0.0535 -0.2071 -0.4228
 5282SOL    HW227483   2.963   0.798   7.498  0.4731 -1.0870 -0.5129
 5283SOL     OW27484   0.594   2.737   9.577 -0.0022 -0.3421 -0.2985
 5283SOL    HW127485   0.572   2.800   9.508  1.4932  0.1332 -0.3649
 5283SOL    HW227486   0.641   2.797   9.636 -1.9939  0.2216  0.6908
 5284SOL     OW27487   0.185   4.603   5.470 -0.2847  0.0267  0.0870
 5284SOL    HW127488   0.182   4.697   5.455  4.1099 -0.0044 -0.8348
 5284SOL    HW227489   0.121   4.566   5.408 -0.7913  0.7259  0.1940
 5285SOL     OW27490   3.255   0.048   2.716 -1.1054 -0.5813  0.6307
 5285SOL    HW127491   3.279   4.703   2.680  0.1570  0.2078 -0.4055
 5285SOL    HW227492   3.338   0.095   2.715 -1.1205 -0.5576  0.5204
 5286SOL     OW27493   2.368   3.310   9.691 -0.4743  0.0556  0.1955
 5286SOL    HW127494   2.404   3.274   9.610  2.1947  1.6046  0.6618
 5286SOL    HW227495   2.389   3.251   9.763  1.6873  1.3738  0.6458
 5287SOL     OW27496   2.136   1.807  10.158  0.1518  0.1845  0.1770
 5287SOL    HW127497   2.178   1.813  10.243  0.3113 -2.6986  0.2950
 5287SOL    HW227498   2.042   1.798  10.174  0.0757  0.1961 -0.2512
 5288SOL     OW27499   2.061   0.795   1.742  0.4844 -0.2322 -0.0935
 5288SOL    HW127500   2.075   0.869   1.682 -1.3238 -0.3657 -0.6762
 5288SOL    HW227501   2.010   0.744   1.679 -1.4796  1.5871 -0.0031
 5289SOL     OW27502   3.092   1.972   9.231  0.0380  0.2216  0.1832
 5289SOL    HW127503   3.127   1.921   9.157  0.8971  2.0525 -0.6782
 5289SOL    HW227504   3.068   1.904   9.294 -2.0501  0.4648 -0.3717
 5290SOL     OW27505   2.459   1.070   9.233  0.3592 -0.2610  0.2437
 5290SOL    HW127506   2.447   0.988   9.184 -0.0711  0.5784 -1.0479
 5290SOL    HW227507   2.399   1.047   9.303 -2.1679  2.5458 -0.9841
 5291SOL     OW27508   4.312   1.596   6.195  0.4693 -0.0233 -0.0347
 5291SOL    HW127509   4.288   1.621   6.284  0.1454  0.1757 -0.1781
 5291SOL    HW227510   4.360   1.672   6.162 -0.0674  1.0413  1.6561
 5292SOL     OW27511   2.093   1.080  10.650  0.1988 -0.5000 -0.3061
 5292SOL    HW127512   2.073   1.155  10.706  0.4983  0.1989 -1.1348
 5292SOL    HW227513   2.188   1.071  10.659  0.4135  2.4199  0.6063
 5293SOL     OW27514   3.830   3.051   2.187  0.0166 -0.2732  0.4868
 5293SOL    HW127515   3.815   3.125   2.246 -2.9386 -1.7934  1.5879
 5293SOL    HW227516   3.744   3.010   2.183  0.5952 -1.4957  0.8126
 5294SOL     OW27517   2.699   2.976   8.184 -0.0625 -0.5974  0.2058
 5294SOL    HW127518   2.770   2.975   8.121 -0.5518  0.6847 -0.3665
 5294SOL    HW227519   2.682   2.884   8.206  1.5776 -1.3981 -1.9078
 5295SOL     OW27520   3.752   2.154   0.273 -0.1109  1.1194 -0.1188
 5295SOL    HW127521   3.811   2.224   0.302  0.8625 -0.5026  1.8021
 5295SOL    HW227522   3.729   2.120   0.359 -2.5077  1.7429 -0.5224
 5296SOL     OW27523   0.900   1.902  11.404 -0.2627 -0.0935  0.2339
 5296SOL    HW127524   0.980   1.849  11.402  0.7667  1.5546 -2.7486
 5296SOL    HW227525   0.939   1.985  11.377  1.5240 -0.1715  2.5365
 5297SOL     OW27526   2.776   3.595   4.704 -0.0274 -0.0383 -0.3630
 5297SOL    HW127527   2.761   3.690   4.710 -2.1603 -0.4028 -0.1107
 5297SOL    HW227528   2.860   3.590   4.658 -0.1467  1.7797 -0.7956
 5298SOL     OW27529   3.242   0.030   6.329 -0.2104 -0.2826  0.2704
 5298SOL    HW127530   3.312   4.716   6.364  0.2665  0.4406  0.4469
 5298SOL    HW227531   3.295   0.095   6.282  0.1356 -0.4531  0.4229
 5299SOL     OW27532   0.954   2.608   4.338  0.7611  0.4597 -0.2906
 5299SOL    HW127533   1.006   2.556   4.399  0.0253  1.3370  1.0934
 5299SOL    HW227534   0.912   2.666   4.403 -1.4516 -1.7032  0.2213
 5300SOL     OW27535   1.185   2.414   8.782  0.1049  0.1488  0.3730
 5300SOL    HW127536   1.260   2.369   8.743  0.0956 -1.7941  2.6113
 5300SOL    HW227537   1.183   2.374   8.869  0.5451  0.2012  0.4052
 5301SOL     OW27538   3.619   2.372  16.149 -0.9111 -0.8289  0.3926
 5301SOL    HW127539   3.680   2.333  16.086 -3.2549 -0.7860 -1.8734
 5301SOL    HW227540   3.651   2.461  16.165 -1.4404 -0.6133  0.2491
 5302SOL     OW27541   2.250   4.464  14.849  0.3400  0.1513  0.5132
 5302SOL    HW127542   2.334   4.502  14.821 -0.4514 -0.4910 -2.7250
 5302SOL    HW227543   2.194   4.539  14.829 -0.1578 -0.2818  0.3028
 5303SOL     OW27544   4.522   3.360  16.681 -0.1189 -0.1425  0.0857
 5303SOL    HW127545   4.507   3.384  16.590 -1.4319  2.7618  1.0688
 5303SOL    HW227546   4.527   3.446  16.722  0.0202  0.4062 -1.0862
 5304SOL     OW27547   4.463   1.330   6.231  0.8460 -0.2008 -0.3857
 5304SOL    HW127548   4.379   1.326   6.276  0.4861  0.9305 -0.9543
 5304SOL    HW227549   4.433   1.381   6.156 -1.0052 -1.4702 -0.5098
 5305SOL     OW27550   0.771   4.325   7.696 -0.2719  0.3347  0.2378
 5305SOL    HW127551   0.814   4.376   7.765 -0.1631  0.3814  0.1361
 5305SOL    HW227552   0.683   4.312   7.729 -0.5288  1.4927  0.0321
 5306SOL     OW27553   2.898   0.338  17.542  0.2808  0.3108  0.0923
 5306SOL    HW127554   2.833   0.377  17.484  1.2120  3.0555  0.9071
 5306SOL    HW227555   2.870   0.247  17.554 -1.5979  0.9440  0.5396
 5307SOL     OW27556   2.312   4.281  15.909  0.3697 -0.0296  0.3202
 5307SOL    HW127557   2.353   4.205  15.950 -1.9487 -0.3306  2.0520
 5307SOL    HW227558   2.226   4.267  15.947  0.2089  0.5939  0.1830
 5308SOL     OW27559   2.256   4.095  14.453  0.0033 -0.5591 -0.0985
 5308SOL    HW127560   2.262   4.097  14.357 -0.2740  1.5058 -0.0713
 5308SOL    HW227561   2.343   4.121  14.484 -0.4881  1.2270 -0.2094
 5309SOL     OW27562   0.620   1.971  16.170 -0.3257  0.4001  0.4326
 5309SOL    HW127563   0.567   2.027  16.114 -0.3476  1.8185  1.8717
 5309SOL    HW227564   0.707   1.987  16.136 -0.5838  0.5310 -0.1572
 5310SOL     OW27565   2.379   4.513  16.991  0.3440  0.0679 -0.8305
 5310SOL    HW127566   2.327   4.548  17.064 -0.5316  0.5900 -1.6989
 5310SOL    HW227567   2.305   4.483  16.938 -1.5168 -1.0687  2.3823
 5311SOL     OW27568   0.737   0.766   3.405 -0.1754 -0.4169 -0.3563
 5311SOL    HW127569   0.790   0.839   3.373 -0.2402  0.4559  1.5538
 5311SOL    HW227570   0.733   0.795   3.496 -0.9054 -1.8810  0.0860
 5312SOL     OW27571   2.509   2.313   9.220  0.4441  0.3300 -0.4260
 5312SOL    HW127572   2.486   2.405   9.233 -2.9264 -0.8413  1.6306
 5312SOL    HW227573   2.600   2.317   9.250  0.1936 -2.6670  0.7034
 5313SOL     OW27574   1.729   3.196   4.149 -0.2369  0.7082 -0.1579
 5313SOL    HW127575   1.795   3.264   4.160  0.4687 -0.2952  1.8321
 5313SOL    HW227576   1.720   3.185   4.054  0.7714 -0.4493 -0.1168
 5314SOL     OW27577   0.312   3.731   0.307 -0.4844 -0.4582  0.4849
 5314SOL    HW127578   0.230   3.728   0.356 -0.1540 -1.8915  0.9530
 5314SOL    HW227579   0.372   3.724   0.381 -0.0893 -1.7775  0.0493
 5315SOL     OW27580   2.662   2.812   9.411  0.2093  0.1571 -0.8659
 5315SOL    HW127581   2.570   2.835   9.427  0.1979 -0.6006  0.2224
 5315SOL    HW227582   2.714   2.864   9.472 -0.4052 -1.5238  1.0924
 5316SOL     OW27583   0.428   3.267   7.613 -0.1440 -0.4662 -0.2273
 5316SOL    HW127584   0.523   3.255   7.623 -0.4596 -0.2053  2.9160
 5316SOL    HW227585   0.416   3.330   7.684 -1.5961 -0.1854 -0.7239
 5317SOL     OW27586   0.739   3.037  15.119 -0.3248  1.0040 -0.3509
 5317SOL    HW127587   0.669   2.991  15.073  0.6088  1.7150 -2.4363
 5317SOL    HW227588   0.694   3.053  15.202 -0.0082 -2.4929  0.4736
 5318SOL     OW27589   1.370   3.382   9.124  0.0633  0.4735 -0.0857
 5318SOL    HW127590   1.457   3.351   9.097 -0.6273  0.4642 -2.3002
 5318SOL    HW227591   1.377   3.360   9.217 -0.9987 -0.5900 -0.2602
 5319SOL     OW27592   1.367   1.766   9.407  0.3106  0.4367 -0.6279
 5319SOL    HW127593   1.370   1.770   9.502  0.3473 -2.0989 -0.5312
 5319SOL    HW227594   1.277   1.776   9.375 -0.6281 -1.6614  1.3488
 5320SOL     OW27595   1.791   0.874   9.142  0.1324 -0.3326 -0.3416
 5320SOL    HW127596   1.768   0.828   9.222  0.5457 -1.8463 -1.0801
 5320SOL    HW227597   1.710   0.923   9.127  0.8368  0.5053 -1.4602
 5321SOL     OW27598   2.812   2.997   0.462  0.1222  0.1831 -0.1066
 5321SOL    HW127599   2.720   2.979   0.444 -0.3731 -0.5462  3.1081
 5321SOL    HW227600   2.857   2.944   0.396  0.1010 -0.8631  0.7149
 5322SOL     OW27601   1.311   0.614   7.743  0.1927  0.1996 -0.0303
 5322SOL    HW127602   1.368   0.560   7.798 -0.1864  0.6774  0.8328
 5322SOL    HW227603   1.269   0.550   7.685 -0.3325 -1.2877  1.9867
 5323SOL     OW27604   1.071   0.179   8.292 -0.1904 -0.1636  0.3600
 5323SOL    HW127605   1.072   0.123   8.369 -0.5133  0.5814  0.9049
 5323SOL    HW227606   1.074   0.111   8.224 -0.2408 -0.4492  0.6461
 5324SOL     OW27607   3.131   4.202  12.753 -0.6839  0.3329  0.6951
 5324SOL    HW127608   3.187   4.252  12.811 -1.7610  1.5262  0.7246
 5324SOL    HW227609   3.176   4.118  12.755  1.5220  1.5294  0.8797
 5325SOL     OW27610   4.239   1.482   3.178  0.2330  0.3346 -0.2941
 5325SOL    HW127611   4.283   1.566   3.193 -1.1276  1.0460 -0.2664
 5325SOL    HW227612   4.227   1.444   3.265  1.7026 -0.6280 -0.5092
 5326SOL     OW27613   4.035   0.587  11.365  0.2592  0.4922 -0.5415
 5326SOL    HW127614   4.115   0.631  11.392  0.3441  0.4338 -0.6963
 5326SOL    HW227615   4.035   0.633  11.281  2.1109  1.1585 -0.1761
 5327SOL     OW27616   1.976   1.517   6.876 -0.1043  0.2521  0.4076
 5327SOL    HW127617   2.004   1.595   6.923  0.9285 -1.2764  2.3131
 5327SOL    HW227618   1.890   1.500   6.914 -1.5286  2.9072 -1.5677
 5328SOL     OW27619   1.226   2.925  15.210 -0.0756 -0.2353 -0.2193
 5328SOL    HW127620   1.260   2.839  15.235  0.4881  0.4721  1.3877
 5328SOL    HW227621   1.198   2.963  15.293  1.7278  0.4337  0.0816
 5329SOL     OW27622   0.004   2.674   7.327  0.6855  0.2246 -0.1607
 5329SOL    HW127623   4.717   2.694   7.238  1.1418  1.3798 -0.0413
 5329SOL    HW227624   0.083   2.727   7.338  0.4963  0.9293 -2.1899
 5330SOL     OW27625   3.906   4.229   1.002  0.1116 -0.1007  0.2749
 5330SOL    HW127626   3.945   4.307   0.962 -0.2054 -0.9971 -1.7770
 5330SOL    HW227627   3.811   4.242   0.999  0.0851 -0.2671  0.4303
 5331SOL     OW27628   1.184   4.299   2.538  0.0449  0.2800  0.4435
 5331SOL    HW127629   1.273   4.285   2.569  0.4399 -0.3551 -0.9898
 5331SOL    HW227630   1.129   4.254   2.603 -1.8634  2.6169  0.4509
 5332SOL     OW27631   1.200   2.521   9.469  0.0095 -0.0078 -0.0071
 5332SOL    HW127632   1.227   2.435   9.439  0.7893  0.1685  0.1896
 5332SOL    HW227633   1.105   2.517   9.454  0.0149  2.4132 -0.6499
 5333SOL     OW27634   1.362   2.105   5.203 -0.3831  0.0441  0.0585
 5333SOL    HW127635   1.321   2.187   5.233  1.8668  1.9017 -1.9334
 5333SOL    HW227636   1.448   2.105   5.246 -0.3827 -1.0689  0.0389
 5334SOL     OW27637   2.573   1.902   6.331  0.2819 -0.5579  0.1197
 5334SOL    HW127638   2.525   1.904   6.414  0.7093  0.3895  0.3348
 5334SOL    HW227639   2.501   1.904   6.267 -0.4116 -3.2692  0.8181
 5335SOL     OW27640   1.182   4.486  17.132 -0.1252  0.2620 -0.0182
 5335SOL    HW127641   1.208   4.543  17.058  0.8133  0.6673  0.6266
 5335SOL    HW227642   1.165   4.409  17.077 -0.4040  0.9872 -0.9702
 5336SOL     OW27643   2.992   3.745   2.278  0.0079  0.1413  0.1343
 5336SOL    HW127644   2.976   3.836   2.252 -0.5302  0.0329  0.0907
 5336SOL    HW227645   2.907   3.721   2.314 -0.1527  0.8283  0.2260
 5337SOL     OW27646   2.493   2.778  14.495  0.1327 -0.0862 -0.1021
 5337SOL    HW127647   2.437   2.825  14.557  1.5478  0.4671  0.7740
 5337SOL    HW227648   2.523   2.696  14.534  0.9883 -0.3526 -1.3279
 5338SOL     OW27649   2.239   4.488   7.342 -0.0661 -0.3953 -0.0498
 5338SOL    HW127650   2.201   4.402   7.359  2.9886 -1.2981  2.2707
 5338SOL    HW227651   2.300   4.479   7.269  0.1179  1.5227 -0.1290
 5339SOL     OW27652   4.291   3.914   4.820 -0.2957 -0.4765  0.0343
 5339SOL    HW127653   4.238   3.866   4.883  0.5738 -0.5193  0.7435
 5339SOL    HW227654   4.349   3.846   4.784  3.5009  1.6223  2.1040
 5340SOL     OW27655   3.008   3.608   6.803  0.1657  0.6710 -0.3328
 5340SOL    HW127656   2.990   3.527   6.755  2.0332  0.2489 -0.3516
 5340SOL    HW227657   3.098   3.592   6.832  0.8339  0.2808 -2.5534
 5341SOL     OW27658   4.334   4.521  12.706  0.0822  0.3315  0.5482
 5341SOL    HW127659   4.279   4.452  12.669  0.9286  0.9223 -1.8077
 5341SOL    HW227660   4.261   4.559  12.755 -2.3123 -2.6006 -0.7473
 5342SOL     OW27661   2.256   1.141   7.160  0.2624 -0.1886  0.2526
 5342SOL    HW127662   2.228   1.223   7.200 -1.9487 -0.1991 -1.2937
 5342SOL    HW227663   2.176   1.118   7.113  1.1759  0.5508 -1.6496
 5343SOL     OW27664   1.035   4.690   2.021 -0.2010  0.3187 -0.6344
 5343SOL    HW127665   0.944   4.718   2.028 -0.3592 -0.3618  0.0660
 5343SOL    HW227666   1.044   4.678   1.927  0.7598  0.5095 -0.5744
 5344SOL     OW27667   2.215   2.241   7.517 -0.4138 -0.2003  0.3728
 5344SOL    HW127668   2.279   2.209   7.580 -0.1059 -0.6543 -0.1663
 5344SOL    HW227669   2.136   2.250   7.571 -0.0462  3.1338  0.3221
 5345SOL     OW27670   2.966   3.033   3.248  0.1469  0.0548  0.3255
 5345SOL    HW127671   2.993   3.008   3.160 -1.6871 -1.7718  0.2899
 5345SOL    HW227672   2.888   2.981   3.266 -1.0455  1.2794 -1.2020
 5346SOL     OW27673   1.170   1.985   0.907 -0.3193  0.0575 -0.1546
 5346SOL    HW127674   1.080   2.009   0.928  0.1514 -1.2551  3.2817
 5346SOL    HW227675   1.218   2.009   0.986  1.3837 -1.2458 -0.7958
 5347SOL     OW27676   0.278   2.397  16.835 -0.3563  0.2065  0.2584
 5347SOL    HW127677   0.246   2.307  16.827  2.2556 -0.6471 -0.5384
 5347SOL    HW227678   0.299   2.385  16.928  1.4785  0.6502 -0.1085
 5348SOL     OW27679   3.815   0.974  11.301  0.4907 -0.3600  0.8123
 5348SOL    HW127680   3.815   0.981  11.397  0.1507  0.0819  0.7781
 5348SOL    HW227681   3.736   1.024  11.281 -0.3020 -1.1810  1.8675
 5349SOL     OW27682   0.331   0.539   1.905 -0.1705 -0.8843 -0.2604
 5349SOL    HW127683   0.370   0.615   1.949 -2.3745 -0.8362  1.5922
 5349SOL    HW227684   0.287   0.588   1.836  0.6587  0.1223 -0.0897
 5350SOL     OW27685   3.414   2.632   8.307  0.4149 -0.6623  0.0700
 5350SOL    HW127686   3.471   2.580   8.364  2.3545 -0.6941 -1.8828
 5350SOL    HW227687   3.476   2.705   8.296  1.5146 -1.2800  2.2492
 5351SOL     OW27688   0.338   1.537   7.596 -0.4257 -0.4621  0.0989
 5351SOL    HW127689   0.294   1.541   7.681  2.5701 -1.6498  1.7272
 5351SOL    HW227690   0.399   1.611   7.599 -0.4966 -0.3511 -1.5235
 5352SOL     OW27691   3.991   1.634   1.324 -0.4559  0.5587 -0.9500
 5352SOL    HW127692   3.989   1.674   1.237  0.1564  0.8229 -0.8412
 5352SOL    HW227693   3.919   1.689   1.357 -0.9288 -1.3571  1.2304
 5353SOL     OW27694   1.030   0.076  12.414 -0.1716 -0.1215 -0.2979
 5353SOL    HW127695   0.955   0.058  12.472 -0.5211  0.9979 -0.4041
 5353SOL    HW227696   1.067   4.731  12.392 -0.6748 -0.4057 -0.0315
 5354SOL     OW27697   0.643   2.448   6.965 -0.3723 -0.5875 -0.0726
 5354SOL    HW127698   0.641   2.354   6.987  1.4222 -1.2356 -2.7033
 5354SOL    HW227699   0.738   2.459   6.962 -0.3916  0.5727  3.7024
 5355SOL     OW27700   0.641   0.587   0.734 -0.4376  0.6650  0.2271
 5355SOL    HW127701   0.548   0.600   0.719 -0.7344 -0.9008  0.7718
 5355SOL    HW227702   0.649   0.510   0.790 -0.4402 -0.4792 -1.3392
 5356SOL     OW27703   2.600   4.577  16.116 -0.5184  0.2071 -0.7647
 5356SOL    HW127704   2.543   4.556  16.043 -1.2356 -1.7699  0.3849
 5356SOL    HW227705   2.676   4.524  16.092 -0.4643 -1.1095  2.3038
 5357SOL     OW27706   3.715   4.043  15.091  0.5473 -0.3650  0.0869
 5357SOL    HW127707   3.751   4.128  15.116  0.9911 -0.3627 -0.5404
 5357SOL    HW227708   3.685   4.005  15.173 -1.7754  3.1836  0.8850
 5358SOL     OW27709   2.810   4.323   5.680  0.3129  0.3855  0.2193
 5358SOL    HW127710   2.801   4.321   5.775 -0.1370  0.0724  0.1694
 5358SOL    HW227711   2.901   4.298   5.663 -0.1990 -0.9861 -0.4827
 5359SOL     OW27712   2.813   2.889   6.962 -0.0408  0.6315 -0.3805
 5359SOL    HW127713   2.798   2.852   7.049  1.2325  0.6156 -0.1601
 5359SOL    HW227714   2.908   2.891   6.949 -0.0431  0.9951 -0.3553
 5360SOL     OW27715   3.316   3.546  14.901  0.1890 -0.3730  0.3380
 5360SOL    HW127716   3.380   3.615  14.882 -0.1708  0.0409  0.6449
 5360SOL    HW227717   3.248   3.585  14.954  1.2570  1.7899  0.0948
 5361SOL     OW27718   0.956   3.660   8.185 -0.4042  0.0820  0.5397
 5361SOL    HW127719   0.877   3.681   8.234  0.3840  0.6462  1.5644
 5361SOL    HW227720   1.023   3.689   8.247  1.7579  1.0764 -2.2661
 5362SOL     OW27721   1.113   4.223   5.353 -0.0207 -0.0087  0.2129
 5362SOL    HW127722   1.097   4.251   5.263  0.0726  0.6240  0.3938
 5362SOL    HW227723   1.052   4.275   5.405 -1.2568 -0.1302 -1.1319
 5363SOL     OW27724   3.637   2.387   7.808 -0.2331  0.5456 -0.0678
 5363SOL    HW127725   3.655   2.439   7.729 -0.4151 -0.8851 -1.0592
 5363SOL    HW227726   3.560   2.335   7.784 -1.1032  2.7270 -2.0522
 5364SOL     OW27727   1.254   0.195   0.675  0.7049  0.5485  0.1219
 5364SOL    HW127728   1.199   0.181   0.599 -0.5468 -1.1712  1.3429
 5364SOL    HW227729   1.315   0.265   0.651  0.1065  1.9203  2.5649
 5365SOL     OW27730   4.695   3.117   3.090 -0.4547 -0.3267  0.7394
 5365SOL    HW127731   4.670   3.084   3.176 -0.7446  0.0685  0.8072
 5365SOL    HW227732   4.608   3.126   3.052  0.1324 -1.3446 -0.8339
 5366SOL     OW27733   2.699   3.674   7.734 -0.7094  0.0593 -0.2843
 5366SOL    HW127734   2.687   3.729   7.811 -0.6772  0.9608 -0.9198
 5366SOL    HW227735   2.649   3.597   7.762 -1.0976  0.0784 -0.9141
 5367SOL     OW27736   0.037   1.786   8.953  0.0126 -0.1127 -0.5869
 5367SOL    HW127737   0.014   1.879   8.954 -0.0027 -0.1211 -0.2457
 5367SOL    HW227738   0.002   1.752   8.871 -0.8384  0.6803 -0.5517
 5368SOL     OW27739   3.531   2.569   4.968  0.5858 -0.6727 -0.4901
 5368SOL    HW127740   3.451   2.586   4.918  1.6104 -0.2182 -1.9753
 5368SOL    HW227741   3.542   2.477   4.944 -0.5803 -0.6674 -1.0495
 5369SOL     OW27742   1.437   0.535  16.005 -0.0332  0.2895 -0.2849
 5369SOL    HW127743   1.399   0.595  15.941 -1.6287 -1.8703 -1.3653
 5369SOL    HW227744   1.517   0.582  16.028  1.9040 -2.2216 -1.8462
 5370SOL     OW27745   1.574   0.302   4.844  0.0161 -0.7047 -0.5521
 5370SOL    HW127746   1.601   0.329   4.931  0.3675  2.7965 -1.7549
 5370SOL    HW227747   1.491   0.349   4.838 -0.7461 -1.5801  3.3875
 5371SOL     OW27748   4.115   2.367   3.939  0.0015 -0.8659  0.1350
 5371SOL    HW127749   4.188   2.418   3.905  0.7916 -0.7954  1.9216
 5371SOL    HW227750   4.039   2.413   3.903  1.4749  2.5955  1.4764
 5372SOL     OW27751   2.151   2.001   7.062 -0.0215 -0.1017 -0.5892
 5372SOL    HW127752   2.144   2.054   6.983 -1.4241  0.6620  0.0500
 5372SOL    HW227753   2.170   2.066   7.130  1.2435  1.1925 -2.1681
 5373SOL     OW27754   4.129   4.259   9.101  0.3730 -0.2754  0.8179
 5373SOL    HW127755   4.107   4.229   9.189  0.1417 -2.2813  0.0900
 5373SOL    HW227756   4.175   4.342   9.114 -0.1278  0.2418 -0.6644
 5374SOL     OW27757   3.450   1.185   2.098 -0.6997 -0.0668 -0.5846
 5374SOL    HW127758   3.458   1.141   2.182  2.3858 -0.2904 -0.9997
 5374SOL    HW227759   3.363   1.151   2.078 -0.8494  0.5042 -0.9015
 5375SOL     OW27760   3.405   0.231   9.738  0.2617 -0.0784  0.0458
 5375SOL    HW127761   3.325   0.196   9.776  0.6042 -1.2791 -0.3175
 5375SOL    HW227762   3.385   0.299   9.674  0.3094  0.0772  0.1955
 5376SOL     OW27763   1.564   4.031   9.050  0.2063  0.1475  0.0495
 5376SOL    HW127764   1.595   3.954   9.097 -0.6649  0.4671  1.1361
 5376SOL    HW227765   1.571   4.101   9.115  0.0081  0.3895 -0.1875
 5377SOL     OW27766   0.504   0.339   2.656  0.5183  0.0686 -0.0499
 5377SOL    HW127767   0.493   0.434   2.648  0.4741  0.1337  0.8041
 5377SOL    HW227768   0.481   0.318   2.746  1.0586  2.0710  0.5455
 5378SOL     OW27769   0.777   1.033  16.090 -0.5164  0.3881  0.4305
 5378SOL    HW127770   0.723   0.992  16.022 -1.7804  1.9736  0.4617
 5378SOL    HW227771   0.855   1.045  16.035  0.0272 -1.5595  0.8143
 5379SOL     OW27772   2.409   4.082   4.807 -0.0547  0.1994 -0.2891
 5379SOL    HW127773   2.481   4.070   4.745  0.2907 -0.3918  0.2228
 5379SOL    HW227774   2.404   3.999   4.854  0.6804  0.1630 -0.2625
 5380SOL     OW27775   4.313   2.301  10.639 -0.1341 -0.0540 -0.0002
 5380SOL    HW127776   4.267   2.268  10.562 -0.5278  1.9291 -0.5902
 5380SOL    HW227777   4.330   2.391  10.614 -0.0965 -0.2289 -0.6025
 5381SOL     OW27778   2.344   2.378   5.942 -0.3731  0.2481 -0.6413
 5381SOL    HW127779   2.412   2.380   5.875 -0.4728 -0.8447 -0.7802
 5381SOL    HW227780   2.301   2.294   5.924 -0.1919 -0.0051  0.1281
 5382SOL     OW27781   2.807   0.422   2.064  0.3352  0.4411  0.0738
 5382SOL    HW127782   2.858   0.392   2.139 -0.5604  0.1152  0.5491
 5382SOL    HW227783   2.831   0.514   2.050 -0.5904  0.3713 -1.9902
 5383SOL     OW27784   2.446   2.135   6.696 -0.0817 -0.3403  0.1809
 5383SOL    HW127785   2.439   2.203   6.629  1.6785  0.0070  0.3326
 5383SOL    HW227786   2.374   2.151   6.758  0.9412  1.0989  1.0290
 5384SOL     OW27787   3.096   3.739   9.576 -0.7308 -0.7343 -0.0041
 5384SOL    HW127788   3.111   3.668   9.638  1.0096  0.6453  1.1238
 5384SOL    HW227789   3.169   3.723   9.517  1.1860 -0.2514  2.2822
 5385SOL     OW27790   4.061   3.594   2.524 -0.0273 -0.0532 -0.0030
 5385SOL    HW127791   4.094   3.528   2.584  1.4143 -0.0198 -0.7546
 5385SOL    HW227792   3.977   3.611   2.565  0.8181 -0.8763  2.0876
 5386SOL     OW27793   4.282   1.771   5.788 -0.1412  0.1185  0.1190
 5386SOL    HW127794   4.372   1.803   5.787  0.0471 -0.4086  0.4398
 5386SOL    HW227795   4.316   1.682   5.788  0.7748  0.4644 -0.3390
 5387SOL     OW27796   1.943   4.484   7.306 -0.6708  0.4681 -0.1588
 5387SOL    HW127797   1.993   4.416   7.351  2.4001  0.4611 -3.5564
 5387SOL    HW227798   1.864   4.499   7.359  0.8882 -0.2414  2.3584
 5388SOL     OW27799   1.181   2.332  10.874 -0.0761  0.4651  0.2075
 5388SOL    HW127800   1.267   2.373  10.885 -0.4258  0.9246  1.2916
 5388SOL    HW227801   1.149   2.370  10.792 -1.3594  2.3872  1.5965
 5389SOL     OW27802   2.110   2.994  17.736  0.4423  0.1950 -0.4737
 5389SOL    HW127803   2.150   2.912   0.003 -0.6268  0.3310  1.4378
 5389SOL    HW227804   2.091   3.033   0.060  0.0544 -0.5909 -0.2024
 5390SOL     OW27805   3.761   4.002   5.528  0.1513  0.1523 -0.4844
 5390SOL    HW127806   3.827   4.008   5.598 -0.9880 -0.2067  0.6149
 5390SOL    HW227807   3.756   3.908   5.511 -0.6835  0.1480 -0.2087
 5391SOL     OW27808   1.134   0.447   0.061 -0.0261 -0.0509 -0.4372
 5391SOL    HW127809   1.186   0.500   0.122  0.9254 -0.8489 -0.5535
 5391SOL    HW227810   1.168   0.360   0.083  0.6149  0.4429  0.5192
 5392SOL     OW27811   2.913   1.368   5.981 -0.2340  0.2120  0.0025
 5392SOL    HW127812   2.956   1.315   5.914 -0.7995 -0.3147  0.0676
 5392SOL    HW227813   2.856   1.416   5.921 -0.0361 -0.9371 -1.1069
 5393SOL     OW27814   0.429   3.025   4.214  0.6645  0.1245  0.3785
 5393SOL    HW127815   0.430   3.091   4.144 -2.0077 -0.4075 -0.1623
 5393SOL    HW227816   0.471   2.950   4.171 -1.1403 -0.1545 -0.9446
 5394SOL     OW27817   2.130   4.702   3.647 -0.6738  0.1372 -0.1333
 5394SOL    HW127818   2.182   0.037   3.672  0.4482 -0.4452 -0.7103
 5394SOL    HW227819   2.080   4.690   3.728  0.9762  1.9565  1.1497
 5395SOL     OW27820   3.229   0.915   5.148  0.0790 -0.3834  0.2214
 5395SOL    HW127821   3.209   0.882   5.061 -1.5589 -1.3735  0.9637
 5395SOL    HW227822   3.216   0.837   5.202  2.3220 -0.2807  0.9105
 5396SOL     OW27823   2.947   3.326   5.024  0.0061  0.3149 -0.0303
 5396SOL    HW127824   2.971   3.418   5.039  0.6112  0.1115  0.2333
 5396SOL    HW227825   2.851   3.329   5.030  0.0511  1.4855  0.1832
 5397SOL     OW27826   3.167   1.657   9.190  0.4032  0.3157  0.1301
 5397SOL    HW127827   3.116   1.579   9.211  0.5780 -0.0422 -0.7497
 5397SOL    HW227828   3.147   1.696   9.275  0.1527  0.9459 -0.2171
 5398SOL     OW27829   0.284   1.799   3.683 -0.3011  0.3130  0.8138
 5398SOL    HW127830   0.371   1.772   3.654 -1.7975 -1.6223 -1.8166
 5398SOL    HW227831   0.226   1.754   3.623  0.0546 -0.7290  1.2586
 5399SOL     OW27832   2.031   1.044  12.890 -0.0805  0.9210 -0.6089
 5399SOL    HW127833   1.993   1.131  12.877 -2.1724 -0.0197 -0.7518
 5399SOL    HW227834   2.125   1.053  12.872  0.0396 -0.7553 -0.7859
 5400SOL     OW27835   4.346   4.703  15.678  0.0367  0.2313 -0.0317
 5400SOL    HW127836   4.398   4.625  15.658  0.0710  0.3342 -0.3393
 5400SOL    HW227837   4.335   4.680  15.770  2.9318  3.5648  1.1543
 5401SOL     OW27838   1.612   2.450   7.285 -0.3644  0.3996  0.1487
 5401SOL    HW127839   1.578   2.500   7.359 -3.3335 -2.4748  0.7220
 5401SOL    HW227840   1.544   2.387   7.260  1.5637 -1.7519  0.4460
 5402SOL     OW27841   2.261   2.090   5.893 -0.0857  0.1119 -0.3936
 5402SOL    HW127842   2.174   2.091   5.933  0.2171  1.2600  0.2703
 5402SOL    HW227843   2.239   2.050   5.809 -0.8705 -0.4535  0.0837
 5403SOL     OW27844   4.716   0.555   1.532  0.0600 -0.3169 -0.0927
 5403SOL    HW127845   4.627   0.520   1.540  0.0857 -0.3653 -0.0150
 5403SOL    HW227846   4.704   0.649   1.545 -1.7428 -0.3954 -1.2295
 5404SOL     OW27847   0.339   1.538   4.716  0.3884 -0.3082 -0.5961
 5404SOL    HW127848   0.282   1.611   4.740 -1.0855 -1.8001  0.5079
 5404SOL    HW227849   0.423   1.583   4.724  0.7388 -1.0743  0.1021
 5405SOL     OW27850   4.492   3.856  16.058 -0.1023 -0.2522  0.1062
 5405SOL    HW127851   4.455   3.908  16.129  0.4836  0.7474 -0.3309
 5405SOL    HW227852   4.424   3.861  15.990 -1.3634  1.4563  1.5092
 5406SOL     OW27853   3.999   0.832   3.947 -0.5638 -0.1832  0.0850
 5406SOL    HW127854   3.913   0.850   3.986 -0.0060 -2.2812  2.2497
 5406SOL    HW227855   4.008   0.737   3.950 -3.1357 -0.5307 -2.3051
 5407SOL     OW27856   2.014   0.886   4.832  0.4848  0.6130 -0.1776
 5407SOL    HW127857   2.044   0.955   4.774  1.1236  1.2971  0.9657
 5407SOL    HW227858   1.965   0.941   4.894 -0.4012 -0.6035  0.2125
 5408SOL     OW27859   1.922   1.046   6.310  0.0183  0.2127 -0.6267
 5408SOL    HW127860   1.928   1.024   6.217 -1.4287  5.1504 -1.8909
 5408SOL    HW227861   1.994   1.109   6.322 -2.0242  2.3883  0.2079
 5409SOL     OW27862   2.635   2.300   1.917  0.3343  0.7633  0.1091
 5409SOL    HW127863   2.713   2.306   1.971  0.8035  2.4258 -0.7695
 5409SOL    HW227864   2.569   2.247   1.962 -0.6251  1.7613 -0.1230
 5410SOL     OW27865   2.415   3.831   8.609  0.4734 -0.0700  0.7139
 5410SOL    HW127866   2.480   3.834   8.679  0.9556 -0.4695  0.2867
 5410SOL    HW227867   2.427   3.919   8.573  1.3883 -0.2337  0.6063
 5411SOL     OW27868   3.848   0.255   5.165 -0.3336  0.0376 -0.1481
 5411SOL    HW127869   3.831   0.246   5.071  0.7298  0.3302 -0.3636
 5411SOL    HW227870   3.863   0.162   5.183  2.2499  0.8800  2.0944
 5412SOL     OW27871   0.995   0.606   5.069  0.2494  0.3566  0.7190
 5412SOL    HW127872   1.060   0.676   5.058 -1.1230  1.3549 -1.1275
 5412SOL    HW227873   0.982   0.624   5.162  0.7577  0.0603  0.8484
 5413SOL     OW27874   4.508   1.684   6.884 -0.3433 -0.5279 -0.3694
 5413SOL    HW127875   4.457   1.737   6.946  0.3895  2.1041 -2.0537
 5413SOL    HW227876   4.584   1.679   6.942  0.3724  0.3656 -1.2418
 5414SOL     OW27877   3.996   4.722   0.981  0.3726 -0.0854 -0.9866
 5414SOL    HW127878   3.964   4.661   0.914  0.1412  0.5151 -1.4244
 5414SOL    HW227879   4.019   4.658   1.048  0.4104  0.6093 -0.3273
 5415SOL     OW27880   2.301   2.697   4.209  0.0200  0.3866  0.2263
 5415SOL    HW127881   2.255   2.637   4.267  0.5762 -1.2262 -1.0094
 5415SOL    HW227882   2.229   2.756   4.188 -0.1825  0.2779  0.6161
 5416SOL     OW27883   1.284   3.254   3.695  0.0285 -0.1357 -0.2765
 5416SOL    HW127884   1.327   3.192   3.754  1.3941 -0.7917 -1.9657
 5416SOL    HW227885   1.223   3.297   3.755 -2.4848  0.2245 -3.1529
 5417SOL     OW27886   4.728   3.530   2.041  0.1606 -0.0720  0.1303
 5417SOL    HW127887   0.013   3.448   2.084  0.5822  0.3108  0.6140
 5417SOL    HW227888   4.693   3.577   2.117  1.1670  0.9649 -0.0490
 5418SOL     OW27889   1.478   4.635   6.469 -0.6142  0.3255  0.0251
 5418SOL    HW127890   1.408   4.663   6.410  0.2178  0.6167 -0.8041
 5418SOL    HW227891   1.516   4.719   6.494 -0.9512  0.2967  0.6463
 5419SOL     OW27892   2.125   0.003   8.718  0.6835 -0.4318 -0.1168
 5419SOL    HW127893   2.067   0.032   8.648  0.3416  0.6190  0.6054
 5419SOL    HW227894   2.151   4.655   8.694 -1.4220 -0.4591 -2.3091
 5420SOL     OW27895   1.960   0.595   1.541 -0.0390  0.1867  0.2274
 5420SOL    HW127896   2.000   0.561   1.461  2.4135  1.8392  0.7459
 5420SOL    HW227897   2.002   0.534   1.602  0.1571  0.6873  0.5997
 5421SOL     OW27898   2.719   4.312   5.289 -0.6330  0.2248  0.7620
 5421SOL    HW127899   2.728   4.274   5.202  0.6473 -1.2246  1.5182
 5421SOL    HW227900   2.704   4.230   5.336 -1.2289  0.5843  1.1929
 5422SOL     OW27901   0.785   3.714   5.119 -0.0744 -0.3544  0.0557
 5422SOL    HW127902   0.732   3.758   5.053  2.3588  0.0242 -1.6210
 5422SOL    HW227903   0.862   3.690   5.067 -0.2892  0.8635 -0.8048
 5423SOL     OW27904   2.480   0.090   4.310  0.0392 -0.0941  0.0765
 5423SOL    HW127905   2.523   0.011   4.342  1.7673  0.4391 -0.9115
 5423SOL    HW227906   2.398   0.086   4.359  0.4400 -2.3412  0.5275
 5424SOL     OW27907   1.089   2.876  14.701 -0.1160 -0.0564  0.1726
 5424SOL    HW127908   1.042   2.895  14.782  0.7531 -1.0482  0.9172
 5424SOL    HW227909   1.118   2.967  14.690 -0.7431  0.5779  3.6710
 5425SOL     OW27910   0.180   4.228   6.384  0.1936 -0.3700  0.4160
 5425SOL    HW127911   0.174   4.211   6.290  1.4568  2.2946 -0.1598
 5425SOL    HW227912   0.236   4.154   6.406  1.6218 -0.3016 -2.9846
 5426SOL     OW27913   2.259   2.791  13.864  0.1378 -0.0962 -0.4684
 5426SOL    HW127914   2.343   2.805  13.907  0.4305 -1.8674 -0.4760
 5426SOL    HW227915   2.219   2.723  13.919 -1.1178  1.7926  0.9691
 5427SOL     OW27916   0.164   0.847   4.117  0.5954  0.6013 -0.0888
 5427SOL    HW127917   0.218   0.822   4.192 -0.3242  0.0446  0.3828
 5427SOL    HW227918   0.170   0.771   4.059 -1.5219 -2.0171  3.1330
 5428SOL     OW27919   0.746   1.551   4.142  0.0122  0.1833 -0.5600
 5428SOL    HW127920   0.708   1.638   4.127  1.7270  1.0114 -0.1023
 5428SOL    HW227921   0.803   1.560   4.218 -0.2171  2.2441 -0.6187
 5429SOL     OW27922   1.182   0.398   5.231  0.5485  0.1349  0.4504
 5429SOL    HW127923   1.251   0.462   5.251  0.0280  0.1047  2.3849
 5429SOL    HW227924   1.145   0.391   5.319  0.8948  2.1926  0.7719
 5430SOL     OW27925   3.392   3.551   1.767 -0.0480  0.1459 -0.0745
 5430SOL    HW127926   3.464   3.488   1.761 -0.8595 -0.7358 -0.5747
 5430SOL    HW227927   3.397   3.588   1.679 -0.5016 -1.8354 -0.9416
 5431SOL     OW27928   1.670   0.944   0.888 -0.2854 -0.6068 -0.1837
 5431SOL    HW127929   1.709   1.031   0.901  0.5625 -0.8531 -1.1062
 5431SOL    HW227930   1.695   0.900   0.969  0.7470  2.7061  1.3102
 5432SOL     OW27931   1.850   0.581   3.374 -0.0512 -0.1264  0.0826
 5432SOL    HW127932   1.881   0.657   3.325  0.8844 -1.1142 -0.8684
 5432SOL    HW227933   1.920   0.565   3.437 -0.8875  3.2648  1.8491
 5433SOL     OW27934   4.012   0.672   9.526  0.5142 -0.0860 -0.4233
 5433SOL    HW127935   3.929   0.641   9.488  0.7679 -1.4550  0.1468
 5433SOL    HW227936   3.983   0.760   9.552  0.8930  0.4885 -1.9723
 5434SOL     OW27937   3.457   4.736   8.413 -0.2935 -0.0731  0.2088
 5434SOL    HW127938   3.363   4.735   8.431  0.1511  3.0466  2.7026
 5434SOL    HW227939   3.488   0.075   8.456 -2.0763  0.9917 -0.4867
 5435SOL     OW27940   1.172   4.449   7.437 -0.6049  0.3852 -0.5768
 5435SOL    HW127941   1.208   4.360   7.435 -1.0741  0.1787  0.3330
 5435SOL    HW227942   1.081   4.429   7.455 -0.4898 -0.3121 -0.7806
 5436SOL     OW27943   4.402   0.726  14.935 -0.5416 -0.0510  0.0109
 5436SOL    HW127944   4.386   0.641  14.893  0.5568 -0.3939  0.2870
 5436SOL    HW227945   4.337   0.779  14.889 -0.5212  0.5361  0.6598
 5437SOL     OW27946   0.386   3.023  17.635  0.1931  0.1972 -0.1634
 5437SOL    HW127947   0.358   2.990  17.720 -0.4190  1.2663  0.0439
 5437SOL    HW227948   0.381   2.942  17.584 -0.3082  1.8273 -2.7088
 5438SOL     OW27949   4.714   1.208   6.160 -0.4467  0.0798 -0.3987
 5438SOL    HW127950   0.023   1.287   6.181  0.9897 -1.3108  1.5335
 5438SOL    HW227951   4.629   1.242   6.189 -0.6037  0.3200 -1.1378
 5439SOL     OW27952   3.799   1.877   6.760  0.0590  0.1363  0.1397
 5439SOL    HW127953   3.761   1.800   6.717 -0.0103  2.1952 -3.4246
 5439SOL    HW227954   3.798   1.930   6.681  0.0817 -1.5438 -0.9946
 5440SOL     OW27955   2.901   1.830   9.421 -0.2299  0.1285 -0.2791
 5440SOL    HW127956   2.810   1.809   9.401 -0.6208 -0.1108  1.7245
 5440SOL    HW227957   2.944   1.746   9.436  1.3302  0.8253 -0.8262
 5441SOL     OW27958   1.445   4.449   4.324 -0.0232 -0.1555  0.0966
 5441SOL    HW127959   1.407   4.371   4.285 -2.9724  1.6339 -0.5719
 5441SOL    HW227960   1.536   4.424   4.341  0.0572  0.3059  0.3591
 5442SOL     OW27961   3.676   2.335  12.172  0.1391 -0.0312  0.4295
 5442SOL    HW127962   3.584   2.311  12.180 -0.2490  0.0824 -3.3010
 5442SOL    HW227963   3.673   2.377  12.086 -1.0586  1.4363  1.1896
 5443SOL     OW27964   4.503   1.806   4.550 -0.0057 -0.5252  0.4107
 5443SOL    HW127965   4.500   1.717   4.586  1.3596 -0.9345 -0.4580
 5443SOL    HW227966   4.424   1.803   4.496 -1.2317  0.1532  2.1647
 5444SOL     OW27967   3.032   3.968   4.686  1.0304  0.9890  0.3689
 5444SOL    HW127968   3.114   3.975   4.735  0.3148  0.1789  1.6998
 5444SOL    HW227969   3.062   3.939   4.600 -1.1909 -1.5015  0.4079
 5445SOL     OW27970   0.294   3.219  13.684 -0.2767 -0.4170 -0.6104
 5445SOL    HW127971   0.199   3.203  13.691 -0.1097 -0.9486  0.4428
 5445SOL    HW227972   0.317   3.200  13.775 -1.7450 -0.0731 -0.1607
 5446SOL     OW27973   4.158   2.539   8.278  0.8663  0.2101 -0.0449
 5446SOL    HW127974   4.087   2.603   8.280  0.9395  0.3125 -0.6669
 5446SOL    HW227975   4.118   2.465   8.232  0.5345 -0.6135  1.5822
 5447SOL     OW27976   1.108   2.066   3.602  0.0139  0.1353 -0.5949
 5447SOL    HW127977   1.013   2.070   3.594 -0.0677  0.4777  0.5015
 5447SOL    HW227978   1.107   1.970   3.600  2.4245  0.0849  0.0855
 5448SOL     OW27979   4.102   4.665   4.866  0.1817  0.1011 -0.2026
 5448SOL    HW127980   4.137   4.578   4.887  0.1725 -0.3295 -1.9135
 5448SOL    HW227981   4.011   4.637   4.857  0.0586  0.7772 -0.9925
 5449SOL     OW27982   2.304   2.166  13.996  0.2996 -0.4350 -0.8043
 5449SOL    HW127983   2.367   2.173  14.068 -2.5029  2.9375  1.3175
 5449SOL    HW227984   2.246   2.241  14.013  1.7766  0.4872  0.2047
 5450SOL     OW27985   0.504   0.696  15.744 -0.3532 -0.4075  0.5438
 5450SOL    HW127986   0.596   0.707  15.722 -0.5766 -3.2383 -1.7889
 5450SOL    HW227987   0.463   0.766  15.694  1.3670  0.3359  0.2064
 5451SOL     OW27988   3.056   0.250   2.816 -0.1480  0.4586  0.3719
 5451SOL    HW127989   2.983   0.248   2.754  1.4537 -2.7581 -1.3625
 5451SOL    HW227990   3.109   0.176   2.790 -0.1817 -0.2692  2.3362
 5452SOL     OW27991   4.372   3.543  11.171 -0.2480 -0.6505 -0.8077
 5452SOL    HW127992   4.412   3.626  11.195  0.1931 -0.7489 -1.2119
 5452SOL    HW227993   4.443   3.480  11.188 -0.1683  0.6480  3.8909
 5453SOL     OW27994   0.746   1.648   8.575 -0.1630  0.2305  0.4160
 5453SOL    HW127995   0.761   1.590   8.500 -1.6141  0.2503  0.1104
 5453SOL    HW227996   0.653   1.668   8.567 -0.1752  0.0379  0.0616
 5454SOL     OW27997   0.086   3.658   7.352  0.0357  0.3478  0.0179
 5454SOL    HW127998   0.154   3.709   7.394  1.0788  1.0104 -2.4596
 5454SOL    HW227999   0.084   3.592   7.421 -2.4484  0.5849  0.1773
 5455SOL     OW28000   3.406   2.873  10.153  0.1223 -0.2232  0.1749
 5455SOL    HW128001   3.411   2.879  10.057 -1.6898  0.0973  0.0972
 5455SOL    HW228002   3.371   2.786  10.176 -1.1463 -0.4044 -2.3942
 5456SOL     OW28003   2.752   0.185   6.022 -0.1748 -0.4805 -0.4952
 5456SOL    HW128004   2.692   0.222   6.088  0.4085 -0.1661 -0.1456
 5456SOL    HW228005   2.684   0.134   5.978 -0.2753  0.5630 -1.5691
 5457SOL     OW28006   1.222   1.337   3.176 -0.4273 -0.8652  0.1325
 5457SOL    HW128007   1.253   1.417   3.219  0.4567 -1.8063  1.2451
 5457SOL    HW228008   1.228   1.362   3.083  1.6560  0.8196  0.7152
 5458SOL     OW28009   2.932   1.732   4.314 -0.0057  0.4963  0.2407
 5458SOL    HW128010   3.021   1.748   4.283 -0.0927  0.8695  0.1814
 5458SOL    HW228011   2.894   1.696   4.234  1.1640  2.1846 -1.0819
 5459SOL     OW28012   0.859   0.830   3.959 -0.3967  0.3090  0.3495
 5459SOL    HW128013   0.882   0.920   3.979 -0.5232  0.6386 -0.9858
 5459SOL    HW228014   0.770   0.832   3.994  0.2896  0.4610  2.0998
 5460SOL     OW28015   2.901   2.410   7.693  0.4913 -0.1615  0.2514
 5460SOL    HW128016   2.954   2.474   7.741  2.0961  0.2778 -2.1126
 5460SOL    HW228017   2.815   2.449   7.711  2.3857  4.2716 -0.3349
 5461SOL     OW28018   0.374   1.875   8.885 -0.1380 -0.1835 -0.4341
 5461SOL    HW128019   0.340   1.846   8.800  1.4414 -1.2167 -0.7037
 5461SOL    HW228020   0.364   1.970   8.882  3.0538  0.1553 -0.7159
 5462SOL     OW28021   1.779   3.784  14.852  0.3326  0.4099 -0.3105
 5462SOL    HW128022   1.870   3.813  14.855  0.0848  0.9549  1.5476
 5462SOL    HW228023   1.776   3.713  14.916 -0.2120  0.0125 -0.7769
 5463SOL     OW28024   3.701   3.788   8.765  0.3102 -0.5311  0.0387
 5463SOL    HW128025   3.634   3.852   8.790 -0.8799 -2.5688  2.0367
 5463SOL    HW228026   3.785   3.833   8.775 -0.1798 -0.0386  1.9129
 5464SOL     OW28027   3.515   0.411   1.964 -0.4043  0.0790  0.2230
 5464SOL    HW128028   3.586   0.365   1.919 -0.9903 -0.3758 -0.2388
 5464SOL    HW228029   3.441   0.375   1.916  0.1409 -0.8550  0.0775
 5465SOL     OW28030   3.367   4.153   6.285 -0.1188 -0.0778  0.0579
 5465SOL    HW128031   3.291   4.176   6.339  0.6109 -0.5590  1.2957
 5465SOL    HW228032   3.426   4.221   6.316 -0.7008 -0.6370  2.4073
 5466SOL     OW28033   1.203   1.393   5.743  0.3495  0.1816 -1.0590
 5466SOL    HW128034   1.207   1.437   5.658 -1.2226  1.0143 -0.7060
 5466SOL    HW228035   1.284   1.424   5.782  0.3156 -1.1061  0.0079
 5467SOL     OW28036   4.623   3.153  12.227 -0.3575  0.1619  0.5702
 5467SOL    HW128037   4.701   3.163  12.280  0.8284 -0.1761 -1.0974
 5467SOL    HW228038   4.553   3.172  12.289 -0.6258  0.9513  0.0385
 5468SOL     OW28039   2.685   2.208   6.945  0.1289  0.3586 -0.5219
 5468SOL    HW128040   2.593   2.217   6.968  0.1156 -0.1915 -0.3506
 5468SOL    HW228041   2.710   2.289   6.990 -0.8634  0.8880 -0.9169
 5469SOL     OW28042   0.874   0.953  12.956 -0.2109  0.1343  0.4387
 5469SOL    HW128043   0.828   1.025  12.998 -1.0023  0.3841 -0.8418
 5469SOL    HW228044   0.815   0.879  12.967 -0.3468  0.4163  1.6099
 5470SOL     OW28045   0.334   3.076  17.296  0.3774  0.0299  0.3405
 5470SOL    HW128046   0.307   3.163  17.326  2.3922  1.2295 -1.2595
 5470SOL    HW228047   0.376   3.111  17.217 -0.8748  1.2112  0.2087
 5471SOL     OW28048   3.649   4.686   3.690  0.4629  0.2053  0.3991
 5471SOL    HW128049   3.698   0.025   3.712 -0.4191  0.5743  1.0127
 5471SOL    HW228050   3.563   4.720   3.666  0.3348 -0.7340 -0.4686
 5472SOL     OW28051   1.103   2.348   7.494  0.4786 -0.8745  0.1036
 5472SOL    HW128052   1.113   2.363   7.588 -2.4396  0.6409  0.1877
 5472SOL    HW228053   1.043   2.274   7.493  0.4568 -0.8696  0.8535
 5473SOL     OW28054   0.128   1.442  12.578  0.2266  0.4383 -0.5143
 5473SOL    HW128055   0.187   1.464  12.506  1.0633  3.1673  1.0376
 5473SOL    HW228056   0.182   1.458  12.655 -1.3460 -0.8955  0.8799
 5474SOL     OW28057   2.762   3.638   6.007  0.9312  0.3439 -0.1095
 5474SOL    HW128058   2.808   3.691   6.072 -1.4272  1.6637  0.4797
 5474SOL    HW228059   2.774   3.695   5.932 -1.4486  0.5435 -0.3252
 5475SOL     OW28060   4.428   0.797   0.794 -0.3327 -0.0150  0.9026
 5475SOL    HW128061   4.494   0.732   0.770 -0.6812  0.5190 -1.4638
 5475SOL    HW228062   4.467   0.875   0.756 -2.9395  0.6745 -0.3827
 5476SOL     OW28063   3.193   0.441   7.471  0.6070 -0.0732  0.1925
 5476SOL    HW128064   3.224   0.358   7.508 -0.8589 -1.2279 -1.1397
 5476SOL    HW228065   3.186   0.490   7.552 -1.2114  1.1377 -0.7183
 5477SOL     OW28066   2.822   3.005   9.552  0.5029  0.2736  0.7680
 5477SOL    HW128067   2.830   3.062   9.629 -0.1393  0.7349  0.4893
 5477SOL    HW228068   2.914   2.980   9.538  0.2135  0.4809 -1.5277
 5478SOL     OW28069   3.965   0.522   6.020 -0.2164 -0.3241  0.1136
 5478SOL    HW128070   3.937   0.452   6.079  0.0531 -0.6632 -0.1568
 5478SOL    HW228071   4.033   0.564   6.072 -0.2768  0.9375 -0.8437
 5479SOL     OW28072   4.257   0.127   2.130  0.2330 -0.1939 -0.1509
 5479SOL    HW128073   4.304   0.179   2.066 -0.2347  0.4725  0.0441
 5479SOL    HW228074   4.204   0.184   2.186  0.0523 -1.5574  1.0649
 5480SOL     OW28075   3.294   2.626   6.334 -0.3843 -0.3862 -0.0976
 5480SOL    HW128076   3.282   2.710   6.289 -0.3694 -0.1652  0.3003
 5480SOL    HW228077   3.230   2.639   6.405  1.2969 -0.1867  1.3958
 5481SOL     OW28078   0.199   1.668   1.742 -0.7353 -0.0836 -0.1602
 5481SOL    HW128079   0.126   1.666   1.804  0.3329 -3.1261  1.0059
 5481SOL    HW228080   0.181   1.587   1.693 -1.4832 -0.0445  0.0438
 5482SOL     OW28081   0.684   2.174   1.541  0.2870  0.2180 -0.0302
 5482SOL    HW128082   0.616   2.107   1.529  0.9857 -1.0209  2.9199
 5482SOL    HW228083   0.744   2.152   1.469 -0.4224 -1.8566 -0.0108
 5483SOL     OW28084   0.734   3.829  12.035 -0.3616  0.0165 -0.1568
 5483SOL    HW128085   0.751   3.739  12.063 -1.0488 -1.1694 -3.5457
 5483SOL    HW228086   0.647   3.840  12.073 -1.7331 -2.8631 -2.4165
 5484SOL     OW28087   1.043   0.342   2.090  0.2838 -0.4913 -0.1210
 5484SOL    HW128088   0.968   0.321   2.034  0.5433 -0.1442 -0.6020
 5484SOL    HW228089   1.026   0.278   2.159  0.8625 -1.8094 -1.1753
 5485SOL     OW28090   3.595   2.009   6.983  0.6021  0.7047 -0.0903
 5485SOL    HW128091   3.597   1.949   6.909  0.0166 -0.8549  1.1497
 5485SOL    HW228092   3.579   1.962   7.066 -1.7971  0.1803 -0.8417
 5486SOL     OW28093   0.265   4.296   4.566 -0.2972 -0.3205 -0.2527
 5486SOL    HW128094   0.220   4.218   4.533  0.1971  0.2346 -2.2313
 5486SOL    HW228095   0.190   4.354   4.575  0.6386  1.0112 -1.0275
 5487SOL     OW28096   0.649   2.764   7.549 -0.6257 -0.5679 -0.3664
 5487SOL    HW128097   0.731   2.812   7.538  1.1895 -3.5231  0.3432
 5487SOL    HW228098   0.656   2.699   7.479 -3.4021  0.4235 -1.5482
 5488SOL     OW28099   3.978   2.522  17.402  0.1499  0.4432  0.8149
 5488SOL    HW128100   3.901   2.570  17.373  0.2267 -0.8226 -1.4988
 5488SOL    HW228101   3.993   2.551  17.492  2.9072  1.9004 -0.0757
 5489SOL     OW28102   2.782   0.572   9.463 -0.1325  0.3406 -0.2826
 5489SOL    HW128103   2.797   0.525   9.381 -0.3966 -1.4403  0.6878
 5489SOL    HW228104   2.819   0.659   9.454 -0.0668  0.4429  0.9238
 5490SOL     OW28105   2.482   4.733   1.511  0.6800  0.0808  0.3000
 5490SOL    HW128106   2.551   0.042   1.555  1.0803  0.6011 -0.9285
 5490SOL    HW228107   2.526   4.714   1.428  1.9675  3.9699  0.0363
 5491SOL     OW28108   0.159   1.667   8.358 -0.6364 -0.2016  0.1088
 5491SOL    HW128109   0.074   1.689   8.320  0.1813 -0.3880 -1.8518
 5491SOL    HW228110   0.143   1.622   8.441  0.1986  3.6332  2.3714
 5492SOL     OW28111   0.972   2.974   1.968  0.0654 -0.2374  0.3564
 5492SOL    HW128112   1.059   2.940   1.992  0.5663  0.8288  0.0574
 5492SOL    HW228113   0.935   2.887   1.952  1.0519 -0.2400 -1.9262
 5493SOL     OW28114   2.448   2.441   2.910  0.7557  0.4368 -0.5947
 5493SOL    HW128115   2.504   2.414   2.983 -1.0039 -1.1586  0.1540
 5493SOL    HW228116   2.399   2.360   2.894 -1.3242  1.5150  0.3159
 5494SOL     OW28117   0.336   0.094   1.775 -0.0995  0.1148  0.2165
 5494SOL    HW128118   0.303   0.157   1.710  2.0779  1.3507  0.3188
 5494SOL    HW228119   0.255   0.047   1.796  0.2053 -0.5550 -0.1001
 5495SOL     OW28120   2.914   2.278   5.208  0.1981 -0.3956  0.1083
 5495SOL    HW128121   3.008   2.293   5.221  0.3565  0.0562 -1.5100
 5495SOL    HW228122   2.918   2.195   5.159 -0.1280 -0.1356 -0.3549
 5496SOL     OW28123   1.500   0.657   1.739  0.5487 -0.5943 -0.5245
 5496SOL    HW128124   1.564   0.697   1.797  0.5025  0.8913 -1.4979
 5496SOL    HW228125   1.552   0.628   1.664 -0.0480 -2.8240 -0.0987
 5497SOL     OW28126   0.361   1.759   2.740 -0.0794 -0.1817 -0.0488
 5497SOL    HW128127   0.395   1.675   2.711 -1.6806 -0.3304 -1.4697
 5497SOL    HW228128   0.324   1.740   2.826 -0.6640  1.8199  0.1396
 5498SOL     OW28129   2.049   0.710   2.718  0.3190 -0.1529 -0.1970
 5498SOL    HW128130   2.077   0.705   2.627  0.0839 -0.8051 -0.2316
 5498SOL    HW228131   1.957   0.687   2.712  0.0492  1.3896 -2.0614
 5499SOL     OW28132   2.001   2.867   2.116  0.8151 -0.0796 -0.0431
 5499SOL    HW128133   2.043   2.820   2.188  0.6171  0.9403  0.7590
 5499SOL    HW228134   2.060   2.867   2.041 -0.8007 -0.6738 -1.3223
 5500SOL     OW28135   0.466   4.077  14.594 -0.8488 -0.0969  0.1646
 5500SOL    HW128136   0.422   4.141  14.650  1.0404  0.2180  1.2629
 5500SOL    HW228137   0.533   4.132  14.554 -0.2073 -0.5664  0.5872
 5501SOL     OW28138   0.225   2.075   9.170 -0.1403  0.6527  0.1071
 5501SOL    HW128139   0.309   2.120   9.182  0.3585 -0.2560  0.0251
 5501SOL    HW228140   0.231   2.009   9.239  0.8216  0.2449 -0.3721
 5502SOL     OW28141   3.328   2.187  13.455  0.0226  0.4836 -0.3633
 5502SOL    HW128142   3.351   2.227  13.371 -2.7172 -1.5687 -2.0936
 5502SOL    HW228143   3.234   2.208  13.457 -0.6969 -2.6111 -2.1850
 5503SOL     OW28144   3.224   0.188   3.672  0.0520  0.0360  0.1613
 5503SOL    HW128145   3.295   0.128   3.652  0.4722  0.4955  0.2735
 5503SOL    HW228146   3.157   0.166   3.607 -0.6927  0.7802  0.6634
 5504SOL     OW28147   4.002   3.743   4.269  0.4104 -0.3118 -0.3762
 5504SOL    HW128148   3.931   3.806   4.254  1.3561  0.4145 -1.7851
 5504SOL    HW228149   4.072   3.807   4.280  0.9637 -0.6985 -1.6527
 5505SOL     OW28150   3.139   1.170   3.101 -0.0395 -0.7853 -0.3720
 5505SOL    HW128151   3.142   1.080   3.134 -2.1754 -0.2312  1.3390
 5505SOL    HW228152   3.044   1.183   3.102  0.0636 -0.0700  0.4684
 5506SOL     OW28153   1.918   0.144   5.051 -0.2663  0.1943 -0.4875
 5506SOL    HW128154   1.829   0.118   5.030  0.2816 -0.7113 -1.7201
 5506SOL    HW228155   1.932   0.219   4.992 -0.8177 -0.3757 -1.3396
 5507SOL     OW28156   0.930   2.098   7.398 -0.1513 -0.0186  0.1724
 5507SOL    HW128157   0.889   2.064   7.319  0.4516  0.5072 -0.3686
 5507SOL    HW228158   0.855   2.135   7.444 -0.5835 -0.2354 -0.3711
 5508SOL     OW28159   3.361   1.559   4.493  0.2054 -0.3081  0.8965
 5508SOL    HW128160   3.394   1.470   4.490 -0.7708 -0.6118 -1.2683
 5508SOL    HW228161   3.404   1.595   4.415 -0.2631 -0.6872  0.4633
 5509SOL     OW28162   4.170   4.132  17.705 -0.5419 -0.1361 -0.5082
 5509SOL    HW128163   4.118   4.110  17.628 -1.3126  0.7841 -0.2534
 5509SOL    HW228164   4.116   4.105   0.018  0.2104  0.9508  0.4444
 5510SOL     OW28165   1.943   2.286   3.119 -0.6524 -0.4068  0.5690
 5510SOL    HW128166   2.009   2.223   3.147  0.5422  0.9304  0.7489
 5510SOL    HW228167   2.009   2.347   3.085 -2.7400  1.0034 -1.0052
 5511SOL     OW28168   1.078   4.286   6.823  0.2859 -0.4730 -0.0906
 5511SOL    HW128169   1.138   4.225   6.865 -0.8205 -2.2157 -1.0237
 5511SOL    HW228170   0.996   4.270   6.869  0.6536 -1.1676  0.3095
 5512SOL     OW28171   2.771   1.381   5.440 -0.3029  0.0279 -0.3202
 5512SOL    HW128172   2.844   1.325   5.467 -1.4608 -1.3589 -0.1094
 5512SOL    HW228173   2.745   1.327   5.366  0.7855 -0.2412 -0.5003
 5513SOL     OW28174   4.621   3.913   2.091 -0.2230  0.3918 -0.3679
 5513SOL    HW128175   4.653   3.940   2.177  0.5884 -1.5309 -0.0615
 5513SOL    HW228176   4.685   3.843   2.084 -1.9435 -1.2109 -0.0908
 5514SOL     OW28177   2.748   2.480   4.288 -0.0613 -0.4909  0.8076
 5514SOL    HW128178   2.693   2.518   4.357  0.3404  1.4773  0.0668
 5514SOL    HW228179   2.828   2.525   4.314 -0.0933  0.0205  0.0589
 5515SOL     OW28180   2.957   0.936   8.721  0.0437  0.1154  0.2597
 5515SOL    HW128181   2.871   0.953   8.759 -0.8395 -0.1628 -1.6390
 5515SOL    HW228182   3.001   1.017   8.747  2.2374 -0.9755 -0.0733
 5516SOL     OW28183   0.194   0.422   0.592  0.1626 -0.9092 -0.3543
 5516SOL    HW128184   0.135   0.346   0.601  0.3982 -1.1230 -0.5948
 5516SOL    HW228185   0.133   0.495   0.586 -1.1405 -1.8113  1.8469
 5517SOL     OW28186   3.263   4.663   9.186  0.6590 -0.3690  0.2157
 5517SOL    HW128187   3.283   4.716   9.109 -0.7984 -1.2277 -0.7484
 5517SOL    HW228188   3.301   4.712   9.259  0.1441  1.7690 -0.9557
 5518SOL     OW28189   1.138   2.522   7.301  0.1912  0.1468  0.4915
 5518SOL    HW128190   1.199   2.591   7.326  0.8863  0.0154 -0.8393
 5518SOL    HW228191   1.097   2.500   7.385 -1.5014  0.6884 -0.1879
 5519SOL     OW28192   3.198   1.438   5.614  0.6623  0.3418  0.9912
 5519SOL    HW128193   3.145   1.383   5.672 -1.5464  1.8097  0.3573
 5519SOL    HW228194   3.129   1.474   5.559  0.4001 -0.8578  0.5275
 5520SOL     OW28195   1.519   3.421  10.288  0.4717 -1.0623 -0.1865
 5520SOL    HW128196   1.507   3.354  10.221 -3.1869 -1.6706  1.0724
 5520SOL    HW228197   1.426   3.425  10.311  0.2836  1.1561 -1.3471
 5521SOL     OW28198   4.346   3.493  10.167  0.1128  0.1808 -0.1825
 5521SOL    HW128199   4.425   3.547  10.172  0.7922 -0.7259 -1.1012
 5521SOL    HW228200   4.361   3.457  10.079  0.0865  2.0902 -0.9681
 5522SOL     OW28201   1.123   3.610   3.673  0.1040 -0.4141 -0.4829
 5522SOL    HW128202   1.113   3.551   3.599 -1.3768 -0.4992 -0.2012
 5522SOL    HW228203   1.218   3.610   3.685 -0.0260  1.4632  0.6795
 5523SOL     OW28204   4.605   4.176   8.397 -0.6361  0.1060  0.0307
 5523SOL    HW128205   4.545   4.140   8.332  0.5309 -1.3937 -0.2274
 5523SOL    HW228206   4.657   4.098   8.420 -0.6345 -0.7133 -2.7635
 5524SOL     OW28207   3.121   3.307  16.316 -0.0356  0.2015  0.1242
 5524SOL    HW128208   3.026   3.316  16.306 -0.0547 -1.1889 -0.8579
 5524SOL    HW228209   3.146   3.261  16.396 -2.5620 -1.5394 -0.0753
 5525SOL     OW28210   0.539   4.716   3.968  0.5696  1.0148 -0.2849
 5525SOL    HW128211   0.510   0.001   4.055  1.1144  3.8117 -0.9195
 5525SOL    HW228212   0.635   4.726   3.969  0.9881 -3.2202 -0.8854
 5526SOL     OW28213   3.613   3.831   7.942  0.8950  0.2829 -0.3636
 5526SOL    HW128214   3.608   3.900   8.008 -2.0900  0.5866 -0.9185
 5526SOL    HW228215   3.544   3.855   7.881 -0.2913 -1.4737  0.2763
 5527SOL     OW28216   1.367   0.715   1.998  0.1212 -0.0858 -0.0604
 5527SOL    HW128217   1.438   0.729   2.061 -0.3236 -0.5301  0.5368
 5527SOL    HW228218   1.411   0.715   1.913 -0.2061 -1.5909 -0.2219
 5528SOL     OW28219   4.621   3.338  13.056  0.4432 -0.4890  0.0049
 5528SOL    HW128220   4.617   3.242  13.061 -1.7503 -0.4038 -0.2903
 5528SOL    HW228221   4.693   3.360  13.116 -0.7200  1.0546  0.8252
 5529SOL     OW28222   3.544   2.705   5.204 -0.7937  0.7135 -0.0006
 5529SOL    HW128223   3.523   2.661   5.122  2.6370  0.0058 -0.4854
 5529SOL    HW228224   3.610   2.768   5.174  0.8217 -0.5149  0.9547
 5530SOL     OW28225   3.414   0.133   5.329  1.0374 -0.6137  0.4827
 5530SOL    HW128226   3.321   0.142   5.348  0.8447 -0.2037 -0.6586
 5530SOL    HW228227   3.465   0.120   5.409  1.0057 -1.1820  0.4110
 5531SOL     OW28228   1.183   0.717  16.918  0.0990  0.5780  0.4200
 5531SOL    HW128229   1.264   0.667  16.930  0.3066  1.4531  2.6307
 5531SOL    HW228230   1.180   0.785  16.986 -1.7965  0.1834  0.7198
 5532SOL     OW28231   2.309   3.262  10.510 -0.7997  0.3754  0.2987
 5532SOL    HW128232   2.358   3.331  10.464 -1.0550 -0.6789 -1.5401
 5532SOL    HW228233   2.386   3.226  10.554 -0.7287 -0.0404 -0.1597
 5533SOL     OW28234   4.086   1.290   9.751  0.0137  0.0921 -0.8506
 5533SOL    HW128235   4.130   1.269   9.834 -1.2968  3.1702  0.6152
 5533SOL    HW228236   4.157   1.269   9.691 -0.2634 -1.1975 -0.7266
 5534SOL     OW28237   1.560   0.787  14.117  0.6288  0.2942 -0.1228
 5534SOL    HW128238   1.642   0.813  14.158  0.4121  1.6636 -0.5264
 5534SOL    HW228239   1.544   0.863  14.060 -1.3911  1.1832  1.6235
 5535SOL     OW28240   3.108   2.380   8.299 -0.5987 -0.0642 -0.4515
 5535SOL    HW128241   3.131   2.457   8.350  0.0183 -0.2437 -0.4673
 5535SOL    HW228242   3.168   2.318   8.340  0.8926  2.9701  1.8875
 5536SOL     OW28243   1.732   1.419   7.004  0.3680  0.4072  0.2539
 5536SOL    HW128244   1.708   1.446   7.093 -2.0926 -1.8120  0.2596
 5536SOL    HW228245   1.752   1.327   7.020 -0.2638  0.3638  0.7947
 5537SOL     OW28246   1.859   3.055   1.679  0.1816  0.2327  0.0771
 5537SOL    HW128247   1.796   3.019   1.617 -0.4653  1.2133  0.1583
 5537SOL    HW228248   1.832   3.019   1.764 -1.1944 -0.2135 -0.5500
 5538SOL     OW28249   1.947   2.966  17.514 -0.1230  1.2845 -0.0904
 5538SOL    HW128250   2.012   2.993  17.580 -1.6906 -2.2290  2.8768
 5538SOL    HW228251   1.896   3.047  17.513  0.8340  1.9126  1.6843
 5539SOL     OW28252   0.074   1.178   7.265 -0.8234 -0.2935  0.1204
 5539SOL    HW128253   0.023   1.244   7.218  2.4687  0.4296 -2.4145
 5539SOL    HW228254   0.147   1.156   7.207  0.4844  0.0132  1.6301
 5540SOL     OW28255   3.550   0.824   3.892  0.3013 -0.8374  0.2611
 5540SOL    HW128256   3.492   0.757   3.858 -1.0837 -0.6526  2.2595
 5540SOL    HW228257   3.556   0.812   3.987  0.1535  0.8920  0.5054
 5541SOL     OW28258   1.191   1.836  16.222  0.2467 -0.3463  0.1506
 5541SOL    HW128259   1.284   1.819  16.234 -0.0574 -2.2085 -0.1491
 5541SOL    HW228260   1.164   1.766  16.162  1.7482 -0.2009 -0.6992
 5542SOL     OW28261   4.016   3.511   4.073  0.1307 -0.0040 -0.8833
 5542SOL    HW128262   4.013   3.439   4.135  1.8944 -1.7930 -2.8709
 5542SOL    HW228263   3.996   3.588   4.127 -1.3210 -0.9608 -0.0711
 5543SOL     OW28264   0.338   3.264   4.060  0.0137  0.3904 -0.1930
 5543SOL    HW128265   0.250   3.227   4.068  0.2754 -0.3313 -0.6922
 5543SOL    HW228266   0.356   3.249   3.968 -0.8485  1.2050 -0.4946
 5544SOL     OW28267   2.813   2.241  13.606 -0.1223  0.1880  0.1936
 5544SOL    HW128268   2.780   2.330  13.620  1.0941  0.8544 -1.2133
 5544SOL    HW228269   2.754   2.199  13.543  1.3917 -3.2005  1.0460
 5545SOL     OW28270   4.497   0.202   7.042  0.3621 -0.4683  0.0268
 5545SOL    HW128271   4.531   0.172   7.126  3.0809 -0.1097 -0.9523
 5545SOL    HW228272   4.465   0.119   7.006 -0.7610 -0.3888  0.8319
 5546SOL     OW28273   4.139   2.581  16.164  0.0823 -0.0293  0.6372
 5546SOL    HW128274   4.235   2.576  16.154 -0.3564 -2.1083 -2.9155
 5546SOL    HW228275   4.124   2.646  16.232  3.4878  1.7237 -0.2986
 5547SOL     OW28276   2.069   3.253   8.434  0.2092 -0.1723  0.2432
 5547SOL    HW128277   2.067   3.335   8.386  3.0084  0.0981  0.5931
 5547SOL    HW228278   2.102   3.292   8.515  2.5012 -3.2570  0.8206
 5548SOL     OW28279   3.643   2.128   5.777 -0.4268  0.6023 -0.2177
 5548SOL    HW128280   3.726   2.159   5.739 -0.9800  2.4921  0.1083
 5548SOL    HW228281   3.655   2.034   5.791 -0.2493  0.3438 -2.1645
 5549SOL     OW28282   2.361   4.091   7.136 -0.0010 -0.5142 -0.5915
 5549SOL    HW128283   2.373   4.001   7.167  1.1454 -0.0155  0.4257
 5549SOL    HW228284   2.266   4.105   7.140  0.2101  0.1002  3.2111
 5550SOL     OW28285   3.574   4.498   6.888  0.0766 -0.1272  0.5702
 5550SOL    HW128286   3.609   4.410   6.903 -0.0956 -0.4323 -0.8637
 5550SOL    HW228287   3.632   4.530   6.818 -0.0345  0.1582  0.6075
 5551SOL     OW28288   3.734   1.870  12.165 -0.1722 -0.3978 -0.2397
 5551SOL    HW128289   3.773   1.916  12.240 -0.8189 -2.5219  1.4018
 5551SOL    HW228290   3.764   1.919  12.088  1.3650 -0.0212  0.5966
 5552SOL     OW28291   0.949   2.752  17.429  0.1490  0.0660 -0.4119
 5552SOL    HW128292   0.995   2.723  17.508  1.7043  1.5447 -0.7825
 5552SOL    HW228293   0.906   2.667  17.416  0.6179 -0.5431  2.0582
 5553SOL     OW28294   3.320   3.265   4.324 -0.1302  0.0442 -0.1524
 5553SOL    HW128295   3.398   3.319   4.314 -0.5696  0.4857 -1.1843
 5553SOL    HW228296   3.327   3.229   4.236  0.4837 -0.4083  0.0875
 5554SOL     OW28297   0.978   4.416  16.929 -0.2782  0.0141 -0.2670
 5554SOL    HW128298   0.937   4.387  17.010  0.1025  1.3169  0.3922
 5554SOL    HW228299   0.950   4.504  16.905 -1.7703  0.0821  1.7889
 5555SOL     OW28300   3.521   3.776   9.047 -0.3125 -0.1454  0.2019
 5555SOL    HW128301   3.445   3.835   9.048  0.6616  1.1454 -0.7785
 5555SOL    HW228302   3.482   3.698   9.009  1.8383 -1.6388  1.0790
 5556SOL     OW28303   3.075   1.829  15.399  0.5969 -0.2684 -0.3772
 5556SOL    HW128304   3.158   1.818  15.353  1.5521  0.5736  1.1541
 5556SOL    HW228305   3.096   1.879  15.477  2.2782 -1.0286 -0.3553
 5557SOL     OW28306   3.036   1.847   2.764  0.0483 -0.4713 -0.3923
 5557SOL    HW128307   3.036   1.935   2.802  0.5545 -0.7825  0.3298
 5557SOL    HW228308   2.943   1.840   2.740  0.5955 -3.9628 -1.5305
 5558SOL     OW28309   3.851   2.109  15.766 -0.4940  0.4334 -0.1678
 5558SOL    HW128310   3.785   2.074  15.826  0.5946  1.5021  1.6575
 5558SOL    HW228311   3.873   2.020  15.736 -0.8916  0.0576  0.6452
 5559SOL     OW28312   0.655   4.434  11.608 -0.3629  0.0037 -0.1170
 5559SOL    HW128313   0.580   4.488  11.581 -0.3250  0.1335  0.0371
 5559SOL    HW228314   0.606   4.371  11.661  0.9128 -0.2899  0.7118
 5560SOL     OW28315   4.425   1.792   8.354  0.1834 -0.0662 -0.0359
 5560SOL    HW128316   4.406   1.711   8.400 -0.5404 -0.4634 -1.0299
 5560SOL    HW228317   4.339   1.804   8.313  0.3259 -3.1877 -1.2369
 5561SOL     OW28318   1.538   1.368  16.057 -0.5902  0.1922  0.2281
 5561SOL    HW128319   1.609   1.431  16.069  1.1896 -2.3780  3.2634
 5561SOL    HW228320   1.572   1.295  16.005  0.8731  0.6150  0.5803
 5562SOL     OW28321   1.255   2.702   8.070 -0.0211 -1.0093  1.2363
 5562SOL    HW128322   1.308   2.736   8.142 -1.0843  0.9092  1.1136
 5562SOL    HW228323   1.176   2.674   8.116 -0.9161  0.8854  0.8466
 5563SOL     OW28324   4.695   4.205   7.026 -0.0223  0.7825 -0.0287
 5563SOL    HW128325   4.694   4.251   6.943 -1.6763  0.0568 -0.4095
 5563SOL    HW228326   4.706   4.120   6.985  0.3444  0.9151 -0.2094
 5564SOL     OW28327   2.040   0.008   7.914 -0.3014  0.1136 -0.3597
 5564SOL    HW128328   2.048   0.037   8.004 -1.6969  0.9760 -0.5189
 5564SOL    HW228329   1.964   0.065   7.901  0.7959  1.6401 -0.0717
 5565SOL     OW28330   3.196   0.311  12.536 -0.4573  0.3817 -0.2083
 5565SOL    HW128331   3.203   0.353  12.621 -1.8943 -0.0168  0.1110
 5565SOL    HW228332   3.106   0.280  12.540 -0.1025 -0.9134 -2.1985
 5566SOL     OW28333   0.875   0.294   4.795  0.4109 -0.0788 -0.7227
 5566SOL    HW128334   0.958   0.343   4.795  0.5568 -0.3234  0.0650
 5566SOL    HW228335   0.831   0.323   4.715 -3.0842 -1.0515  0.8715
 5567SOL     OW28336   2.650   3.621   5.715  0.0009  0.9778 -0.2841
 5567SOL    HW128337   2.560   3.589   5.710  0.0983  0.6316  0.1385
 5567SOL    HW228338   2.635   3.692   5.778 -1.4716 -2.3170  3.1068
 5568SOL     OW28339   0.464   3.052   6.712  0.4266  0.3734 -0.2137
 5568SOL    HW128340   0.392   3.104   6.676 -0.3083 -0.5576 -0.1005
 5568SOL    HW228341   0.502   2.997   6.644 -0.5467  0.1540 -0.5771
 5569SOL     OW28342   4.281   2.551   5.336 -0.0565 -0.1228  0.4878
 5569SOL    HW128343   4.287   2.620   5.270 -2.7088  0.1878  0.5653
 5569SOL    HW228344   4.235   2.482   5.289  0.0551  1.0784 -1.3686
 5570SOL     OW28345   1.884   2.086   3.997 -0.2226  0.3869 -0.0209
 5570SOL    HW128346   1.877   2.119   3.908 -2.1532  0.1144  0.0498
 5570SOL    HW228347   1.869   1.993   3.984 -3.6467  0.7404  1.4735
 5571SOL     OW28348   4.499   0.192   3.825 -0.1128 -0.3830 -0.0984
 5571SOL    HW128349   4.545   0.208   3.742 -0.5888  1.4756 -0.0159
 5571SOL    HW228350   4.468   0.282   3.840 -2.2664 -0.7533 -2.3941
 5572SOL     OW28351   2.438   2.688   5.023  0.6379  0.6020 -0.4600
 5572SOL    HW128352   2.395   2.700   5.108 -1.1726  2.3078 -1.6185
 5572SOL    HW228353   2.520   2.651   5.056  0.3262 -0.9590 -1.4305
 5573SOL     OW28354   3.487   3.676  15.946  0.0370 -0.2639  0.3027
 5573SOL    HW128355   3.549   3.678  15.873 -0.9081  0.0220 -0.4961
 5573SOL    HW228356   3.404   3.645  15.908  1.7156 -0.7155 -3.0247
 5574SOL     OW28357   3.939   0.297   7.427  0.0924  0.7431  0.1299
 5574SOL    HW128358   3.907   0.360   7.363  3.1203  0.2410 -1.9042
 5574SOL    HW228359   4.012   0.258   7.378 -1.9518 -2.9917  0.0556
 5575SOL     OW28360   2.480   1.017  12.528  0.0449 -0.4699 -0.0113
 5575SOL    HW128361   2.415   0.966  12.576  1.8678 -1.9972  0.8234
 5575SOL    HW228362   2.490   0.968  12.447 -0.5984  1.5610 -1.3097
 5576SOL     OW28363   4.269   3.371  10.982 -0.0577 -0.0422  0.3351
 5576SOL    HW128364   4.290   3.407  10.896  2.1388 -0.5181  0.6545
 5576SOL    HW228365   4.296   3.442  11.039 -1.6305  0.3757  0.5508
 5577SOL     OW28366   3.736   1.687   9.095  0.7401 -0.7249 -0.2259
 5577SOL    HW128367   3.738   1.685   9.191 -0.8245  1.9811 -0.1225
 5577SOL    HW228368   3.806   1.751   9.082  0.9806 -0.5782  1.7880
 5578SOL     OW28369   4.288   3.789   8.022  0.0016 -0.0390 -0.5358
 5578SOL    HW128370   4.316   3.791   7.931 -0.2290  1.7522 -0.5705
 5578SOL    HW228371   4.348   3.732   8.069 -0.1702  1.5609  1.6426
 5579SOL     OW28372   3.348   3.826  12.462 -0.1652  0.1862 -0.2093
 5579SOL    HW128373   3.288   3.860  12.395  3.2211 -0.5860 -3.5808
 5579SOL    HW228374   3.338   3.732  12.447 -2.3106  0.6222 -1.5659
 5580SOL     OW28375   3.234   2.306   2.202 -0.6433 -0.0501  0.6525
 5580SOL    HW128376   3.168   2.374   2.191  1.3271  1.7851  0.1610
 5580SOL    HW228377   3.278   2.342   2.279 -1.1618 -1.1909  1.4670
 5581SOL     OW28378   0.842   1.226  16.453  0.0909  0.5881 -0.2158
 5581SOL    HW128379   0.787   1.221  16.532 -0.9587  1.4559 -0.8976
 5581SOL    HW228380   0.834   1.132  16.439 -3.1262  0.7864  0.1686
 5582SOL     OW28381   3.746   0.338  11.290 -0.3456 -0.3671  0.5067
 5582SOL    HW128382   3.708   0.410  11.241  3.4494  1.7727  0.6757
 5582SOL    HW228383   3.668   0.329  11.345 -1.0420 -0.8857 -0.5667
 5583SOL     OW28384   2.037   4.607   7.678  0.3935 -0.3698  0.3190
 5583SOL    HW128385   2.036   4.683   7.619 -1.4290  0.5542  1.5483
 5583SOL    HW228386   2.028   4.649   7.763 -1.1392 -1.2933  0.6184
 5584SOL     OW28387   0.034   0.915   7.326  0.1226  0.2463  0.4593
 5584SOL    HW128388   4.733   0.887   7.245 -0.1065 -0.8816  0.9769
 5584SOL    HW228389   0.065   1.003   7.304 -0.2500  0.3057  0.1831
 5585SOL     OW28390   4.302   1.445   5.175 -0.2535  0.5663 -0.1658
 5585SOL    HW128391   4.243   1.376   5.204 -0.5884  0.2753 -1.5672
 5585SOL    HW228392   4.328   1.483   5.259 -2.3298 -1.2568  1.2984
 5586SOL     OW28393   4.105   1.951   4.245  0.0698  0.3050 -0.8694
 5586SOL    HW128394   4.046   2.012   4.290  0.3487  1.3736 -1.9390
 5586SOL    HW228395   4.114   1.990   4.158  2.3928 -0.2498 -0.8654
 5587SOL     OW28396   4.036   0.530  14.906 -0.0954  0.4332  0.2217
 5587SOL    HW128397   4.042   0.602  14.844  2.1077 -1.1338 -1.3831
 5587SOL    HW228398   4.110   0.476  14.877  1.9150  2.0781  2.3276
 5588SOL     OW28399   1.914   1.217   2.650 -0.3147  0.4994 -0.0225
 5588SOL    HW128400   1.929   1.143   2.709  0.2492  0.4057 -0.2876
 5588SOL    HW228401   1.986   1.217   2.588 -0.6825  0.1532 -0.4437
 5589SOL     OW28402   4.109   4.262   1.530 -0.1031 -0.1826  0.1978
 5589SOL    HW128403   4.114   4.261   1.625 -0.6664  0.5409  0.2435
 5589SOL    HW228404   4.021   4.296   1.513 -0.9448 -2.4940 -0.0253
 5590SOL     OW28405   4.263   4.619   1.604  0.1175 -0.5374  0.2469
 5590SOL    HW128406   4.218   4.553   1.657  0.7801 -0.8332  0.4385
 5590SOL    HW228407   4.339   4.620   1.662  0.7532  1.9715 -0.6381
 5591SOL     OW28408   3.713   3.717   7.029 -0.3771  0.4758  0.2227
 5591SOL    HW128409   3.765   3.644   6.996 -0.6319 -0.0488  0.9776
 5591SOL    HW228410   3.718   3.704   7.124  1.5973  0.8910  0.1866
 5592SOL     OW28411   0.121   0.118   8.036  0.3903  0.6921 -0.3082
 5592SOL    HW128412   0.142   0.201   7.993 -0.3214  1.0972  0.1258
 5592SOL    HW228413   0.028   0.135   8.054 -0.0061 -1.0183 -0.7145
 5593SOL     OW28414   0.600   3.145   3.962  0.7086 -0.4257 -1.1303
 5593SOL    HW128415   0.660   3.162   4.035  1.4957 -2.5069 -1.2797
 5593SOL    HW228416   0.618   3.224   3.912 -0.1459  0.0876 -0.6288
 5594SOL     OW28417   1.260   0.429   1.846 -0.0983  0.3360 -0.0520
 5594SOL    HW128418   1.239   0.337   1.863  1.2483 -0.1394 -0.9307
 5594SOL    HW228419   1.328   0.440   1.914 -0.5423  1.0734  0.2643
 5595SOL     OW28420   0.425   0.799   5.790 -0.0349  0.2470 -0.6185
 5595SOL    HW128421   0.495   0.734   5.779  1.1425  1.6747 -1.5495
 5595SOL    HW228422   0.348   0.751   5.821 -0.2195  0.5445 -0.6205
 5596SOL     OW28423   3.485   2.732   3.486 -0.5300  0.6531 -0.0787
 5596SOL    HW128424   3.545   2.786   3.537 -1.1124  2.2111 -1.0644
 5596SOL    HW228425   3.426   2.796   3.448 -2.1750 -2.3170 -2.5642
 5597SOL     OW28426   3.323   3.900   8.089 -0.0137  0.2432  0.1330
 5597SOL    HW128427   3.355   3.903   7.999  0.5213 -1.0185  0.2817
 5597SOL    HW228428   3.272   3.981   8.097 -0.2834  0.1270 -0.3967
 5598SOL     OW28429   3.375   4.522   8.152  0.3852  0.1712 -0.0443
 5598SOL    HW128430   3.308   4.542   8.216  1.0490  0.6595  0.5032
 5598SOL    HW228431   3.399   4.612   8.129  0.9854  0.2119  0.7404
 5599SOL     OW28432   1.750   2.505   6.112  0.1897  0.2737 -0.7914
 5599SOL    HW128433   1.745   2.552   6.195 -0.7497 -1.1398 -0.0548
 5599SOL    HW228434   1.692   2.434   6.139 -0.1907  0.3406 -1.4529
 5600SOL     OW28435   3.723   1.585   3.594  0.2846  0.5285  0.5476
 5600SOL    HW128436   3.659   1.649   3.564 -0.6496  0.5072  2.5359
 5600SOL    HW228437   3.747   1.538   3.514 -0.5500  1.3557 -0.1974
 5601SOL     OW28438   0.344   1.927   1.689 -0.1730 -0.0621  0.2779
 5601SOL    HW128439   0.274   1.986   1.717  1.7467  1.3484  1.9949
 5601SOL    HW228440   0.309   1.842   1.716 -0.3277 -0.3113 -0.6753
 5602SOL     OW28441   3.531   2.219  15.854  0.5818 -0.1292  0.0085
 5602SOL    HW128442   3.466   2.271  15.808 -0.0506  0.5597  1.6621
 5602SOL    HW228443   3.592   2.208  15.782  0.2130 -0.3514 -0.2657
 5603SOL     OW28444   3.473   2.011   7.542  0.1621 -0.4783 -0.2482
 5603SOL    HW128445   3.456   1.966   7.459  0.2057  1.3473 -1.2600
 5603SOL    HW228446   3.400   2.074   7.536  1.0175  0.5528  0.2026
 5604SOL     OW28447   4.303   1.832   6.986  0.8061  0.3123  0.0619
 5604SOL    HW128448   4.239   1.892   7.025  2.1716  1.4342  0.5952
 5604SOL    HW228449   4.291   1.758   7.045  1.9359  2.0080  2.4417
 5605SOL     OW28450   2.052   1.784   5.503  0.3363  0.0468 -0.2436
 5605SOL    HW128451   2.052   1.689   5.498  1.5355  0.1293 -2.2233
 5605SOL    HW228452   1.957   1.792   5.510  0.2285  0.7680 -2.3825
 5606SOL     OW28453   3.033   3.447   2.110  0.3617 -1.0221  0.3629
 5606SOL    HW128454   2.970   3.501   2.063  0.4983 -1.3832 -0.2230
 5606SOL    HW228455   3.106   3.438   2.049 -0.8634  0.5407 -1.3452
 5607SOL     OW28456   0.605   0.189  16.690 -0.1772  0.2104 -0.3935
 5607SOL    HW128457   0.683   0.244  16.689 -0.9833  1.3741  0.9779
 5607SOL    HW228458   0.585   0.200  16.784 -3.1266  1.2201 -1.1311
 5608SOL     OW28459   4.598   0.132   8.118  0.0383 -0.4572 -0.2762
 5608SOL    HW128460   4.576   0.050   8.162 -0.2877 -1.7887 -2.9154
 5608SOL    HW228461   4.576   0.192   8.189 -0.8450  1.1300 -1.8826
 5609SOL     OW28462   1.766   4.688   2.169 -0.3868 -0.4781  0.0909
 5609SOL    HW128463   1.695   4.672   2.232 -0.8716  1.3176  0.0011
 5609SOL    HW228464   1.751   0.036   2.139 -0.2644 -0.5571 -0.2068
 5610SOL     OW28465   4.116   0.705  14.712 -0.1850  0.9501 -0.2283
 5610SOL    HW128466   4.190   0.666  14.664  0.5058  0.0321  1.5666
 5610SOL    HW228467   4.147   0.791  14.737  0.7165  0.6335 -0.2533
 5611SOL     OW28468   0.557   4.025   4.083  0.2825  0.1406  0.3347
 5611SOL    HW128469   0.647   4.020   4.116  0.7924 -0.1100 -1.0945
 5611SOL    HW228470   0.548   4.113   4.047 -0.8416 -0.3757 -0.6384
 5612SOL     OW28471   3.512   4.217  12.227 -0.2474 -0.0785 -0.4355
 5612SOL    HW128472   3.457   4.273  12.283  0.9962 -1.4066  2.1126
 5612SOL    HW228473   3.540   4.154  12.293 -0.1558  0.8214  0.3953
 5613SOL     OW28474   4.277   4.437   4.653  0.8686  0.0008 -0.0922
 5613SOL    HW128475   4.249   4.376   4.584  1.7944  0.9193 -1.2927
 5613SOL    HW228476   4.274   4.371   4.722 -0.2038  0.9973  0.8091
 5614SOL     OW28477   4.194   0.805  17.707 -0.5189  0.2516  0.6731
 5614SOL    HW128478   4.168   0.845  17.624  2.3853  2.2335  0.7235
 5614SOL    HW228479   4.222   0.716  17.688 -0.3476  0.0539  1.8763
 5615SOL     OW28480   2.501   2.516   4.031 -0.3146 -0.0619  0.0370
 5615SOL    HW128481   2.459   2.583   4.085 -1.0571 -1.2553  0.9345
 5615SOL    HW228482   2.429   2.494   3.971 -0.8696  0.6683  0.4298
 5616SOL     OW28483   0.952   4.554   9.706 -0.3256  0.6859  0.0230
 5616SOL    HW128484   0.889   4.622   9.731 -1.2631 -0.9283  2.0584
 5616SOL    HW228485   0.910   4.472   9.734  0.2326 -0.0017 -1.1326
 5617SOL     OW28486   0.545   1.635   3.625  0.2430  0.5334 -0.4639
 5617SOL    HW128487   0.503   1.568   3.571  1.5197  0.6618 -1.6177
 5617SOL    HW228488   0.564   1.586   3.704  0.6293  0.9969 -0.2689
 5618SOL     OW28489   3.562   2.920  11.303 -0.3444 -0.1699 -0.0791
 5618SOL    HW128490   3.494   2.927  11.370 -0.9266 -0.1777 -0.6570
 5618SOL    HW228491   3.539   3.000  11.257 -2.9898 -0.6403  0.4234
 5619SOL     OW28492   0.653   4.048   8.429 -0.0968  0.2213 -0.4712
 5619SOL    HW128493   0.656   4.111   8.501 -1.2714 -1.4041  0.9928
 5619SOL    HW228494   0.731   4.067   8.377  1.3178  1.0643  1.9506
 5620SOL     OW28495   1.795   1.821   8.155 -0.5719  0.5206  0.0689
 5620SOL    HW128496   1.704   1.828   8.183 -0.0848  2.4060  1.2382
 5620SOL    HW228497   1.835   1.762   8.219  1.2934 -0.2008 -1.7493
 5621SOL     OW28498   2.015   2.384   5.231 -0.2316  0.3291  0.6602
 5621SOL    HW128499   2.109   2.402   5.230 -0.0957 -0.4025  0.3539
 5621SOL    HW228500   1.999   2.311   5.172 -2.3613  0.5395  0.9675
 5622SOL     OW28501   1.739   1.306   8.682  0.1442 -0.3600 -0.2656
 5622SOL    HW128502   1.734   1.396   8.714 -0.5099 -1.1957  1.9513
 5622SOL    HW228503   1.748   1.246   8.756 -0.9667  0.6032  0.6365
 5623SOL     OW28504   3.161   4.649   5.797 -0.0540 -0.8151 -0.2333
 5623SOL    HW128505   3.131   4.586   5.862  1.8559 -0.3490  1.1338
 5623SOL    HW228506   3.255   4.646   5.815  0.2204  0.8338 -1.4002
 5624SOL     OW28507   4.606   1.499   7.308 -0.1811  0.0049 -0.0121
 5624SOL    HW128508   4.527   1.456   7.341  0.4507 -2.2241 -1.4119
 5624SOL    HW228509   4.610   1.452   7.224  0.0673 -0.1066  0.0619
 5625SOL     OW28510   2.324   1.419   9.818 -0.8238 -0.2575  0.3344
 5625SOL    HW128511   2.298   1.511   9.811 -0.6511 -0.1522  1.0478
 5625SOL    HW228512   2.258   1.389   9.880  0.6371 -3.9282  0.0971
 5626SOL     OW28513   1.998   2.853   4.310 -0.4594 -0.3603 -0.5354
 5626SOL    HW128514   1.993   2.774   4.364  2.7874  0.3703  0.8343
 5626SOL    HW228515   1.980   2.918   4.377  1.5096  2.6838 -2.9564
 5627SOL     OW28516   0.552   1.732   7.526 -0.0721 -0.1693 -0.1130
 5627SOL    HW128517   0.483   1.790   7.558  1.5993  1.4544  0.5522
 5627SOL    HW228518   0.620   1.763   7.586  0.3408  0.4859 -0.9282
 5628SOL     OW28519   0.782   4.128   6.137  0.0980 -0.1166  0.1135
 5628SOL    HW128520   0.878   4.126   6.132  0.0818 -0.3122 -0.1182
 5628SOL    HW228521   0.758   4.125   6.044 -1.5289  2.4334  0.4407
 5629SOL     OW28522   3.129   2.797   2.059  0.0379 -0.5443  0.1674
 5629SOL    HW128523   3.047   2.797   2.109 -0.2601 -0.8626 -0.3192
 5629SOL    HW228524   3.091   2.831   1.978 -1.1897 -0.6551  0.6971
 5630SOL     OW28525   0.358   1.787   9.633 -0.3812  0.0010 -0.5485
 5630SOL    HW128526   0.337   1.698   9.660  1.1322 -0.6698 -1.5597
 5630SOL    HW228527   0.331   1.840   9.708  2.6888  0.3949  0.3007
 5631SOL     OW28528   0.514   2.627   3.674 -0.0671 -0.6622  0.5036
 5631SOL    HW128529   0.436   2.622   3.729 -2.1858 -0.9848 -2.5926
 5631SOL    HW228530   0.562   2.684   3.734 -1.4518  1.9755 -0.9255
 5632SOL     OW28531   1.639   3.291   0.210 -0.1519 -0.4876  0.0122
 5632SOL    HW128532   1.679   3.206   0.231  1.9888  1.0283  2.0743
 5632SOL    HW228533   1.595   3.307   0.294  1.0324  0.5546  0.4303
 5633SOL     OW28534   0.388   3.341   4.902 -0.5647 -0.6152 -0.2966
 5633SOL    HW128535   0.325   3.287   4.855 -0.4357  0.4255 -1.6642
 5633SOL    HW228536   0.320   3.390   4.948  0.5492 -0.0379  0.7554
 5634SOL     OW28537   1.806   1.296   6.173  0.0890 -0.1806 -0.0875
 5634SOL    HW128538   1.891   1.255   6.192  0.2199  0.4431  0.6981
 5634SOL    HW228539   1.752   1.250   6.237 -1.5104  1.2446 -0.4223
 5635SOL     OW28540   4.277   3.040   7.835 -0.3656 -0.1709  0.0691
 5635SOL    HW128541   4.323   3.009   7.757 -2.0034  0.1303 -1.0333
 5635SOL    HW228542   4.334   3.001   7.901  1.5656 -0.5010 -1.8202
 5636SOL     OW28543   1.671   1.766   0.577 -0.4258  0.9734  0.4844
 5636SOL    HW128544   1.766   1.760   0.590 -0.4462  2.8411  1.4241
 5636SOL    HW228545   1.646   1.857   0.561  0.2479  0.9855 -0.5073
 5637SOL     OW28546   2.454   4.455   5.292  0.1179 -0.1588 -0.3362
 5637SOL    HW128547   2.420   4.493   5.211 -1.3200 -1.3840 -0.2994
 5637SOL    HW228548   2.536   4.411   5.272  0.7739  1.2228 -0.6979
 5638SOL     OW28549   0.917   3.210   8.944  0.4410  0.5442 -0.3887
 5638SOL    HW128550   0.848   3.272   8.919  1.1688  0.9898 -1.3234
 5638SOL    HW228551   0.984   3.273   8.973  1.6987 -0.9372 -0.1028
 5639SOL     OW28552   3.431   3.195   4.582  0.0853 -0.2671  0.3500
 5639SOL    HW128553   3.366   3.226   4.519 -0.0126  1.9097  1.5514
 5639SOL    HW228554   3.443   3.102   4.563  2.6522  0.1870 -0.2902
 5640SOL     OW28555   2.986   3.539   6.250  0.2129 -0.0267 -0.5230
 5640SOL    HW128556   3.001   3.571   6.162 -0.3357 -1.7905 -1.2577
 5640SOL    HW228557   3.026   3.452   6.248  0.4105  0.0412  0.2516
 5641SOL     OW28558   1.661   0.510  11.459 -1.0422 -0.7168 -0.1051
 5641SOL    HW128559   1.754   0.494  11.470 -0.6081  0.8967 -1.3229
 5641SOL    HW228560   1.626   0.439  11.512  0.9947 -0.9924  0.8722
 5642SOL     OW28561   1.264   0.528   6.246 -0.0843  0.4578 -0.9231
 5642SOL    HW128562   1.203   0.601   6.235 -0.6155  0.2419  0.5687
 5642SOL    HW228563   1.306   0.528   6.160 -1.1579 -1.6758 -1.4536
 5643SOL     OW28564   0.883   2.498  10.359  0.2784 -0.2975 -0.5790
 5643SOL    HW128565   0.790   2.508  10.341  1.1303  1.6108 -4.0237
 5643SOL    HW228566   0.886   2.519  10.452  1.4390  0.0770 -0.6918
 5644SOL     OW28567   1.722   1.246   4.353  0.2346 -0.0428 -0.5914
 5644SOL    HW128568   1.687   1.290   4.430 -2.5582 -0.0369 -1.8461
 5644SOL    HW228569   1.794   1.307   4.338 -0.5357  1.7465  2.9626
 5645SOL     OW28570   3.528   1.616   1.834  0.2494 -0.3888  0.0698
 5645SOL    HW128571   3.515   1.706   1.864 -0.0555 -0.6852  0.8286
 5645SOL    HW228572   3.482   1.556   1.894 -0.9096  0.0414 -0.3790
 5646SOL     OW28573   3.012   3.028   4.281 -0.0072  0.1042  0.1931
 5646SOL    HW128574   3.043   2.994   4.196 -0.4323 -1.0857  0.5092
 5646SOL    HW228575   2.922   2.994   4.281  0.5445 -1.3675 -2.6423
 5647SOL     OW28576   2.948   0.697  14.772 -0.1113  0.1603  0.3930
 5647SOL    HW128577   2.923   0.787  14.754 -1.5801 -0.5309 -1.0404
 5647SOL    HW228578   2.874   0.646  14.738  0.8821 -0.0328 -1.5106
 5648SOL     OW28579   1.313   1.811   5.224  0.3317  0.7849  0.4530
 5648SOL    HW128580   1.362   1.781   5.301 -0.2591 -0.9465  0.1493
 5648SOL    HW228581   1.351   1.895   5.199 -1.2997  1.8462  1.5517
 5649SOL     OW28582   3.372   1.534   3.086  0.3814  0.5472  0.0721
 5649SOL    HW128583   3.387   1.456   3.033  2.9357  0.9454  0.1925
 5649SOL    HW228584   3.290   1.561   3.044  1.9323  0.6717 -2.9063
 5650SOL     OW28585   1.164   4.614   3.847  0.0120 -0.0520  0.4563
 5650SOL    HW128586   1.199   4.570   3.770 -1.3302 -3.0465  1.5659
 5650SOL    HW228587   1.233   4.679   3.858 -0.5898  0.8585 -1.0317
 5651SOL     OW28588   2.867   4.216   8.676  0.1913 -0.2918 -0.2728
 5651SOL    HW128589   2.951   4.233   8.634 -0.2468  0.3386 -0.8934
 5651SOL    HW228590   2.810   4.207   8.600  1.1121  2.0308 -1.2543
 5652SOL     OW28591   2.132   2.390   8.375  0.3984 -0.2517  0.2190
 5652SOL    HW128592   2.057   2.356   8.424  1.5861 -1.7469  1.0105
 5652SOL    HW228593   2.147   2.324   8.307 -3.0758 -0.8101 -0.0068
 5653SOL     OW28594   3.413   0.409   4.089 -0.1827 -0.1836  0.3082
 5653SOL    HW128595   3.325   0.419   4.126 -0.2538  2.3904 -0.6138
 5653SOL    HW228596   3.394   0.344   4.021 -0.2983 -1.6485  1.7294
 5654SOL     OW28597   2.618   4.031   2.300 -0.2842 -0.3963 -0.4343
 5654SOL    HW128598   2.546   4.036   2.363  0.0052 -1.8743  0.0115
 5654SOL    HW228599   2.607   3.941   2.270  1.5764 -0.6050 -0.4608
 5655SOL     OW28600   0.020   3.886   3.179  0.1155  0.0823  0.1747
 5655SOL    HW128601   0.108   3.864   3.147  0.3495 -2.4151  2.5131
 5655SOL    HW228602   0.028   3.917   3.269 -1.6148 -0.2631  0.4471
 5656SOL     OW28603   0.341   4.325  13.438 -0.1474  0.3492  0.1976
 5656SOL    HW128604   0.377   4.292  13.356 -2.5292  0.8398 -1.0471
 5656SOL    HW228605   0.277   4.257  13.460  0.3987 -0.0088  0.6603
 5657SOL     OW28606   1.935   4.439   8.089 -0.2139  0.4690 -0.5389
 5657SOL    HW128607   1.875   4.465   8.019 -1.7312  0.1062  0.6418
 5657SOL    HW228608   1.974   4.366   8.041  3.6457  0.9051  1.9768
 5658SOL     OW28609   2.568   0.263  17.468  0.3348 -0.5477 -0.1194
 5658SOL    HW128610   2.584   0.169  17.458  0.2625 -0.5076 -0.6113
 5658SOL    HW228611   2.604   0.282  17.554 -0.5356  0.7898 -0.0349
 5659SOL     OW28612   3.577   4.050   7.070  0.2150  0.2312 -0.2068
 5659SOL    HW128613   3.638   4.122   7.051  0.7234 -0.3720 -0.8494
 5659SOL    HW228614   3.575   4.051   7.166 -0.8302 -0.1405 -0.2328
 5660SOL     OW28615   1.989   1.153  13.947  0.2939 -0.0799 -0.0919
 5660SOL    HW128616   2.049   1.224  13.969  0.1641 -0.8836  2.8823
 5660SOL    HW228617   1.918   1.205  13.909  0.4518  0.8274  0.8626
 5661SOL     OW28618   4.600   4.359   5.379 -0.3336 -0.4261 -0.2349
 5661SOL    HW128619   4.608   4.276   5.426 -1.1084  0.6272  1.7197
 5661SOL    HW228620   4.512   4.373   5.413 -0.4722 -0.2280 -0.6823
 5662SOL     OW28621   2.569   3.878   8.181 -0.3215 -0.0007  0.2357
 5662SOL    HW128622   2.531   3.965   8.196  2.1698  0.9481  1.0457
 5662SOL    HW228623   2.483   3.836   8.185 -0.6473  0.7157  0.7021
 5663SOL     OW28624   2.286   0.530   2.030 -0.0699 -0.0578 -0.3095
 5663SOL    HW128625   2.350   0.472   2.071  0.4919  1.0281  0.3395
 5663SOL    HW228626   2.226   0.466   1.993  1.1338 -1.6022  0.4315
 5664SOL     OW28627   3.144   3.095  15.162  0.3855 -0.4182 -0.0593
 5664SOL    HW128628   3.080   3.066  15.097 -3.3540 -0.5981  3.7153
 5664SOL    HW228629   3.204   3.020  15.166  3.3738  1.8606 -1.8226
 5665SOL     OW28630   2.670   0.995   1.164 -0.1021  0.9325 -0.0310
 5665SOL    HW128631   2.662   1.077   1.213  0.1457  2.1252 -2.0159
 5665SOL    HW228632   2.691   0.944   1.242  0.9426  1.2974 -0.0787
 5666SOL     OW28633   3.271   1.910   2.574  0.0044  0.2057  0.3419
 5666SOL    HW128634   3.199   1.898   2.636 -1.2056  4.0541 -0.3282
 5666SOL    HW228635   3.305   1.820   2.570 -1.4725 -0.3974  1.3231
 5667SOL     OW28636   3.069   2.100   2.856  0.1300  0.4267 -0.0946
 5667SOL    HW128637   3.154   2.142   2.848 -0.3345  1.5003  0.7212
 5667SOL    HW228638   3.008   2.156   2.808 -0.6078 -1.9217 -1.9178
 5668SOL     OW28639   3.756   3.424   5.895  0.5488  0.0230 -0.2304
 5668SOL    HW128640   3.682   3.466   5.851  0.3058 -0.7618 -0.5825
 5668SOL    HW228641   3.710   3.381   5.967  0.5851 -0.2206 -0.3533
 5669SOL     OW28642   3.796   0.819   0.609  0.2010  0.0049  0.7218
 5669SOL    HW128643   3.877   0.805   0.560 -0.1878 -0.2828  0.1527
 5669SOL    HW228644   3.826   0.804   0.698  0.3154  1.4716  0.9313
 5670SOL     OW28645   4.341   3.538  16.993 -0.8364 -0.7934  0.1108
 5670SOL    HW128646   4.390   3.617  16.973  0.5499 -1.7244 -0.2019
 5670SOL    HW228647   4.252   3.564  17.017 -1.6039 -1.1932 -2.3246
 5671SOL     OW28648   0.671   2.163  14.348 -0.4958  0.6008 -0.4010
 5671SOL    HW128649   0.628   2.245  14.323 -2.5085 -0.3644 -0.0947
 5671SOL    HW228650   0.594   2.106  14.339 -0.1530  0.6332 -3.5928
 5672SOL     OW28651   0.896   1.478  13.318  0.6482 -0.4494 -0.2932
 5672SOL    HW128652   0.829   1.509  13.379  0.8876 -1.8717  0.6891
 5672SOL    HW228653   0.946   1.416  13.371  1.1952 -0.0253 -0.3026
 5673SOL     OW28654   3.205   2.867   6.731 -0.1948 -0.4395 -0.0222
 5673SOL    HW128655   3.253   2.794   6.691 -0.0607 -0.8330  0.8794
 5673SOL    HW228656   3.134   2.883   6.668  1.0034  0.3906 -1.1810
 5674SOL     OW28657   4.694   2.060   8.354 -0.1499 -0.6406  0.1417
 5674SOL    HW128658   4.698   2.147   8.314  1.7725 -0.8078 -0.0191
 5674SOL    HW228659   0.032   2.055   8.408  0.4835 -1.2901 -0.8511
 5675SOL     OW28660   2.196   2.817  13.179 -0.0252  0.3138 -0.1705
 5675SOL    HW128661   2.247   2.874  13.237 -0.6475  0.5753  0.1227
 5675SOL    HW228662   2.259   2.797  13.110  1.3363  2.6325  0.3763
 5676SOL     OW28663   0.724   3.674   7.468 -0.5405 -0.0962 -0.4292
 5676SOL    HW128664   0.714   3.581   7.444 -2.1774 -0.4803  1.7779
 5676SOL    HW228665   0.677   3.677   7.551 -1.9607  0.6821 -1.2666
 5677SOL     OW28666   2.317   2.629  13.354  0.4993 -0.3546 -0.0973
 5677SOL    HW128667   2.249   2.654  13.291  1.1816  0.4432 -0.5130
 5677SOL    HW228668   2.297   2.688  13.427 -2.9344 -0.6331 -0.8230
 5678SOL     OW28669   1.014   3.204   1.631  0.2789  0.5609 -0.4919
 5678SOL    HW128670   1.043   3.260   1.559 -0.9072 -0.7103 -1.9579
 5678SOL    HW228671   1.064   3.233   1.708 -0.4171  0.7049 -0.0897
 5679SOL     OW28672   4.058   1.056   9.237  0.3847  0.2722  0.0466
 5679SOL    HW128673   4.115   1.020   9.304 -1.7898 -2.8075  0.2328
 5679SOL    HW228674   4.046   1.141   9.278 -0.6733 -1.1625  2.7004
 5680SOL     OW28675   2.882   1.833   5.496  0.1077  0.5840  0.1994
 5680SOL    HW128676   2.787   1.840   5.494  0.3364  3.6130  1.2186
 5680SOL    HW228677   2.892   1.738   5.481 -1.3096  0.8027 -2.1381
 5681SOL     OW28678   2.956   4.647   8.579 -0.2683 -0.0352  0.6115
 5681SOL    HW128679   3.024   4.638   8.645 -0.3765  0.0127  0.7296
 5681SOL    HW228680   2.985   4.731   8.543 -1.3425 -0.1165 -0.4692
 5682SOL     OW28681   0.685   0.742   8.264  0.0275  0.2097  0.0283
 5682SOL    HW128682   0.595   0.771   8.279  0.5595  1.0595  1.5374
 5682SOL    HW228683   0.673   0.687   8.186 -1.3637 -2.0858  1.8592
 5683SOL     OW28684   2.820   2.505   6.991  0.1660  0.0415  0.4861
 5683SOL    HW128685   2.787   2.490   7.080  2.3639 -0.0261  1.2724
 5683SOL    HW228686   2.805   2.599   6.982  0.3994 -0.1776 -2.1255
 5684SOL     OW28687   0.129   4.526  11.416 -0.4755 -0.3188  0.1912
 5684SOL    HW128688   0.103   4.599  11.360  0.7166 -0.0407 -0.0106
 5684SOL    HW228689   0.103   4.451  11.362 -0.6151 -0.7344  0.8364
 5685SOL     OW28690   2.733   3.273   0.770 -0.3138 -0.4353  0.4422
 5685SOL    HW128691   2.678   3.332   0.822  0.9519  0.8717  0.2808
 5685SOL    HW228692   2.708   3.301   0.682  0.4969  1.1251  0.7120
 5686SOL     OW28693   4.099   1.723   8.033 -0.4320  0.3498  0.0349
 5686SOL    HW128694   4.046   1.802   8.037  0.0161  0.6300  0.3818
 5686SOL    HW228695   4.067   1.683   8.113 -2.8827 -0.0215 -1.1286
 5687SOL     OW28696   0.999   4.520   7.119  0.8081 -0.1169 -0.1048
 5687SOL    HW128697   0.932   4.455   7.099 -0.1824  1.1186 -0.8211
 5687SOL    HW228698   0.956   4.575   7.184 -0.9373 -1.5545 -0.0668
 5688SOL     OW28699   1.280   2.629  16.318 -0.3178  0.0215  0.4566
 5688SOL    HW128700   1.262   2.536  16.336 -2.3300  0.4261  0.4876
 5688SOL    HW228701   1.284   2.639  16.223  0.9062  0.4450  0.5586
 5689SOL     OW28702   4.051   0.367   4.771 -0.8217 -0.1443 -0.0485
 5689SOL    HW128703   4.075   0.432   4.838 -0.9790  0.7987 -0.9076
 5689SOL    HW228704   4.081   0.406   4.689 -1.2019  1.5020  0.5980
 5690SOL     OW28705   3.341   1.979   0.764 -0.0066 -0.4634 -0.2326
 5690SOL    HW128706   3.293   2.057   0.737 -0.3603  0.1044  2.0529
 5690SOL    HW228707   3.318   1.982   0.857 -0.8722  1.0743 -0.5038
 5691SOL     OW28708   0.306   2.070   3.613 -0.2943  0.0250 -0.2554
 5691SOL    HW128709   0.238   2.079   3.547  0.2211 -1.1393 -0.9394
 5691SOL    HW228710   0.274   2.001   3.671 -2.5411 -0.4672 -2.0790
 5692SOL     OW28711   0.408   2.041  14.287 -0.7811  0.4300  0.0134
 5692SOL    HW128712   0.331   2.066  14.236 -1.4491 -0.7729  0.4348
 5692SOL    HW228713   0.372   2.001  14.366 -1.7323  0.7028 -0.2802
 5693SOL     OW28714   3.142   3.140   4.647 -0.5144 -0.0512 -0.5264
 5693SOL    HW128715   3.230   3.144   4.682 -0.6200 -0.0275 -0.2639
 5693SOL    HW228716   3.123   3.228   4.616  1.0186 -0.1952 -1.8657
 5694SOL     OW28717   1.308   4.695  13.021 -0.1327 -0.2619 -0.5192
 5694SOL    HW128718   1.241   4.692  13.090  0.7457 -0.4774  0.3309
 5694SOL    HW228719   1.295   0.046  12.998 -2.0286 -0.2966  0.4136
 5695SOL     OW28720   2.308   3.356   2.327 -0.1778  0.0966 -0.1676
 5695SOL    HW128721   2.374   3.310   2.276  0.9028  0.4725  0.9075
 5695SOL    HW228722   2.336   3.365   2.418  0.2471  2.5110 -0.5304
 5696SOL     OW28723   2.033   4.084  16.285 -0.3983 -0.1722 -0.5449
 5696SOL    HW128724   1.950   4.129  16.265  0.5869  1.0548 -1.9250
 5696SOL    HW228725   2.022   3.999  16.326  0.1085  0.2130  0.3923
 5697SOL     OW28726   3.545   0.027   1.924 -0.2623 -0.8048  0.0100
 5697SOL    HW128727   3.517   4.691   1.874  1.3110 -0.2288 -1.7527
 5697SOL    HW228728   3.551   4.734   2.013 -0.7922 -0.8460  0.0295
 5698SOL     OW28729   2.759   1.797   9.742 -0.2235 -0.1540  0.4054
 5698SOL    HW128730   2.668   1.769   9.750 -0.6994  0.3777 -3.0565
 5698SOL    HW228731   2.756   1.877   9.795  3.0818  0.5378 -0.4384
 5699SOL     OW28732   1.255   1.171   1.561  0.1899  0.4288 -0.1761
 5699SOL    HW128733   1.325   1.136   1.616 -1.7793 -3.2604 -0.0179
 5699SOL    HW228734   1.192   1.210   1.623  0.1623 -0.7701  0.5469
 5700SOL     OW28735   1.125   1.467  10.704 -0.6191 -0.0781 -0.1131
 5700SOL    HW128736   1.137   1.389  10.650 -0.4600 -1.2843  1.6647
 5700SOL    HW228737   1.140   1.541  10.645 -2.3423 -1.3758 -2.1599
 5701SOL     OW28738   0.558   2.061   9.353 -0.5029  0.6055  0.1152
 5701SOL    HW128739   0.558   1.985   9.296 -1.4601  1.0922 -0.5404
 5701SOL    HW228740   0.571   2.019   9.438  1.8825 -1.3186 -1.1999
 5702SOL     OW28741   0.813   1.852   9.456  0.5396  0.1127  0.0393
 5702SOL    HW128742   0.739   1.887   9.507  0.3106 -0.2026 -0.0738
 5702SOL    HW228743   0.882   1.888   9.512 -0.8415  0.1574  1.7136
 5703SOL     OW28744   2.472   4.324  10.778 -0.0227 -0.1143  0.4718
 5703SOL    HW128745   2.443   4.414  10.789  0.9321  0.1887  0.4712
 5703SOL    HW228746   2.419   4.281  10.846 -0.9100  0.6229  0.2350
 5704SOL     OW28747   4.512   3.898   3.632 -0.1715 -0.0059 -0.0731
 5704SOL    HW128748   4.460   3.926   3.707  1.6233 -0.6639  1.4235
 5704SOL    HW228749   4.591   3.953   3.628 -0.5826  0.5925  0.0048
 5705SOL     OW28750   1.705   3.115   8.827 -0.4308  0.7539 -0.0474
 5705SOL    HW128751   1.680   3.053   8.757  3.7732 -1.6526  0.5634
 5705SOL    HW228752   1.773   3.161   8.778 -0.1774  0.1841 -0.2448
 5706SOL     OW28753   1.886   0.773  17.716  0.3354  0.4848  0.0709
 5706SOL    HW128754   1.808   0.826  17.703  0.1790  0.0648 -0.6941
 5706SOL    HW228755   1.857   0.723   0.032  0.5418  0.3740  0.0758
 5707SOL     OW28756   2.554   3.608   3.795  0.2975 -0.2268 -0.1072
 5707SOL    HW128757   2.604   3.531   3.767 -2.0014 -0.8058 -2.7080
 5707SOL    HW228758   2.518   3.644   3.714  0.4749  2.0136  0.8334
 5708SOL     OW28759   3.006   2.613  16.026 -0.6884  0.5115  0.1468
 5708SOL    HW128760   2.963   2.531  16.002 -0.7270  0.4106  0.5622
 5708SOL    HW228761   3.012   2.608  16.121  2.0738  2.2377  0.0576
 5709SOL     OW28762   4.476   3.620   8.135  0.1212 -0.7148  0.3266
 5709SOL    HW128763   4.443   3.545   8.086 -0.2248 -0.9138  0.8639
 5709SOL    HW228764   4.535   3.575   8.196 -2.1759 -2.9539  0.8980
 5710SOL     OW28765   1.980   0.372   4.896  0.2395 -0.4654  0.3791
 5710SOL    HW128766   1.944   0.460   4.891 -0.2196 -0.5649  1.9071
 5710SOL    HW228767   1.979   0.343   4.805  2.0494  0.0428  0.1974
 5711SOL     OW28768   4.537   0.380   4.396  0.4370 -0.5708  0.2699
 5711SOL    HW128769   4.570   0.309   4.450 -1.9695 -0.2517  2.1529
 5711SOL    HW228770   4.558   0.462   4.440  2.5169 -1.7955  1.5451
 5712SOL     OW28771   3.746   2.759  17.156  0.2242 -0.2159 -0.0823
 5712SOL    HW128772   3.783   2.802  17.079 -0.0003  0.7081  0.3209
 5712SOL    HW228773   3.660   2.744  17.117 -0.1509  1.9058 -0.1138
 5713SOL     OW28774   0.302   2.624  17.214  0.0898  0.6335 -0.2436
 5713SOL    HW128775   0.240   2.552  17.228  0.3332  0.6443  0.8906
 5713SOL    HW228776   0.266   2.658  17.133  1.2941  1.0820 -0.5731
 5714SOL     OW28777   4.740   3.626   3.940  0.1336 -0.7283 -0.2382
 5714SOL    HW128778   4.649   3.654   3.949 -0.3360 -1.4683 -2.6104
 5714SOL    HW228779   0.034   3.657   4.023 -0.9459 -0.8143  0.2496
 5715SOL     OW28780   1.258   2.954   6.698 -0.1302 -0.0818  0.6226
 5715SOL    HW128781   1.249   2.880   6.758  2.2685 -2.0681 -1.4510
 5715SOL    HW228782   1.242   2.920   6.610  1.3867 -2.1704  1.1388
 5716SOL     OW28783   0.477   1.309   7.891  0.7285 -1.0021  0.4204
 5716SOL    HW128784   0.383   1.296   7.906  0.6632  1.9644  2.5380
 5716SOL    HW228785   0.488   1.262   7.808  0.0196 -0.6808  0.1410
 5717SOL     OW28786   1.073   3.719   9.552 -0.0850 -0.1429  0.4311
 5717SOL    HW128787   1.024   3.643   9.582 -1.5193  0.6306  0.1084
 5717SOL    HW228788   1.138   3.680   9.493 -0.9925 -2.2691  0.8451
 5718SOL     OW28789   2.274   3.737   3.649 -0.0968  0.7226 -0.6270
 5718SOL    HW128790   2.190   3.779   3.632 -0.4066  0.3136 -0.1135
 5718SOL    HW228791   2.277   3.726   3.744 -0.8442 -0.3804 -0.7264
 5719SOL     OW28792   3.300   2.704  11.587 -0.0167 -0.0962 -0.0339
 5719SOL    HW128793   3.349   2.621  11.591 -3.4440 -2.0489  1.2947
 5719SOL    HW228794   3.278   2.701  11.494  0.6466 -2.9772 -0.0969
 5720SOL     OW28795   4.550   4.463   5.781  0.1147  0.0977  0.2052
 5720SOL    HW128796   4.550   4.558   5.774 -1.0038  0.0610 -0.1587
 5720SOL    HW228797   4.511   4.437   5.698  0.2035 -0.5714  0.3728
 5721SOL     OW28798   1.302   3.967   7.301 -0.6054 -0.2614  0.3640
 5721SOL    HW128799   1.234   4.008   7.355 -0.5359  1.9866 -1.2669
 5721SOL    HW228800   1.286   3.882   7.343  0.1329 -0.1641  0.8459
 5722SOL     OW28801   0.525   4.533   7.439  0.2178  0.2545 -0.2700
 5722SOL    HW128802   0.497   4.549   7.529 -1.3290 -1.7323 -0.4157
 5722SOL    HW228803   0.533   4.625   7.413  0.7645  0.3779  0.3535
 5723SOL     OW28804   3.176   0.086   3.066 -0.5994 -0.1728 -0.1881
 5723SOL    HW128805   3.156   0.021   2.999 -0.7907 -0.9019  0.5799
 5723SOL    HW228806   3.266   0.112   3.047 -1.9199  2.4578 -2.8179
 5724SOL     OW28807   3.479   2.080   6.680  0.7031 -0.1507  0.7261
 5724SOL    HW128808   3.558   2.078   6.733  0.0597 -0.6310  1.6767
 5724SOL    HW228809   3.408   2.099   6.742 -1.5599  1.5478 -2.3453
 5725SOL     OW28810   4.312   1.805   9.691  0.1592 -0.3181  0.1365
 5725SOL    HW128811   4.333   1.717   9.724 -1.0439  0.2742  2.5005
 5725SOL    HW228812   4.380   1.856   9.734 -0.7614 -1.2476  2.7004
 5726SOL     OW28813   2.509   2.462   5.371  0.7379  0.3764  0.2178
 5726SOL    HW128814   2.550   2.547   5.387  1.4987 -0.1559  1.0858
 5726SOL    HW228815   2.568   2.398   5.411 -0.9058 -0.3819  1.4138
 5727SOL     OW28816   2.214   1.694   5.932  0.0820 -0.1551 -0.5340
 5727SOL    HW128817   2.284   1.677   5.994  0.5425 -0.9431 -1.2760
 5727SOL    HW228818   2.261   1.714   5.851  1.0166 -2.2002 -0.4866
 5728SOL     OW28819   3.510   1.858   7.279 -0.6760 -0.1672 -0.0714
 5728SOL    HW128820   3.590   1.809   7.302  0.9216  1.6879 -1.6622
 5728SOL    HW228821   3.438   1.801   7.306 -0.1887 -0.2205  1.1306
 5729SOL     OW28822   4.299   1.734  13.225  0.1753 -0.0902  0.8405
 5729SOL    HW128823   4.264   1.698  13.143 -1.2507 -0.1729  1.5035
 5729SOL    HW228824   4.219   1.775  13.256  0.0523  0.6026 -0.3904
 5730SOL     OW28825   0.965   2.318   3.905  0.2467  0.4339  0.2362
 5730SOL    HW128826   0.990   2.321   3.997 -3.1274 -3.2489  1.2154
 5730SOL    HW228827   0.893   2.381   3.908 -0.0948 -0.1533  3.7068
 5731SOL     OW28828   1.443   1.974  12.373 -0.9972  0.2326 -0.2919
 5731SOL    HW128829   1.526   1.928  12.357 -0.6298  0.2719  1.5048
 5731SOL    HW228830   1.399   1.906  12.425 -0.9601  0.1721 -0.3386
 5732SOL     OW28831   2.263   1.424  16.236 -0.7309  0.1984 -0.2999
 5732SOL    HW128832   2.350   1.464  16.231 -0.1709 -1.1336 -1.2089
 5732SOL    HW228833   2.240   1.430  16.143  0.1628  1.2033 -0.4463
 5733SOL     OW28834   2.306   3.867  15.409 -0.1504 -0.5055 -0.0522
 5733SOL    HW128835   2.283   3.782  15.373 -1.0077  0.0302 -0.7809
 5733SOL    HW228836   2.218   3.905  15.414  0.4684  0.7975  0.7262
 5734SOL     OW28837   1.704   1.308  13.902 -0.0527 -0.0310  0.2840
 5734SOL    HW128838   1.662   1.382  13.946  3.3207  1.7246  0.5910
 5734SOL    HW228839   1.729   1.257  13.979 -0.9945 -2.1197 -0.7942
 5735SOL     OW28840   1.634   0.444   1.914 -0.8820  0.0976  0.8350
 5735SOL    HW128841   1.590   0.462   1.831 -2.6520 -1.9798  1.3204
 5735SOL    HW228842   1.559   0.456   1.972 -2.4298 -2.6467 -0.6413
 5736SOL     OW28843   3.360   2.173   2.600  0.4148  0.1586 -0.4037
 5736SOL    HW128844   3.331   2.083   2.591  1.9566 -0.4059  0.2093
 5736SOL    HW228845   3.306   2.202   2.674 -0.3093  0.8055 -1.1822
 5737SOL     OW28846   4.565   2.252   5.896  0.2745 -0.4244 -0.6812
 5737SOL    HW128847   4.481   2.298   5.894  1.8281  2.2931 -3.0509
 5737SOL    HW228848   4.618   2.293   5.965  1.9244 -0.0983 -2.1324
 5738SOL     OW28849   3.071   2.521   2.151  0.3999 -0.1244  0.7948
 5738SOL    HW128850   3.063   2.569   2.234  0.2173  1.8481 -0.3584
 5738SOL    HW228851   3.098   2.596   2.099  0.9680  0.2148  1.5665
 5739SOL     OW28852   4.048   0.467  11.036 -0.3078 -0.9641 -0.1731
 5739SOL    HW128853   3.968   0.420  11.011 -0.3879 -0.7961 -0.2369
 5739SOL    HW228854   4.029   0.549  10.990 -0.6743 -1.0180 -0.1179
 5740SOL     OW28855   4.030   3.340  12.845 -0.0481  0.1118  0.1883
 5740SOL    HW128856   4.049   3.300  12.930  0.7373  1.1672  0.5017
 5740SOL    HW228857   4.048   3.433  12.856  0.6309  0.1367 -1.0765
 5741SOL     OW28858   4.048   3.866   7.584  0.6271 -0.6891 -0.4650
 5741SOL    HW128859   4.106   3.906   7.650 -2.0350  0.9034  0.9463
 5741SOL    HW228860   3.976   3.839   7.641  1.8110 -0.6731  1.0315
 5742SOL     OW28861   3.300   4.442   1.267 -0.2417  0.0365 -0.6877
 5742SOL    HW128862   3.326   4.519   1.318  0.7266 -0.6661 -0.1142
 5742SOL    HW228863   3.321   4.362   1.315  0.4162 -1.1532 -2.9553
 5743SOL     OW28864   3.315   2.956   3.427  0.3962  0.1325  0.3446
 5743SOL    HW128865   3.278   3.026   3.373  0.5118 -1.4912 -1.8216
 5743SOL    HW228866   3.334   3.011   3.503 -0.6249 -1.9640  2.1540
 5744SOL     OW28867   4.152   4.247   6.283  0.3042  0.5207 -0.5916
 5744SOL    HW128868   4.161   4.221   6.191 -0.4536 -0.7411 -0.3094
 5744SOL    HW228869   4.191   4.174   6.332  1.4302  0.9283 -0.8789
 5745SOL     OW28870   1.882   0.925   1.363 -0.0159 -0.5196 -0.2175
 5745SOL    HW128871   1.898   0.872   1.285  2.2273 -0.9794  0.5800
 5745SOL    HW228872   1.841   1.003   1.325  0.2125  0.1761  0.9564
 5746SOL     OW28873   0.580   1.909   9.589 -0.7117  0.5517 -0.4117
 5746SOL    HW128874   0.518   1.839   9.609 -0.2527  0.3273  0.2097
 5746SOL    HW228875   0.566   1.954   9.672  2.0689  0.9743 -0.1519
 5747SOL     OW28876   4.707   0.388  12.847  0.0698  0.0044 -0.3448
 5747SOL    HW128877   4.692   0.341  12.765 -0.8427  0.2356 -0.3130
 5747SOL    HW228878   4.727   0.313  12.902  0.4649  1.8003  1.9616
 5748SOL     OW28879   2.056   1.552  13.275 -0.2398  0.0027 -0.4474
 5748SOL    HW128880   1.987   1.491  13.299 -0.2719  0.3000  0.2158
 5748SOL    HW228881   2.105   1.500  13.211  0.3283  0.0426 -0.0488
 5749SOL     OW28882   2.697   4.517   1.566 -0.1802  0.0274 -0.5668
 5749SOL    HW128883   2.661   4.544   1.482 -0.8052  1.3303  0.1210
 5749SOL    HW228884   2.641   4.569   1.624  1.6501  0.5545  0.7412
 5750SOL     OW28885   0.539   0.839  14.906  0.3860 -0.4790  0.4813
 5750SOL    HW128886   0.528   0.746  14.887 -1.4301 -0.2951  0.6299
 5750SOL    HW228887   0.527   0.837  15.001  2.3920  0.4161  0.7453
 5751SOL     OW28888   2.942   4.643  10.190  0.2811  0.1878  0.2904
 5751SOL    HW128889   2.863   4.598  10.219  0.1449 -0.8295 -1.7031
 5751SOL    HW228890   2.982   4.666  10.275 -1.3948  0.0890  1.0974
 5752SOL     OW28891   3.449   4.169  16.140 -0.0173  0.4705  0.0789
 5752SOL    HW128892   3.403   4.109  16.199 -1.3978  2.2759  0.8435
 5752SOL    HW228893   3.373   4.218  16.109 -0.8573 -1.5179 -0.9439
 5753SOL     OW28894   0.883   0.786  16.581 -0.2973  0.2959 -0.1112
 5753SOL    HW128895   0.936   0.706  16.580  0.5900  0.8814 -0.6528
 5753SOL    HW228896   0.894   0.823  16.493  1.6449 -0.3921 -0.1707
 5754SOL     OW28897   4.397   4.340   2.227 -0.4610 -0.3321  0.2824
 5754SOL    HW128898   4.326   4.315   2.168 -0.6638  0.6923  0.0935
 5754SOL    HW228899   4.355   4.389   2.297  0.9433  1.2043  0.0586
 5755SOL     OW28900   3.098   0.594   1.089 -0.1044 -0.1225 -0.4305
 5755SOL    HW128901   3.173   0.616   1.033 -0.1615 -0.4322 -0.6273
 5755SOL    HW228902   3.029   0.629   1.033  0.6425  0.1809 -1.1573
 5756SOL     OW28903   0.410   0.073  15.196  0.1296 -0.3426 -0.5186
 5756SOL    HW128904   0.366   0.057  15.113 -0.0214 -0.1668 -0.4716
 5756SOL    HW228905   0.335   0.098  15.250  0.2270 -1.2200  0.0348
 5757SOL     OW28906   3.650   1.598   7.081  0.8695  0.9814 -0.0673
 5757SOL    HW128907   3.630   1.610   6.988  1.4507 -2.0427 -0.5832
 5757SOL    HW228908   3.677   1.507   7.092 -1.1617  0.3758 -0.1894
 5758SOL     OW28909   2.669   4.100   5.681  0.3279 -0.3664  0.6447
 5758SOL    HW128910   2.748   4.152   5.692  0.9182 -1.1335  0.0402
 5758SOL    HW228911   2.608   4.174   5.676 -2.7127 -2.8769  0.6569
 5759SOL     OW28912   2.420   4.520  16.290 -0.6352  0.6097  0.1237
 5759SOL    HW128913   2.490   4.551  16.234 -0.3038 -0.6602 -0.1597
 5759SOL    HW228914   2.449   4.429  16.294 -0.9633  0.4746 -0.5661
 5760SOL     OW28915   1.813   1.377  13.350 -0.1619 -0.3163 -0.4258
 5760SOL    HW128916   1.769   1.457  13.378  0.1360 -0.1601 -0.4132
 5760SOL    HW228917   1.827   1.325  13.430  0.3008  1.1063  0.4110
 5761SOL     OW28918   3.759   0.461   3.555 -0.2207 -0.3474  0.1599
 5761SOL    HW128919   3.842   0.485   3.513 -0.0685  0.4468  0.9294
 5761SOL    HW228920   3.779   0.504   3.637  0.5122  1.1658 -0.8163
 5762SOL     OW28921   2.278   2.636   2.106 -0.8002 -0.3161 -0.6145
 5762SOL    HW128922   2.298   2.707   2.045 -2.1123  1.2883  0.8194
 5762SOL    HW228923   2.239   2.683   2.180 -0.0143  1.7879 -1.5457
 5763SOL     OW28924   1.371   1.838   7.415 -0.6005  0.0065  1.0597
 5763SOL    HW128925   1.299   1.890   7.380 -0.5042  0.8724  2.1192
 5763SOL    HW228926   1.345   1.804   7.501  1.3156 -2.0215  0.8207
 5764SOL     OW28927   2.770   4.630   8.015  0.2951  0.2055 -0.1815
 5764SOL    HW128928   2.826   4.553   8.019  1.2880  1.1528  3.8189
 5764SOL    HW228929   2.765   4.665   8.104 -2.7787  0.7107 -0.5557
 5765SOL     OW28930   2.073   0.775   3.342  0.0048 -0.3908 -0.1484
 5765SOL    HW128931   2.054   0.729   3.261  2.4074 -1.4513 -0.1248
 5765SOL    HW228932   2.093   0.867   3.322  2.0721 -0.8849 -0.3477
 5766SOL     OW28933   4.019   1.811   5.922  0.8128 -0.5163 -0.2903
 5766SOL    HW128934   4.089   1.789   5.860  2.0358  0.0419  0.8848
 5766SOL    HW228935   4.045   1.898   5.952 -1.6181 -0.4356  1.5247
 5767SOL     OW28936   3.815   4.125   2.865 -0.1054  0.4043  0.5976
 5767SOL    HW128937   3.899   4.081   2.878  0.3463  0.9457 -0.4994
 5767SOL    HW228938   3.761   4.088   2.934  0.0237  0.9381  0.9910
 5768SOL     OW28939   3.596   2.276   4.911  0.0262 -1.0737  0.0533
 5768SOL    HW128940   3.573   2.188   4.941 -0.5494 -0.8609  0.2409
 5768SOL    HW228941   3.687   2.267   4.940  0.1628 -0.8848 -0.3270
 5769SOL     OW28942   0.300   3.633   9.286  0.4048 -0.1747 -0.4544
 5769SOL    HW128943   0.353   3.633   9.206 -2.8724  1.2910 -2.6823
 5769SOL    HW228944   0.318   3.545   9.317 -0.1097 -0.8861 -2.1902
 5770SOL     OW28945   0.560   3.182   2.510 -0.2322  0.0024  0.5434
 5770SOL    HW128946   0.557   3.168   2.415 -0.9224  1.7099  0.3036
 5770SOL    HW228947   0.542   3.274   2.530 -0.1237 -0.0653  0.9490
 5771SOL     OW28948   2.441   0.858   9.451  0.9928 -0.2476 -0.8572
 5771SOL    HW128949   2.390   0.777   9.458  2.0661 -0.6609  2.0048
 5771SOL    HW228950   2.513   0.831   9.395 -0.0535  2.0314 -3.2811
 5772SOL     OW28951   0.442   4.141   1.631 -0.7095 -0.1496  0.2608
 5772SOL    HW128952   0.368   4.152   1.692 -0.5274 -1.1659  0.6691
 5772SOL    HW228953   0.462   4.054   1.666  0.6655  0.3487  0.6939
 5773SOL     OW28954   3.222   0.594   3.985 -0.0753  0.1941 -0.2903
 5773SOL    HW128955   3.137   0.634   3.966 -0.3326  0.3760  1.2612
 5773SOL    HW228956   3.237   0.555   3.899  0.5713 -2.0935  0.8318
 5774SOL     OW28957   0.512   3.236   8.213 -0.3155 -0.5418 -0.2688
 5774SOL    HW128958   0.561   3.165   8.171 -0.9962 -1.2200  0.0818
 5774SOL    HW228959   0.590   3.277   8.251 -0.6310  0.7411 -1.0088
 5775SOL     OW28960   0.828   4.125   5.189  0.3432  0.3194  0.2181
 5775SOL    HW128961   0.764   4.066   5.229  0.2980 -1.1919 -2.0304
 5775SOL    HW228962   0.911   4.084   5.213 -0.7518 -1.7315  0.5265
 5776SOL     OW28963   2.692   1.772   4.725  0.6984  0.0369  0.4412
 5776SOL    HW128964   2.763   1.806   4.670 -0.6902  0.0708 -1.3393
 5776SOL    HW228965   2.719   1.842   4.784  0.0749  1.5439 -1.0666
 5777SOL     OW28966   0.667   3.474  17.687  0.3141 -0.1622 -0.4043
 5777SOL    HW128967   0.614   3.457  17.609  1.8288 -0.8754 -1.2994
 5777SOL    HW228968   0.718   3.393  17.685  0.9356  0.2112  0.4244
 5778SOL     OW28969   2.929   2.683  13.582 -0.8624 -0.0502 -0.8477
 5778SOL    HW128970   2.928   2.670  13.487 -1.8827  0.9028 -0.9628
 5778SOL    HW228971   3.011   2.637  13.596 -0.9853  0.2333  0.8395
 5779SOL     OW28972   4.438   1.104  15.158 -0.0077  0.1203  0.3486
 5779SOL    HW128973   4.457   1.118  15.251  3.1741 -3.8417  0.3102
 5779SOL    HW228974   4.354   1.148  15.156 -0.6940 -1.2480 -0.6960
 5780SOL     OW28975   1.554   3.657   6.845 -0.0591  0.7032 -0.1137
 5780SOL    HW128976   1.587   3.574   6.810 -3.6051 -0.9091  0.3201
 5780SOL    HW228977   1.621   3.723   6.825 -0.0409  0.0486 -2.2250
 5781SOL     OW28978   4.316   4.064   6.449 -0.6001  0.1433 -0.0763
 5781SOL    HW128979   4.371   4.025   6.518 -0.2295 -1.3677 -1.2203
 5781SOL    HW228980   4.238   4.008   6.455  0.5469 -1.2970  1.7579
 5782SOL     OW28981   1.530   3.169   4.342 -0.2276 -0.0756 -0.0725
 5782SOL    HW128982   1.523   3.264   4.357  0.2054 -0.3264  1.7728
 5782SOL    HW228983   1.606   3.154   4.287 -0.4945  0.2586 -0.5277
 5783SOL     OW28984   1.999   4.192   4.483  0.6604  0.4099 -0.3321
 5783SOL    HW128985   2.049   4.273   4.491  1.1658 -0.0610  1.1168
 5783SOL    HW228986   1.944   4.203   4.560  1.4362 -0.4097  0.3262
 5784SOL     OW28987   4.067   3.917   3.105  0.1394  0.2687 -0.0884
 5784SOL    HW128988   4.048   3.984   3.171 -3.5774 -0.8461 -0.0737
 5784SOL    HW228989   4.109   3.856   3.167 -2.3863 -0.2334  1.1312
 5785SOL     OW28990   3.584   0.430   2.312  0.1409 -0.6031  0.3590
 5785SOL    HW128991   3.671   0.459   2.342  0.4495 -1.1500 -0.0157
 5785SOL    HW228992   3.583   0.466   2.224  0.1158 -0.4160  0.4351
 5786SOL     OW28993   2.490   4.226  14.565  0.2876  0.2407  0.0367
 5786SOL    HW128994   2.485   4.202  14.658 -1.2382  1.7785  0.3642
 5786SOL    HW228995   2.582   4.229  14.541  0.1422 -0.4035 -0.5914
 5787SOL     OW28996   1.484   0.654  11.329 -0.1993 -0.0262 -0.3291
 5787SOL    HW128997   1.486   0.615  11.242  0.0642 -0.6909 -0.0257
 5787SOL    HW228998   1.536   0.596  11.384  0.4593 -0.2406 -1.1841
 5788SOL     OW28999   4.316   4.299  15.345 -0.4467  0.5970 -0.6664
 5788SOL    HW129000   4.395   4.311  15.397 -0.8100  2.1389 -0.4627
 5788SOL    HW229001   4.335   4.329  15.256 -1.0097  0.4878 -0.8243
 5789SOL     OW29002   1.784   1.783  15.018 -0.3079  0.4283  0.2472
 5789SOL    HW129003   1.789   1.690  14.997  0.9540  0.2691  1.2887
 5789SOL    HW229004   1.855   1.828  14.972  0.2962 -0.6286  0.1429
 5790SOL     OW29005   3.761   3.370  16.537 -0.0340 -0.7028 -0.7777
 5790SOL    HW129006   3.770   3.281  16.503 -1.5418 -0.1862 -2.4961
 5790SOL    HW229007   3.847   3.375  16.580 -0.0878  0.2738 -0.8008
 5791SOL     OW29008   0.106   3.713   9.905 -0.2842 -0.1045  0.2941
 5791SOL    HW129009   0.150   3.765   9.972 -0.5557  3.0219 -1.9967
 5791SOL    HW229010   0.154   3.632   9.888  1.4880  0.7133  1.4798
 5792SOL     OW29011   3.647   2.011  16.267 -0.0874  0.4548  0.8125
 5792SOL    HW129012   3.633   2.070  16.341  1.9087  2.3370 -0.3024
 5792SOL    HW229013   3.742   1.997  16.269 -0.2326 -0.1551  3.2287
 5793SOL     OW29014   3.300   3.134   1.510 -0.2927  0.1870  0.3531
 5793SOL    HW129015   3.340   3.056   1.471 -2.8713 -0.5232 -0.8463
 5793SOL    HW229016   3.382   3.174   1.539 -0.0542  0.3447 -0.5570
 5794SOL     OW29017   0.160   2.978   2.396  0.1054 -0.4266  0.1646
 5794SOL    HW129018   0.135   2.910   2.459  1.4866  0.7103  1.9597
 5794SOL    HW229019   0.229   3.024   2.445 -0.3690  0.8181 -0.3224
 5795SOL     OW29020   0.356   3.497   7.117 -0.2798  0.5382  0.3548
 5795SOL    HW129021   0.427   3.513   7.055 -1.1558  0.7664 -0.5829
 5795SOL    HW229022   0.329   3.411   7.083  2.5111 -1.4931  3.2042
 5796SOL     OW29023   3.653   3.879   1.562 -0.4264  0.1346  0.0986
 5796SOL    HW129024   3.694   3.820   1.624  1.8478 -0.3527 -1.8622
 5796SOL    HW229025   3.704   3.862   1.482 -0.7084  1.5534 -0.3906
 5797SOL     OW29026   4.000   0.829  16.884 -0.0894 -0.2396 -0.3496
 5797SOL    HW129027   3.962   0.741  16.885  1.1417 -0.7835 -1.1829
 5797SOL    HW229028   3.934   0.877  16.833  1.0638  1.6215 -0.0770
 5798SOL     OW29029   2.886   3.816   6.154 -0.5834 -0.0555  0.1795
 5798SOL    HW129030   2.903   3.870   6.231 -1.6625 -0.8971  1.0045
 5798SOL    HW229031   2.930   3.869   6.087 -0.9095 -0.6661 -0.5104
 5799SOL     OW29032   2.354   1.117  10.280  0.3022  0.5316 -0.2804
 5799SOL    HW129033   2.284   1.055  10.260 -0.3250  1.2505 -0.3460
 5799SOL    HW229034   2.423   1.056  10.305  1.9436  1.9869 -1.2494
 5800SOL     OW29035   1.596   3.423   6.729 -0.6572  0.1559 -0.1155
 5800SOL    HW129036   1.638   3.337   6.722  0.4964  0.7556 -0.5117
 5800SOL    HW229037   1.607   3.454   6.639 -0.1203 -0.6658 -0.3383
 5801SOL     OW29038   0.366   4.085   8.082 -0.6257  0.0414 -0.2114
 5801SOL    HW129039   0.376   3.992   8.062  0.0915  0.2227 -0.6918
 5801SOL    HW229040   0.331   4.072   8.170 -0.8716 -0.1755 -0.3377
 5802SOL     OW29041   2.418   0.800   8.379 -0.0148  0.3912 -0.6828
 5802SOL    HW129042   2.394   0.803   8.287  1.1997  1.3846 -0.9665
 5802SOL    HW229043   2.378   0.881   8.412  2.7722  1.4057  0.2195
 5803SOL     OW29044   2.675   3.348   3.709 -0.4810  0.4857 -0.2696
 5803SOL    HW129045   2.666   3.293   3.788  0.7413  2.0665  0.9753
 5803SOL    HW229046   2.769   3.367   3.703 -0.5877  0.9604 -0.4188
 5804SOL     OW29047   1.874   2.952   3.275  0.6496 -0.1900  0.2784
 5804SOL    HW129048   1.800   2.920   3.327  0.5932  0.4617  0.5929
 5804SOL    HW229049   1.936   2.909   3.333 -1.2073 -0.8635  1.7606
 5805SOL     OW29050   1.438   0.629   9.773 -0.2710 -0.1374 -0.0479
 5805SOL    HW129051   1.464   0.577   9.849 -3.0560 -1.5680 -0.0786
 5805SOL    HW229052   1.417   0.564   9.707  0.4045  0.6177 -1.0045
 5806SOL     OW29053   3.695   1.072   6.454 -0.1753 -0.0661  0.2612
 5806SOL    HW129054   3.620   1.127   6.476 -0.1519 -0.6978  1.9572
 5806SOL    HW229055   3.676   0.985   6.489  1.2027 -0.4412  0.0935
 5807SOL     OW29056   0.428   3.489   5.602  0.6074 -0.2635  0.1381
 5807SOL    HW129057   0.503   3.526   5.557 -0.1688  1.3192  0.1456
 5807SOL    HW229058   0.470   3.464   5.684 -0.5098  0.5529  0.9575
 5808SOL     OW29059   1.843   2.974   6.247 -0.6115 -0.0067 -0.3000
 5808SOL    HW129060   1.768   3.028   6.220 -1.4813 -0.8516  0.4137
 5808SOL    HW229061   1.894   3.003   6.172 -0.5186  1.0792  0.1753
 5809SOL     OW29062   1.141   1.205   9.043 -0.6596  0.4152  0.3576
 5809SOL    HW129063   1.166   1.285   8.997 -0.7884  0.2127 -0.0588
 5809SOL    HW229064   1.069   1.182   8.984 -0.7191 -0.0465  0.6116
 5810SOL     OW29065   0.952   3.134   5.948  0.1524  0.1324  0.1172
 5810SOL    HW129066   1.011   3.062   5.968  1.2392  0.3674 -2.2709
 5810SOL    HW229067   0.876   3.075   5.948  0.1955  0.0617 -1.4274
 5811SOL     OW29068   2.298   0.328   3.260  0.2081 -0.1548 -0.1797
 5811SOL    HW129069   2.322   0.304   3.171 -0.7570  0.4665 -0.5960
 5811SOL    HW229070   2.218   0.276   3.274 -1.3993  2.3946 -0.0073
 5812SOL     OW29071   4.253   0.828   2.278 -0.1729 -0.2456  0.8110
 5812SOL    HW129072   4.288   0.824   2.367 -0.0324  1.0147  0.8152
 5812SOL    HW229073   4.280   0.916   2.252  2.9213 -1.1183  1.0601
 5813SOL     OW29074   4.263   2.094   8.673 -0.3516  0.4430  0.2155
 5813SOL    HW129075   4.264   2.087   8.578  3.3681  0.9774  0.1846
 5813SOL    HW229076   4.355   2.098   8.701  0.0607 -1.8650 -0.7749
 5814SOL     OW29077   4.730   3.849  15.753 -0.1186 -0.3836 -0.3753
 5814SOL    HW129078   4.736   3.941  15.781 -1.2508 -0.7297  1.0164
 5814SOL    HW229079   4.656   3.815  15.803 -0.4261  0.5961 -0.1501
 5815SOL     OW29080   3.207   4.658   9.518 -0.0141 -0.0862 -0.3638
 5815SOL    HW129081   3.223   4.577   9.567  0.2978 -0.8262 -1.6790
 5815SOL    HW229082   3.114   4.678   9.532 -0.0589 -1.1865  0.9400
 5816SOL     OW29083   3.253   3.857   3.744  0.4442 -0.0854 -0.4037
 5816SOL    HW129084   3.162   3.846   3.770 -0.5526  2.3109 -2.9529
 5816SOL    HW229085   3.239   3.859   3.649  0.7577  0.1353 -0.4472
 5817SOL     OW29086   3.310   3.208   5.455  0.1588  0.5956 -0.1985
 5817SOL    HW129087   3.237   3.148   5.469 -0.2174  0.8816 -0.9347
 5817SOL    HW229088   3.391   3.180   5.497  1.1292 -0.0974 -2.5227
 5818SOL     OW29089   0.721   2.651   4.792 -0.5177 -0.0643  0.3700
 5818SOL    HW129090   0.778   2.609   4.857  2.0682  1.6719 -0.7868
 5818SOL    HW229091   0.639   2.632   4.837 -0.1569 -0.1496  0.9903
 5819SOL     OW29092   1.454   3.321  17.642  0.1600  0.0149  0.1752
 5819SOL    HW129093   1.513   3.255  17.605 -1.1818 -1.0871 -0.0139
 5819SOL    HW229094   1.433   3.380  17.570  2.2928  0.1966 -0.2974
 5820SOL     OW29095   1.900   0.655  10.743 -0.6591 -0.3783 -0.0017
 5820SOL    HW129096   1.893   0.750  10.728 -1.5117 -0.5964 -0.9325
 5820SOL    HW229097   1.987   0.631  10.712  0.6138  1.6798  2.0100
 5821SOL     OW29098   2.576   3.593   3.315 -0.0020 -0.5556 -0.0634
 5821SOL    HW129099   2.562   3.505   3.350  0.6462 -1.8464 -3.0741
 5821SOL    HW229100   2.529   3.639   3.384  0.6487 -0.3967  0.2830
 5822SOL     OW29101   1.536   0.961   9.089  0.1309  1.0304 -0.0849
 5822SOL    HW129102   1.466   0.902   9.116  1.7712 -0.4739  0.8389
 5822SOL    HW229103   1.502   0.993   9.005 -2.6287 -0.6128  0.4129
 5823SOL     OW29104   1.344   4.293  14.938 -0.2316  0.2569 -0.5955
 5823SOL    HW129105   1.378   4.217  14.986 -0.0494  1.2095  0.7907
 5823SOL    HW229106   1.425   4.324  14.898  0.6130 -0.8290  0.2678
 5824SOL     OW29107   2.885   2.985   1.734  0.2859 -0.2508 -0.3202
 5824SOL    HW129108   2.821   2.994   1.663 -0.4495 -0.0928  0.3520
 5824SOL    HW229109   2.827   2.972   1.809  1.4078  0.9633  0.7675
 5825SOL     OW29110   2.131   2.969   3.138  0.3185 -0.5385  0.2409
 5825SOL    HW129111   2.124   3.020   3.057 -2.5928  3.1819  2.8624
 5825SOL    HW229112   2.057   3.005   3.187 -0.2023 -0.2468 -0.7604
 5826SOL     OW29113   0.284   0.406   7.528  0.0918  0.0509 -0.4888
 5826SOL    HW129114   0.264   0.378   7.438 -1.0088 -0.2775 -0.1346
 5826SOL    HW229115   0.377   0.428   7.525 -0.0949  0.9569  0.5049
 5827SOL     OW29116   2.224   0.211   2.860 -0.3659 -0.5540 -0.0906
 5827SOL    HW129117   2.174   0.279   2.907  3.2331 -0.4517  3.5923
 5827SOL    HW229118   2.307   0.258   2.867 -1.5084  1.3264  1.1229
 5828SOL     OW29119   3.434   0.890   9.099  0.2527 -0.0618 -0.0617
 5828SOL    HW129120   3.481   0.807   9.105 -0.1554 -0.5147 -3.5015
 5828SOL    HW229121   3.505   0.937   9.144 -0.0912 -1.2346  1.7068
 5829SOL     OW29122   4.604   1.511   2.671 -0.8128 -0.7644  0.0863
 5829SOL    HW129123   4.686   1.558   2.682 -1.0479 -0.3468  0.0339
 5829SOL    HW229124   4.628   1.425   2.706  2.1672  0.4751  1.1321
 5830SOL     OW29125   4.482   1.500   7.677 -0.0334 -0.3838  0.3037
 5830SOL    HW129126   4.465   1.410   7.649 -0.6335 -0.2064  0.0923
 5830SOL    HW229127   4.571   1.499   7.711 -0.1259  3.6637  0.6940
 5831SOL     OW29128   4.099   3.593   7.559  0.1417  0.6403 -0.7320
 5831SOL    HW129129   4.084   3.683   7.587  0.5785 -0.1646  2.1604
 5831SOL    HW229130   4.031   3.570   7.495 -0.7007 -0.8308  0.6846
 5832SOL     OW29131   0.019   2.024   3.896 -0.3465  0.4606  0.3570
 5832SOL    HW129132   0.012   2.032   3.800 -0.9260  1.4841  0.4895
 5832SOL    HW229133   0.000   2.112   3.929 -1.0820 -0.0455  1.2539
 5833SOL     OW29134   1.667   0.963  17.645  0.6153  0.0361  0.1298
 5833SOL    HW129135   1.723   1.040  17.657 -0.3889  0.4765  2.1295
 5833SOL    HW229136   1.644   0.976  17.553 -0.0346  0.5601  0.3636
 5834SOL     OW29137   2.061   0.909   6.795 -0.3073  0.0026  0.6098
 5834SOL    HW129138   2.138   0.854   6.784 -0.0198  1.0468 -2.5992
 5834SOL    HW229139   2.023   0.920   6.707 -0.4511  0.7166  0.7621
 5835SOL     OW29140   3.986   4.490   5.630  0.2567 -0.1287 -0.2146
 5835SOL    HW129141   3.891   4.491   5.620  0.3252  0.2678 -0.8192
 5835SOL    HW229142   4.013   4.478   5.539  0.9862 -0.2161  0.0105
 5836SOL     OW29143   2.129   2.973   1.763  0.3212  0.3064 -0.6078
 5836SOL    HW129144   2.053   2.922   1.734  1.5327 -2.8442  1.7205
 5836SOL    HW229145   2.164   2.998   1.678  0.8830 -0.3694 -0.5740
 5837SOL     OW29146   0.041   2.820   4.519  0.1307 -0.2202 -0.0456
 5837SOL    HW129147   0.109   2.824   4.452  0.6220 -0.1296  0.4630
 5837SOL    HW229148   0.036   2.907   4.560  0.1631  0.5545 -1.6773
 5838SOL     OW29149   3.600   0.712   3.505  0.0014 -0.5811  0.3466
 5838SOL    HW129150   3.654   0.780   3.545 -0.2470 -0.1278 -0.0961
 5838SOL    HW229151   3.649   0.632   3.524 -2.4551 -2.3237 -0.7161
 5839SOL     OW29152   4.105   4.152   8.853 -0.0644  0.6030 -0.2039
 5839SOL    HW129153   4.115   4.196   8.938 -2.3313 -0.9801  0.8613
 5839SOL    HW229154   4.089   4.227   8.796  0.1437 -0.1413 -1.2382
 5840SOL     OW29155   4.544   0.569   8.623  0.5366  0.2288  0.4864
 5840SOL    HW129156   4.506   0.650   8.658 -0.8056 -0.3212  0.2734
 5840SOL    HW229157   4.619   0.610   8.578  1.2597 -1.4228  0.1889
 5841SOL     OW29158   0.668   0.691   9.549 -0.0730  0.0105 -0.3037
 5841SOL    HW129159   0.667   0.676   9.455 -0.0644  1.4118 -0.5303
 5841SOL    HW229160   0.740   0.630   9.564  0.5850  0.8956  0.1300
 5842SOL     OW29161   0.397   2.847   5.077  0.4298 -0.0853  0.1595
 5842SOL    HW129162   0.461   2.780   5.054 -0.4686 -1.3861  1.4785
 5842SOL    HW229163   0.451   2.892   5.142  0.0641 -0.1999  0.5413
 5843SOL     OW29164   2.310   3.717   7.467  0.4190  0.1359 -1.0239
 5843SOL    HW129165   2.313   3.648   7.400 -0.0446 -2.0684  1.2408
 5843SOL    HW229166   2.235   3.768   7.437 -0.9821 -1.0496  0.5100
 5844SOL     OW29167   4.267   3.111   2.241  0.0800 -0.0657 -0.1587
 5844SOL    HW129168   4.280   3.171   2.315  1.0356  0.6123 -0.8810
 5844SOL    HW229169   4.220   3.156   2.171 -0.3826 -1.6699 -0.8771
 5845SOL     OW29170   4.418   0.457  12.878 -0.4587 -0.3264  0.4143
 5845SOL    HW129171   4.478   0.382  12.872  0.5224  0.6127 -1.8178
 5845SOL    HW229172   4.338   0.414  12.846 -0.0259 -2.7142  2.5509
 5846SOL     OW29173   4.536   3.948   7.123 -0.0401  0.7654  0.5254
 5846SOL    HW129174   4.527   3.901   7.206 -2.6132 -1.5792 -1.0916
 5846SOL    HW229175   4.494   4.033   7.139 -1.8701 -0.0755  0.2258
 5847SOL     OW29176   2.920   1.825  11.427 -0.6106  0.4070  0.3614
 5847SOL    HW129177   2.970   1.784  11.357 -1.1402  1.5382 -0.6803
 5847SOL    HW229178   2.933   1.754  11.490 -1.6051  0.4980  0.6835
 5848SOL     OW29179   4.196   0.122   1.475  0.5836  0.1318  0.2206
 5848SOL    HW129180   4.220   0.047   1.530 -0.2266 -0.2045  0.1317
 5848SOL    HW229181   4.106   0.142   1.500 -0.2493 -1.0821 -1.7500
 5849SOL     OW29182   2.866   0.727   3.129 -0.6018 -0.1241 -0.1100
 5849SOL    HW129183   2.821   0.807   3.154 -0.0270  0.3724 -0.6559
 5849SOL    HW229184   2.821   0.675   3.196  0.1740  0.3631  0.7872
 5850SOL     OW29185   2.719   0.690  12.998 -0.0737 -0.0124 -0.4287
 5850SOL    HW129186   2.810   0.666  13.019 -0.6339 -0.6461  1.2555
 5850SOL    HW229187   2.726   0.715  12.906  2.5109  0.9691  0.0339
 5851SOL     OW29188   0.644   2.784   5.266  0.3021 -0.1605  0.8737
 5851SOL    HW129189   0.724   2.747   5.302  0.6585 -1.1663 -0.9630
 5851SOL    HW229190   0.577   2.724   5.298 -1.5218  2.6540  2.3465
 5852SOL     OW29191   4.130   0.775   6.914  0.7280  0.4413 -0.1469
 5852SOL    HW129192   4.155   0.713   6.845 -4.4603 -0.7851 -0.9444
 5852SOL    HW229193   4.159   0.858   6.875 -1.1552  1.0435 -0.2816
 5853SOL     OW29194   0.507   1.249   2.991  0.1290  0.2732 -0.5278
 5853SOL    HW129195   0.531   1.167   2.947 -1.3765  0.1263 -1.0731
 5853SOL    HW229196   0.582   1.303   2.967 -0.3035  1.3686  0.5981
 5854SOL     OW29197   1.715   3.810  16.299  0.1430  0.0802 -0.3230
 5854SOL    HW129198   1.729   3.857  16.381  1.1969 -1.3669  0.3294
 5854SOL    HW229199   1.798   3.761  16.297  0.5097  0.7645 -1.9498
 5855SOL     OW29200   2.413   1.786   9.640 -0.8654  0.3951  0.4988
 5855SOL    HW129201   2.451   1.709   9.683  3.3977  1.5686 -1.0972
 5855SOL    HW229202   2.436   1.857   9.699 -0.1212  0.9012 -0.4032
 5856SOL     OW29203   2.119   1.917   8.743  0.7518 -0.7021  0.3085
 5856SOL    HW129204   2.042   1.938   8.795 -0.6960  0.8626 -2.4504
 5856SOL    HW229205   2.200   1.923   8.794  1.6709  0.2831 -1.2790
 5857SOL     OW29206   1.430   2.943   2.301 -0.0761 -0.3781  0.3548
 5857SOL    HW129207   1.363   2.995   2.344 -2.0006 -1.1136 -1.7511
 5857SOL    HW229208   1.464   2.899   2.379 -1.5044 -0.3235  0.9992
 5858SOL     OW29209   3.591   3.186  11.590  0.3576 -0.3817  0.7710
 5858SOL    HW129210   3.603   3.210  11.499  1.3744 -1.1975  0.7003
 5858SOL    HW229211   3.534   3.111  11.575 -0.0416 -0.1614  1.1627
 5859SOL     OW29212   1.096   3.030   6.942 -0.0655  0.5941  0.0862
 5859SOL    HW129213   1.093   3.106   6.883  1.5726  2.7654  2.7970
 5859SOL    HW229214   1.125   2.954   6.891 -0.7332  0.4259 -0.0432
 5860SOL     OW29215   2.622   2.293   4.136  1.0558 -0.0783 -0.5817
 5860SOL    HW129216   2.670   2.348   4.197  1.0840 -0.9096  0.1508
 5860SOL    HW229217   2.556   2.352   4.098 -0.1072  0.5888  2.4850
 5861SOL     OW29218   1.280   1.434  16.654  0.1533  0.2253  0.1808
 5861SOL    HW129219   1.241   1.472  16.576 -2.4521 -1.2572  0.7790
 5861SOL    HW229220   1.199   1.397  16.688  1.1256  1.0642  3.4248
 5862SOL     OW29221   2.981   2.378   5.875 -0.6153 -0.6724  0.4524
 5862SOL    HW129222   2.945   2.342   5.956 -0.7892  0.3470  0.8390
 5862SOL    HW229223   2.996   2.301   5.822 -0.1106  0.2431 -0.7343
 5863SOL     OW29224   3.048   4.161   3.669 -0.1798  0.1573 -0.3136
 5863SOL    HW129225   3.125   4.143   3.723 -1.1003  1.2193  1.3345
 5863SOL    HW229226   3.084   4.180   3.582  0.4061 -0.0234 -0.1099
 5864SOL     OW29227   4.380   2.080   5.194  0.0421  0.4628  0.6189
 5864SOL    HW129228   4.392   2.056   5.102 -0.1990 -0.8778  0.9358
 5864SOL    HW229229   4.345   1.998   5.230 -0.7339  0.1370 -0.9045
 5865SOL     OW29230   4.632   0.143  15.600 -0.4368 -0.5803  0.0642
 5865SOL    HW129231   4.578   0.170  15.674  0.2790  0.3721  0.2471
 5865SOL    HW229232   4.645   0.049  15.614 -0.9200 -0.5367  0.7883
 5866SOL     OW29233   3.346   2.794  13.136 -0.6892 -0.5906  0.2038
 5866SOL    HW129234   3.384   2.807  13.223 -1.5892  1.7680  0.2453
 5866SOL    HW229235   3.370   2.880  13.102 -1.7168 -0.8253 -1.1172
 5867SOL     OW29236   1.617   2.003   7.813  0.1498 -0.1942  0.4103
 5867SOL    HW129237   1.570   2.016   7.731  1.1405  1.7105  0.1432
 5867SOL    HW229238   1.566   2.061   7.870  2.0132  2.4091 -0.5616
 5868SOL     OW29239   3.824   2.224   7.929  0.1692  0.7162  0.9188
 5868SOL    HW129240   3.761   2.287   7.893 -1.2876 -0.4740  1.3715
 5868SOL    HW229241   3.760   2.162   7.965  0.2930 -0.7700 -1.4393
 5869SOL     OW29242   3.942   2.291   7.229  0.0474 -0.6364  0.0461
 5869SOL    HW129243   4.017   2.254   7.277  1.7985  0.3992 -1.8792
 5869SOL    HW229244   3.869   2.271   7.288 -0.5974 -1.1183 -0.9218
 5870SOL     OW29245   1.629   2.635   1.478  0.4026 -0.1649 -0.4738
 5870SOL    HW129246   1.707   2.580   1.477  0.5050 -0.0609  2.0608
 5870SOL    HW229247   1.602   2.634   1.570 -2.1937  1.1565 -1.2309
 5871SOL     OW29248   4.339   1.555   3.666  0.3686  0.4101 -0.1330
 5871SOL    HW129249   4.338   1.603   3.583 -1.1858  1.1388  0.3022
 5871SOL    HW229250   4.392   1.615   3.719  0.1035  1.1297 -0.6764
 5872SOL     OW29251   4.165   3.225   1.214 -0.1336 -0.1140 -0.3521
 5872SOL    HW129252   4.128   3.253   1.130  0.5227  0.5011 -0.4304
 5872SOL    HW229253   4.104   3.272   1.271  0.5666 -0.0914  0.3892
 5873SOL     OW29254   2.520   3.214   6.197  0.5015 -0.0211 -0.2735
 5873SOL    HW129255   2.491   3.232   6.287  0.3225 -0.0428 -0.3277
 5873SOL    HW229256   2.537   3.303   6.168  1.0371 -0.4224 -1.2129
 5874SOL     OW29257   4.368   2.973  15.603  0.3281  0.1208 -0.0903
 5874SOL    HW129258   4.426   3.034  15.557  1.2048 -1.1202 -0.5994
 5874SOL    HW229259   4.415   2.890  15.605  1.6534  0.8845  0.1395
 5875SOL     OW29260   3.332   3.371  12.565 -0.3797 -0.7301 -0.4011
 5875SOL    HW129261   3.403   3.308  12.556 -1.4166 -1.9310 -0.0902
 5875SOL    HW229262   3.369   3.438  12.508 -1.1324  0.2942  0.3141
 5876SOL     OW29263   1.292   2.768   7.791  0.0519  0.0758 -0.3398
 5876SOL    HW129264   1.381   2.753   7.761 -0.4809 -1.7146 -1.0172
 5876SOL    HW229265   1.303   2.751   7.884 -0.3909  0.5441 -0.2032
 5877SOL     OW29266   0.281   3.216   6.541  0.5424 -0.0019  0.2105
 5877SOL    HW129267   0.264   3.310   6.549  0.1025  0.0654 -1.4371
 5877SOL    HW229268   0.356   3.219   6.481  1.8819  1.2601  1.9579
 5878SOL     OW29269   3.470   1.561   5.105  0.2901 -0.2968  0.1665
 5878SOL    HW129270   3.450   1.471   5.131 -1.3356 -0.0894 -0.3563
 5878SOL    HW229271   3.382   1.591   5.082  0.5546  0.6462  0.3501
 5879SOL     OW29272   1.309   1.136   7.293 -0.1587  0.5036  0.8794
 5879SOL    HW129273   1.294   1.045   7.321 -1.7664  0.3107 -0.5573
 5879SOL    HW229274   1.277   1.183   7.370 -0.9806  0.0275  0.8355
 5880SOL     OW29275   2.899   1.072   5.107  0.3154 -0.0698 -0.3965
 5880SOL    HW129276   2.864   0.989   5.075 -0.5601  0.0340  0.2981
 5880SOL    HW229277   2.831   1.127   5.066 -0.8628 -1.1754  0.0657
 5881SOL     OW29278   0.988   4.252   8.200 -0.1971  0.2987  0.2044
 5881SOL    HW129279   1.049   4.269   8.128 -0.5918 -0.3063 -0.2646
 5881SOL    HW229280   0.981   4.346   8.219  2.9355  0.4142  0.7124
 5882SOL     OW29281   3.515   1.022   2.369  0.3286  0.0973 -0.5181
 5882SOL    HW129282   3.441   0.961   2.373  0.1297  0.4609  1.4383
 5882SOL    HW229283   3.517   1.062   2.456 -1.4762 -0.9272 -0.0228
 5883SOL     OW29284   4.270   0.520   3.600 -0.7478 -0.1641  0.0661
 5883SOL    HW129285   4.320   0.596   3.569  0.0137 -0.6569  0.0843
 5883SOL    HW229286   4.324   0.455   3.555 -1.9311 -1.4339  0.4907
 5884SOL     OW29287   1.595   1.625   0.334  0.1374  0.0939 -0.0565
 5884SOL    HW129288   1.630   1.684   0.267 -0.7559  0.5619 -0.1235
 5884SOL    HW229289   1.600   1.681   0.411  0.2272  1.0204 -0.7351
 5885SOL     OW29290   0.910   2.266   6.969 -0.0016 -0.1156  0.3250
 5885SOL    HW129291   0.929   2.335   7.032  1.4843  0.7904 -1.0969
 5885SOL    HW229292   0.824   2.231   6.995  0.8560 -0.9626  2.0046
 5886SOL     OW29293   0.786   1.823   4.513 -0.6185  0.1765  0.4744
 5886SOL    HW129294   0.852   1.768   4.556  1.1653 -0.1722 -2.7159
 5886SOL    HW229295   0.759   1.866   4.594 -0.3831  0.0478  0.6210
 5887SOL     OW29296   1.915   1.001  14.539  0.3868  0.0749 -0.0698
 5887SOL    HW129297   1.990   0.994  14.480 -0.4976 -0.2113 -1.1538
 5887SOL    HW229298   1.890   1.094  14.536 -0.0425  0.0468  3.1398
 5888SOL     OW29299   2.299   0.096   8.350 -0.3737  0.0012  0.4859
 5888SOL    HW129300   2.376   0.081   8.295  0.7997  0.6740  1.9459
 5888SOL    HW229301   2.314   0.027   8.414 -0.1987 -0.5253 -0.1304
 5889SOL     OW29302   1.796   2.494  13.438 -0.7264 -0.7680  0.0221
 5889SOL    HW129303   1.862   2.556  13.405 -1.2581  0.7144  1.7233
 5889SOL    HW229304   1.790   2.444  13.356  2.2990 -2.6442  0.9598
 5890SOL     OW29305   4.571   4.712   4.601  0.4872 -1.0233 -0.1787
 5890SOL    HW129306   4.477   4.700   4.615  0.1373 -1.1178 -2.5693
 5890SOL    HW229307   4.617   4.642   4.647 -0.5858  0.2743  2.8731
 5891SOL     OW29308   0.755   1.435   5.981 -0.2281  0.1452 -0.1260
 5891SOL    HW129309   0.758   1.402   6.071 -1.7472 -1.6778 -0.7474
 5891SOL    HW229310   0.845   1.458   5.958 -0.0873 -0.2369  0.0355
 5892SOL     OW29311   0.100   3.531   1.542 -0.1706 -0.3636 -0.0691
 5892SOL    HW129312   0.020   3.492   1.578  0.5710 -1.4886  0.3775
 5892SOL    HW229313   0.136   3.560   1.626  0.0296 -1.0485  0.0799
 5893SOL     OW29314   2.162   4.541   8.193 -0.0705 -0.3939 -0.0646
 5893SOL    HW129315   2.084   4.504   8.150  0.2301 -1.9170  0.6930
 5893SOL    HW229316   2.208   4.568   8.114  1.0758  2.4649  1.5896
 5894SOL     OW29317   1.042   3.902   4.172  0.1819 -0.1446  0.0710
 5894SOL    HW129318   1.089   3.951   4.105  0.4122  0.7548  0.8970
 5894SOL    HW229319   1.081   3.814   4.167  1.0412  0.2774 -0.6923
 5895SOL     OW29320   3.837   3.230  11.254  0.6784 -0.0247 -0.0885
 5895SOL    HW129321   3.860   3.251  11.164  1.4089 -0.5325 -0.0175
 5895SOL    HW229322   3.924   3.195  11.270 -0.1474 -1.7417  0.6264
 5896SOL     OW29323   3.783   4.179   6.941 -0.8866  0.1014 -0.2666
 5896SOL    HW129324   3.832   4.097   6.949  0.2046  0.6745 -1.0734
 5896SOL    HW229325   3.730   4.156   6.864 -1.4330 -0.9244  0.4076
 5897SOL     OW29326   1.263   3.496  15.938  0.0594 -0.2603 -0.3444
 5897SOL    HW129327   1.186   3.485  15.994 -0.6655  1.4069 -1.0034
 5897SOL    HW229328   1.261   3.589  15.913  0.1375 -0.1721 -0.0295
 5898SOL     OW29329   0.724   2.188   2.828  0.6041 -0.1059  0.2120
 5898SOL    HW129330   0.695   2.157   2.914  0.0667 -1.6171 -0.5299
 5898SOL    HW229331   0.749   2.103   2.794 -0.2165 -0.6598  0.9881
 5899SOL     OW29332   0.642   3.486   0.660 -0.0269  0.9260  0.4844
 5899SOL    HW129333   0.693   3.477   0.579 -1.5145 -0.0387 -0.3473
 5899SOL    HW229334   0.563   3.518   0.618  0.2287  0.7799 -0.1154
 5900SOL     OW29335   1.602   3.248   9.603  0.1300  0.1424 -0.0307
 5900SOL    HW129336   1.569   3.179   9.546 -0.2887 -0.6514  1.1909
 5900SOL    HW229337   1.533   3.234   9.668  0.5624  0.9416  0.6042
 5901SOL     OW29338   1.797   2.431   1.829  0.1575  0.3789  0.3107
 5901SOL    HW129339   1.838   2.513   1.855 -1.1547  0.9964  0.3899
 5901SOL    HW229340   1.719   2.429   1.885 -0.1207  0.4026 -0.0785
 5902SOL     OW29341   1.136   0.383  12.392  0.2612 -0.4755 -0.3326
 5902SOL    HW129342   1.152   0.317  12.325 -0.6778 -0.1163 -0.9041
 5902SOL    HW229343   1.212   0.439  12.375 -1.5372  2.3041  0.6044
 5903SOL     OW29344   1.621   1.083   2.317  0.5389  0.0712 -0.8581
 5903SOL    HW129345   1.670   1.144   2.262  0.0818  1.9205  0.7897
 5903SOL    HW229346   1.687   1.015   2.328  0.2260 -0.2804 -1.1155
 5904SOL     OW29347   4.511   0.618   3.269 -0.0201  0.4989  0.7312
 5904SOL    HW129348   4.528   0.540   3.322  1.4779 -0.2527 -0.8435
 5904SOL    HW229349   4.497   0.690   3.331  1.2474  1.9807 -0.6712
 5905SOL     OW29350   1.999   4.232   6.794  0.1059  0.4991  0.2935
 5905SOL    HW129351   2.042   4.222   6.709  0.0176  0.3301  0.2679
 5905SOL    HW229352   2.080   4.260   6.837 -0.4228  0.6168  1.2105
 5906SOL     OW29353   1.088   0.386   7.204 -0.1339 -0.0899 -0.2352
 5906SOL    HW129354   1.096   0.359   7.112 -0.4816 -1.3579  0.1075
 5906SOL    HW229355   1.091   0.301   7.249 -2.9062  1.0057  1.9777
 5907SOL     OW29356   0.760   0.176   8.605  0.2608 -0.0429  0.2703
 5907SOL    HW129357   0.743   0.262   8.569 -1.4561  0.2339  1.7140
 5907SOL    HW229358   0.767   0.127   8.523  0.9798  0.7740 -0.1470
 5908SOL     OW29359   2.349   4.703   6.468  0.1279 -0.1980  0.4179
 5908SOL    HW129360   2.427   4.650   6.448  1.4179  1.0494  2.1424
 5908SOL    HW229361   2.300   4.643   6.524 -0.9105  0.3039  0.0342
 5909SOL     OW29362   4.541   2.193  14.597  0.6623  0.3235  0.2789
 5909SOL    HW129363   4.550   2.119  14.657  0.2566 -1.3073 -1.6569
 5909SOL    HW229364   4.597   2.260  14.636  0.7592  1.0405 -1.0987
 5910SOL     OW29365   1.845   1.401   4.926 -0.3125 -0.1956  0.4151
 5910SOL    HW129366   1.918   1.349   4.893  1.7249  2.6338  0.4567
 5910SOL    HW229367   1.893   1.472   4.969 -1.3021 -0.1193  1.4226
 5911SOL     OW29368   0.425   3.227  13.946  0.2516  0.3627 -0.0815
 5911SOL    HW129369   0.520   3.215  13.945  0.0839 -0.9642 -0.2716
 5911SOL    HW229370   0.412   3.239  14.040  1.2206  3.4792 -0.3321
 5912SOL     OW29371   2.387   1.305   9.551 -0.3425  0.0949 -0.1827
 5912SOL    HW129372   2.377   1.210   9.557  1.2258 -0.1428 -1.3747
 5912SOL    HW229373   2.330   1.342   9.619  0.7918 -0.2252  0.9263
 5913SOL     OW29374   2.403   0.710  15.840  0.1341  0.3389  0.2054
 5913SOL    HW129375   2.412   0.804  15.827  1.1335  0.6178  2.9418
 5913SOL    HW229376   2.307   0.703  15.833  0.2437 -1.0717 -0.0119
 5914SOL     OW29377   3.072   1.763   1.667 -0.1827 -0.2683  0.6394
 5914SOL    HW129378   3.146   1.805   1.624 -1.1358  0.8200  0.0676
 5914SOL    HW229379   3.096   1.781   1.758  2.7960  0.1307 -0.2289
 5915SOL     OW29380   1.301   2.891   4.090 -0.0392  0.0709  0.1864
 5915SOL    HW129381   1.255   2.809   4.108  1.6370 -0.4808  1.8926
 5915SOL    HW229382   1.306   2.945   4.169  1.8019 -0.2294  0.2758
 5916SOL     OW29383   3.760   1.975   0.008 -0.0276  0.0151  0.6552
 5916SOL    HW129384   3.828   1.981  17.702 -1.6326  1.5765 -0.8212
 5916SOL    HW229385   3.777   2.044   0.073 -1.0845  2.8186 -2.0570
 5917SOL     OW29386   0.065   0.181   0.674 -0.2244  0.0394  0.0055
 5917SOL    HW129387   0.081   0.174   0.768 -1.3807 -0.2287  0.1897
 5917SOL    HW229388   4.720   0.223   0.672 -1.0026 -1.5711 -0.6918
 5918SOL     OW29389   1.560   2.851   4.902  0.0370 -0.2933  0.2165
 5918SOL    HW129390   1.474   2.812   4.917 -1.3372  1.5066 -2.8498
 5918SOL    HW229391   1.544   2.945   4.914  1.1949  0.0130 -0.6401
 5919SOL     OW29392   1.777   3.016   5.177 -0.3514  0.3544 -0.1435
 5919SOL    HW129393   1.869   3.028   5.155 -1.0405  2.9768 -1.5856
 5919SOL    HW229394   1.744   2.971   5.099 -1.0242 -0.1434  0.4278
 5920SOL     OW29395   1.604   3.594  17.731  0.6847  0.1975 -0.4838
 5920SOL    HW129396   1.596   3.672   0.025  0.7408 -1.2135  1.5437
 5920SOL    HW229397   1.511   3.583  17.708  0.6264  0.5857 -0.4276
 5921SOL     OW29398   3.985   0.386   2.042  0.4303  0.1841  0.2953
 5921SOL    HW129399   3.948   0.319   2.100 -0.3956  0.0577 -0.3643
 5921SOL    HW229400   3.927   0.462   2.045 -0.8751 -0.7533 -0.6573
 5922SOL     OW29401   4.673   4.242   5.900  0.2906 -0.0532  0.2590
 5922SOL    HW129402   4.642   4.328   5.870  2.2263  0.4579 -0.2412
 5922SOL    HW229403   4.708   4.208   5.818  0.1333 -1.6692  0.8557
 5923SOL     OW29404   4.196   1.266  17.344  0.4792 -0.0221 -0.1871
 5923SOL    HW129405   4.211   1.235  17.433  0.3539 -1.5836 -0.7033
 5923SOL    HW229406   4.222   1.190  17.292 -3.0075  0.3281 -2.4361
 5924SOL     OW29407   0.224   4.513  17.664  0.4916  0.4285 -0.5531
 5924SOL    HW129408   0.299   4.517  17.605  1.7185  0.5376  1.0286
 5924SOL    HW229409   0.271   4.481  17.741 -1.2607 -0.2817  0.2386
 5925SOL     OW29410   3.061   0.087  10.886 -0.2489  0.3163 -0.6028
 5925SOL    HW129411   3.153   0.111  10.893 -0.8489  2.3556  0.2897
 5925SOL    HW229412   3.072   4.733  10.879  2.0303  0.4178  1.4682
 5926SOL     OW29413   4.508   2.188   5.416 -0.3735 -0.2861  0.2089
 5926SOL    HW129414   4.462   2.172   5.333 -2.0003 -0.3383  1.1422
 5926SOL    HW229415   4.470   2.274   5.432  1.3434  0.3392  0.9624
 5927SOL     OW29416   0.789   2.350   3.507  0.5589  0.1842  0.6995
 5927SOL    HW129417   0.718   2.317   3.562  0.8058 -0.3989  0.6655
 5927SOL    HW229418   0.864   2.334   3.564 -0.4582 -0.7023  1.7797
 5928SOL     OW29419   3.417   3.450   9.767 -0.2515  0.4688 -0.6122
 5928SOL    HW129420   3.430   3.382   9.701  0.6952  0.9239 -0.8935
 5928SOL    HW229421   3.483   3.424   9.833 -0.2930  1.5522 -0.1506
 5929SOL     OW29422   0.965   4.713   4.707 -0.2837 -0.0238 -0.2546
 5929SOL    HW129423   0.873   4.719   4.733 -0.2277  2.3105 -0.5609
 5929SOL    HW229424   1.015   4.739   4.785 -1.6410  1.9339 -0.0315
 5930SOL     OW29425   0.817   3.135   2.135  1.1314 -0.0179 -0.4542
 5930SOL    HW129426   0.858   3.083   2.066 -0.8538 -2.2431  0.0451
 5930SOL    HW229427   0.850   3.221   2.109  0.4479  0.5906  0.6672
 5931SOL     OW29428   4.130   4.401  17.626  0.3482  0.4319  0.0797
 5931SOL    HW129429   4.138   4.311  17.657  1.2341  0.5608  0.2303
 5931SOL    HW229430   4.197   4.440  17.683  1.5791  0.6761 -1.5282
 5932SOL     OW29431   1.135   3.511  11.762 -0.1942  0.0916 -0.4706
 5932SOL    HW129432   1.116   3.596  11.725 -0.0018  0.2299 -0.2539
 5932SOL    HW229433   1.063   3.457  11.728  1.1448 -0.3997 -2.5246
 5933SOL     OW29434   3.029   3.165   1.530 -0.3778  0.3454 -0.2060
 5933SOL    HW129435   3.122   3.148   1.514  0.0189  1.5853  0.8175
 5933SOL    HW229436   2.997   3.075   1.540  0.0840  0.3035  0.9897
 5934SOL     OW29437   3.079   0.376  15.608  0.3792  0.2760 -0.0997
 5934SOL    HW129438   3.087   0.295  15.557  2.9451 -0.3100  1.2273
 5934SOL    HW229439   2.991   0.357  15.639  0.1126 -0.1372 -1.1164
 5935SOL     OW29440   3.272   4.370   2.049 -0.7058 -0.4890 -0.3531
 5935SOL    HW129441   3.324   4.446   2.075 -0.3374 -0.3856 -1.4158
 5935SOL    HW229442   3.318   4.346   1.969  0.2506  1.4760 -0.3976
 5936SOL     OW29443   4.123   4.305  15.532 -0.6388 -0.0584  0.1511
 5936SOL    HW129444   4.100   4.396  15.549 -2.3466 -0.6509  0.9690
 5936SOL    HW229445   4.197   4.320  15.473  0.3198 -1.2695  1.0651
 5937SOL     OW29446   2.345   1.545   6.649  0.1255  0.0480  0.1767
 5937SOL    HW129447   2.301   1.502   6.723 -0.9378 -1.7699 -1.4939
 5937SOL    HW229448   2.417   1.491   6.616 -1.7400 -2.4794  0.2181
 5938SOL     OW29449   4.518   2.553  14.470  0.2512 -0.0622  0.2024
 5938SOL    HW129450   4.460   2.625  14.495  0.2673 -0.4248  1.2795
 5938SOL    HW229451   4.518   2.507  14.554 -1.1508 -0.7161 -0.1665
 5939SOL     OW29452   0.719   1.166  16.686 -0.1059  0.4057 -0.2017
 5939SOL    HW129453   0.639   1.216  16.668 -0.8203 -0.5555  0.2225
 5939SOL    HW229454   0.727   1.150  16.780 -0.7674 -2.5212 -0.6379
 5940SOL     OW29455   0.847   0.742  11.068  0.0325  0.3442 -0.2546
 5940SOL    HW129456   0.785   0.811  11.047 -0.1646  1.5835  4.3945
 5940SOL    HW229457   0.820   0.665  11.018 -0.5886  0.0665  0.5167
 5941SOL     OW29458   4.544   0.156   8.385 -0.0063 -0.2394 -0.0658
 5941SOL    HW129459   4.488   0.229   8.413  0.6518  0.0391  0.5442
 5941SOL    HW229460   4.614   0.175   8.448 -0.4630 -1.9133  0.9421
 5942SOL     OW29461   0.255   4.081   0.386  0.4878 -0.7835 -0.2644
 5942SOL    HW129462   0.280   4.170   0.361 -3.3816 -0.7388 -3.8717
 5942SOL    HW229463   0.263   4.036   0.302  0.4470 -1.0790 -0.1115
 5943SOL     OW29464   2.229   2.233   2.534 -0.6000 -0.1681 -0.1328
 5943SOL    HW129465   2.155   2.178   2.560  0.2946 -1.5946 -0.5974
 5943SOL    HW229466   2.253   2.190   2.452  1.7412  0.3111  0.3165
 5944SOL     OW29467   1.303   3.468   1.883 -0.0632 -0.2260 -0.4031
 5944SOL    HW129468   1.377   3.523   1.858 -0.8747  0.6186 -0.9161
 5944SOL    HW229469   1.242   3.540   1.897  0.9215  0.5311 -0.0179
 5945SOL     OW29470   2.114   4.598   5.059  0.6383  0.3803  0.2458
 5945SOL    HW129471   2.075   4.664   5.117  0.0507  0.7466 -0.5563
 5945SOL    HW229472   2.028   4.573   5.026 -1.5122  2.0622  4.5797
 5946SOL     OW29473   3.996   3.329  16.665  0.0526 -0.1821 -0.1547
 5946SOL    HW129474   3.980   3.239  16.635 -0.0784 -0.0728 -0.4068
 5946SOL    HW229475   4.057   3.309  16.736 -1.0243 -2.6357  0.1076
 5947SOL     OW29476   1.802   4.621   5.556 -0.4181  0.6419  0.1007
 5947SOL    HW129477   1.841   4.550   5.504  0.0904  0.3449  0.8930
 5947SOL    HW229478   1.846   4.699   5.522  0.4665  0.0453 -0.1204
 5948SOL     OW29479   1.352   2.005   4.042 -0.4743  0.3064  0.5096
 5948SOL    HW129480   1.289   1.934   4.025 -0.1760  0.1691 -0.0413
 5948SOL    HW229481   1.298   2.082   4.026  1.2428  1.3709 -0.1892
 5949SOL     OW29482   0.915   4.373  14.873 -0.0836 -0.3220  0.5523
 5949SOL    HW129483   0.837   4.402  14.825  0.5832  0.2621 -0.1629
 5949SOL    HW229484   0.875   4.328  14.948 -1.0380  0.2181  0.3625
 5950SOL     OW29485   3.244   3.648   2.238  0.1637  0.2183 -0.1405
 5950SOL    HW129486   3.152   3.670   2.225  0.0151  1.2624  2.5668
 5950SOL    HW229487   3.276   3.650   2.148  0.4907 -2.1483 -0.0707
 5951SOL     OW29488   3.744   1.739   7.377  0.3668  0.4556 -0.8132
 5951SOL    HW129489   3.794   1.696   7.447 -0.0856  2.4570  0.7535
 5951SOL    HW229490   3.806   1.724   7.305  1.0420  2.1113 -0.5826
 5952SOL     OW29491   3.082   1.673   3.545  0.9460  0.0609  0.6036
 5952SOL    HW129492   3.077   1.768   3.556 -0.3787  0.2163 -1.1532
 5952SOL    HW229493   3.124   1.655   3.461 -0.7142  0.6227 -0.3538
 5953SOL     OW29494   0.055   2.615   2.136 -0.1750 -0.0058 -0.1637
 5953SOL    HW129495   0.113   2.596   2.209 -0.9213  0.7248  0.6054
 5953SOL    HW229496   4.725   2.550   2.142  1.9574 -2.2057  1.2925
 5954SOL     OW29497   0.009   4.694   1.532 -0.4881  0.2849 -0.0058
 5954SOL    HW129498   4.671   4.643   1.514  0.6652 -0.7690 -2.0563
 5954SOL    HW229499   0.063   4.691   1.453  0.2404 -0.3630  0.5244
 5955SOL     OW29500   2.955   1.101   7.700 -0.1888 -0.4614 -0.2043
 5955SOL    HW129501   2.918   1.165   7.760  1.2076  2.3316 -2.3229
 5955SOL    HW229502   3.048   1.123   7.703 -0.3930  0.2408  0.8220
 5956SOL     OW29503   3.693   3.327   7.921  0.0773 -0.4865 -0.3499
 5956SOL    HW129504   3.761   3.386   7.889 -1.0856  0.0162 -1.8690
 5956SOL    HW229505   3.683   3.363   8.009 -0.7238  0.6538 -0.9011
 5957SOL     OW29506   3.422   1.406  13.672 -0.2085 -0.3856  0.6350
 5957SOL    HW129507   3.373   1.481  13.704 -2.0405 -1.2375 -0.1621
 5957SOL    HW229508   3.467   1.449  13.600 -1.5517 -2.0255 -1.1919
 5958SOL     OW29509   1.332   1.084   3.523 -0.5421 -0.5446 -0.0852
 5958SOL    HW129510   1.394   1.138   3.573 -1.1283  0.7551 -0.7492
 5958SOL    HW229511   1.356   1.108   3.434 -0.5318 -0.4836 -0.0663
 5959SOL     OW29512   2.393   0.323   8.057  0.2930  0.3244 -0.3363
 5959SOL    HW129513   2.316   0.346   8.108 -1.4476 -2.6497 -1.6173
 5959SOL    HW229514   2.443   0.405   8.060 -0.3219  0.6166  2.0110
 5960SOL     OW29515   3.235   1.199   0.487  0.1315 -0.0099  0.3949
 5960SOL    HW129516   3.236   1.145   0.567 -2.5917  2.0834  1.8420
 5960SOL    HW229517   3.285   1.147   0.425  0.1580  1.0187 -0.4457
 5961SOL     OW29518   2.253   4.233   4.294  0.3724 -0.2825 -0.2044
 5961SOL    HW129519   2.283   4.146   4.318 -0.8584 -0.4877  0.5555
 5961SOL    HW229520   2.172   4.217   4.245  0.4775  3.4901 -1.6617
 5962SOL     OW29521   3.247   3.983   3.052 -1.3113 -0.3970 -0.1183
 5962SOL    HW129522   3.254   3.965   2.959  2.5926 -2.4236  0.5567
 5962SOL    HW229523   3.152   3.993   3.056 -1.2253 -0.2495  1.7627
 5963SOL     OW29524   0.341   2.101   7.712  0.1725 -0.5845  0.0643
 5963SOL    HW129525   0.356   2.169   7.646 -1.4327 -1.6217 -1.3879
 5963SOL    HW229526   0.284   2.153   7.768  0.0987 -0.6069  0.0099
 5964SOL     OW29527   3.109   2.937   2.559 -0.1579 -0.5093  0.1006
 5964SOL    HW129528   3.082   3.029   2.560 -1.6177 -0.9476  0.3274
 5964SOL    HW229529   3.048   2.904   2.493  1.1780 -0.5308 -1.1203
 5965SOL     OW29530   1.683   1.827  17.068  0.4126  0.9951  0.1363
 5965SOL    HW129531   1.777   1.829  17.086  0.4583 -0.1191 -0.0451
 5965SOL    HW229532   1.672   1.916  17.034  1.0266  0.1107 -2.3187
 5966SOL     OW29533   1.217   1.333   2.452 -0.2366  0.3027 -0.0687
 5966SOL    HW129534   1.170   1.250   2.446  1.8460 -0.9112  0.5713
 5966SOL    HW229535   1.242   1.324   2.543 -0.9187  3.2294  0.4145
 5967SOL     OW29536   1.387   0.220  17.653  0.0816 -0.0332 -0.1089
 5967SOL    HW129537   1.351   0.140  17.615  0.9184 -0.5080  0.0868
 5967SOL    HW229538   1.332   0.293  17.625  1.4308  1.2363  0.5526
 5968SOL     OW29539   4.377   1.345   2.983 -0.3525 -0.6730 -0.3881
 5968SOL    HW129540   4.470   1.367   2.997 -0.1476 -2.4041  0.8903
 5968SOL    HW229541   4.341   1.384   3.062 -1.5763 -1.7286 -0.4322
 5969SOL     OW29542   1.465   0.739   7.541 -0.3915 -0.1587 -0.5168
 5969SOL    HW129543   1.487   0.669   7.602 -2.7803  1.2123  1.9004
 5969SOL    HW229544   1.415   0.683   7.482 -0.1760 -1.2009  0.3031
 5970SOL     OW29545   2.301   3.516   8.789  0.5945  0.0462  0.4942
 5970SOL    HW129546   2.383   3.554   8.820  1.1180  0.8371 -1.8659
 5970SOL    HW229547   2.309   3.533   8.695  1.5857  1.0057  0.7509
 5971SOL     OW29548   4.584   0.598  12.596 -0.1408 -0.2641 -0.0913
 5971SOL    HW129549   4.638   0.638  12.528  0.1569 -0.6467 -0.0796
 5971SOL    HW229550   4.591   0.510  12.559  0.6828 -0.8402  1.4692
 5972SOL     OW29551   2.103   3.420   9.766  0.1201 -0.4867 -0.2879
 5972SOL    HW129552   2.184   3.381   9.734 -0.0896 -1.3514  0.2238
 5972SOL    HW229553   2.043   3.425   9.692 -1.4178 -2.3824  0.8250
 5973SOL     OW29554   0.471   2.854  10.614 -0.5323  0.1167  0.3546
 5973SOL    HW129555   0.391   2.884  10.658 -0.5532  2.3517 -1.2057
 5973SOL    HW229556   0.500   2.797  10.685 -0.8419  1.7700  1.8048
 5974SOL     OW29557   4.014   4.025   7.994 -0.0715 -0.1185  0.8507
 5974SOL    HW129558   3.974   3.993   8.075 -1.2204 -0.9979 -0.0631
 5974SOL    HW229559   3.935   4.027   7.940  0.9007 -0.0819 -0.5501
 5975SOL     OW29560   2.029   1.125   7.010 -0.1372 -0.0023  0.4068
 5975SOL    HW129561   1.989   1.210   6.994  2.9490  2.0006  3.3271
 5975SOL    HW229562   2.012   1.079   6.928 -0.8147  0.9259  0.0228
 5976SOL     OW29563   1.551   1.795   3.146 -0.2421 -0.2146  0.8340
 5976SOL    HW129564   1.618   1.863   3.155 -1.2759  0.6697  1.6632
 5976SOL    HW229565   1.485   1.847   3.101  0.2783 -0.5742 -0.3610
 5977SOL     OW29566   0.754   0.948   6.544  0.2167  0.0832 -0.0228
 5977SOL    HW129567   0.665   0.978   6.520 -0.8567 -0.9722  2.6983
 5977SOL    HW229568   0.747   0.854   6.533  1.2212  0.0016  0.0757
 5978SOL     OW29569   4.072   3.185   4.956  0.5277 -0.1211 -0.3825
 5978SOL    HW129570   4.074   3.097   4.918 -0.8967 -0.6944  0.8480
 5978SOL    HW229571   3.994   3.212   4.906 -0.7992  1.1908  2.3856
 5979SOL     OW29572   3.245   0.466  13.078 -0.3932  0.3507 -0.4843
 5979SOL    HW129573   3.338   0.476  13.058 -0.9126  3.9191 -1.0282
 5979SOL    HW229574   3.240   0.376  13.047 -1.9841 -0.6860  2.7304
 5980SOL     OW29575   0.404   0.359  11.963  0.1553  0.5259  0.5484
 5980SOL    HW129576   0.393   0.266  11.945 -4.2738  1.4368 -1.5241
 5980SOL    HW229577   0.499   0.368  11.954  0.0891  0.0684 -0.6563
 5981SOL     OW29578   1.083   4.407  11.533  0.3736 -0.0518 -0.1777
 5981SOL    HW129579   1.162   4.356  11.516 -0.5746 -0.5938 -3.1222
 5981SOL    HW229580   1.127   4.484  11.569  2.3904 -1.4450  0.2912
 5982SOL     OW29581   2.790   1.560   8.567 -0.2073 -0.2584 -0.4957
 5982SOL    HW129582   2.701   1.527   8.552 -0.0979 -0.0150 -1.6296
 5982SOL    HW229583   2.830   1.484   8.525 -1.5741 -0.6753 -1.0452
 5983SOL     OW29584   2.547   2.911   0.574  0.4884 -0.2237  0.5038
 5983SOL    HW129585   2.613   2.845   0.593  0.6669 -0.3602 -0.5753
 5983SOL    HW229586   2.550   2.965   0.653  1.9371 -1.2527  1.1435
 5984SOL     OW29587   0.952   0.379   6.025  0.0232 -0.2409 -0.1903
 5984SOL    HW129588   0.998   0.457   6.057  0.5905  0.1279 -1.8880
 5984SOL    HW229589   0.990   0.376   5.937  1.3753  0.5290  0.3562
 5985SOL     OW29590   0.441   2.775   6.809  0.3026  0.4127 -0.1886
 5985SOL    HW129591   0.390   2.839   6.760 -2.6544 -0.9072  1.1267
 5985SOL    HW229592   0.381   2.702   6.825  2.7276 -1.4566  0.2818
 5986SOL     OW29593   1.759   1.000   2.746  0.4005  0.0438  0.0814
 5986SOL    HW129594   1.781   0.972   2.657  2.4150 -2.1091  1.2715
 5986SOL    HW229595   1.760   0.919   2.797  0.6266  1.1418  1.8356
 5987SOL     OW29596   1.053   2.596   3.520  0.0280  0.2261 -0.1729
 5987SOL    HW129597   1.048   2.511   3.563 -0.5392  1.0793  1.4381
 5987SOL    HW229598   1.148   2.604   3.514  0.3657 -1.7033  2.4186
 5988SOL     OW29599   3.196   4.726   8.653  0.1259 -0.2225 -0.8086
 5988SOL    HW129600   3.186   0.052   8.721 -3.0342 -0.7210 -0.7573
 5988SOL    HW229601   3.280   4.688   8.679 -0.2168 -0.4909 -0.0977
 5989SOL     OW29602   4.621   3.378   1.645  0.3416 -0.1264  0.1578
 5989SOL    HW129603   4.690   3.338   1.698  1.3824 -0.5552 -1.5292
 5989SOL    HW229604   4.549   3.323   1.678 -0.0767 -0.4924 -1.3676
 5990SOL     OW29605   2.662   1.164   4.992  0.0974 -0.1727  0.1497
 5990SOL    HW129606   2.616   1.230   4.940  0.6214  0.8825  1.0361
 5990SOL    HW229607   2.615   1.085   4.965  1.8580 -0.2212 -2.7946
 5991SOL     OW29608   1.248   0.166  13.899  0.7164  0.4855  0.4445
 5991SOL    HW129609   1.299   0.217  13.835  0.1437 -0.0196 -0.4192
 5991SOL    HW229610   1.208   0.102  13.839  0.0996  0.1527  1.2135
 5992SOL     OW29611   2.477   1.081   6.606 -0.1697  0.0150  0.4575
 5992SOL    HW129612   2.537   1.109   6.537 -0.6251 -2.7112 -1.0472
 5992SOL    HW229613   2.530   1.105   6.682 -0.0775  1.1668  0.0403
 5993SOL     OW29614   2.209   1.952   9.926 -0.2009 -0.2420 -0.2235
 5993SOL    HW129615   2.177   1.925  10.012  0.4887  0.5197  0.2699
 5993SOL    HW229616   2.302   1.930   9.934 -0.2734 -0.5658 -0.2551
 5994SOL     OW29617   1.981   0.624   8.100  0.3687  0.3987 -0.2663
 5994SOL    HW129618   2.011   0.714   8.096  1.4942  0.1124  1.5188
 5994SOL    HW229619   2.001   0.603   8.009 -1.7139  2.2080 -1.1338
 5995SOL     OW29620   2.679   0.336   4.529  0.2988  0.1941  0.0805
 5995SOL    HW129621   2.592   0.296   4.529  1.4144 -2.2119  2.5670
 5995SOL    HW229622   2.661   0.430   4.523 -0.8425 -0.0254  0.1054
 5996SOL     OW29623   1.490   1.975  12.661  0.4858 -0.1568  0.3874
 5996SOL    HW129624   1.558   1.962  12.594  1.0166 -1.4443  1.1739
 5996SOL    HW229625   1.426   1.907  12.640 -1.1052  0.7442  2.3261
 5997SOL     OW29626   2.564   4.661  15.163 -0.3743 -0.4671 -0.5140
 5997SOL    HW129627   2.512   4.700  15.233  1.6515  1.3598 -0.0217
 5997SOL    HW229628   2.519   4.697  15.087  0.1114  1.4973  0.1213
 5998SOL     OW29629   3.310   1.422  11.802 -0.3900  0.3518 -0.2012
 5998SOL    HW129630   3.304   1.377  11.886 -0.6765 -0.3324 -0.5845
 5998SOL    HW229631   3.223   1.404  11.766 -0.5882 -1.3252  1.1181
 5999SOL     OW29632   1.179   3.597   7.218 -0.2015 -0.4391  0.5441
 5999SOL    HW129633   1.248   3.623   7.279  1.8860 -1.7511 -1.2203
 5999SOL    HW229634   1.137   3.681   7.206 -0.5828 -1.1983 -3.4985
 6000SOL     OW29635   0.026   1.057   6.922 -0.1068 -0.3619 -0.4521
 6000SOL    HW129636   0.049   1.056   6.829 -0.4331  2.6968 -0.5732
 6000SOL    HW229637   0.042   1.149   6.943 -3.3343 -0.1803  1.1319
 6001SOL     OW29638   0.945   4.283   5.575  0.0162  0.1060 -0.0254
 6001SOL    HW129639   0.918   4.208   5.627  3.8634 -1.7929 -0.7784
 6001SOL    HW229640   0.864   4.333   5.588  1.0953  2.4895 -2.4986
 6002SOL     OW29641   3.340   3.164   6.689 -0.6202 -0.4766 -0.6662
 6002SOL    HW129642   3.328   3.082   6.641  0.4896 -0.2867 -1.2705
 6002SOL    HW229643   3.433   3.157   6.711 -0.8100  1.5910  0.7912
 6003SOL     OW29644   3.093   2.164   9.594 -0.1751  0.2381 -0.1467
 6003SOL    HW129645   3.184   2.149   9.618 -0.7880 -0.0678  2.0472
 6003SOL    HW229646   3.055   2.086   9.634  2.5004 -1.4350 -0.8869
 6004SOL     OW29647   1.815   1.557  11.245 -0.1896 -0.3901  0.2527
 6004SOL    HW129648   1.739   1.513  11.207 -0.7505 -0.2423  1.2166
 6004SOL    HW229649   1.811   1.501  11.323  0.9314 -0.1212  0.5145
 6005SOL     OW29650   2.281   1.726  14.467 -0.0301 -0.2512 -1.4769
 6005SOL    HW129651   2.231   1.745  14.546  0.3718 -1.1413 -1.0163
 6005SOL    HW229652   2.263   1.806  14.416  2.6394  1.0668 -0.3474
 6006SOL     OW29653   2.143   2.978   8.442 -0.6163 -0.2498  0.3950
 6006SOL    HW129654   2.120   3.069   8.422  0.5057  0.2853  1.5737
 6006SOL    HW229655   2.066   2.938   8.483 -0.2646 -1.5883 -0.2405
 6007SOL     OW29656   3.728   2.055   7.622 -0.0211  0.3730  0.3815
 6007SOL    HW129657   3.742   2.092   7.535  0.5793 -0.4992  0.1139
 6007SOL    HW229658   3.635   2.037   7.621 -0.6624  3.5937 -0.3158
 6008SOL     OW29659   3.025   2.614   5.766  0.2360  0.1777  0.0712
 6008SOL    HW129660   3.092   2.570   5.713  0.7854  0.4999  0.5000
 6008SOL    HW229661   3.005   2.540   5.823  2.0696  0.8735  1.5993
 6009SOL     OW29662   2.979   1.294   2.169 -0.2642  0.0737  0.5656
 6009SOL    HW129663   2.985   1.389   2.166 -2.5284  0.1607 -1.4279
 6009SOL    HW229664   2.985   1.274   2.076 -2.7957 -2.5816  0.9451
 6010SOL     OW29665   0.366   0.267  11.037  0.1461 -0.6499  0.1573
 6010SOL    HW129666   0.438   0.204  11.047  0.3606 -0.3198  0.6806
 6010SOL    HW229667   0.299   0.215  11.083 -1.2313  1.3717  0.4297
 6011SOL     OW29668   0.018   1.343   3.359 -0.0864 -0.2120  0.2097
 6011SOL    HW129669   0.069   1.274   3.316  0.7414  0.9499 -0.6799
 6011SOL    HW229670   0.012   1.326   3.453 -0.6730  0.1306  0.2329
 6012SOL     OW29671   3.727   0.846   3.265  0.1583  0.4883 -0.0332
 6012SOL    HW129672   3.655   0.784   3.274  1.7678 -0.9254  3.0391
 6012SOL    HW229673   3.681   0.901   3.202  2.6465  2.7096  0.0816
 6013SOL     OW29674   2.354   1.118   5.166 -0.1465 -0.2666  0.4842
 6013SOL    HW129675   2.363   1.209   5.137 -2.6780  0.4644  1.9926
 6013SOL    HW229676   2.372   1.059   5.094  3.1708 -0.8197  1.7673
 6014SOL     OW29677   1.134   0.984  11.897  0.0569  0.1746  0.1811
 6014SOL    HW129678   1.191   0.968  11.822  0.8302  0.6363  0.6643
 6014SOL    HW229679   1.050   0.952  11.865  0.5768  0.2524 -1.2498
 6015SOL     OW29680   0.831   0.607   8.703 -0.0283  0.4015  0.1600
 6015SOL    HW129681   0.789   0.584   8.620 -0.0248  1.3710 -0.1084
 6015SOL    HW229682   0.882   0.685   8.682 -1.9569  1.5120 -0.4112
 6016SOL     OW29683   2.627   2.997   2.232 -0.0768 -0.0969 -0.1124
 6016SOL    HW129684   2.714   3.030   2.253 -0.1847  1.1012 -1.4985
 6016SOL    HW229685   2.618   2.914   2.278 -0.6552  0.4415  0.7573
 6017SOL     OW29686   2.391   4.221   2.550 -0.1114 -0.3369 -0.0482
 6017SOL    HW129687   2.380   4.257   2.461 -1.8064  0.2623  0.4013
 6017SOL    HW229688   2.417   4.131   2.534 -1.5072 -0.8074  0.3279
 6018SOL     OW29689   0.574   2.108   8.212  0.2479  0.3926 -0.1671
 6018SOL    HW129690   0.646   2.161   8.245  0.9452  1.1889 -3.0072
 6018SOL    HW229691   0.624   2.030   8.188 -1.4638 -1.0126  0.8103
 6019SOL     OW29692   2.848   3.592   9.864  0.2248 -0.1786  0.3056
 6019SOL    HW129693   2.799   3.589   9.946 -1.8544 -0.5125 -0.9440
 6019SOL    HW229694   2.930   3.545   9.881 -1.4787 -3.7073 -1.3148
 6020SOL     OW29695   2.312   0.486   9.287 -0.1732  0.2575  0.0988
 6020SOL    HW129696   2.392   0.435   9.296  1.1939  2.4932  0.5767
 6020SOL    HW229697   2.269   0.429   9.223  1.7753  0.7764 -1.6663
 6021SOL     OW29698   4.109   2.651   2.419  0.0970  0.7268 -0.3416
 6021SOL    HW129699   4.186   2.663   2.362 -1.2598 -0.5753 -2.4410
 6021SOL    HW229700   4.083   2.742   2.424  3.3092  1.4148  3.7447
 6022SOL     OW29701   4.644   0.728   6.776 -0.3449  0.2462 -0.4060
 6022SOL    HW129702   4.729   0.706   6.738  0.3679  0.2337  1.1805
 6022SOL    HW229703   4.579   0.676   6.730  1.6727 -2.1508 -0.5846
 6023SOL     OW29704   2.493   3.553   9.361 -0.0155 -0.4056 -0.3064
 6023SOL    HW129705   2.580   3.590   9.347  0.1298 -1.0101 -1.0174
 6023SOL    HW229706   2.492   3.515   9.449 -0.5274  1.1471  0.3452
 6024SOL     OW29707   0.334   0.189   4.464  0.1157  0.1928  0.4378
 6024SOL    HW129708   0.382   0.108   4.446 -0.7532  0.0469 -1.2157
 6024SOL    HW229709   0.253   0.170   4.417  0.1315  2.7452 -0.6012
 6025SOL     OW29710   0.167   2.455   4.523  0.0382 -0.3834 -0.0491
 6025SOL    HW129711   0.257   2.482   4.505  0.1155  0.7473  2.0488
 6025SOL    HW229712   0.184   2.382   4.582 -1.5812 -0.0496  0.8479
 6026SOL     OW29713   2.719   3.932   0.817  0.0315  0.0232  0.0406
 6026SOL    HW129714   2.705   3.838   0.819  0.8630 -0.1166 -0.4279
 6026SOL    HW229715   2.634   3.962   0.786 -1.1174 -2.3487  0.8777
 6027SOL     OW29716   2.254   1.658   1.815  0.2332  0.8845 -0.4205
 6027SOL    HW129717   2.249   1.684   1.907  3.2063 -0.2611  0.0621
 6027SOL    HW229718   2.188   1.715   1.776  1.6745  2.2320 -0.8896
 6028SOL     OW29719   4.038   3.186   3.062  0.2235 -0.1267  0.0230
 6028SOL    HW129720   4.000   3.147   2.983 -2.2664  0.2518  1.0325
 6028SOL    HW229721   4.102   3.118   3.083  0.7790 -0.1751 -1.8598
 6029SOL     OW29722   2.479   3.060   4.624  0.4980  0.1501  0.1757
 6029SOL    HW129723   2.441   3.035   4.540 -2.9685 -1.0322  2.1303
 6029SOL    HW229724   2.569   3.066   4.590  0.3588  2.3551  0.2174
 6030SOL     OW29725   4.233   1.229   9.978  0.0550  0.4654  0.9000
 6030SOL    HW129726   4.324   1.258   9.966  0.3160 -1.2247 -1.2707
 6030SOL    HW229727   4.253   1.136   9.988  1.5486  0.5639 -1.1803
 6031SOL     OW29728   0.961   1.247   7.281  0.0884 -0.0165 -0.0039
 6031SOL    HW129729   0.969   1.168   7.334 -0.5495 -1.1122 -1.5348
 6031SOL    HW229730   1.020   1.313   7.317 -0.7154  0.2284  0.8681
 6032SOL     OW29731   4.489   1.981  14.765  0.0975 -0.0926  0.1199
 6032SOL    HW129732   4.478   1.967  14.859 -2.1393  1.9821  0.1528
 6032SOL    HW229733   4.567   1.928  14.746  1.3321  1.8628 -0.3206
 6033SOL     OW29734   3.368   4.390  12.043  0.0957 -0.2316  0.0585
 6033SOL    HW129735   3.426   4.341  12.101  0.0769 -0.7790 -0.3804
 6033SOL    HW229736   3.419   4.468  12.024 -0.4056  0.1353  0.2199
 6034SOL     OW29737   0.877   2.369   2.675  0.1178 -0.0494  0.5367
 6034SOL    HW129738   0.805   2.329   2.723  0.6672 -1.0424  0.5302
 6034SOL    HW229739   0.954   2.316   2.695 -1.5978 -1.9012  2.0963
 6035SOL     OW29740   1.335   2.083  10.861  0.5245  0.1276  0.5578
 6035SOL    HW129741   1.424   2.106  10.886  0.9537 -1.4766  0.5084
 6035SOL    HW229742   1.284   2.164  10.866 -0.6595 -0.8181  3.7926
 6036SOL     OW29743   1.864   2.775   7.067  0.1959  0.3781  0.2965
 6036SOL    HW129744   1.876   2.772   6.972  1.6526 -0.3077  0.4979
 6036SOL    HW229745   1.780   2.819   7.080 -0.6403 -0.8850 -0.7747
 6037SOL     OW29746   1.020   4.296   1.753  0.7415  0.2747  0.5721
 6037SOL    HW129747   0.971   4.359   1.700 -0.0083 -0.8060  0.0017
 6037SOL    HW229748   0.958   4.259   1.816 -0.4540  1.4070  0.0662
 6038SOL     OW29749   1.700   1.684  12.545  0.4634 -0.4228  0.5552
 6038SOL    HW129750   1.655   1.670  12.462  0.3663  0.3229  0.4847
 6038SOL    HW229751   1.680   1.597  12.582  1.1235  0.7039  3.6143
 6039SOL     OW29752   3.463   2.615  13.592  0.0078  0.6807  0.3153
 6039SOL    HW129753   3.536   2.615  13.530  0.6889  0.5077  1.1153
 6039SOL    HW229754   3.478   2.696  13.642  0.4306  0.2966  0.8138
 6040SOL     OW29755   0.067   1.635   2.958 -0.1496 -0.5569  0.2958
 6040SOL    HW129756   0.113   1.714   2.986  0.9638 -1.2544  0.4234
 6040SOL    HW229757   0.080   1.637   2.863  0.6510  0.2532  0.4225
 6041SOL     OW29758   2.853   2.622   4.896 -0.1083  0.3011 -0.4113
 6041SOL    HW129759   2.946   2.600   4.906 -0.2864 -0.3340 -0.1550
 6041SOL    HW229760   2.869   2.704   4.848  0.9114 -1.3527 -2.8991
 6042SOL     OW29761   0.286   4.515   6.418  0.2876  0.0323  0.0665
 6042SOL    HW129762   0.220   4.447   6.406 -0.4461  0.4479  1.7030
 6042SOL    HW229763   0.290   4.542   6.326  2.0309 -0.1928  0.0680
 6043SOL     OW29764   2.899   3.439   5.695  0.3825 -0.5336 -0.0232
 6043SOL    HW129765   2.884   3.419   5.787 -1.1920 -1.6513 -0.5277
 6043SOL    HW229766   2.814   3.476   5.670  1.5267  3.1643  1.7079
 6044SOL     OW29767   3.996   1.661   4.479  0.0981 -0.3436 -0.1086
 6044SOL    HW129768   3.994   1.756   4.465  1.2979  0.1927  3.4020
 6044SOL    HW229769   3.916   1.651   4.531  1.0655 -0.0433  1.4293
 6045SOL     OW29770   2.746   1.740  13.591  0.2976  0.0226  0.2150
 6045SOL    HW129771   2.805   1.756  13.665 -0.1662 -1.3773  0.8936
 6045SOL    HW229772   2.677   1.679  13.617 -0.0615 -0.6274 -2.2981
 6046SOL     OW29773   3.539   0.504   7.758  0.2118 -0.4338 -0.2225
 6046SOL    HW129774   3.579   0.542   7.680 -1.4950  1.2377 -0.2718
 6046SOL    HW229775   3.573   0.415   7.755  1.4978  0.0838 -1.3927
 6047SOL     OW29776   1.110   1.209   6.602  0.0767 -0.2733  0.1383
 6047SOL    HW129777   1.061   1.267   6.660  0.1119 -1.7827  1.7011
 6047SOL    HW229778   1.098   1.269   6.529 -0.3593 -1.3303 -0.6546
 6048SOL     OW29779   0.586   3.397   1.923  0.2670  0.6589 -0.5689
 6048SOL    HW129780   0.616   3.406   2.014 -1.6488 -0.8201  0.1960
 6048SOL    HW229781   0.667   3.399   1.873 -0.8282  2.9894 -2.2553
 6049SOL     OW29782   3.330   1.191   1.067  0.2516  0.0072  0.2295
 6049SOL    HW129783   3.346   1.265   1.126  1.1967 -0.2682  0.3129
 6049SOL    HW229784   3.237   1.180   1.086  0.1733  0.6072  0.2066
 6050SOL     OW29785   3.845   3.769   7.747 -1.1210  0.4340 -0.3272
 6050SOL    HW129786   3.876   3.679   7.751  0.1234  0.9287  0.8685
 6050SOL    HW229787   3.780   3.768   7.818 -1.8001 -1.4858 -0.9743
 6051SOL     OW29788   3.748   1.144  11.592  0.6091 -0.3536  0.1481
 6051SOL    HW129789   3.789   1.137  11.678  3.9383 -1.1532 -1.5021
 6051SOL    HW229790   3.666   1.190  11.608  1.0240  0.7365 -0.8833
 6052SOL     OW29791   2.384   1.239  12.656  0.3010  0.4533  0.4587
 6052SOL    HW129792   2.410   1.305  12.593  0.3410  1.3888  1.4530
 6052SOL    HW229793   2.409   1.157  12.614  0.6959  1.4145 -1.1862
 6053SOL     OW29794   2.024   3.060   1.006  0.1569  0.6547  0.3839
 6053SOL    HW129795   2.003   3.148   1.036  0.5751  0.3428  1.5958
 6053SOL    HW229796   1.935   3.030   0.986  0.3669  0.7703 -0.7026
 6054SOL     OW29797   3.367   1.634   6.710  0.5633  0.6555  0.1188
 6054SOL    HW129798   3.312   1.562   6.741  2.5899 -1.0777 -0.3324
 6054SOL    HW229799   3.306   1.708   6.705  0.5126  0.6880  1.1977
 6055SOL     OW29800   4.236   3.006   7.106  0.2894  0.3726 -0.2567
 6055SOL    HW129801   4.195   3.007   7.019  1.1825 -1.4981 -0.6942
 6055SOL    HW229802   4.157   3.007   7.160  1.3324  1.1702  1.2651
 6056SOL     OW29803   0.258   2.196   8.140 -0.3186 -0.0634  0.2707
 6056SOL    HW129804   0.340   2.149   8.126  0.3713  0.8916  1.0973
 6056SOL    HW229805   0.213   2.189   8.056 -3.1935  1.9031  1.6697
 6057SOL     OW29806   2.680   1.362   2.680  0.2295  0.6164 -0.6066
 6057SOL    HW129807   2.770   1.394   2.669  1.4329 -1.9421  1.4567
 6057SOL    HW229808   2.695   1.267   2.688 -1.7917  0.3052 -0.5656
 6058SOL     OW29809   4.149   1.154  12.016  0.2808  0.0066  0.2368
 6058SOL    HW129810   4.180   1.224  11.959 -0.0523 -0.6212 -0.7334
 6058SOL    HW229811   4.141   1.183  12.107 -1.8634 -2.2370  0.7729
 6059SOL     OW29812   0.519   4.084   3.765 -0.4448 -0.4329 -0.9966
 6059SOL    HW129813   0.583   4.120   3.704  1.4248  0.4818  1.4958
 6059SOL    HW229814   0.507   4.151   3.833 -1.6881 -0.7588 -0.8857
 6060SOL     OW29815   2.559   1.644  13.012 -0.0840  0.0330 -0.4376
 6060SOL    HW129816   2.527   1.688  13.091  4.1499  3.3587 -0.5640
 6060SOL    HW229817   2.629   1.598  13.057 -0.9448 -2.2324 -1.4428
 6061SOL     OW29818   4.234   2.416   7.065  0.1061 -0.0876 -0.3634
 6061SOL    HW129819   4.173   2.431   7.137  0.7671 -0.0267  0.1885
 6061SOL    HW229820   4.277   2.332   7.082 -2.1212 -1.1901 -0.2600
 6062SOL     OW29821   2.742   1.997   2.033 -0.2146 -0.2923  0.5103
 6062SOL    HW129822   2.660   1.954   2.006  0.5215 -1.7493  0.6316
 6062SOL    HW229823   2.787   1.927   2.080 -2.5715 -1.2353  1.3492
 6063SOL     OW29824   3.046   1.444   5.155 -0.3105 -0.2939  0.2186
 6063SOL    HW129825   3.137   1.473   5.146 -0.0878 -1.7378 -2.4570
 6063SOL    HW229826   3.065   1.355   5.125  0.7230 -0.3567  1.0522
 6064SOL     OW29827   3.064   1.989   7.413  0.1310  0.3288  0.7115
 6064SOL    HW129828   3.070   2.014   7.321 -0.5683  0.7612  0.7882
 6064SOL    HW229829   3.069   2.070   7.464 -1.2043  0.6924  0.2573
 6065SOL     OW29830   3.035   4.116   9.290 -0.0591 -0.3465 -0.2721
 6065SOL    HW129831   2.988   4.194   9.320 -1.6084 -1.5370  0.3665
 6065SOL    HW229832   3.084   4.080   9.363 -1.5364  0.5337  1.1523
 6066SOL     OW29833   4.364   2.967   2.902 -0.0298  1.1519 -0.3093
 6066SOL    HW129834   4.408   2.925   2.828 -3.6297 -3.1216  0.0038
 6066SOL    HW229835   4.273   2.947   2.882 -0.4968  2.0308  0.9116
 6067SOL     OW29836   0.372   0.293   9.525 -0.0240  0.0367  0.0837
 6067SOL    HW129837   0.284   0.258   9.514  1.0460 -2.1198 -1.5172
 6067SOL    HW229838   0.365   0.330   9.613  0.5307 -0.7151  0.4485
 6068SOL     OW29839   2.686   0.670   3.438  0.0798  0.2906 -0.2060
 6068SOL    HW129840   2.597   0.667   3.473  0.3174 -1.6503  0.2612
 6068SOL    HW229841   2.687   0.589   3.386  0.6432  0.7801 -0.9693
 6069SOL     OW29842   0.985   1.053   4.029 -0.0055  0.1405 -0.0414
 6069SOL    HW129843   0.983   1.109   4.107 -0.8200 -2.6923  2.0008
 6069SOL    HW229844   1.057   0.996   4.054 -0.3402 -0.0400  0.5382
 6070SOL     OW29845   4.264   2.610   6.166 -0.0201 -0.1311  0.2651
 6070SOL    HW129846   4.348   2.577   6.199 -0.4942 -2.2507 -0.6287
 6070SOL    HW229847   4.220   2.534   6.129  1.1631 -1.3773  1.3810
 6071SOL     OW29848   0.779   0.025   1.365 -0.1827  0.2843  0.8208
 6071SOL    HW129849   0.806   0.102   1.314 -3.2721  0.4898 -0.5143
 6071SOL    HW229850   0.696   0.007   1.321  0.6229 -0.3750 -0.4416
 6072SOL     OW29851   0.679   0.656   1.603  0.6039 -0.1787  0.1790
 6072SOL    HW129852   0.676   0.582   1.541  0.2200  1.5599 -1.8961
 6072SOL    HW229853   0.753   0.640   1.662 -0.1413 -1.5852  0.7478
 6073SOL     OW29854   0.547   1.500   3.863  0.6953 -0.6582 -0.3437
 6073SOL    HW129855   0.614   1.439   3.894 -0.2588 -1.3939  0.2478
 6073SOL    HW229856   0.547   1.565   3.934  3.8337 -1.9118  0.8154
 6074SOL     OW29857   3.769   1.961   9.728 -0.5366 -0.4668 -0.3454
 6074SOL    HW129858   3.848   1.912   9.754 -0.1215 -0.6295 -1.9526
 6074SOL    HW229859   3.692   1.907   9.744 -0.9704 -0.4903 -2.5451
 6075SOL     OW29860   3.576   0.707   7.981  0.1328 -0.2331  0.0928
 6075SOL    HW129861   3.535   0.744   7.903  0.1216 -1.6774 -0.5798
 6075SOL    HW229862   3.642   0.649   7.942  1.7334  1.2092  0.6472
 6076SOL     OW29863   2.997   3.003  14.945 -0.4534 -0.2945 -0.1171
 6076SOL    HW129864   3.033   2.932  14.893 -0.6584 -0.7639  0.3822
 6076SOL    HW229865   2.919   3.028  14.895  0.7020  1.2014 -1.2007
 6077SOL     OW29866   3.160   0.284   5.410 -0.3923 -0.4505 -0.0591
 6077SOL    HW129867   3.132   0.240   5.491 -0.3342 -0.1705  0.1095
 6077SOL    HW229868   3.077   0.282   5.362  1.1006  0.4689 -2.6012
 6078SOL     OW29869   0.271   3.089   6.193 -0.0717 -0.5788 -0.7779
 6078SOL    HW129870   0.204   3.154   6.213 -1.4749 -1.8961 -1.1428
 6078SOL    HW229871   0.352   3.132   6.217 -0.5806 -0.8620  1.4783
 6079SOL     OW29872   0.791   2.607  10.616  0.1794 -0.1630  0.6000
 6079SOL    HW129873   0.817   2.605  10.708  0.3748 -0.5915  0.5354
 6079SOL    HW229874   0.777   2.701  10.610  1.1727  0.0521  1.7377
 6080SOL     OW29875   3.905   0.590  16.827  0.3710 -0.5503  0.2044
 6080SOL    HW129876   3.945   0.578  16.740  2.0047 -2.3447  1.2064
 6080SOL    HW229877   3.817   0.567  16.795  0.3877 -1.1332  0.5811
 6081SOL     OW29878   0.568   0.308  15.279 -0.4413 -0.0968 -0.1671
 6081SOL    HW129879   0.527   0.297  15.365  2.3195  2.4801  1.4458
 6081SOL    HW229880   0.526   0.237  15.229 -0.1898 -1.3984  1.4719
 6082SOL     OW29881   0.410   0.890   7.445 -0.6111  0.8053  0.0794
 6082SOL    HW129882   0.388   0.861   7.357 -1.9497  1.7072  0.1082
 6082SOL    HW229883   0.383   0.813   7.495  1.5007  0.0695  0.0725
 6083SOL     OW29884   4.676   3.289   8.656  0.2461 -0.1198  0.7535
 6083SOL    HW129885   4.582   3.296   8.671  0.5021  2.8977  1.0852
 6083SOL    HW229886   4.710   3.378   8.643 -1.5865  0.3089 -1.1614
 6084SOL     OW29887   4.134   1.738   1.020  0.4332  0.3818 -0.9046
 6084SOL    HW129888   4.084   1.818   1.038 -0.9756 -0.4384 -1.2567
 6084SOL    HW229889   4.221   1.762   1.054  0.2455 -1.0424  0.5780
 6085SOL     OW29890   1.872   2.860   7.910  0.1110  0.0050 -0.2085
 6085SOL    HW129891   1.945   2.876   7.970  1.7249  1.0544 -2.4654
 6085SOL    HW229892   1.892   2.768   7.896 -2.7703 -0.5975 -0.4500
 6086SOL     OW29893   0.021   2.271   5.320  0.3107  0.5394 -0.6971
 6086SOL    HW129894   4.683   2.224   5.347  0.6579  0.0651 -0.5060
 6086SOL    HW229895   0.012   2.356   5.363  0.0454 -0.1286  0.5594
 6087SOL     OW29896   4.032   1.541  15.000  0.4300  0.4936  0.5793
 6087SOL    HW129897   4.112   1.593  14.994  1.0954 -0.6103 -0.2560
 6087SOL    HW229898   4.048   1.478  14.929 -1.2377  0.1698  0.4794
 6088SOL     OW29899   4.534   0.068   6.008 -0.2627  0.1666 -0.2283
 6088SOL    HW129900   4.463   0.132   5.998 -0.3318  0.2002  0.4809
 6088SOL    HW229901   4.540   0.021   5.924  0.0571 -2.8474  1.4927
 6089SOL     OW29902   0.897   3.471   7.778 -0.2366 -0.2730 -0.4444
 6089SOL    HW129903   0.944   3.475   7.694 -1.3044  1.3994 -0.9494
 6089SOL    HW229904   0.922   3.559   7.806  0.2275 -0.3881 -0.4829
 6090SOL     OW29905   4.313   2.486   3.820  0.4879 -0.0351 -0.0252
 6090SOL    HW129906   4.298   2.499   3.726  0.4861 -1.9190 -0.2759
 6090SOL    HW229907   4.403   2.454   3.815  1.2001  2.0233 -0.4924
 6091SOL     OW29908   3.916   0.034   9.410 -0.1772 -0.0000 -0.2081
 6091SOL    HW129909   4.000   0.059   9.372 -0.1160  1.1627  0.7047
 6091SOL    HW229910   3.871   0.010   9.329 -0.7113  0.1720  0.0373
 6092SOL     OW29911   3.596   0.381   7.252 -0.0250  0.9143  0.3982
 6092SOL    HW129912   3.540   0.445   7.208  1.8600  1.5544 -1.0832
 6092SOL    HW229913   3.683   0.420   7.250  0.7574 -0.7121  2.7395
 6093SOL     OW29914   0.843   1.511   4.810 -0.2023  0.5443  0.0951
 6093SOL    HW129915   0.779   1.561   4.862 -0.5748  0.5903 -0.4113
 6093SOL    HW229916   0.866   1.577   4.745  1.1312 -1.1240 -1.0995
 6094SOL     OW29917   1.070   3.520   3.214  0.1630  0.1077 -0.1872
 6094SOL    HW129918   1.118   3.473   3.282 -0.0784 -2.4605 -1.7900
 6094SOL    HW229919   1.038   3.598   3.260 -0.1672 -0.1595  0.0275
 6095SOL     OW29920   1.446   3.157   0.374 -0.1995  0.4471 -0.0462
 6095SOL    HW129921   1.448   3.242   0.418  2.1447  1.2574 -1.7220
 6095SOL    HW229922   1.520   3.111   0.414 -0.4274 -1.1752 -1.5009
 6096SOL     OW29923   0.686   1.585   1.353  0.1424 -0.0976  0.4924
 6096SOL    HW129924   0.767   1.631   1.372  0.9893 -1.7079  0.7846
 6096SOL    HW229925   0.638   1.596   1.436 -0.7738 -1.9714  0.2084
 6097SOL     OW29926   2.291   0.790   8.126 -0.1567  0.1440  0.4709
 6097SOL    HW129927   2.340   0.716   8.091  0.4905  0.3865  0.8792
 6097SOL    HW229928   2.358   0.857   8.116  0.3465 -0.4903 -0.3408
 6098SOL     OW29929   0.947   0.509  13.938  0.7081  0.2979  0.6921
 6098SOL    HW129930   1.015   0.480  13.998  0.0208 -2.1103  0.2995
 6098SOL    HW229931   0.978   0.595  13.909 -0.5354  0.9335  1.2609
 6099SOL     OW29932   1.391   1.270   8.666 -0.8649  0.2283  0.7001
 6099SOL    HW129933   1.353   1.190   8.631 -1.1083  0.7846 -0.3282
 6099SOL    HW229934   1.438   1.304   8.590 -1.8072  3.5166  1.5376
 6100SOL     OW29935   1.016   3.118   3.715  0.9854 -0.1441 -0.0027
 6100SOL    HW129936   1.041   3.210   3.726 -0.3252  0.0587  1.2659
 6100SOL    HW229937   1.015   3.097   3.808  0.2958  2.1629  0.5154
 6101SOL     OW29938   2.859   2.759   3.806  0.6608  0.3245 -0.5831
 6101SOL    HW129939   2.810   2.838   3.829  0.9179 -0.5254  2.8930
 6101SOL    HW229940   2.808   2.700   3.861  0.0537  0.6022 -0.8537
 6102SOL     OW29941   1.975   0.161   1.371 -0.8328  0.0863  0.3860
 6102SOL    HW129942   1.959   0.242   1.323 -0.7334 -0.6891 -0.9567
 6102SOL    HW229943   2.058   0.124   1.339 -1.0542  1.3625 -1.6358
 6103SOL     OW29944   3.285   0.017  14.699  0.0584 -0.1989 -0.2277
 6103SOL    HW129945   3.347   4.725  14.765 -0.8064  0.8356  1.0897
 6103SOL    HW229946   3.288   0.112  14.708  0.6025 -0.5381  3.2861
 6104SOL     OW29947   4.503   4.536   9.117 -0.0357  0.6003 -0.0949
 6104SOL    HW129948   4.592   4.520   9.148  0.2634  2.1166 -0.1918
 6104SOL    HW229949   4.497   4.629   9.098  0.7636  0.9004  1.1090
 6105SOL     OW29950   1.696   3.712   7.748 -0.3014  0.5486  0.1361
 6105SOL    HW129951   1.656   3.652   7.811  1.0635 -0.1210  0.3774
 6105SOL    HW229952   1.714   3.791   7.799  0.4288 -0.0889  0.8834
 6106SOL     OW29953   2.721   0.313   9.598  0.1255  0.2643 -0.5808
 6106SOL    HW129954   2.670   0.393   9.601 -2.6031 -1.4575 -0.7993
 6106SOL    HW229955   2.798   0.336   9.545  0.1188 -1.5086 -1.3607
 6107SOL     OW29956   2.584   4.101   7.369 -0.1971 -0.6625  0.2816
 6107SOL    HW129957   2.635   4.074   7.446 -0.4686 -1.9334  0.0303
 6107SOL    HW229958   2.496   4.071   7.394 -0.3851 -0.6586 -0.3770
 6108SOL     OW29959   1.992   4.583   7.060 -0.5983  0.0236  0.2560
 6108SOL    HW129960   1.998   4.563   7.154 -1.6986 -0.7966  0.1649
 6108SOL    HW229961   1.910   4.632   7.063  0.1685  1.2019  1.9093
 6109SOL     OW29962   4.048   4.413   9.882  0.3952  0.6644 -0.7136
 6109SOL    HW129963   4.015   4.390   9.795  0.3454  1.2130 -0.8434
 6109SOL    HW229964   4.084   4.501   9.869 -0.1916  1.2211  1.4656
 6110SOL     OW29965   2.052   2.708   3.131 -0.8357  0.4370 -0.0130
 6110SOL    HW129966   2.009   2.692   3.215  0.1037  2.1191  0.7787
 6110SOL    HW229967   2.146   2.714   3.149 -0.7751 -1.3751  0.3330
 6111SOL     OW29968   2.530   1.383   7.769 -0.0512  0.1455 -0.0717
 6111SOL    HW129969   2.458   1.320   7.759 -0.2663  0.1555  1.3916
 6111SOL    HW229970   2.537   1.410   7.678  0.4252  2.0131  0.5309
 6112SOL     OW29971   2.647   0.026  13.496 -0.2528  0.2615 -0.3409
 6112SOL    HW129972   2.662   4.720  13.578  2.2031 -0.7030 -1.3385
 6112SOL    HW229973   2.639   4.692  13.437  0.6052  0.8021 -1.1465
 6113SOL     OW29974   0.809   2.916   5.815  0.9542 -0.1396  0.3463
 6113SOL    HW129975   0.796   2.822   5.823  0.2107  0.0888  1.8541
 6113SOL    HW229976   0.838   2.924   5.724 -0.7886 -1.2943 -0.3053
 6114SOL     OW29977   3.996   4.520  11.385  0.2978 -0.0289  0.4643
 6114SOL    HW129978   3.978   4.612  11.367 -1.6583 -0.0169  2.3757
 6114SOL    HW229979   4.056   4.531  11.459 -0.6592 -1.3317  1.4377
 6115SOL     OW29980   0.180   0.587   4.627 -0.1148  1.4799 -0.2782
 6115SOL    HW129981   0.176   0.497   4.659 -0.2714  1.9711  1.0806
 6115SOL    HW229982   0.191   0.629   4.712  0.0682  2.9026 -1.0021
 6116SOL     OW29983   2.196   0.799  10.439  0.4957 -0.3571 -0.2100
 6116SOL    HW129984   2.139   0.785  10.515  0.5933  1.3244  0.1663
 6116SOL    HW229985   2.260   0.732  10.462 -2.2355 -2.7700  0.3741
 6117SOL     OW29986   4.206   3.856   9.386  0.2547  0.3713 -0.4389
 6117SOL    HW129987   4.133   3.872   9.446  0.0679  0.7747 -0.7732
 6117SOL    HW229988   4.212   3.761   9.378  0.9240  0.1307  2.8209
 6118SOL     OW29989   4.701   3.913   6.213 -0.1130  0.1282 -0.5921
 6118SOL    HW129990   0.002   3.854   6.151  0.2705 -0.4635  0.2266
 6118SOL    HW229991   4.708   3.852   6.286  2.7757  2.6467  1.2314
 6119SOL     OW29992   3.751   4.284   7.527 -0.2786  0.3317  0.0916
 6119SOL    HW129993   3.835   4.239   7.538 -1.0102 -1.0118  0.1246
 6119SOL    HW229994   3.780   4.374   7.539 -0.4635  0.3011  0.7674
 6120SOL     OW29995   3.114   3.973   7.558  0.1289  0.1034  0.2518
 6120SOL    HW129996   3.151   3.968   7.470 -1.5447 -0.1835 -0.4243
 6120SOL    HW229997   3.114   4.068   7.554  0.9172  0.0783 -0.3228
 6121SOL     OW29998   3.266   1.734   4.732 -0.3626 -0.3805  0.4730
 6121SOL    HW129999   3.313   1.666   4.683 -0.4194 -0.4017  0.4483
 6121SOL    HW230000   3.218   1.783   4.664  0.7685 -0.6980 -0.5538
 6122SOL     OW30001   1.564   3.878   0.071 -0.0878  0.2419 -0.2327
 6122SOL    HW130002   1.565   3.931  17.751  0.0354  0.9986  0.2642
 6122SOL    HW230003   1.577   3.946   0.137 -1.3893  0.8814 -0.6462
 6123SOL     OW30004   2.477   3.568   6.595 -0.1110  0.2148 -0.4136
 6123SOL    HW130005   2.549   3.610   6.641 -0.5957 -1.0636  1.5094
 6123SOL    HW230006   2.400   3.576   6.653 -0.3096  0.1544 -0.6681
 6124SOL     OW30007   2.462   3.816   4.331  0.2947 -0.8558  0.1542
 6124SOL    HW130008   2.517   3.801   4.254 -1.1687 -0.0860 -1.0361
 6124SOL    HW230009   2.470   3.734   4.379  1.2818 -0.5523  0.5138
 6125SOL     OW30010   4.295   4.203   3.064  0.0964 -0.2242  0.3324
 6125SOL    HW130011   4.348   4.126   3.085  0.9045  0.4275  0.6621
 6125SOL    HW230012   4.330   4.277   3.114 -0.1440  0.9052 -1.1823
 6126SOL     OW30013   0.898   1.357   1.416  0.3718 -0.0770 -0.1435
 6126SOL    HW130014   0.919   1.450   1.405 -0.6153  0.3085  1.3655
 6126SOL    HW230015   0.824   1.348   1.355  2.8144 -1.6565 -2.8655
 6127SOL     OW30016   1.249   1.319  16.335 -0.1364 -0.0253  0.2300
 6127SOL    HW130017   1.339   1.288  16.343 -0.5001 -0.9751  0.6996
 6127SOL    HW230018   1.253   1.414  16.348  1.1096 -0.0480 -0.0437
 6128SOL     OW30019   1.924   4.723  16.267 -0.0982 -0.2063  0.0635
 6128SOL    HW130020   1.888   0.060  16.224  0.2307 -1.0473 -1.7360
 6128SOL    HW230021   1.966   0.013  16.348 -1.3896 -1.8645  1.3601
 6129SOL     OW30022   2.329   3.023   5.814  0.2838 -0.4030 -0.4073
 6129SOL    HW130023   2.279   2.950   5.777  0.0205 -0.3321 -0.1894
 6129SOL    HW230024   2.420   2.996   5.800 -0.2924 -2.3800 -0.4545
 6130SOL     OW30025   4.378   0.897   2.960 -0.5545  0.3451  0.3286
 6130SOL    HW130026   4.468   0.927   2.949 -0.0582 -0.8208  1.2645
 6130SOL    HW230027   4.372   0.912   3.055 -0.9417 -4.3956  1.0571
 6131SOL     OW30028   4.561   4.523   7.888  0.7168 -0.6514  0.5148
 6131SOL    HW130029   4.535   4.435   7.861  1.1704 -0.6325  0.0101
 6131SOL    HW230030   4.476   4.557   7.915  0.0467 -0.2111 -2.2014
 6132SOL     OW30031   1.019   3.834   7.260 -0.0380  0.4804  0.0018
 6132SOL    HW130032   1.045   3.926   7.269  0.8918  0.1287  0.9613
 6132SOL    HW230033   0.930   3.839   7.294 -0.6929  3.0657 -2.1211
 6133SOL     OW30034   3.074   2.543   9.228  0.1371 -0.5253  0.2190
 6133SOL    HW130035   3.056   2.450   9.239 -0.9420 -0.3644 -0.2103
 6133SOL    HW230036   3.011   2.593   9.280  0.5834  1.6428 -1.3069
 6134SOL     OW30037   4.647   0.818  17.468  0.5469  0.4065  0.4092
 6134SOL    HW130038   4.591   0.872  17.523  0.0858  1.1022 -0.7355
 6134SOL    HW230039   4.589   0.765  17.413  0.8907 -0.1008  0.5338
 6135SOL     OW30040   0.852   0.465   6.344 -0.5765  0.3282  0.2709
 6135SOL    HW130041   0.901   0.391   6.379 -1.0177 -0.8501 -1.6030
 6135SOL    HW230042   0.879   0.470   6.253  0.5810 -1.0840  0.5418
 6136SOL     OW30043   3.467   3.992   7.484 -0.2370  0.0676 -0.1904
 6136SOL    HW130044   3.539   4.010   7.424 -1.2241 -2.5077 -2.2015
 6136SOL    HW230045   3.447   3.899   7.473  1.1672 -0.2929  0.4387
 6137SOL     OW30046   1.698   4.144  17.751 -0.4960  0.4001  1.2213
 6137SOL    HW130047   1.789   4.143  17.721 -0.8192 -1.7888  0.2671
 6137SOL    HW230048   1.650   4.117  17.672 -0.5021  0.5632  1.1690
 6138SOL     OW30049   0.797   3.226   4.687  0.7679 -0.0232  0.3430
 6138SOL    HW130050   0.777   3.292   4.754  2.4197  1.9522 -1.0997
 6138SOL    HW230051   0.720   3.172   4.705  0.3961  1.2559  2.6536
 6139SOL     OW30052   2.282   3.351   4.483  0.0952  0.3414 -0.5842
 6139SOL    HW130053   2.295   3.327   4.575  0.7797 -0.9148 -1.0069
 6139SOL    HW230054   2.187   3.339   4.476 -0.0438  1.1273 -0.0431
 6140SOL     OW30055   0.408   0.447   7.008  0.0146 -0.1348 -0.7942
 6140SOL    HW130056   0.363   0.398   6.939 -1.6015 -0.4138  0.4805
 6140SOL    HW230057   0.401   0.536   6.973 -0.9519  0.7661  1.6835
 6141SOL     OW30058   2.361   4.581   8.533  0.5450  0.1413 -0.4331
 6141SOL    HW130059   2.375   4.539   8.618  2.4812 -2.3422 -1.9727
 6141SOL    HW230060   2.269   4.560   8.517 -0.3441  2.8392  1.1447
 6142SOL     OW30061   0.752   0.817   4.327 -0.3963 -0.5315 -0.4521
 6142SOL    HW130062   0.686   0.769   4.277 -1.9430  0.0603  1.0091
 6142SOL    HW230063   0.766   0.885   4.261  1.1735  0.1273  0.5712
 6143SOL     OW30064   4.356   0.695  17.044  0.7278  0.1050  0.2531
 6143SOL    HW130065   4.291   0.763  17.060  1.9449  1.0099  1.3569
 6143SOL    HW230066   4.437   0.744  17.031 -0.2415  1.7737  0.5684
 6144SOL     OW30067   1.955   0.996   9.453  0.4882  0.4340 -0.4329
 6144SOL    HW130068   1.877   1.012   9.399 -0.5409  0.9834  1.2291
 6144SOL    HW230069   1.948   1.071   9.512  2.2708  0.0332  0.2713
 6145SOL     OW30070   1.066   2.877   0.811  0.3593  0.2806 -0.1677
 6145SOL    HW130071   1.074   2.816   0.885  0.5897 -0.2454 -0.6189
 6145SOL    HW230072   1.090   2.960   0.850 -2.1021  1.7272 -1.7567
 6146SOL     OW30073   3.497   4.019   4.152 -0.0043  0.2320 -0.3196
 6146SOL    HW130074   3.402   4.029   4.139 -0.1372 -0.8691 -0.1807
 6146SOL    HW230075   3.527   4.006   4.062 -0.7939 -1.3423 -0.3762
 6147SOL     OW30076   0.866   4.214   8.855  0.1014 -0.0857 -0.2392
 6147SOL    HW130077   0.951   4.253   8.833  0.6167  0.7455  3.2588
 6147SOL    HW230078   0.811   4.289   8.832  0.4487  0.2270 -0.0461
 6148SOL     OW30079   4.223   2.949  16.752 -0.1038 -0.4072  0.1393
 6148SOL    HW130080   4.280   2.886  16.706  1.8493  1.7445 -0.4217
 6148SOL    HW230081   4.215   2.914  16.840  0.5448 -0.0467  0.3422
 6149SOL     OW30082   1.897   3.218  13.659  0.8836 -0.2213  0.3637
 6149SOL    HW130083   1.957   3.287  13.687  1.4154 -0.8981  0.9028
 6149SOL    HW230084   1.831   3.279  13.626  0.6549  0.2416  1.6920
 6150SOL     OW30085   2.113   3.759   5.932 -0.5208 -0.1184  0.3494
 6150SOL    HW130086   2.047   3.829   5.939 -0.5112 -0.0683 -0.0436
 6150SOL    HW230087   2.055   3.687   5.907 -0.6711  0.2466 -0.3824
 6151SOL     OW30088   2.400   4.220   5.657 -0.6100 -0.9306 -0.1771
 6151SOL    HW130089   2.397   4.254   5.747 -1.0520  0.5718 -0.7403
 6151SOL    HW230090   2.351   4.297   5.626 -0.5179 -0.5734  0.5608
 6152SOL     OW30091   1.666   2.010   8.528  0.1723 -0.1229  0.1271
 6152SOL    HW130092   1.708   1.938   8.575 -0.1783  1.8606  3.4825
 6152SOL    HW230093   1.580   1.971   8.508 -0.0043  1.3626 -1.9561
 6153SOL     OW30094   1.217   1.936   1.950 -0.1583 -0.4423 -0.1908
 6153SOL    HW130095   1.272   1.970   2.021 -0.0891 -0.9003 -0.0258
 6153SOL    HW230096   1.256   1.858   1.912 -0.6000 -0.9200  0.3350
 6154SOL     OW30097   3.834   1.903   9.444 -0.4442  0.0229  0.1710
 6154SOL    HW130098   3.869   1.987   9.475  0.8111 -0.6056  0.4324
 6154SOL    HW230099   3.749   1.933   9.411  0.0995  2.9067  1.3429
 6155SOL     OW30100   0.684   1.987   5.359 -0.5163  0.7795  0.4944
 6155SOL    HW130101   0.713   2.005   5.448 -0.6663  1.7082  0.3575
 6155SOL    HW230102   0.723   2.060   5.312  0.1856  1.1373  1.6359
 6156SOL     OW30103   0.204   1.356   8.631 -0.2501 -0.1511  0.0418
 6156SOL    HW130104   0.257   1.379   8.708  1.6048  1.0918 -1.6139
 6156SOL    HW230105   0.256   1.404   8.567 -1.8438  1.3685 -0.1185
 6157SOL     OW30106   3.656   2.680  16.787 -0.0231  0.6203 -0.2652
 6157SOL    HW130107   3.585   2.725  16.832  1.2909  2.6387 -0.2297
 6157SOL    HW230108   3.643   2.587  16.808  2.3674  0.6760  1.4442
 6158SOL     OW30109   2.509   0.171  15.855  0.3077 -0.3618 -0.1521
 6158SOL    HW130110   2.552   0.162  15.770  4.0926 -1.8825  1.9380
 6158SOL    HW230111   2.563   0.240  15.894  1.9467 -1.6354 -0.1845
 6159SOL     OW30112   0.219   4.697  15.549 -0.1618  0.4048  0.7613
 6159SOL    HW130113   0.130   4.669  15.570 -0.2023  1.5263  2.0612
 6159SOL    HW230114   0.262   4.684  15.633  0.0188 -1.4132  0.3888
 6160SOL     OW30115   2.459   3.590   4.507 -0.0103 -0.0906 -0.1240
 6160SOL    HW130116   2.444   3.627   4.594  1.2408 -0.0957  0.1059
 6160SOL    HW230117   2.405   3.511   4.509 -0.6122  0.3123 -0.8638
 6161SOL     OW30118   0.633   0.546  12.266 -0.1104 -0.2645 -0.7242
 6161SOL    HW130119   0.670   0.471  12.311  0.0465  0.3974  0.2474
 6161SOL    HW230120   0.676   0.621  12.308 -0.2766  1.7281 -4.1014
 6162SOL     OW30121   2.604   1.483   9.096 -0.3143 -0.0254 -0.1968
 6162SOL    HW130122   2.575   1.399   9.060  1.5306 -1.3558  1.4452
 6162SOL    HW230123   2.551   1.486   9.176 -0.4918 -0.1439 -0.3091
 6163SOL     OW30124   3.702   4.514   5.338 -0.3434 -0.3744 -0.0822
 6163SOL    HW130125   3.757   4.436   5.341 -0.3419 -0.3882 -0.5084
 6163SOL    HW230126   3.655   4.503   5.421  0.0954  0.7316  0.3104
 6164SOL     OW30127   0.409   1.046   9.454 -0.4061 -0.0115 -0.0686
 6164SOL    HW130128   0.395   0.981   9.385 -2.1359  1.3977 -1.0639
 6164SOL    HW230129   0.460   0.994   9.516 -0.0590 -0.9677 -1.1589
 6165SOL     OW30130   3.568   1.983   2.734  0.0808 -0.5548  0.6144
 6165SOL    HW130131   3.654   2.007   2.700  0.2514  0.2203  1.6079
 6165SOL    HW230132   3.515   1.992   2.654  2.6539 -0.8797 -1.1186
 6166SOL     OW30133   3.481   1.099   5.322 -0.0612  0.9664 -0.1059
 6166SOL    HW130134   3.543   1.106   5.249 -0.1312 -0.4581 -0.3021
 6166SOL    HW230135   3.533   1.043   5.379  2.9488  2.1721 -1.6919
 6167SOL     OW30136   4.720   4.187  14.492 -0.2824 -0.4023 -0.1853
 6167SOL    HW130137   4.638   4.156  14.528  1.0393 -1.0570  2.2607
 6167SOL    HW230138   4.684   4.246  14.426 -2.7072  0.1062  1.5988
 6168SOL     OW30139   1.214   3.210  10.133  0.3769  0.6319 -0.0156
 6168SOL    HW130140   1.251   3.205  10.221  1.5360 -1.6553 -0.6006
 6168SOL    HW230141   1.240   3.129  10.088 -2.2516 -0.7784  1.0683
 6169SOL     OW30142   1.843   0.309  13.796  0.2864 -0.2487  0.1595
 6169SOL    HW130143   1.925   0.287  13.840  0.0000  0.7869  1.2000
 6169SOL    HW230144   1.876   0.384  13.747  1.3274 -1.6802 -1.3318
 6170SOL     OW30145   4.406   0.537   2.412  0.3186 -1.0920  0.2443
 6170SOL    HW130146   4.424   0.598   2.484  0.1388  0.9510 -1.4555
 6170SOL    HW230147   4.310   0.535   2.407  0.2842  3.5254 -1.2116
 6171SOL     OW30148   2.286   0.224   6.578 -0.0579 -0.0041 -0.3133
 6171SOL    HW130149   2.232   0.205   6.654 -0.9718 -0.0857 -0.9868
 6171SOL    HW230150   2.306   0.133   6.556  0.2531  0.0889 -0.4186
 6172SOL     OW30151   1.091   2.146   5.928 -0.0127  0.4751 -0.0488
 6172SOL    HW130152   1.023   2.130   5.995 -0.7692 -0.6792 -1.0888
 6172SOL    HW230153   1.066   2.081   5.863 -0.1950  0.1072  0.3860
 6173SOL     OW30154   0.723   2.304   2.451  0.1643 -0.3451  0.1539
 6173SOL    HW130155   0.710   2.396   2.427 -0.8215 -1.0431 -1.9905
 6173SOL    HW230156   0.805   2.314   2.500 -0.8966  2.8283  1.2317
 6174SOL     OW30157   4.059   3.844   7.142 -0.4072 -0.0824  0.8106
 6174SOL    HW130158   4.013   3.869   7.062  2.5666 -0.3112 -0.9639
 6174SOL    HW230159   4.027   3.754   7.152  1.5482 -0.5546  2.7807
 6175SOL     OW30160   2.524   2.932   7.228  0.7666 -0.0373  0.3009
 6175SOL    HW130161   2.460   2.970   7.289 -1.8662 -2.4895 -0.9250
 6175SOL    HW230162   2.458   2.909   7.163  0.5525  0.8279  0.2025
 6176SOL     OW30163   0.574   0.079   5.311 -0.1357  0.0164 -0.0279
 6176SOL    HW130164   0.519   0.155   5.327  0.6611  0.5908 -0.0068
 6176SOL    HW230165   0.655   0.113   5.349  0.4378  1.7683 -2.7790
 6177SOL     OW30166   1.121   0.174   6.055 -0.3334 -0.0585  0.1758
 6177SOL    HW130167   1.092   0.139   6.140 -0.2377  0.7042  0.5172
 6177SOL    HW230168   1.070   0.255   6.048 -0.9023 -0.2977  1.5777
 6178SOL     OW30169   3.474   3.114   9.954 -0.0210 -0.1813  0.4783
 6178SOL    HW130170   3.542   3.082  10.013 -0.3429  1.5003  1.7531
 6178SOL    HW230171   3.530   3.145   9.884  0.6377 -2.8950 -0.2129
 6179SOL     OW30172   4.321   2.042  12.000  0.1829  0.1311 -0.4783
 6179SOL    HW130173   4.306   2.105  12.072  0.4372  0.4658 -0.7170
 6179SOL    HW230174   4.236   2.041  11.956  0.0389 -0.7348 -0.1758
 6180SOL     OW30175   1.901   4.212  15.504  0.5727 -0.1349 -0.3802
 6180SOL    HW130176   1.967   4.271  15.541 -0.7939  0.9927  0.2446
 6180SOL    HW230177   1.835   4.196  15.571  2.0615 -0.9105  0.8806
 6181SOL     OW30178   4.660   1.867   1.746 -0.1673 -0.1188  0.4723
 6181SOL    HW130179   4.696   1.834   1.828  1.6584  1.2535  0.2197
 6181SOL    HW230180   4.661   1.956   1.780 -1.0371  0.3559 -0.7357
 6182SOL     OW30181   3.138   2.323   4.418 -0.2889 -0.2163 -0.0780
 6182SOL    HW130182   3.230   2.331   4.394 -0.6146 -0.6351 -1.4307
 6182SOL    HW230183   3.118   2.416   4.425  2.4107  0.4153 -0.9365
 6183SOL     OW30184   1.429   3.806   7.984 -0.1480  0.5743 -0.3491
 6183SOL    HW130185   1.416   3.849   7.899  1.1514 -0.6120 -1.1598
 6183SOL    HW230186   1.376   3.865   8.037 -1.2833 -0.5654 -0.2210
 6184SOL     OW30187   3.177   0.634   2.435  0.2889 -0.0814 -0.1186
 6184SOL    HW130188   3.182   0.595   2.522  0.0102  2.6652  1.1312
 6184SOL    HW230189   3.171   0.561   2.372 -1.0604 -0.7909  0.8268
 6185SOL     OW30190   1.756   1.661   5.808 -0.1795  0.0873 -0.0508
 6185SOL    HW130191   1.721   1.592   5.864  0.3672  0.0519  0.2513
 6185SOL    HW230192   1.850   1.647   5.822  0.1734 -0.2942 -2.8316
 6186SOL     OW30193   1.442   0.670   6.903  0.0962  0.1421 -0.5467
 6186SOL    HW130194   1.379   0.719   6.850 -3.4437 -1.9894  1.6537
 6186SOL    HW230195   1.521   0.688   6.852  0.1490  0.3079 -0.4034
 6187SOL     OW30196   0.560   4.273   3.973  0.2280  0.1329  0.3812
 6187SOL    HW130197   0.498   4.345   3.970  0.3996  0.2848  0.5118
 6187SOL    HW230198   0.647   4.308   3.992  0.7986  0.6320 -3.1708
 6188SOL     OW30199   2.199   1.477   6.157  0.3137 -0.0950 -0.5048
 6188SOL    HW130200   2.256   1.552   6.175  0.5559 -1.0696  2.7727
 6188SOL    HW230201   2.116   1.510   6.190  0.2218  0.7404 -1.5784
 6189SOL     OW30202   0.821   0.290   1.953  0.4384 -0.1651 -0.1123
 6189SOL    HW130203   0.803   0.204   1.990  1.1058 -1.0213 -1.8013
 6189SOL    HW230204   0.736   0.333   1.964  0.4678  0.3261 -1.8349
 6190SOL     OW30205   1.900   0.807  13.459 -0.0110  0.1047 -0.1959
 6190SOL    HW130206   1.835   0.845  13.517 -1.6162 -0.2489 -1.7485
 6190SOL    HW230207   1.867   0.849  13.379 -0.9133  0.4611  0.3686
 6191SOL     OW30208   3.383   0.030  13.564  0.1637 -0.6518 -0.4730
 6191SOL    HW130209   3.292   0.002  13.554 -0.6914  0.5285  4.2399
 6191SOL    HW230210   3.375   0.103  13.624 -0.1013 -1.5615  0.5845
 6192SOL     OW30211   4.639   0.814   3.118  0.5055 -0.2859 -0.2504
 6192SOL    HW130212   4.722   0.804   3.165 -0.9968  1.8613  2.8163
 6192SOL    HW230213   4.594   0.739   3.156  0.6998 -0.6551 -0.7582
 6193SOL     OW30214   4.711   3.729   5.301 -0.5172  0.2692 -0.1451
 6193SOL    HW130215   4.660   3.776   5.236 -0.7110 -0.9115 -0.8430
 6193SOL    HW230216   4.652   3.714   5.375 -0.4258 -0.4199 -0.2129
 6194SOL     OW30217   4.312   0.153  11.801  0.4583  0.0491  0.3955
 6194SOL    HW130218   4.269   0.231  11.835  0.6641 -0.0260  0.8299
 6194SOL    HW230219   4.385   0.143  11.863  0.0828  0.5418  0.9120
 6195SOL     OW30220   2.946   0.717   4.047 -0.2168  0.4810 -0.3223
 6195SOL    HW130221   2.951   0.812   4.049  0.0873  0.4544  0.1995
 6195SOL    HW230222   2.907   0.705   3.960  1.1660  1.5236 -1.0841
 6196SOL     OW30223   3.841   2.182   9.384  0.1613 -0.0964  0.3136
 6196SOL    HW130224   3.772   2.137   9.336 -0.5713 -1.2216  2.4411
 6196SOL    HW230225   3.805   2.266   9.412  0.8942  0.6175 -0.8658
 6197SOL     OW30226   1.674   2.935   4.205  0.6865 -0.5437 -0.7249
 6197SOL    HW130227   1.656   2.925   4.298 -0.5423  0.4217 -0.8612
 6197SOL    HW230228   1.721   3.019   4.206  2.2143 -1.3867 -1.4811
 6198SOL     OW30229   1.405   2.126   4.719  0.1296  0.2071 -0.3204
 6198SOL    HW130230   1.476   2.066   4.744 -1.7605 -1.8964  0.0084
 6198SOL    HW230231   1.340   2.124   4.790 -1.3527 -0.8963 -1.7190
 6199SOL     OW30232   4.084   1.576   0.290  0.4891  0.2424 -0.4432
 6199SOL    HW130233   4.089   1.481   0.286  0.0733  0.1400  1.2193
 6199SOL    HW230234   4.096   1.584   0.196  1.7280 -1.5974 -0.4296
 6200SOL     OW30235   4.292   1.547   9.760  0.0832 -0.2867 -0.1140
 6200SOL    HW130236   4.312   1.464   9.802 -1.0935 -1.0435 -1.0407
 6200SOL    HW230237   4.213   1.574   9.807  1.1218  0.6789  1.0689
 6201SOL     OW30238   0.488   0.952   8.070 -0.1776  0.1393  0.3574
 6201SOL    HW130239   0.403   0.975   8.109 -0.6465 -3.5889  1.5025
 6201SOL    HW230240   0.548   0.980   8.139  2.8623 -1.3739 -1.6714
 6202SOL     OW30241   0.323   0.573   3.862  0.6675 -0.3758  0.3063
 6202SOL    HW130242   0.335   0.574   3.957  0.9665 -1.7457  0.2791
 6202SOL    HW230243   0.410   0.553   3.828 -0.3471 -0.2751 -2.3726
 6203SOL     OW30244   0.806   2.697  13.991  0.3399  0.1176 -0.2083
 6203SOL    HW130245   0.720   2.672  14.024  1.8794 -4.2813  0.4571
 6203SOL    HW230246   0.867   2.667  14.059  1.5449  2.2303 -0.3449
 6204SOL     OW30247   3.708   4.062   2.413  0.2549  0.9060 -0.1025
 6204SOL    HW130248   3.701   4.157   2.403 -0.9263  1.4218  5.4072
 6204SOL    HW230249   3.744   4.043   2.326 -1.9980  1.6577 -1.1968
 6205SOL     OW30250   1.478   3.888   2.254 -0.0615 -0.0266 -0.1966
 6205SOL    HW130251   1.572   3.898   2.239  0.4021 -0.9281  2.0882
 6205SOL    HW230252   1.472   3.840   2.337  0.9534 -1.1204 -0.7714
 6206SOL     OW30253   2.488   4.039   0.702 -0.5109  0.2193 -0.1571
 6206SOL    HW130254   2.426   4.057   0.773  1.1254  1.3335  0.9800
 6206SOL    HW230255   2.502   4.129   0.672 -0.1250  0.4402  0.6577
 6207SOL     OW30256   0.048   3.052  12.766  0.4484  0.2588 -0.2509
 6207SOL    HW130257   0.049   3.009  12.680  2.8825  0.8657 -0.5187
 6207SOL    HW230258   0.134   3.083  12.794  0.1930  1.8356 -1.2222
 6208SOL     OW30259   2.101   1.723  15.746 -0.1009  0.0007 -0.1875
 6208SOL    HW130260   2.152   1.779  15.805 -0.6419 -0.3035  0.5712
 6208SOL    HW230261   2.146   1.741  15.664  1.9586 -1.1158  0.7223
 6209SOL     OW30262   1.639   1.505  11.037 -0.0970 -0.2059 -0.4041
 6209SOL    HW130263   1.591   1.572  10.989  0.7893 -0.1346 -1.1859
 6209SOL    HW230264   1.602   1.421  11.012 -1.8119  0.4466 -0.0678
 6210SOL     OW30265   2.596   1.941   9.282  0.2345  0.0191 -0.2077
 6210SOL    HW130266   2.668   1.989   9.325  0.9690 -0.2462 -1.1342
 6210SOL    HW230267   2.594   1.857   9.328 -1.3065  0.1874  0.0358
 6211SOL     OW30268   1.800   1.846   4.508 -0.1475 -0.4887 -0.2660
 6211SOL    HW130269   1.844   1.902   4.572  1.2118  0.2378 -1.8329
 6211SOL    HW230270   1.713   1.885   4.507  0.7965  1.5946 -0.4808
 6212SOL     OW30271   0.391   3.286  15.744  0.6210 -0.0533 -0.2643
 6212SOL    HW130272   0.333   3.251  15.813  1.9448 -1.1013  0.3134
 6212SOL    HW230273   0.327   3.311  15.677  0.3631  1.9547  0.7225
 6213SOL     OW30274   2.876   1.150   4.693 -0.1899 -0.5198  0.3182
 6213SOL    HW130275   2.871   1.242   4.721  0.1777 -0.0217 -1.2714
 6213SOL    HW230276   2.930   1.161   4.615  0.6899 -0.7897  0.8947
 6214SOL     OW30277   1.437   2.908   3.568  0.2943 -0.1402  0.0541
 6214SOL    HW130278   1.403   2.937   3.652 -1.5354 -1.7429 -0.1403
 6214SOL    HW230279   1.416   2.982   3.512 -0.5474 -0.5911 -0.2170
 6215SOL     OW30280   0.773   2.189   5.172  0.5216 -0.3685 -0.1072
 6215SOL    HW130281   0.849   2.208   5.118  1.1102 -3.9479 -0.5191
 6215SOL    HW230282   0.761   2.266   5.227  2.5669  0.8236 -1.3559
 6216SOL     OW30283   3.030   1.138   2.388 -0.0473  0.3950  0.2978
 6216SOL    HW130284   2.993   1.187   2.315 -1.9889 -0.5781  0.6474
 6216SOL    HW230285   2.997   1.053   2.361  2.2044 -0.7890  1.3009
 6217SOL     OW30286   0.025   3.284   8.066 -0.6527  0.4175  0.1585
 6217SOL    HW130287   0.019   3.289   8.162 -0.4399  2.3876  0.0701
 6217SOL    HW230288   4.675   3.258   8.047 -1.1620  2.2895  0.0561
 6218SOL     OW30289   0.923   2.074   6.143  0.1719  0.2841  0.2298
 6218SOL    HW130290   0.917   1.991   6.191 -2.9951  0.8663  0.8612
 6218SOL    HW230291   0.864   2.126   6.199 -1.0717 -1.9954  1.0556
 6219SOL     OW30292   2.838   2.821  16.872  0.6095 -0.2186 -0.5904
 6219SOL    HW130293   2.877   2.818  16.959  0.2620 -0.7908 -0.4555
 6219SOL    HW230294   2.751   2.855  16.894 -0.3161 -0.9183 -3.1652
 6220SOL     OW30295   1.168   4.201   2.301 -0.2029  0.4772 -0.2465
 6220SOL    HW130296   1.160   4.227   2.393 -3.1884 -0.4319 -0.2345
 6220SOL    HW230297   1.164   4.280   2.248 -0.1263  0.0058 -0.9522
 6221SOL     OW30298   4.588   1.550   1.600 -0.5118 -0.2435  0.2137
 6221SOL    HW130299   4.654   1.601   1.554 -1.4690  0.1851 -0.6882
 6221SOL    HW230300   4.575   1.477   1.539  3.1439 -0.2811 -0.5140
 6222SOL     OW30301   1.393   0.413   2.072 -0.6323 -0.3083  0.0881
 6222SOL    HW130302   1.375   0.320   2.090 -0.6074 -0.1531  0.9048
 6222SOL    HW230303   1.351   0.450   2.150  1.2960  0.0971  0.9398
 6223SOL     OW30304   2.997   4.702   9.169 -0.4979 -0.1260  0.5402
 6223SOL    HW130305   2.998   0.026   9.240  1.3654  1.3222 -0.7949
 6223SOL    HW230306   3.089   4.678   9.161  0.1028  3.2402 -2.6963
 6224SOL     OW30307   1.929   4.253  17.613 -1.0365  0.7160 -0.4652
 6224SOL    HW130308   1.851   4.265  17.559  0.7648  2.8900 -2.5796
 6224SOL    HW230309   1.997   4.311  17.580 -1.0686  1.1523  0.2225
 6225SOL     OW30310   1.936   4.481   2.964  0.2115  0.2223  0.0788
 6225SOL    HW130311   1.873   4.550   2.985  1.1899  1.3860 -0.8219
 6225SOL    HW230312   2.008   4.507   3.021 -0.9859  0.4891  1.4717
 6226SOL     OW30313   0.368   3.988   4.285  0.1334 -0.0852  0.3148
 6226SOL    HW130314   0.447   4.023   4.242  1.1836 -0.4332  1.9651
 6226SOL    HW230315   0.389   3.902   4.320  1.8992 -0.0957 -0.7556
 6227SOL     OW30316   4.544   1.314   1.430  0.5143 -0.4361  0.2858
 6227SOL    HW130317   4.450   1.299   1.426  0.6021 -0.6771 -0.8647
 6227SOL    HW230318   4.564   1.257   1.504  0.0078 -0.6985  0.2228
 6228SOL     OW30319   4.415   0.794   1.337  0.1729  0.3476  0.3608
 6228SOL    HW130320   4.336   0.827   1.293 -0.3424 -0.6954  0.4958
 6228SOL    HW230321   4.470   0.872   1.335  2.2095 -1.1042 -0.6094
 6229SOL     OW30322   1.628   1.512   9.346  0.4205 -0.2476 -0.3503
 6229SOL    HW130323   1.690   1.578   9.314  0.9056  0.6900  2.5116
 6229SOL    HW230324   1.597   1.546   9.430 -0.2817 -1.9570  0.0736
 6230SOL     OW30325   3.394   1.455   5.391 -0.2209  0.5302 -0.5025
 6230SOL    HW130326   3.368   1.491   5.476  3.0317  1.2636  0.1891
 6230SOL    HW230327   3.355   1.368   5.399 -0.8232  0.8892  0.4663
 6231SOL     OW30328   0.096   0.767   3.822  0.2296  0.2306 -0.2250
 6231SOL    HW130329   0.188   0.740   3.817  0.0269 -0.9579  2.3274
 6231SOL    HW230330   0.051   0.686   3.847 -1.5799  1.3762  0.2739
 6232SOL     OW30331   0.869   2.854  16.543  0.2208  0.0949 -0.4788
 6232SOL    HW130332   0.775   2.854  16.560  0.8480  1.3508  3.0894
 6232SOL    HW230333   0.883   2.809  16.460 -1.2003 -1.2769  0.0422
 6233SOL     OW30334   1.348   3.469   1.478 -0.3208  0.0443 -0.4400
 6233SOL    HW130335   1.306   3.548   1.510  0.0198  0.7984 -1.8431
 6233SOL    HW230336   1.373   3.419   1.555  1.2869 -0.3436 -1.2047
 6234SOL     OW30337   0.394   4.308   5.331 -0.1852 -0.1834  0.1920
 6234SOL    HW130338   0.449   4.344   5.262 -0.0461 -0.8018 -0.0171
 6234SOL    HW230339   0.310   4.306   5.286 -0.8926  1.0773  1.4323
 6235SOL     OW30340   1.580   0.725   1.321  0.0028 -0.2610 -0.2449
 6235SOL    HW130341   1.520   0.748   1.250 -1.1507  0.7189  1.0629
 6235SOL    HW230342   1.551   0.784   1.390 -0.9286  1.0382 -1.7441
 6236SOL     OW30343   0.555   0.967   1.479 -0.1479 -0.2388  0.2039
 6236SOL    HW130344   0.645   0.937   1.467 -0.8894 -2.1967 -0.5849
 6236SOL    HW230345   0.504   0.887   1.490 -0.4374 -0.3594 -1.9488
 6237SOL     OW30346   4.612   1.748   8.749 -0.0192  0.9010  0.0175
 6237SOL    HW130347   4.597   1.809   8.678  0.3303  1.6447  0.5867
 6237SOL    HW230348   4.522   1.726   8.774  0.8229 -3.7347 -0.9342
 6238SOL     OW30349   0.837   4.693   7.266 -0.0342 -0.1815  0.5214
 6238SOL    HW130350   0.749   4.714   7.234  0.0895 -1.8581 -0.9342
 6238SOL    HW230351   0.814   4.686   7.359  0.2516  1.0231  0.6869
 6239SOL     OW30352   2.287   4.386  17.394 -0.0653  0.5049  0.5891
 6239SOL    HW130353   2.243   4.464  17.360 -0.4117 -0.0045 -0.1329
 6239SOL    HW230354   2.379   4.396  17.369  0.2919 -1.8057  0.9278
 6240SOL     OW30355   1.094   0.375   4.972  0.5337 -0.0361 -0.1243
 6240SOL    HW130356   1.023   0.439   4.963  1.9487  1.5539  0.0028
 6240SOL    HW230357   1.133   0.390   5.058  1.5573 -2.0184 -0.2486
 6241SOL     OW30358   3.465   2.516   4.567 -0.8053 -0.2377 -0.2416
 6241SOL    HW130359   3.477   2.421   4.575 -2.6433 -0.5307 -0.9227
 6241SOL    HW230360   3.384   2.524   4.618  0.5390 -0.8755  1.9725
 6242SOL     OW30361   1.331   1.467   4.369  0.6679  0.0964 -0.5227
 6242SOL    HW130362   1.367   1.391   4.415 -1.0551 -0.3153  0.1131
 6242SOL    HW230363   1.414   1.487   4.325  1.2168  0.0273  0.4651
 6243SOL     OW30364   3.564   1.884  10.116 -0.0080 -0.3111 -0.2380
 6243SOL    HW130365   3.582   1.947  10.185  0.4333  1.3602 -1.8791
 6243SOL    HW230366   3.603   1.803  10.148  2.0730  0.8443  0.1315
 6244SOL     OW30367   1.934   4.505   3.413 -0.1444 -0.3073  0.1843
 6244SOL    HW130368   1.843   4.484   3.392  0.0625 -1.9204  0.8912
 6244SOL    HW230369   1.935   4.479   3.505 -0.4671 -1.6981 -0.2003
 6245SOL     OW30370   1.807   2.322  14.017  0.2106 -0.3419 -0.0740
 6245SOL    HW130371   1.783   2.377  14.091  1.0466  0.2620 -0.2496
 6245SOL    HW230372   1.721   2.336  13.978 -1.6029  0.8239  4.4813
 6246SOL     OW30373   4.178   2.203  12.185  0.1977  0.4412  0.1790
 6246SOL    HW130374   4.189   2.296  12.165 -1.0825  1.0848  2.5089
 6246SOL    HW230375   4.084   2.199  12.202  0.5189 -1.4511  1.4744
 6247SOL     OW30376   2.064   3.788  17.582 -0.0092 -0.1380  0.1088
 6247SOL    HW130377   2.028   3.866  17.624 -1.4988 -0.1673 -1.0991
 6247SOL    HW230378   2.059   3.725  17.654 -2.6146  0.0525  0.0925
 6248SOL     OW30379   4.281   0.901   8.964  0.0227 -0.5155  0.1078
 6248SOL    HW130380   4.229   0.873   8.889 -1.7149  1.6223  0.5279
 6248SOL    HW230381   4.317   0.985   8.938 -0.6110 -0.1200  0.5269
 6249SOL     OW30382   0.220   4.225   1.770 -0.6695  0.3360 -0.9200
 6249SOL    HW130383   0.164   4.200   1.843 -1.0457  3.5529 -0.0944
 6249SOL    HW230384   0.171   4.199   1.692 -0.3632 -0.4491 -0.8468
 6250SOL     OW30385   4.264   0.393   8.751  0.2043  0.0462 -0.2858
 6250SOL    HW130386   4.316   0.356   8.680 -0.3910 -1.3364  0.0123
 6250SOL    HW230387   4.223   0.472   8.716 -0.5931 -0.2259  0.0377
 6251SOL     OW30388   3.002   2.995   6.050  0.1038  0.6221 -0.0993
 6251SOL    HW130389   3.002   3.088   6.026 -2.0632  0.6358 -0.0608
 6251SOL    HW230390   2.916   2.963   6.023  0.2039  0.4512 -0.2166
 6252SOL     OW30391   3.427   2.583   4.126 -0.1616  0.0117 -0.2807
 6252SOL    HW130392   3.445   2.501   4.079 -0.7267 -0.5541  0.4936
 6252SOL    HW230393   3.424   2.643   4.051 -0.8766  0.2377 -0.0718
 6253SOL     OW30394   2.885   0.991  11.652  0.3762 -0.0408  0.1120
 6253SOL    HW130395   2.899   0.907  11.609 -0.4025  0.0924 -0.3990
 6253SOL    HW230396   2.862   0.962  11.740  0.3805  1.3411  0.5769
 6254SOL     OW30397   1.545   2.763   7.725 -0.2045  0.1671 -0.3080
 6254SOL    HW130398   1.597   2.771   7.644 -0.3827  0.7147 -0.3675
 6254SOL    HW230399   1.600   2.818   7.780 -1.8897 -1.1179  2.6123
 6255SOL     OW30400   1.088   3.745   0.852 -0.4074 -0.6943 -0.6366
 6255SOL    HW130401   1.126   3.818   0.804  0.5368  0.0657  1.2465
 6255SOL    HW230402   1.162   3.685   0.863 -0.3017 -0.5967 -0.8205
 6256SOL     OW30403   1.912   3.153   2.189  0.1494  0.2531  0.5887
 6256SOL    HW130404   1.849   3.083   2.210  0.5030 -0.2103  0.0941
 6256SOL    HW230405   1.987   3.100   2.163 -0.9679  0.5229 -3.1984
 6257SOL     OW30406   0.912   2.964  14.914  0.0237  0.0618  0.5428
 6257SOL    HW130407   0.893   2.999  15.001 -1.0156 -0.1392  0.3987
 6257SOL    HW230408   0.827   2.931  14.884 -0.5808  1.8585  0.3271
 6258SOL     OW30409   0.868   2.706   7.099  0.5237 -0.3025  0.3337
 6258SOL    HW130410   0.797   2.764   7.072 -0.3369 -1.8419 -0.7278
 6258SOL    HW230411   0.910   2.757   7.168 -0.3208  3.0545 -1.6282
 6259SOL     OW30412   2.855   1.955   6.089  0.3334  0.0495  0.1305
 6259SOL    HW130413   2.949   1.935   6.092  0.2261 -0.2784  1.3123
 6259SOL    HW230414   2.860   2.051   6.099  1.5446 -0.2180  2.2234
 6260SOL     OW30415   3.041   0.156   9.332  0.1339 -0.1832  0.4485
 6260SOL    HW130416   3.066   0.224   9.395 -3.6598 -0.0214  1.7951
 6260SOL    HW230417   3.008   0.207   9.259 -2.8173  3.4770  4.3498
 6261SOL     OW30418   2.896   2.977   2.309 -0.7428  0.3958 -0.0300
 6261SOL    HW130419   2.881   2.927   2.229 -0.4789 -2.2089  1.5236
 6261SOL    HW230420   2.920   3.063   2.275  0.5430  0.7279  1.6998
 6262SOL     OW30421   4.509   1.881  13.265 -0.2843  0.0965 -0.0252
 6262SOL    HW130422   4.440   1.815  13.268 -0.6100  0.4705  0.6984
 6262SOL    HW230423   4.490   1.925  13.182  1.5939  0.0541 -0.4747
 6263SOL     OW30424   1.555   2.183   4.005  0.4621 -0.4939  0.0071
 6263SOL    HW130425   1.553   2.229   4.089 -1.5886  0.9404 -0.8198
 6263SOL    HW230426   1.497   2.108   4.014  1.4509 -1.1877  0.5923
 6264SOL     OW30427   0.625   2.595   2.408 -0.7404 -0.7463  0.5775
 6264SOL    HW130428   0.707   2.644   2.416 -2.0209  1.4115  0.7144
 6264SOL    HW230429   0.556   2.662   2.408 -0.7186 -0.7214 -0.4672
 6265SOL     OW30430   3.099   0.777   6.897  0.6467  0.2603 -1.1896
 6265SOL    HW130431   3.047   0.754   6.820 -0.4348  1.2960 -0.7730
 6265SOL    HW230432   3.166   0.709   6.904 -0.5350 -0.8481 -0.7006
 6266SOL     OW30433   2.020   2.472  17.132 -0.0021 -0.1137 -0.0009
 6266SOL    HW130434   2.015   2.551  17.078 -2.3553  0.1089  0.5503
 6266SOL    HW230435   2.054   2.414  17.064  0.9130 -0.9592  1.1710
 6267SOL     OW30436   3.453   2.216   5.984 -0.1214 -0.3515  0.7350
 6267SOL    HW130437   3.493   2.174   6.060 -0.2081  0.9125  1.4741
 6267SOL    HW230438   3.516   2.196   5.914  0.5530 -0.3290  1.3351
 6268SOL     OW30439   3.166   4.026  13.585  0.0153  0.0957  0.2554
 6268SOL    HW130440   3.212   4.019  13.669  4.5740 -0.4023 -2.2922
 6268SOL    HW230441   3.218   4.092  13.539  0.8561 -1.8270 -1.5080
 6269SOL     OW30442   2.585   1.938   9.009 -0.3183 -0.5478  0.1613
 6269SOL    HW130443   2.587   1.960   9.103  0.5517 -1.4935  0.3619
 6269SOL    HW230444   2.613   1.847   8.999  1.3874  0.1348 -1.2446
 6270SOL     OW30445   4.121   2.728   9.339  0.0441 -0.2817  0.0370
 6270SOL    HW130446   4.056   2.792   9.310  1.6977  1.6509  0.6099
 6270SOL    HW230447   4.173   2.782   9.398 -1.6366 -0.3289  1.5629
 6271SOL     OW30448   2.288   0.434  14.668 -0.5608  0.0081  0.5207
 6271SOL    HW130449   2.195   0.446  14.688 -0.5529  0.6732  0.1723
 6271SOL    HW230450   2.295   0.341  14.648  1.1999  0.0916  0.7607
 6272SOL     OW30451   3.142   2.480   4.107 -0.1402 -0.0307 -0.1239
 6272SOL    HW130452   3.117   2.529   4.028  0.9093 -1.1265 -1.1184
 6272SOL    HW230453   3.122   2.393   4.073 -1.8708  0.7094 -0.9870
 6273SOL     OW30454   0.617   3.023   8.626  0.1230 -0.0368 -0.3865
 6273SOL    HW130455   0.541   3.028   8.684  0.3889  2.1575 -0.2265
 6273SOL    HW230456   0.679   2.966   8.673  0.0277  0.2054  0.0318
 6274SOL     OW30457   4.007   1.106  13.716 -0.6200 -0.6087 -0.5993
 6274SOL    HW130458   4.043   1.122  13.629 -1.0709 -1.1047 -0.8747
 6274SOL    HW230459   4.053   1.027  13.745  1.7906  1.0845  0.2295
 6275SOL     OW30460   2.081   1.721   4.763 -0.2406  0.1375 -0.3346
 6275SOL    HW130461   1.994   1.697   4.794 -0.2439  1.3658  0.6143
 6275SOL    HW230462   2.059   1.814   4.760 -1.1684 -0.0705  0.2787
 6276SOL     OW30463   2.722   2.426   6.736 -0.2707  0.5225  0.0028
 6276SOL    HW130464   2.629   2.444   6.750 -1.0819 -1.6465 -2.5343
 6276SOL    HW230465   2.750   2.402   6.824 -0.2156 -1.1101 -0.4653
 6277SOL     OW30466   1.618   4.304   5.255 -0.0418  0.0297  0.4854
 6277SOL    HW130467   1.585   4.319   5.344 -0.7753  1.6468 -0.0665
 6277SOL    HW230468   1.590   4.384   5.212  0.5565 -1.2786 -2.3198
 6278SOL     OW30469   3.785   2.779   3.150  0.7042  0.1816 -0.4082
 6278SOL    HW130470   3.787   2.755   3.057 -1.4339 -4.4112  0.7684
 6278SOL    HW230471   3.741   2.864   3.148  1.8044  0.7082 -2.1461
 6279SOL     OW30472   1.142   1.374   7.430 -0.2440  0.7704  0.4139
 6279SOL    HW130473   1.212   1.439   7.429 -0.8278  1.3942  0.7679
 6279SOL    HW230474   1.101   1.397   7.513  1.4601 -0.6367  1.6621
 6280SOL     OW30475   4.297   2.215  13.501 -0.2863  0.2306 -0.2956
 6280SOL    HW130476   4.246   2.269  13.563 -1.0677 -0.6804 -0.1380
 6280SOL    HW230477   4.370   2.271  13.477  0.9045 -1.1907  0.0677
 6281SOL     OW30478   1.915   2.759   6.484 -0.0286 -0.1060 -0.1516
 6281SOL    HW130479   1.894   2.827   6.419  0.2166  0.1876  0.0774
 6281SOL    HW230480   2.006   2.786   6.498 -0.0906 -0.5967  1.1657
 6282SOL     OW30481   2.102   2.465   5.539 -0.0385  0.7168  0.2786
 6282SOL    HW130482   2.114   2.549   5.495  3.2079 -0.3213 -0.7699
 6282SOL    HW230483   2.165   2.407   5.497 -0.4810  0.3623  0.1011
 6283SOL     OW30484   0.396   3.511  15.484 -0.2121 -0.4885 -0.4297
 6283SOL    HW130485   0.328   3.494  15.549 -0.4640 -0.2825 -0.6379
 6283SOL    HW230486   0.346   3.549  15.412  0.3186  0.7097 -0.1567
 6284SOL     OW30487   2.555   1.313   8.080  0.1260  0.1038  0.3801
 6284SOL    HW130488   2.504   1.268   8.146  0.4659 -1.0813 -0.1702
 6284SOL    HW230489   2.503   1.309   8.000  2.0314  1.1527 -0.9156
 6285SOL     OW30490   3.561   1.981   2.998 -0.2993 -0.1002  0.1447
 6285SOL    HW130491   3.565   1.988   2.902 -2.1775  0.1098  0.0809
 6285SOL    HW230492   3.641   1.929   3.007 -1.3951 -2.1320 -1.8241
 6286SOL     OW30493   1.892   3.216  14.737 -0.1495 -0.1055 -1.3178
 6286SOL    HW130494   1.971   3.263  14.712  0.2409 -0.1677 -0.1891
 6286SOL    HW230495   1.852   3.206  14.651 -0.1208  0.3124 -1.3772
 6287SOL     OW30496   0.873   1.292   2.703  0.0222  0.2021  0.3524
 6287SOL    HW130497   0.843   1.221   2.647 -0.6678  1.1678 -0.5183
 6287SOL    HW230498   0.931   1.242   2.760 -0.1149  1.0080  1.2043
 6288SOL     OW30499   2.180   3.031  11.510 -0.9046 -0.2478  0.4075
 6288SOL    HW130500   2.226   2.948  11.523 -0.6041 -0.1185  0.1566
 6288SOL    HW230501   2.095   3.007  11.472 -1.0859  0.0531  0.6236
 6289SOL     OW30502   2.788   3.811   3.485 -0.2404 -0.2038  0.5086
 6289SOL    HW130503   2.795   3.725   3.443 -2.2072 -0.8170  1.4047
 6289SOL    HW230504   2.700   3.807   3.524 -0.0956 -0.3209  0.8250
 6290SOL     OW30505   1.175   1.304  11.714 -0.2804 -0.1275  0.2962
 6290SOL    HW130506   1.093   1.275  11.753 -0.7740  0.5701 -0.2238
 6290SOL    HW230507   1.181   1.260  11.629 -2.3012 -0.0816  0.1179
 6291SOL     OW30508   1.901   4.530   9.329 -0.2834 -0.1830 -0.2859
 6291SOL    HW130509   1.933   4.531   9.239 -1.8474 -0.5770 -0.8490
 6291SOL    HW230510   1.983   4.537   9.377 -0.0303 -0.1962 -0.7108
 6292SOL     OW30511   4.567   1.911   8.540  0.1524 -0.2518 -0.2425
 6292SOL    HW130512   4.522   1.867   8.468  0.1885  2.6059 -2.0248
 6292SOL    HW230513   4.621   1.973   8.490 -1.1311 -0.2195 -1.5893
 6293SOL     OW30514   4.193   1.934   2.751  0.3114  0.0305 -0.0191
 6293SOL    HW130515   4.288   1.946   2.761  0.1789  1.6855 -0.8013
 6293SOL    HW230516   4.164   2.019   2.783 -0.8530  0.1203 -1.3392
 6294SOL     OW30517   4.635   3.403   6.154 -0.1639 -0.5434 -0.5012
 6294SOL    HW130518   4.625   3.377   6.062  2.3751 -0.5202 -0.7785
 6294SOL    HW230519   4.555   3.452   6.171  0.2873 -0.4500  1.3683
 6295SOL     OW30520   4.322   3.169   8.202  0.3308 -0.9358  0.2829
 6295SOL    HW130521   4.289   3.108   8.136 -0.8859 -1.8381  1.7215
 6295SOL    HW230522   4.370   3.229   8.144 -2.3735 -0.5412 -1.5541
 6296SOL     OW30523   3.892   1.242   0.457  0.1847 -0.5708 -0.0042
 6296SOL    HW130524   3.865   1.332   0.473 -0.3780 -0.3551 -2.1741
 6296SOL    HW230525   3.922   1.202   0.539 -0.8524 -0.5951  0.3563
 6297SOL     OW30526   3.230   2.499   3.660  0.6952  0.4160 -0.1312
 6297SOL    HW130527   3.312   2.456   3.638 -0.0914 -0.6449 -0.9781
 6297SOL    HW230528   3.180   2.420   3.679  1.5762 -0.2385 -0.5443
 6298SOL     OW30529   0.314   2.371  12.283  0.4635 -0.1398  0.0035
 6298SOL    HW130530   0.357   2.435  12.226 -2.3018  0.8121 -0.9734
 6298SOL    HW230531   0.314   2.291  12.230  2.6546  0.2049 -0.5644
 6299SOL     OW30532   3.999   3.569   7.194  0.6336 -0.2609 -0.1492
 6299SOL    HW130533   4.027   3.480   7.215 -2.3896  0.0452  5.2176
 6299SOL    HW230534   3.908   3.577   7.221  0.0982  0.8264 -2.3060
 6300SOL     OW30535   0.404   0.642   2.321 -0.1535  0.4773 -0.0474
 6300SOL    HW130536   0.430   0.633   2.229  2.7183  0.9824  0.7156
 6300SOL    HW230537   0.391   0.737   2.320 -0.5362  0.4207 -0.9465
 6301SOL     OW30538   4.254   3.356  11.383 -0.4002  0.0734  0.2963
 6301SOL    HW130539   4.244   3.432  11.440  0.6678  1.5439 -1.4931
 6301SOL    HW230540   4.283   3.402  11.304 -1.6594  0.9816  0.3619
 6302SOL     OW30541   2.229   1.886   2.343 -0.1444 -0.1685 -0.1852
 6302SOL    HW130542   2.308   1.940   2.349  0.2905 -0.4312 -3.2415
 6302SOL    HW230543   2.192   1.894   2.431 -1.3199 -2.6779 -0.4544
 6303SOL     OW30544   2.339   0.399   4.169 -0.4476  0.0515 -0.4175
 6303SOL    HW130545   2.323   0.419   4.077 -0.4333  0.6258 -0.2969
 6303SOL    HW230546   2.350   0.483   4.214  0.6315  0.3346 -1.1966
 6304SOL     OW30547   0.081   0.758  16.374 -0.5051  0.0629  0.1289
 6304SOL    HW130548   0.157   0.773  16.318 -0.1707  0.7264  0.7683
 6304SOL    HW230549   0.042   0.845  16.363 -0.4546  0.0466 -0.1703
 6305SOL     OW30550   1.707   3.688   0.369  0.0413 -0.1953 -0.5484
 6305SOL    HW130551   1.716   3.627   0.295  1.5093 -0.7621  0.1046
 6305SOL    HW230552   1.740   3.773   0.341  1.4520 -0.7428 -0.5202
 6306SOL     OW30553   1.012   3.651   9.092 -0.0580 -0.4589  0.4659
 6306SOL    HW130554   0.985   3.675   9.004  1.5487 -2.0071 -0.4440
 6306SOL    HW230555   1.048   3.563   9.080  0.6037  0.0213 -0.9551
 6307SOL     OW30556   2.725   4.487  10.275 -0.0460  0.2611  0.7909
 6307SOL    HW130557   2.649   4.462  10.222  1.8955 -3.3384 -0.2278
 6307SOL    HW230558   2.701   4.471  10.366 -0.2305  1.5191  0.9737
 6308SOL     OW30559   4.192   4.006  14.538  0.0937  0.0624  0.1385
 6308SOL    HW130560   4.106   4.046  14.553  0.3505  0.2206  1.1432
 6308SOL    HW230561   4.206   3.939  14.604  3.0732  0.9146  0.3623
 6309SOL     OW30562   1.731   3.654   1.513  0.0886  0.4124  0.3630
 6309SOL    HW130563   1.673   3.579   1.498  0.5005 -0.4420  2.9862
 6309SOL    HW230564   1.711   3.673   1.605  2.8585  0.8369  0.8624
 6310SOL     OW30565   1.192   0.013  14.119  0.3207  0.0066  0.8035
 6310SOL    HW130566   1.234   0.073  14.058  0.2002  2.2894  3.0211
 6310SOL    HW230567   1.180   4.669  14.075 -0.9363  1.4865 -1.7312
 6311SOL     OW30568   3.859   0.834   6.834  0.1486  0.0443 -0.5405
 6311SOL    HW130569   3.940   0.810   6.879 -0.5365  1.3006  1.3549
 6311SOL    HW230570   3.845   0.924   6.862  0.0598 -0.8591  2.3793
 6312SOL     OW30571   0.466   1.108   1.227  0.4493 -0.4633 -0.1243
 6312SOL    HW130572   0.484   1.045   1.297 -1.7609  1.3252  2.0367
 6312SOL    HW230573   0.503   1.187   1.266  1.4234  0.0290 -2.0491
 6313SOL     OW30574   1.549   4.328   2.850 -0.0421  0.4502 -0.4173
 6313SOL    HW130575   1.631   4.322   2.898 -1.0640 -0.6570  1.1728
 6313SOL    HW230576   1.554   4.420   2.824  1.1062  0.0294 -1.6917
 6314SOL     OW30577   0.476   1.540   2.326 -0.2891  0.1611  0.7361
 6314SOL    HW130578   0.389   1.569   2.298 -1.5946 -2.9111  1.5621
 6314SOL    HW230579   0.519   1.500   2.249  0.3357  0.3560  0.9896
 6315SOL     OW30580   4.507   1.188   6.919  1.3583 -0.7175  0.0935
 6315SOL    HW130581   4.558   1.158   6.844 -1.8843 -0.8314 -2.0889
 6315SOL    HW230582   4.447   1.249   6.875 -0.1081 -1.3203  1.2694
 6316SOL     OW30583   3.316   2.538   9.498  0.4254  0.2275  0.0281
 6316SOL    HW130584   3.381   2.562   9.432  1.4310 -2.1615  0.1777
 6316SOL    HW230585   3.275   2.624   9.509  1.5702  0.7873 -0.1297
 6317SOL     OW30586   3.922   4.628   2.824  0.1846  0.1029 -0.2984
 6317SOL    HW130587   4.000   4.595   2.869  0.5407  1.6461  0.1984
 6317SOL    HW230588   3.919   4.721   2.843  0.0049 -0.4895  2.5206
 6318SOL     OW30589   2.620   3.366   7.951  0.5269 -0.2538 -0.4731
 6318SOL    HW130590   2.559   3.354   7.878  0.2644  4.5555 -1.0642
 6318SOL    HW230591   2.700   3.332   7.912 -0.8412 -0.3828 -3.1885
 6319SOL     OW30592   4.505   3.961   0.787  0.2962  0.2752  0.4114
 6319SOL    HW130593   4.527   3.935   0.698  1.6349  1.6029  0.3408
 6319SOL    HW230594   4.591   3.961   0.829 -0.6966  0.8071  2.4795
 6320SOL     OW30595   3.713   0.664   7.566 -0.5403  0.0809 -0.3720
 6320SOL    HW130596   3.805   0.688   7.558 -0.0712 -1.8621 -0.6573
 6320SOL    HW230597   3.684   0.688   7.477  1.0282 -0.1076 -0.9226
 6321SOL     OW30598   1.061   0.651   7.346 -0.3019  0.7001  0.0388
 6321SOL    HW130599   1.044   0.657   7.252 -0.3310  0.6239  0.0396
 6321SOL    HW230600   1.071   0.557   7.361  2.4203  0.9652 -0.1295
 6322SOL     OW30601   1.806   4.466   3.654  0.1543  0.0547 -0.2202
 6322SOL    HW130602   1.742   4.533   3.629  2.4631  2.3436 -0.0931
 6322SOL    HW230603   1.780   4.443   3.743  2.0242  1.5312  0.7192
 6323SOL     OW30604   2.363   0.482  13.308  0.5214 -0.0559  0.2977
 6323SOL    HW130605   2.411   0.539  13.248  2.7472  0.0632  2.2249
 6323SOL    HW230606   2.306   0.533  13.366 -0.7052 -3.1393  1.8294
 6324SOL     OW30607   3.554   2.966   9.372 -0.3230 -0.5308 -0.4323
 6324SOL    HW130608   3.461   2.980   9.351 -0.6828 -1.8258  0.2491
 6324SOL    HW230609   3.579   3.058   9.362  0.2658 -0.6562 -0.1024
 6325SOL     OW30610   3.126   0.294   6.555 -0.2441 -0.0216 -0.3294
 6325SOL    HW130611   3.033   0.285   6.538  0.0445 -1.5395 -1.0489
 6325SOL    HW230612   3.147   0.201   6.555  1.3274  0.3436 -2.3322
 6326SOL     OW30613   2.762   0.092  11.881 -0.7660  0.0043  0.9607
 6326SOL    HW130614   2.685   0.050  11.842 -0.8564  0.8235  0.2280
 6326SOL    HW230615   2.831   0.031  11.855 -1.1502  0.1751 -0.4821
 6327SOL     OW30616   0.125   3.795   4.547 -0.2908  0.1610  0.0934
 6327SOL    HW130617   0.080   3.868   4.505 -1.9354 -2.5834 -2.9216
 6327SOL    HW230618   0.156   3.842   4.625  0.9555 -1.5112  0.6075
 6328SOL     OW30619   3.922   4.262   0.634 -0.2197  0.1527 -0.3311
 6328SOL    HW130620   3.875   4.221   0.706  1.1507 -1.0398 -0.1149
 6328SOL    HW230621   3.909   4.355   0.652 -2.6556 -0.2208 -0.1803
 6329SOL     OW30622   3.282   3.982   4.771  0.2944 -1.0541  0.6119
 6329SOL    HW130623   3.363   3.995   4.722  0.4022 -1.8643  0.5627
 6329SOL    HW230624   3.292   4.052   4.835 -3.1294  0.0067 -0.0213
 6330SOL     OW30625   3.137   0.246   4.454 -0.1869 -0.2796 -0.1943
 6330SOL    HW130626   3.081   0.317   4.486 -0.9371 -1.0390  0.1850
 6330SOL    HW230627   3.174   0.218   4.537  1.6590 -0.4733 -1.0913
 6331SOL     OW30628   4.605   2.199   3.464  0.3964 -0.9744  0.1297
 6331SOL    HW130629   4.588   2.150   3.384  0.9210 -0.4100 -0.3253
 6331SOL    HW230630   4.620   2.288   3.433  1.5121 -1.4650 -0.6894
 6332SOL     OW30631   1.382   3.311  12.624 -0.0099  0.6264  0.5725
 6332SOL    HW130632   1.439   3.323  12.700 -0.5905 -0.5177  1.1930
 6332SOL    HW230633   1.338   3.396  12.620 -2.4170 -0.6407  0.0652
 6333SOL     OW30634   2.010   0.347   2.998  0.2974 -0.2979  0.4650
 6333SOL    HW130635   2.000   0.275   3.061 -1.4150 -1.0550 -0.6712
 6333SOL    HW230636   1.915   0.360   2.994 -0.0111 -2.3022  1.1697
 6334SOL     OW30637   4.529   0.880   2.038 -0.5416  0.2975  0.1813
 6334SOL    HW130638   4.458   0.833   1.994  3.0004 -3.6152 -1.3645
 6334SOL    HW230639   4.491   0.922   2.115  1.6092 -0.9521  1.9368
 6335SOL     OW30640   0.696   1.423   2.875  0.0772  0.3269  0.0376
 6335SOL    HW130641   0.742   1.372   2.809 -2.6956  0.0177 -1.6397
 6335SOL    HW230642   0.765   1.454   2.935 -1.6375  0.0879  2.1148
 6336SOL     OW30643   0.288   3.948   8.332 -0.2912  0.2774 -0.0935
 6336SOL    HW130644   0.327   3.903   8.407  0.1045  0.1147 -0.3958
 6336SOL    HW230645   0.211   3.985   8.373  1.2571  3.1951  0.1587
 6337SOL     OW30646   2.899   4.503   7.074 -0.0283  0.0569 -0.1398
 6337SOL    HW130647   2.962   4.515   7.146  0.7324  1.0363 -0.9735
 6337SOL    HW230648   2.890   4.408   7.069 -2.0434  0.2541 -0.1336
 6338SOL     OW30649   0.784   2.837   0.766  0.0414  0.3913 -0.2898
 6338SOL    HW130650   0.813   2.803   0.681  0.8460  0.6139 -0.0992
 6338SOL    HW230651   0.865   2.882   0.787 -0.4081  1.0926 -0.0618
 6339SOL     OW30652   4.205   3.751   8.685  0.1504 -0.4468 -0.1764
 6339SOL    HW130653   4.228   3.658   8.676 -2.0915 -1.1171  1.0441
 6339SOL    HW230654   4.287   3.793   8.658  0.1998 -0.0316  0.6216
 6340SOL     OW30655   3.367   0.635   7.363  0.3819 -0.0857 -0.3881
 6340SOL    HW130656   3.318   0.718   7.370 -0.8202 -1.0671  3.1591
 6340SOL    HW230657   3.310   0.565   7.394  0.0549  0.8157  1.0577
 6341SOL     OW30658   3.504   2.423   2.315 -0.0154 -0.1763 -0.4078
 6341SOL    HW130659   3.561   2.359   2.273  1.6102  0.1035  1.3576
 6341SOL    HW230660   3.563   2.499   2.313  1.0229 -0.9237  1.6644
 6342SOL     OW30661   2.684   0.919   5.717 -0.1864 -0.0252 -0.0652
 6342SOL    HW130662   2.666   1.009   5.689  0.6514  0.0009 -0.5205
 6342SOL    HW230663   2.723   0.931   5.803  1.5425 -1.1618 -0.6884
 6343SOL     OW30664   2.374   3.276   5.196 -0.1690  0.2536  0.4549
 6343SOL    HW130665   2.283   3.290   5.224 -0.2006 -2.0203  1.4536
 6343SOL    HW230666   2.388   3.365   5.164 -0.6795  1.3318  3.2286
 6344SOL     OW30667   0.226   0.085  11.189 -0.7071  0.1530  0.3433
 6344SOL    HW130668   0.164   0.022  11.151  2.0726 -1.7103 -1.0735
 6344SOL    HW230669   0.188   0.095  11.276 -0.3898 -1.1834  0.6427
 6345SOL     OW30670   0.732   0.362  11.664 -0.0342 -0.5253  0.4958
 6345SOL    HW130671   0.797   0.396  11.602 -1.3676  2.1120  0.5266
 6345SOL    HW230672   0.649   0.395  11.628  1.5437  1.0197 -1.7484
 6346SOL     OW30673   3.241   0.707   7.656 -0.2142  0.1424  0.8876
 6346SOL    HW130674   3.272   0.762   7.584  1.0241 -0.4227  1.0034
 6346SOL    HW230675   3.146   0.710   7.643 -0.3792 -0.0639  2.0914
 6347SOL     OW30676   4.100   2.616   9.097  0.2883 -0.0830 -0.7842
 6347SOL    HW130677   4.025   2.558   9.082  0.1893 -0.1472 -0.0492
 6347SOL    HW230678   4.101   2.647   9.187  0.5640 -1.3634 -0.3432
 6348SOL     OW30679   3.019   1.378   3.375 -0.1314 -0.4049 -0.0160
 6348SOL    HW130680   3.057   1.453   3.329 -1.0189 -0.5451 -0.9624
 6348SOL    HW230681   2.974   1.325   3.309 -0.8512  0.6277 -0.3546
 6349SOL     OW30682   2.150   4.302  15.050  0.1381 -0.0173  0.2944
 6349SOL    HW130683   2.204   4.355  14.991  0.7236 -0.5012  0.3892
 6349SOL    HW230684   2.216   4.245  15.089 -1.6815 -0.6387  2.4651
 6350SOL     OW30685   1.651   4.637   6.161  0.4276 -0.7764  0.0358
 6350SOL    HW130686   1.688   4.725   6.155 -1.0501  0.1523  4.2052
 6350SOL    HW230687   1.625   4.625   6.070 -1.9559  3.2370  0.1843
 6351SOL     OW30688   3.084   1.170   3.894 -0.5645 -0.0126 -0.1370
 6351SOL    HW130689   3.009   1.201   3.843 -1.2448  0.0062  0.8728
 6351SOL    HW230690   3.041   1.121   3.964  0.3853  0.0933  0.5252
 6352SOL     OW30691   3.165   4.448   4.546 -0.1034 -0.2516  0.1080
 6352SOL    HW130692   3.146   4.356   4.566 -3.1552 -0.0844 -1.9272
 6352SOL    HW230693   3.206   4.443   4.460  0.0302 -0.7380  0.2037
 6353SOL     OW30694   1.109   2.993   4.508  0.1037  0.1040  0.3904
 6353SOL    HW130695   1.034   3.005   4.449  0.9213 -1.3399 -0.9664
 6353SOL    HW230696   1.074   3.041   4.583 -2.4262 -1.6285  0.3578
 6354SOL     OW30697   4.403   3.078   1.252 -0.0917 -0.2934  0.2388
 6354SOL    HW130698   4.311   3.095   1.233  0.4689 -0.3290 -2.4761
 6354SOL    HW230699   4.427   3.148   1.313  0.5524 -0.7317  0.4950
 6355SOL     OW30700   4.542   2.871   4.414  0.3058  0.2248 -0.4162
 6355SOL    HW130701   4.552   2.797   4.354 -1.6155 -0.2100 -0.2209
 6355SOL    HW230702   4.630   2.862   4.451 -1.0266 -0.4921  2.6117
 6356SOL     OW30703   3.288   1.138  12.004 -0.0541 -0.3581  0.3927
 6356SOL    HW130704   3.252   1.183  12.080 -2.7266  1.1049 -1.7613
 6356SOL    HW230705   3.245   1.053  11.996 -3.6722  1.4872  0.6708
 6357SOL     OW30706   0.143   3.704   0.796  0.0723 -0.4240 -0.1349
 6357SOL    HW130707   0.227   3.749   0.804 -0.4390  0.6949 -1.1498
 6357SOL    HW230708   0.160   3.623   0.845 -2.1214 -1.2407 -0.7214
 6358SOL     OW30709   4.236   2.844  11.187 -0.5823 -0.0344  0.0294
 6358SOL    HW130710   4.280   2.800  11.115 -1.1127  0.3256 -0.5091
 6358SOL    HW230711   4.245   2.937  11.168 -0.7044 -0.3177 -1.3622
 6359SOL     OW30712   2.985   0.549   5.487 -0.2378  0.6735  0.5331
 6359SOL    HW130713   2.915   0.601   5.526  1.4455  3.5291 -0.3229
 6359SOL    HW230714   2.932   0.474   5.459 -0.3683  0.0514  2.4578
 6360SOL     OW30715   0.565   4.627   4.451 -0.3265 -0.1303  0.0869
 6360SOL    HW130716   0.517   4.680   4.387 -0.5896  1.2863  1.4715
 6360SOL    HW230717   0.624   4.575   4.396  0.3912 -1.5622  2.2283
 6361SOL     OW30718   1.452   1.744  16.303 -0.2924 -0.1373 -0.2588
 6361SOL    HW130719   1.543   1.731  16.277 -0.4370  0.2910 -0.9803
 6361SOL    HW230720   1.469   1.775  16.392 -0.8615 -0.9447  0.1351
 6362SOL     OW30721   0.404   1.267   5.744 -0.0214 -0.0049 -0.1544
 6362SOL    HW130722   0.332   1.328   5.758 -1.1877 -0.9096 -2.1879
 6362SOL    HW230723   0.371   1.194   5.796  1.3406  0.7419  1.7563
 6363SOL     OW30724   0.759   2.247   6.277 -0.4930 -0.4033  0.5534
 6363SOL    HW130725   0.784   2.339   6.288 -0.4683 -0.4260  0.6797
 6363SOL    HW230726   0.664   2.245   6.261 -0.4716 -0.3528  0.4103
 6364SOL     OW30727   0.864   1.474   6.985  0.4916 -0.0944  0.0144
 6364SOL    HW130728   0.801   1.430   7.042  0.1777 -1.8299 -1.6981
 6364SOL    HW230729   0.814   1.548   6.950 -0.2618 -0.8374 -0.4802
 6365SOL     OW30730   3.521   3.236   5.197 -0.1293 -0.1243 -0.6824
 6365SOL    HW130731   3.605   3.189   5.198 -0.0758 -0.0107  1.2765
 6365SOL    HW230732   3.458   3.166   5.212 -0.4742 -0.1613 -2.3469
 6366SOL     OW30733   2.887   0.713   6.088 -0.0654 -0.0355 -0.1206
 6366SOL    HW130734   2.966   0.710   6.034 -0.0125  1.0556 -0.0972
 6366SOL    HW230735   2.905   0.774   6.159  0.7657 -0.6704  0.2268
 6367SOL     OW30736   4.724   1.323   5.643 -0.0468  0.5704  0.3968
 6367SOL    HW130737   4.656   1.389   5.660 -0.2201  0.3125  0.7122
 6367SOL    HW230738   4.683   1.245   5.606  2.2641 -0.5560  0.2275
 6368SOL     OW30739   4.336   0.460   7.078  0.0155  0.2493  0.1428
 6368SOL    HW130740   4.414   0.514   7.092  0.2627  0.0457 -0.4550
 6368SOL    HW230741   4.390   0.394   7.034 -0.2109  0.3326 -0.2541
 6369SOL     OW30742   0.892   0.124   5.803 -0.1754 -0.5106 -0.2612
 6369SOL    HW130743   0.822   0.059   5.791  1.4061 -2.3446  0.4142
 6369SOL    HW230744   0.850   0.196   5.851 -0.6366 -0.8053 -0.2173
 6370SOL     OW30745   2.552   3.433   0.898 -0.0793 -0.4782 -0.1616
 6370SOL    HW130746   2.483   3.367   0.899  1.3584 -1.9710  0.8228
 6370SOL    HW230747   2.520   3.500   0.958  0.0756  1.6616 -2.4981
 6371SOL     OW30748   0.138   3.602   3.464  0.1586  0.1640  0.0682
 6371SOL    HW130749   0.117   3.511   3.441 -1.0099  0.6350 -0.7187
 6371SOL    HW230750   0.091   3.616   3.547 -0.5909  1.8449 -0.6384
 6372SOL     OW30751   0.924   0.789  10.014 -0.0118 -0.2275  0.3251
 6372SOL    HW130752   0.888   0.720   9.958  0.6325  0.3063 -0.7256
 6372SOL    HW230753   0.972   0.839   9.949 -1.0858  0.3370 -0.0355
 6373SOL     OW30754   3.464   1.450  14.876 -0.4347 -0.1339  0.3296
 6373SOL    HW130755   3.454   1.365  14.834 -1.4801  0.1015  0.0950
 6373SOL    HW230756   3.520   1.426  14.950 -0.8336  0.4456  0.8212
 6374SOL     OW30757   3.268   0.073   3.321 -0.0685 -0.0448 -0.0863
 6374SOL    HW130758   3.218   0.067   3.239 -0.6870 -1.4269  0.3853
 6374SOL    HW230759   3.359   0.076   3.292 -0.2400  3.7331 -0.2367
 6375SOL     OW30760   0.824   4.303   0.956 -0.0043  0.2579 -0.0071
 6375SOL    HW130761   0.859   4.258   0.880  1.6359 -0.8436  1.3978
 6375SOL    HW230762   0.884   4.279   1.027  0.7562 -1.8850 -1.3885
 6376SOL     OW30763   0.915   0.717   5.333  0.2397 -0.8318 -0.1912
 6376SOL    HW130764   0.852   0.777   5.294 -0.9364 -0.4009  2.3307
 6376SOL    HW230765   0.977   0.779   5.372 -1.1266 -0.4243  1.3280
 6377SOL     OW30766   1.328   4.517  14.638  0.2996  0.2912 -0.5412
 6377SOL    HW130767   1.392   4.472  14.693  1.9926 -0.5173 -3.1783
 6377SOL    HW230768   1.260   4.450  14.628  0.0861  0.4534 -0.1402
 6378SOL     OW30769   3.035   3.903   8.265  0.0583  0.0701  0.9553
 6378SOL    HW130770   2.956   3.849   8.267 -0.1364  0.2909 -1.1052
 6378SOL    HW230771   3.104   3.842   8.291  3.0117  1.9983 -2.4637
 6379SOL     OW30772   0.837   3.596   4.530 -0.1357  0.0603  0.4947
 6379SOL    HW130773   0.842   3.682   4.487  1.7087 -0.8841 -1.1880
 6379SOL    HW230774   0.890   3.541   4.472 -2.2390  0.2666 -1.6299
 6380SOL     OW30775   1.046   3.305   2.409 -0.1436 -0.1652 -0.3263
 6380SOL    HW130776   1.005   3.380   2.451 -0.0285 -0.8631  1.0259
 6380SOL    HW230777   0.985   3.235   2.432 -0.7986 -0.2102 -2.1492
 6381SOL     OW30778   4.564   3.066   6.032  0.2143  0.3396  0.2278
 6381SOL    HW130779   4.478   3.075   6.074 -0.7008 -2.0087 -1.1940
 6381SOL    HW230780   4.598   3.006   6.098 -0.4038  0.3226  0.5376
 6382SOL     OW30781   3.276   2.747  15.973 -0.2438  0.7297 -0.3723
 6382SOL    HW130782   3.333   2.669  15.968 -2.7836 -1.2670  1.6996
 6382SOL    HW230783   3.188   2.715  15.956  0.6719 -0.8557 -2.0986
 6383SOL     OW30784   3.628   0.126   1.587 -0.5298  0.1668  0.1354
 6383SOL    HW130785   3.555   0.068   1.610 -1.3638  1.3134  0.3646
 6383SOL    HW230786   3.661   0.156   1.672 -0.2705 -2.4601  0.9894
 6384SOL     OW30787   4.004   2.993  11.546  0.1277  0.5477 -0.3786
 6384SOL    HW130788   4.093   3.019  11.572  0.6750  0.0748 -1.7665
 6384SOL    HW230789   4.009   3.034  11.460  0.0409  0.6527 -0.3336
 6385SOL     OW30790   1.201   2.330   5.312  0.5549 -0.1072 -0.1574
 6385SOL    HW130791   1.158   2.412   5.287  0.1084 -0.5708 -0.9039
 6385SOL    HW230792   1.257   2.368   5.379 -0.5810  3.1397 -1.0213
 6386SOL     OW30793   2.835   3.088   6.354  0.6390  0.3584 -0.8051
 6386SOL    HW130794   2.843   2.996   6.328  1.5365 -0.0994  1.1151
 6386SOL    HW230795   2.752   3.085   6.402  1.1902 -0.8961  0.0762
 6387SOL     OW30796   1.700   2.325   3.481  0.2174  0.9780 -0.2805
 6387SOL    HW130797   1.645   2.398   3.509 -0.8777  0.2578 -0.5569
 6387SOL    HW230798   1.723   2.278   3.561  1.1385  1.0413 -0.5106
 6388SOL     OW30799   0.306   3.497   8.353 -0.1476  0.1381  0.0613
 6388SOL    HW130800   0.259   3.425   8.395 -1.5509  0.0271 -1.7155
 6388SOL    HW230801   0.238   3.557   8.323 -0.6814  0.5364  2.0669
 6389SOL     OW30802   3.319   4.646  14.405  0.3132  0.1840  0.1953
 6389SOL    HW130803   3.283   4.691  14.481 -1.4050 -0.3131 -0.3401
 6389SOL    HW230804   3.326   4.556  14.437 -1.9711  0.1870  0.7044
 6390SOL     OW30805   1.211   2.209   3.913  0.1589 -0.4894  0.3366
 6390SOL    HW130806   1.118   2.206   3.892  0.6760 -3.0060 -1.6625
 6390SOL    HW230807   1.227   2.301   3.892  2.3115 -0.6113  1.4503
 6391SOL     OW30808   1.822   3.923   2.552 -0.2583 -0.2916 -0.3056
 6391SOL    HW130809   1.910   3.934   2.515  1.0882  2.8375  3.8248
 6391SOL    HW230810   1.824   3.981   2.628 -2.7715  0.7287 -0.9963
 6392SOL     OW30811   4.286   1.870   7.363  0.1121  0.1836  0.4922
 6392SOL    HW130812   4.226   1.943   7.346  1.1105  0.6092 -1.1589
 6392SOL    HW230813   4.358   1.890   7.304 -1.0588 -0.0645 -1.0375
 6393SOL     OW30814   4.006   2.153   3.717  0.1110 -0.5986 -0.2758
 6393SOL    HW130815   3.944   2.226   3.717 -0.9123 -1.4778  0.7928
 6393SOL    HW230816   3.951   2.083   3.683 -0.0802 -1.2201  1.3240
 6394SOL     OW30817   0.438   0.218   7.999 -0.7617 -0.0923 -0.2034
 6394SOL    HW130818   0.427   0.192   8.091  1.2307  0.5451  0.2065
 6394SOL    HW230819   0.352   0.251   7.972  0.1989  1.6458 -1.0962
 6395SOL     OW30820   1.093   0.075   7.199 -0.0931 -0.2317  0.3896
 6395SOL    HW130821   1.019   0.013   7.197  0.4104 -0.7919 -0.9153
 6395SOL    HW230822   1.130   0.058   7.112  1.1563  1.3374  0.6266
 6396SOL     OW30823   2.321   0.107   3.786  0.0193  0.0868 -0.3847
 6396SOL    HW130824   2.319   0.061   3.871 -2.3378  1.1398  0.1279
 6396SOL    HW230825   2.346   0.197   3.809 -0.5279  0.2102 -0.2597
 6397SOL     OW30826   1.997   4.030  15.720  0.2828  0.1923 -0.4775
 6397SOL    HW130827   1.957   4.037  15.807  0.1541  2.8123 -0.7223
 6397SOL    HW230828   2.068   4.095  15.719  0.3689  0.0658 -1.9095
 6398SOL     OW30829   1.096   1.233  11.466 -0.2032  0.8744  0.2189
 6398SOL    HW130830   1.133   1.206  11.382 -1.1213 -1.8358  0.6759
 6398SOL    HW230831   1.017   1.283  11.446 -0.8132 -0.2974 -0.2955
 6399SOL     OW30832   0.352   2.054   7.261 -0.1024 -0.1642  0.2705
 6399SOL    HW130833   0.432   2.011   7.231  0.0682 -0.2513  0.8484
 6399SOL    HW230834   0.315   2.076   7.176  2.1656 -0.6217 -0.8432
 6400SOL     OW30835   0.782   1.296   9.138 -0.5253  0.2251 -0.6847
 6400SOL    HW130836   0.742   1.213   9.163  0.3324  0.3122  0.9858
 6400SOL    HW230837   0.820   1.277   9.052  1.0110 -0.5186  0.1517
 6401SOL     OW30838   1.427   2.407   4.966  0.6311  0.6231 -0.0548
 6401SOL    HW130839   1.361   2.467   4.932  1.2197  2.0843  1.3412
 6401SOL    HW230840   1.418   2.338   4.901  2.0083  0.5490 -0.1715
 6402SOL     OW30841   4.640   0.272   1.657  0.1332  0.3442  0.2400
 6402SOL    HW130842   4.670   0.243   1.571  0.4046  0.8598  0.1576
 6402SOL    HW230843   4.727   0.299   1.689  0.2461  1.7695 -1.2741
 6403SOL     OW30844   0.264   2.161   5.351 -0.1182 -0.6870 -0.9587
 6403SOL    HW130845   0.323   2.236   5.348 -1.4504  0.3708 -0.4251
 6403SOL    HW230846   0.181   2.206   5.336 -0.3029 -0.6830  0.0997
 6404SOL     OW30847   0.322   3.245   6.980 -0.7160 -0.3950  0.4785
 6404SOL    HW130848   0.399   3.190   6.965 -0.9871 -0.1462 -1.7187
 6404SOL    HW230849   0.244   3.190   6.979  0.6338 -2.2852 -0.5597
 6405SOL     OW30850   4.080   1.470   4.704 -0.9613  0.0247  0.0285
 6405SOL    HW130851   3.993   1.431   4.703 -0.5019 -1.0283  1.1285
 6405SOL    HW230852   4.067   1.553   4.657 -2.5759  0.9798  2.1476
 6406SOL     OW30853   4.216   0.409   1.305  0.2942 -0.3350  0.1424
 6406SOL    HW130854   4.218   0.452   1.390  1.5663  1.9011 -1.0191
 6406SOL    HW230855   4.189   0.478   1.245  2.5438  0.8623  0.5134
 6407SOL     OW30856   2.192   4.213  15.636  0.4987  0.0026  1.3642
 6407SOL    HW130857   2.243   4.224  15.716 -0.4499  1.4304  1.7633
 6407SOL    HW230858   2.140   4.292  15.645  1.6314  0.9210 -0.1240
 6408SOL     OW30859   0.921   1.355   3.450  0.4468 -0.2948 -0.6444
 6408SOL    HW130860   0.894   1.354   3.359 -1.3131  0.9995 -0.1386
 6408SOL    HW230861   0.866   1.291   3.496  2.7954 -1.5121  0.5368
 6409SOL     OW30862   2.824   2.048  16.542 -0.3927  0.3144 -0.8521
 6409SOL    HW130863   2.918   2.058  16.526 -0.3514 -0.0097 -0.8063
 6409SOL    HW230864   2.799   2.141  16.537 -1.2700  0.0606 -1.1140
 6410SOL     OW30865   1.255   1.165  10.987 -0.1039  0.2151 -0.0134
 6410SOL    HW130866   1.283   1.128  10.903 -0.1898  2.5177 -1.0763
 6410SOL    HW230867   1.191   1.099  11.014 -0.5523  1.3724  1.7545
 6411SOL     OW30868   4.266   0.820   7.158  0.0275 -0.0257  0.0218
 6411SOL    HW130869   4.187   0.797   7.207 -1.0720  0.7869 -1.3821
 6411SOL    HW230870   4.228   0.823   7.070  1.0773  0.6779 -0.4071
 6412SOL     OW30871   1.955   4.036   7.031 -0.0685  0.2178 -0.1379
 6412SOL    HW130872   1.934   4.064   6.942  0.8494  0.3896 -0.3000
 6412SOL    HW230873   2.006   3.956   7.027  0.9096  0.7110  2.6154
 6413SOL     OW30874   4.585   3.866   4.103 -0.5276  0.7563 -0.0280
 6413SOL    HW130875   4.582   3.956   4.136  2.5365  1.0512 -0.5592
 6413SOL    HW230876   4.596   3.808   4.178 -0.6572  1.9931  0.9286
 6414SOL     OW30877   0.083   4.702   1.808 -0.0548 -0.2490 -0.3444
 6414SOL    HW130878   0.047   4.704   1.719  0.7443  1.2660 -0.6470
 6414SOL    HW230879   0.030   0.017   1.864  0.2049 -1.8857  1.5149
 6415SOL     OW30880   1.988   3.802   7.799 -0.1356  0.2828  0.5653
 6415SOL    HW130881   1.908   3.807   7.850 -1.6701  0.3245 -1.8693
 6415SOL    HW230882   1.991   3.710   7.772  2.8363 -0.2427  2.6418
 6416SOL     OW30883   0.927   3.520   9.663 -0.4003  0.1383  0.3835
 6416SOL    HW130884   0.865   3.585   9.698  0.1701  0.6611  0.4335
 6416SOL    HW230885   0.866   3.447   9.652  1.6347 -1.5160  0.0574
 6417SOL     OW30886   0.811   2.776  13.271 -0.1094 -0.2007  0.1672
 6417SOL    HW130887   0.855   2.692  13.255  1.2099  0.2433  1.5177
 6417SOL    HW230888   0.726   2.758  13.229 -0.8809  0.0582  1.6282
 6418SOL     OW30889   3.023   2.332   6.306 -0.0085 -0.1467  0.0870
 6418SOL    HW130890   3.041   2.292   6.391  0.3645  0.9404  0.5169
 6418SOL    HW230891   3.087   2.285   6.252  1.1293  1.7285 -0.2193
 6419SOL     OW30892   2.856   4.318   5.940 -0.3409 -0.5899  0.1408
 6419SOL    HW130893   2.949   4.338   5.944 -0.4936  0.4234 -1.1200
 6419SOL    HW230894   2.822   4.388   5.995  1.8938  0.4364  0.2030
 6420SOL     OW30895   1.254   1.670   1.494 -0.9072 -0.5226 -0.5727
 6420SOL    HW130896   1.297   1.587   1.474  1.4138  0.5136  0.0709
 6420SOL    HW230897   1.256   1.666   1.590  0.5402  0.0023 -0.5682
 6421SOL     OW30898   0.611   2.577   6.005 -0.0349 -0.5742 -0.1749
 6421SOL    HW130899   0.677   2.515   5.974 -0.4804 -1.8255  1.4280
 6421SOL    HW230900   0.532   2.535   5.972 -0.3097  0.2262 -0.5409
 6422SOL     OW30901   4.041   3.087   3.358  0.1523 -0.6125  0.7610
 6422SOL    HW130902   4.062   3.164   3.411  1.0035  0.3324 -0.9617
 6422SOL    HW230903   4.020   3.140   3.282 -1.3648 -0.8342  1.0383
 6423SOL     OW30904   1.880   2.017  10.778 -0.0164 -0.2753 -0.0174
 6423SOL    HW130905   1.964   1.988  10.814 -0.0568  1.2935  1.3365
 6423SOL    HW230906   1.906   2.020  10.686  1.1950  1.0972  0.3663
 6424SOL     OW30907   0.157   1.481   9.458 -0.2034 -0.2439  1.1959
 6424SOL    HW130908   0.217   1.505   9.530  1.8288 -0.1427 -0.5299
 6424SOL    HW230909   0.182   1.390   9.447 -0.6059 -0.1649 -0.3219
 6425SOL     OW30910   1.352   3.060   5.533 -0.0073  0.3287  0.3155
 6425SOL    HW130911   1.442   3.032   5.521 -0.7397 -2.1802  0.7373
 6425SOL    HW230912   1.357   3.130   5.468 -0.1885 -0.3230 -0.3947
 6426SOL     OW30913   4.524   2.078   0.961 -0.0146 -0.3025  0.2826
 6426SOL    HW130914   4.619   2.088   0.954 -0.0381 -1.3917 -1.6234
 6426SOL    HW230915   4.496   2.169   0.952 -0.4356 -0.4114  0.5008
 6427SOL     OW30916   3.901   1.123   5.913 -0.4532  0.3633  0.2591
 6427SOL    HW130917   3.855   1.114   5.997  0.3348  0.0570  0.6504
 6427SOL    HW230918   3.976   1.177   5.938 -0.2170 -0.6723  1.7632
 6428SOL     OW30919   1.399   3.050   4.617  0.1387  0.3545  0.3129
 6428SOL    HW130920   1.450   3.131   4.613 -0.6923  0.9123  0.7516
 6428SOL    HW230921   1.312   3.085   4.639 -0.0799 -0.0358  0.0729
 6429SOL     OW30922   0.842   3.808   9.248 -0.3807 -0.7535 -0.0833
 6429SOL    HW130923   0.901   3.746   9.205  0.6852 -0.4307  0.9157
 6429SOL    HW230924   0.899   3.883   9.232  2.1283 -3.3459 -3.2534
 6430SOL     OW30925   0.407   2.601   1.716  0.1898 -0.2976  0.4951
 6430SOL    HW130926   0.392   2.588   1.810  1.5793 -0.1498  0.7405
 6430SOL    HW230927   0.457   2.522   1.697 -2.2938 -1.7250 -0.1188
 6431SOL     OW30928   1.216   0.894   1.816 -0.5320 -0.7959  0.7885
 6431SOL    HW130929   1.238   0.806   1.786  1.8565  0.8214 -2.2393
 6431SOL    HW230930   1.287   0.926   1.871 -0.2942 -0.5715  0.3538
 6432SOL     OW30931   3.829   1.525   4.118 -0.2098  0.4938 -0.0757
 6432SOL    HW130932   3.875   1.499   4.197 -0.2695  1.1329  0.1693
 6432SOL    HW230933   3.886   1.597   4.091 -1.5137  1.6481  0.2638
 6433SOL     OW30934   4.642   2.718   8.517 -0.7422 -0.1956  0.0855
 6433SOL    HW130935   4.687   2.639   8.544 -0.6167  0.4721  1.8595
 6433SOL    HW230936   4.638   2.757   8.604  0.4120  0.4981 -0.1821
 6434SOL     OW30937   0.439   2.322   3.271  0.6718  0.3837  0.0258
 6434SOL    HW130938   0.466   2.347   3.182 -1.0014 -0.8813 -0.8390
 6434SOL    HW230939   0.465   2.401   3.318 -3.0997  0.2327  2.3056
 6435SOL     OW30940   4.137   3.681  10.080  0.5028  0.6938 -0.6317
 6435SOL    HW130941   4.185   3.622  10.138 -0.0261  2.2324  1.3728
 6435SOL    HW230942   4.204   3.711  10.019  0.0104  2.3964 -0.3316
 6436SOL     OW30943   0.150   1.395   1.547 -0.3510  0.1462  0.1063
 6436SOL    HW130944   0.116   1.480   1.520 -0.7409  0.2245  0.8397
 6436SOL    HW230945   0.129   1.343   1.469  0.5202 -1.0895  0.6879
 6437SOL     OW30946   2.167   2.214   8.173 -0.0538  0.5367 -0.1154
 6437SOL    HW130947   2.091   2.156   8.166  0.9628 -0.6080 -1.8577
 6437SOL    HW230948   2.222   2.163   8.233  1.8576  2.8051  0.0554
 6438SOL     OW30949   4.440   3.788  14.892  0.3546 -0.1977 -0.5210
 6438SOL    HW130950   4.489   3.847  14.948  1.0805  0.3015 -1.6756
 6438SOL    HW230951   4.446   3.712  14.949  2.0009 -0.4339 -1.0005
 6439SOL     OW30952   4.072   3.846   2.777 -0.1908 -0.3885 -0.5369
 6439SOL    HW130953   4.069   3.855   2.682  0.9939 -0.1252 -0.5581
 6439SOL    HW230954   4.094   3.937   2.799 -0.4576 -0.9214  1.8656
 6440SOL     OW30955   3.636   1.100   4.077  0.0657 -0.9069 -0.5661
 6440SOL    HW130956   3.542   1.109   4.063 -0.0316 -0.8352  0.1282
 6440SOL    HW230957   3.642   1.009   4.107 -2.3810 -1.2356 -1.0626
 6441SOL     OW30958   3.447   3.884   6.211  0.0540 -0.3232 -0.3320
 6441SOL    HW130959   3.367   3.836   6.231 -0.5254  0.4100 -0.8738
 6441SOL    HW230960   3.425   3.972   6.242  1.5603 -0.2818  0.6315
 6442SOL     OW30961   3.167   3.309   2.893 -0.0620 -0.1952 -0.3100
 6442SOL    HW130962   3.194   3.333   2.804  1.1487  0.8562  0.3288
 6442SOL    HW230963   3.185   3.387   2.946 -0.7867 -0.6673  0.6326
 6443SOL     OW30964   1.246   1.147   6.837  0.5933 -0.3619 -0.1529
 6443SOL    HW130965   1.160   1.158   6.876  1.0366  0.0645  0.6925
 6443SOL    HW230966   1.224   1.160   6.745  0.1388  0.6872  0.1110
 6444SOL     OW30967   3.813   3.737   1.739 -0.8146 -0.3137 -0.0717
 6444SOL    HW130968   3.898   3.774   1.762 -1.9236  2.2580 -0.1734
 6444SOL    HW230969   3.776   3.720   1.826 -1.3685 -2.0140 -0.6446
 6445SOL     OW30970   1.982   2.255  10.059 -0.4688  0.2706 -0.4115
 6445SOL    HW130971   2.020   2.237   9.973  0.5233  1.4441 -0.2222
 6445SOL    HW230972   1.979   2.351  10.061  1.1210  0.3214 -0.3028
 6446SOL     OW30973   4.081   4.441   6.513 -0.3084  0.1007 -0.8054
 6446SOL    HW130974   4.133   4.447   6.432  2.5265 -1.2480  0.9325
 6446SOL    HW230975   4.043   4.357   6.486 -0.7350 -0.0475  0.2833
 6447SOL     OW30976   4.208   2.679   2.670  0.0195 -0.0391 -0.2347
 6447SOL    HW130977   4.173   2.661   2.583 -0.4857  0.9039 -0.2305
 6447SOL    HW230978   4.301   2.659   2.659 -0.4986 -2.0258 -0.8593
 6448SOL     OW30979   1.251   4.324   5.824  0.2183 -0.0638 -0.2543
 6448SOL    HW130980   1.286   4.283   5.903  0.5848 -0.7246 -0.7562
 6448SOL    HW230981   1.199   4.250   5.793  1.1771 -0.5234 -0.7627
 6449SOL     OW30982   0.975   0.440   8.189  0.1892 -0.4350  0.3874
 6449SOL    HW130983   0.963   0.397   8.104  1.1531 -0.4174  0.2420
 6449SOL    HW230984   0.981   0.357   8.238  1.7633 -2.0426 -2.5191
 6450SOL     OW30985   0.210   3.753   6.466 -0.4783  0.0015 -0.1793
 6450SOL    HW130986   0.138   3.759   6.529 -0.1770 -3.7430  0.5265
 6450SOL    HW230987   0.236   3.844   6.453  0.2982 -0.2668 -0.5108
 6451SOL     OW30988   4.394   0.299   1.952 -0.1888 -0.3502 -0.2437
 6451SOL    HW130989   4.348   0.295   1.868 -1.9133  0.6682  0.6506
 6451SOL    HW230990   4.350   0.378   1.983  1.5437  0.1943  0.8728
 6452SOL     OW30991   3.773   3.137   0.367 -0.0659 -0.4145 -0.4647
 6452SOL    HW130992   3.826   3.184   0.303 -1.5740  0.8800 -0.7772
 6452SOL    HW230993   3.838   3.115   0.434  0.7973  0.2299 -1.0970
 6453SOL     OW30994   1.230   4.038  16.020 -0.1876  0.5013  0.2532
 6453SOL    HW130995   1.222   4.126  15.983 -4.0780 -0.5658 -1.4816
 6453SOL    HW230996   1.151   4.045  16.073 -0.2806  0.1993  0.1542
 6454SOL     OW30997   1.376   2.939   3.278 -0.2113 -0.1580 -0.0496
 6454SOL    HW130998   1.420   2.855   3.295  0.3777  0.0511 -0.5289
 6454SOL    HW230999   1.327   2.911   3.201 -0.6445  0.6851 -0.0783
 6455SOL     OW31000   0.153   3.880   1.893 -0.1681  0.2240 -0.9119
 6455SOL    HW131001   0.118   3.950   1.837 -1.2302  1.2266  1.0036
 6455SOL    HW231002   0.163   3.802   1.839 -0.2634  0.7982 -1.7608
 6456SOL     OW31003   3.253   3.153   8.429 -0.1538 -0.0302 -0.2264
 6456SOL    HW131004   3.254   3.232   8.483 -0.6146  0.1638 -0.4970
 6456SOL    HW231005   3.320   3.167   8.362  0.0778 -1.6889 -0.3474
 6457SOL     OW31006   0.845   3.507   6.277  0.2928 -0.1424 -0.3483
 6457SOL    HW131007   0.831   3.595   6.241 -0.9568  0.6625  2.0690
 6457SOL    HW231008   0.820   3.513   6.370  3.4285  1.0162  0.4119
 6458SOL     OW31009   1.496   4.604   5.171 -0.4841 -0.1111 -0.0356
 6458SOL    HW131010   1.417   4.550   5.181  0.0879 -0.5820  1.9056
 6458SOL    HW231011   1.458   4.685   5.206 -0.0307 -0.6729  1.7446
 6459SOL     OW31012   3.418   1.762  11.106 -0.6450 -0.1103 -0.2410
 6459SOL    HW131013   3.437   1.834  11.167  0.5542 -0.2670 -0.4149
 6459SOL    HW231014   3.348   1.791  11.049 -0.2878  0.3458 -0.4480
 6460SOL     OW31015   3.397   1.873   1.263 -0.7541  0.3252  0.0083
 6460SOL    HW131016   3.335   1.907   1.328 -0.3014  0.6034  0.2946
 6460SOL    HW231017   3.477   1.914   1.295 -0.8594  0.6720 -0.1854
 6461SOL     OW31018   3.097   0.584  11.587 -0.0452 -0.2888 -0.1445
 6461SOL    HW131019   3.136   0.595  11.500  0.3623 -1.4187 -0.0975
 6461SOL    HW231020   3.139   0.504  11.618 -0.3724 -0.2787  0.3198
 6462SOL     OW31021   0.867   2.296   4.775 -0.2165  0.2295  0.1208
 6462SOL    HW131022   0.859   2.381   4.818 -0.8184  0.7053 -0.9289
 6462SOL    HW231023   0.774   2.283   4.754 -0.3927 -0.7150  1.4569
 6463SOL     OW31024   0.671   0.077  14.214  0.0755 -0.7868  0.5670
 6463SOL    HW131025   0.689   4.728  14.241  3.5005  0.1445  1.4407
 6463SOL    HW231026   0.606   0.075  14.143  1.5988  0.6362 -0.8611
 6464SOL     OW31027   1.157   0.210   1.600  0.0515 -0.0853  0.3133
 6464SOL    HW131028   1.099   0.276   1.564  1.6271  0.5964 -0.9459
 6464SOL    HW231029   1.186   0.160   1.524  0.4467 -0.4082  0.6765
 6465SOL     OW31030   1.442   3.557   3.513 -0.0289 -0.1641 -0.4107
 6465SOL    HW131031   1.417   3.498   3.442  0.7704  0.2814 -1.0648
 6465SOL    HW231032   1.473   3.627   3.455  0.3218  0.4727  0.5568
 6466SOL     OW31033   1.920   3.554   5.770  0.5093  0.0158 -0.4987
 6466SOL    HW131034   1.979   3.509   5.710  2.4203  1.2867  0.4376
 6466SOL    HW231035   1.882   3.617   5.709 -1.9868  1.1656  2.2440
 6467SOL     OW31036   3.994   0.388   5.765  0.2400 -0.5400  0.7577
 6467SOL    HW131037   3.969   0.433   5.845 -0.0993  1.2729 -0.3844
 6467SOL    HW231038   3.971   0.451   5.697 -1.2859 -0.9427  0.9034
 6468SOL     OW31039   0.485   1.217   3.799  0.6331  0.1001  0.5118
 6468SOL    HW131040   0.516   1.308   3.803  2.1475 -0.4732  1.7845
 6468SOL    HW231041   0.405   1.220   3.851 -0.2938  0.4573 -0.9215
 6469SOL     OW31042   1.504   2.242  11.592  0.1902 -0.2673  0.0857
 6469SOL    HW131043   1.594   2.267  11.572  0.1746 -0.1427  0.1754
 6469SOL    HW231044   1.477   2.326  11.628  1.0604 -1.0957  2.6573
 6470SOL     OW31045   2.468   4.570   5.777  0.4816  0.0316 -0.4862
 6470SOL    HW131046   2.427   4.582   5.691 -1.1758 -0.2459  0.2638
 6470SOL    HW231047   2.432   4.491   5.815  0.2770 -0.3893 -1.5571
 6471SOL     OW31048   0.909   3.742   3.301 -0.0552  0.5575  0.1154
 6471SOL    HW131049   0.871   3.703   3.380 -1.5017  1.2202 -0.2580
 6471SOL    HW231050   0.932   3.827   3.338  1.8487 -0.3602  1.0014
 6472SOL     OW31051   2.659   2.840   5.251  0.0477  0.7784 -0.5992
 6472SOL    HW131052   2.680   2.902   5.181  0.2359  0.6484 -0.6604
 6472SOL    HW231053   2.690   2.757   5.216 -0.8760  0.1137  0.1561
 6473SOL     OW31054   4.104   3.911  15.940 -0.7081  0.3177  0.2892
 6473SOL    HW131055   4.069   3.990  15.899  0.4908  0.6772 -0.0193
 6473SOL    HW231056   4.043   3.898  16.013 -0.1767 -0.5968  0.5707
 6474SOL     OW31057   3.159   0.012   4.318  0.1473 -0.2987 -0.7563
 6474SOL    HW131058   3.134   0.101   4.343  3.2895  0.5303 -0.5763
 6474SOL    HW231059   3.146   0.015   4.223  0.1747  0.4433 -0.7404
 6475SOL     OW31060   3.674   4.087   7.338 -0.2415  0.0093  0.5629
 6475SOL    HW131061   3.699   4.171   7.376 -1.6098  1.0998 -0.9459
 6475SOL    HW231062   3.750   4.030   7.351 -1.0139 -0.9427  0.9153
 6476SOL     OW31063   0.464   1.833   5.379  0.3189  0.0861  0.5484
 6476SOL    HW131064   0.410   1.857   5.304  0.9515 -2.1286 -0.6185
 6476SOL    HW231065   0.550   1.875   5.369  0.3381  1.1057  4.8579
 6477SOL     OW31066   0.257   2.381   9.339  0.3382  0.1053 -0.4140
 6477SOL    HW131067   0.339   2.374   9.291  1.5907  0.4961  1.6478
 6477SOL    HW231068   0.246   2.475   9.348 -0.9255  0.2304 -3.2294
 6478SOL     OW31069   2.399   4.370   7.129 -0.7224 -0.4037  0.0814
 6478SOL    HW131070   2.451   4.366   7.049 -0.1093  1.3517  0.4102
 6478SOL    HW231071   2.354   4.286   7.141  1.4631 -1.4821  0.7400
 6479SOL     OW31072   3.139   0.287   7.022  0.6134  0.2214  0.0510
 6479SOL    HW131073   3.129   0.192   7.016 -1.9524  0.4540  0.8233
 6479SOL    HW231074   3.101   0.300   7.109  1.1155  0.7808  0.1909
 6480SOL     OW31075   2.641   0.445  17.019 -0.1827 -0.1403  0.0983
 6480SOL    HW131076   2.689   0.477  16.943  1.4431 -2.1807  0.2542
 6480SOL    HW231077   2.549   0.463  16.998 -0.3961 -2.3818 -0.8698
 6481SOL     OW31078   4.120   1.320   2.248  0.2013 -0.2267 -0.4657
 6481SOL    HW131079   4.178   1.271   2.191  1.2897  1.1680 -0.5688
 6481SOL    HW231080   4.143   1.413   2.237 -2.9057  0.6434  0.2328
 6482SOL     OW31081   0.258   4.705   9.235 -0.5664 -0.0543 -0.3565
 6482SOL    HW131082   0.268   4.611   9.253  2.3574  0.4165  0.4646
 6482SOL    HW231083   0.204   4.709   9.155  0.8511 -0.7757 -1.3479
 6483SOL     OW31084   3.585   4.486   2.099 -0.3363 -0.3957 -1.0032
 6483SOL    HW131085   3.508   4.528   2.137  0.9150  1.8952 -1.0306
 6483SOL    HW231086   3.654   4.540   2.137 -2.1203 -0.6999  2.5891
 6484SOL     OW31087   4.269   4.658   8.291  0.0931 -0.1528  0.0334
 6484SOL    HW131088   4.335   4.631   8.227 -0.3027 -0.4931 -0.2304
 6484SOL    HW231089   4.224   4.575   8.306 -1.3469  0.4720 -0.8126
 6485SOL     OW31090   3.049   3.285   4.363 -0.0127  0.3679 -0.3037
 6485SOL    HW131091   3.141   3.308   4.352 -0.1721  0.4903 -1.4998
 6485SOL    HW231092   3.052   3.192   4.342 -0.4253 -0.2808  2.5780
 6486SOL     OW31093   0.923   1.577   6.444  0.1088 -0.1677  0.0547
 6486SOL    HW131094   0.924   1.649   6.382  2.6027 -0.9484 -0.8494
 6486SOL    HW231095   0.981   1.606   6.515  2.4751 -1.7278 -1.2020
 6487SOL     OW31096   0.114   0.028   3.031  0.1191 -0.2168 -0.0749
 6487SOL    HW131097   0.037   0.029   2.974 -0.6063  0.1754  0.9086
 6487SOL    HW231098   0.168   0.088   2.980 -0.8705  0.4144 -0.3891
 6488SOL     OW31099   0.885   0.441   6.717  0.0344  0.3084 -0.0329
 6488SOL    HW131100   0.860   0.400   6.800 -1.9163 -0.6764 -1.1144
 6488SOL    HW231101   0.981   0.442   6.720  0.0835  0.2666 -2.0723
 6489SOL     OW31102   1.109   1.859   4.888 -0.0747  0.1835 -0.3371
 6489SOL    HW131103   1.077   1.937   4.843 -1.8022 -0.5533 -0.3702
 6489SOL    HW231104   1.041   1.850   4.954  1.0318  2.6636  1.1743
 6490SOL     OW31105   3.874   0.542   5.551  0.2576  0.0276  0.4181
 6490SOL    HW131106   3.917   0.533   5.466 -0.3446  2.3388 -0.1372
 6490SOL    HW231107   3.813   0.469   5.541  1.2350 -0.3744 -2.4865
 6491SOL     OW31108   0.445   1.007   5.996  0.0247 -0.2457 -0.3504
 6491SOL    HW131109   0.410   0.961   5.919 -4.2830  1.4434  0.6006
 6491SOL    HW231110   0.382   0.977   6.061  0.7524  0.2294  0.5568
 6492SOL     OW31111   0.201   3.568  10.196 -0.6655  0.0003 -0.0582
 6492SOL    HW131112   0.233   3.659  10.192  1.0782 -0.6088 -0.0664
 6492SOL    HW231113   0.126   3.569  10.137 -2.1353 -1.7355  1.8124
 6493SOL     OW31114   0.907   2.434   7.189  0.3905  0.1146  0.5432
 6493SOL    HW131115   0.992   2.451   7.229  2.2194 -0.0332 -3.3225
 6493SOL    HW231116   0.881   2.523   7.165  0.9485  0.1826  0.1943
 6494SOL     OW31117   2.591   2.543   3.487  0.7137 -0.1837  0.1884
 6494SOL    HW131118   2.631   2.485   3.422 -1.1911 -0.1573 -1.0085
 6494SOL    HW231119   2.633   2.513   3.568  3.0918  0.4232 -0.8456
 6495SOL     OW31120   0.334   1.240   9.118  0.2674 -0.7586 -0.1061
 6495SOL    HW131121   0.412   1.295   9.121  1.2114 -2.0178 -1.7225
 6495SOL    HW231122   0.357   1.172   9.055 -1.5853 -0.9826 -0.5432
 6496SOL     OW31123   2.120   4.262   9.452  0.1426  0.2087  0.2666
 6496SOL    HW131124   2.104   4.352   9.424  1.3777  0.7429  1.2513
 6496SOL    HW231125   2.212   4.251   9.428 -0.5649 -2.9385 -0.9512
 6497SOL     OW31126   3.814   3.769   4.806  0.7965 -0.0482 -0.9637
 6497SOL    HW131127   3.728   3.731   4.789 -0.3527  2.5231 -0.9758
 6497SOL    HW231128   3.814   3.823   4.727  1.1405 -0.3221 -1.1471
 6498SOL     OW31129   2.250   3.606   6.732  0.6436  0.1297  0.1968
 6498SOL    HW131130   2.200   3.637   6.656  1.4139  1.4048  0.2186
 6498SOL    HW231131   2.272   3.692   6.768 -2.2634 -0.0226  2.3169
 6499SOL     OW31132   1.263   1.031   1.341 -0.1657 -0.4195 -0.3788
 6499SOL    HW131133   1.251   1.075   1.425 -0.1756 -1.6558  0.2655
 6499SOL    HW231134   1.246   1.102   1.279 -3.1707 -0.7830  0.0176
 6500SOL     OW31135   4.118   2.962   5.914  0.0847  0.1633 -0.1468
 6500SOL    HW131136   4.112   2.900   5.986  1.9618 -2.5968 -2.3460
 6500SOL    HW231137   4.182   3.018   5.957 -0.0897  0.2685 -0.0232
 6501SOL     OW31138   2.947   1.934   8.705 -0.4570  0.3797  0.0828
 6501SOL    HW131139   3.027   1.977   8.735 -1.0943  0.3474  1.8392
 6501SOL    HW231140   2.877   1.993   8.734 -1.0399 -0.1031 -0.3178
 6502SOL     OW31141   1.881   0.625  11.699 -0.4331 -0.1740  0.4284
 6502SOL    HW131142   1.890   0.550  11.641 -0.9190 -0.3663  0.6024
 6502SOL    HW231143   1.792   0.604  11.727 -0.3653 -2.0814 -0.7570
 6503SOL     OW31144   3.392   0.588   8.204  0.2919  0.4169  0.1310
 6503SOL    HW131145   3.382   0.641   8.125 -1.0291  0.6935  0.4891
 6503SOL    HW231146   3.464   0.629   8.253  0.7221 -0.9212  0.6055
 6504SOL     OW31147   3.520   4.636   1.163 -0.1820 -0.3067 -0.4756
 6504SOL    HW131148   3.565   4.717   1.187 -0.0742 -0.0060 -1.6782
 6504SOL    HW231149   3.502   4.592   1.246  0.8431 -1.3840 -0.8145
 6505SOL     OW31150   3.515   3.880   2.756 -0.4736 -0.4312 -0.1210
 6505SOL    HW131151   3.453   3.940   2.714 -0.6146 -0.8808 -0.5445
 6505SOL    HW231152   3.481   3.793   2.735  0.6791 -1.2054  1.2239
 6506SOL     OW31153   2.802   2.079   8.896 -0.7487  0.3967 -0.0733
 6506SOL    HW131154   2.725   2.031   8.924  0.1013 -1.0926 -0.3155
 6506SOL    HW231155   2.833   2.114   8.979 -0.8467 -1.9169  0.9238
 6507SOL     OW31156   0.274   3.836  10.060 -0.2153 -0.1452  0.0675
 6507SOL    HW131157   0.365   3.829  10.086 -0.5289 -2.6358  0.4785
 6507SOL    HW231158   0.251   3.908  10.118  1.3367  1.3075 -1.1352
 6508SOL     OW31159   3.107   1.647  15.688 -0.3697  0.7287  0.3164
 6508SOL    HW131160   3.109   1.742  15.672 -0.1986  0.5307 -0.8320
 6508SOL    HW231161   3.171   1.610  15.628  2.0420  2.1488  2.0135
 6509SOL     OW31162   2.365   1.530   1.612  0.5058  0.1583  0.2920
 6509SOL    HW131163   2.330   1.588   1.680 -2.8356 -0.9345 -0.5258
 6509SOL    HW231164   2.297   1.546   1.547 -0.0522 -0.4469  0.7230
 6510SOL     OW31165   2.171   2.751   6.776  0.3505  0.5842  0.4752
 6510SOL    HW131166   2.185   2.767   6.682 -0.9226  0.8614  0.3251
 6510SOL    HW231167   2.117   2.673   6.780  2.5024 -1.0458 -2.1496
 6511SOL     OW31168   1.379   2.022   6.621 -0.5780 -0.5678 -0.1550
 6511SOL    HW131169   1.383   2.113   6.650 -0.2400 -0.2859 -1.0896
 6511SOL    HW231170   1.440   2.030   6.548 -1.1686  0.1372 -0.5788
 6512SOL     OW31171   1.727   4.067  14.728 -0.2714  0.0609  0.2173
 6512SOL    HW131172   1.813   4.079  14.767 -0.7530  0.1919  1.2464
 6512SOL    HW231173   1.753   3.992  14.675  1.6071  0.3378  0.7496
 6513SOL     OW31174   4.442   2.317   5.029 -0.0814  0.3581 -0.1298
 6513SOL    HW131175   4.413   2.308   4.938 -0.2558  0.1852 -0.0563
 6513SOL    HW231176   4.530   2.281   5.025 -0.4222 -0.5814  0.8292
 6514SOL     OW31177   0.075   3.151   4.091 -0.4317 -0.4732  0.8407
 6514SOL    HW131178   0.044   3.080   4.035  0.5601  0.8269 -1.3608
 6514SOL    HW231179   4.739   3.205   4.075 -0.5177 -0.8508 -0.0149
 6515SOL     OW31180   3.345   2.787  11.837  0.3719 -0.3164  0.6180
 6515SOL    HW131181   3.272   2.737  11.874 -1.0874  1.8523  0.6536
 6515SOL    HW231182   3.352   2.761  11.745 -0.1560  4.0198 -0.6418
 6516SOL     OW31183   3.295   4.293  11.257  0.2360 -0.4065 -0.2478
 6516SOL    HW131184   3.308   4.385  11.282  0.8421 -0.8209  0.9436
 6516SOL    HW231185   3.343   4.287  11.174 -0.9877 -0.3573 -0.9565
 6517SOL     OW31186   3.595   3.057   1.893  0.0651  0.1561  0.3471
 6517SOL    HW131187   3.503   3.031   1.888  0.1636 -0.1058 -0.1439
 6517SOL    HW231188   3.635   2.973   1.868 -3.1010 -0.7178 -1.8038
 6518SOL     OW31189   3.975   2.056  16.077  0.2607  0.1430 -0.1209
 6518SOL    HW131190   3.985   2.147  16.103  0.9080 -0.3872  1.4844
 6518SOL    HW231191   3.884   2.060  16.048  1.3325  1.6455 -3.1991
 6519SOL     OW31192   4.180   2.373   8.649 -0.3245 -0.2480 -0.0065
 6519SOL    HW131193   4.170   2.370   8.744 -2.1206  1.5043 -0.1488
 6519SOL    HW231194   4.204   2.282   8.636 -0.1355 -0.3727  1.1877
 6520SOL     OW31195   1.526   3.202   2.893  0.0400  0.0526 -0.4544
 6520SOL    HW131196   1.602   3.168   2.940 -0.7230  0.6612  1.2174
 6520SOL    HW231197   1.471   3.126   2.873  0.3053 -0.5826  1.2376
 6521SOL     OW31198   4.198   1.311   7.392 -0.5765  0.1179  0.6699
 6521SOL    HW131199   4.263   1.344   7.329 -1.5569 -1.9919 -1.4447
 6521SOL    HW231200   4.255   1.321   7.469  0.4833 -0.3267 -0.0452
 6522SOL     OW31201   4.360   1.608  15.709  0.2814  0.7021 -0.1791
 6522SOL    HW131202   4.353   1.702  15.722  0.4468  0.8780 -1.3519
 6522SOL    HW231203   4.413   1.577  15.783  0.5309 -0.3968 -0.8088
 6523SOL     OW31204   0.220   1.880   6.109 -0.4373  0.2151 -0.2582
 6523SOL    HW131205   0.220   1.892   6.014  0.0648  1.2802 -0.1291
 6523SOL    HW231206   0.192   1.967   6.137  0.7789 -0.0591  1.8212
 6524SOL     OW31207   2.302   1.112  16.274  0.0307  0.7135  0.3711
 6524SOL    HW131208   2.297   1.121  16.179  0.0340  1.8591  0.4755
 6524SOL    HW231209   2.211   1.119  16.303  0.3194  1.0986  1.1620
 6525SOL     OW31210   1.935   4.463   2.336  0.1730  0.6631 -0.0113
 6525SOL    HW131211   1.872   4.525   2.372  0.5374 -0.4537  2.5407
 6525SOL    HW231212   1.994   4.530   2.302  1.0873 -0.0575  0.1697
 6526SOL     OW31213   1.923   1.474   2.778  0.5306 -0.2812  0.7043
 6526SOL    HW131214   1.927   1.385   2.745  0.9427 -0.4984  1.3489
 6526SOL    HW231215   1.849   1.467   2.838  0.8533 -0.4431  1.0832
 6527SOL     OW31216   3.395   1.869   1.997 -0.2610 -0.5303 -0.1581
 6527SOL    HW131217   3.413   1.828   2.081  1.3193 -0.6990 -0.5922
 6527SOL    HW231218   3.405   1.962   2.015  2.9687 -0.4456 -2.4899
 6528SOL     OW31219   4.441   1.854   1.072 -0.3582  0.0300  0.7417
 6528SOL    HW131220   4.462   1.931   1.020  0.2111 -0.9465 -0.4865
 6528SOL    HW231221   4.468   1.777   1.022  0.2776  0.7513 -0.0063
 6529SOL     OW31222   4.116   1.657   7.438  0.4166  0.3198 -0.3400
 6529SOL    HW131223   4.152   1.745   7.432  0.1149  0.3177 -2.1405
 6529SOL    HW231224   4.079   1.665   7.350  1.4724 -0.3252 -0.8385
 6530SOL     OW31225   2.330   1.603  10.319  0.6208  0.1401 -0.1820
 6530SOL    HW131226   2.286   1.520  10.332  1.6362  0.0467  2.7229
 6530SOL    HW231227   2.349   1.619  10.412  0.1676  2.9377 -0.5663
 6531SOL     OW31228   2.980   0.008   9.577 -0.1067 -0.0993  0.3428
 6531SOL    HW131229   2.893   0.022   9.613  0.4237 -0.9602  1.9686
 6531SOL    HW231230   2.997   0.095   9.541  0.1381 -0.6683 -0.9383
 6532SOL     OW31231   3.975   2.893   9.200  0.1066 -0.3437 -0.2049
 6532SOL    HW131232   3.891   2.852   9.179  2.1615 -2.3334 -4.5884
 6532SOL    HW231233   3.951   2.985   9.210  0.8467 -0.2206  0.4311
 6533SOL     OW31234   2.623   4.334   7.279 -0.0216  0.6324  0.1960
 6533SOL    HW131235   2.541   4.353   7.232  1.0831 -1.9894 -2.7785
 6533SOL    HW231236   2.609   4.252   7.327  1.1837  0.4591  0.2627
 6534SOL     OW31237   3.959   1.811   0.177  0.2180  0.2521 -0.3478
 6534SOL    HW131238   3.878   1.846   0.213 -1.5826 -3.1489 -1.0472
 6534SOL    HW231239   4.013   1.795   0.254 -1.2432  3.3673  1.2915
 6535SOL     OW31240   1.022   0.931   3.433 -0.1590  0.5078 -0.0285
 6535SOL    HW131241   1.027   0.988   3.356  1.6401 -0.6757 -0.7812
 6535SOL    HW231242   1.079   0.981   3.492  0.5728  0.7476 -0.9279
 6536SOL     OW31243   2.858   1.899   3.665  0.4367  0.5394  0.6169
 6536SOL    HW131244   2.857   1.804   3.658  0.2579  0.6052 -0.2593
 6536SOL    HW231245   2.781   1.916   3.719 -1.2735  0.3261 -1.7204
 6537SOL     OW31246   1.732   3.934   9.273 -0.2743  0.4361 -0.1881
 6537SOL    HW131247   1.687   3.989   9.337  1.7999 -0.1850  1.8145
 6537SOL    HW231248   1.820   3.971   9.282 -1.6291  3.3251  1.2772
 6538SOL     OW31249   2.625   1.705   9.445  0.2056  0.3355  0.1020
 6538SOL    HW131250   2.658   1.631   9.394 -0.7092 -1.0328  1.5205
 6538SOL    HW231251   2.580   1.669   9.521 -1.0409  0.0477 -0.7637
 6539SOL     OW31252   0.596   4.558   2.398 -0.4985  0.0376  0.3598
 6539SOL    HW131253   0.673   4.610   2.375 -0.7970  0.6458  0.7360
 6539SOL    HW231254   0.563   4.560   2.309 -0.1713 -2.2078  0.1834
 6540SOL     OW31255   3.219   2.645   4.304 -0.1046 -0.1713 -0.6204
 6540SOL    HW131256   3.312   2.625   4.311 -0.2154  0.1643  1.8087
 6540SOL    HW231257   3.198   2.585   4.233  0.8917  0.0275 -1.0805
 6541SOL     OW31258   1.471   1.339   4.654  0.8895 -0.3525  0.2093
 6541SOL    HW131259   1.376   1.340   4.665  0.9441 -0.7456  0.7158
 6541SOL    HW231260   1.499   1.265   4.709  0.3463 -0.0676  0.8702
 6542SOL     OW31261   3.472   1.987  12.064  0.2646 -0.4624 -0.7018
 6542SOL    HW131262   3.436   1.898  12.072 -1.4957  0.5172  2.2651
 6542SOL    HW231263   3.564   1.985  12.089  0.0367 -0.9493  0.1032
 6543SOL     OW31264   2.185   4.189   8.483 -0.3978  0.0307  0.4011
 6543SOL    HW131265   2.255   4.192   8.418  0.1224  0.5641  0.9818
 6543SOL    HW231266   2.121   4.133   8.440  0.7717 -0.3799 -0.8198
 6544SOL     OW31267   4.490   1.371   7.927  0.4236 -0.5065 -0.0020
 6544SOL    HW131268   4.430   1.299   7.948  0.5785 -1.4796 -2.8997
 6544SOL    HW231269   4.464   1.389   7.837 -0.1425  0.7674  0.4228
 6545SOL     OW31270   1.301   2.634   2.981  0.1483 -0.2458  0.2525
 6545SOL    HW131271   1.233   2.622   3.047 -0.4325  1.5090 -0.0266
 6545SOL    HW231272   1.324   2.727   2.985 -0.1584 -0.0970 -1.3433
 6546SOL     OW31273   4.741   4.006   7.888  0.3299  0.0228  0.2672
 6546SOL    HW131274   4.728   3.940   7.820  0.9010  0.5778 -0.3668
 6546SOL    HW231275   0.024   4.089   7.846 -1.8024  0.9756  0.9233
 6547SOL     OW31276   2.098   4.473   4.533  0.3199  0.1841  0.0888
 6547SOL    HW131277   2.142   4.524   4.465 -0.0883  1.4168  0.7372
 6547SOL    HW231278   2.176   4.448   4.582 -0.7548 -2.0635  0.6326
 6548SOL     OW31279   2.508   1.203   3.984  0.5791 -0.1022  0.5236
 6548SOL    HW131280   2.507   1.295   4.009 -2.1134 -0.2136  0.8305
 6548SOL    HW231281   2.516   1.216   3.889  2.3766  0.6801  0.7939
 6549SOL     OW31282   2.664   2.225  13.395 -0.1624 -0.0909 -0.0021
 6549SOL    HW131283   2.634   2.206  13.306 -0.1156  0.0350 -0.0457
 6549SOL    HW231284   2.733   2.290  13.380 -0.8807  1.0256  1.5437
 6550SOL     OW31285   1.734   4.526   7.492  0.1268  0.0098 -0.1182
 6550SOL    HW131286   1.741   4.621   7.504 -1.5101  0.0743  0.3049
 6550SOL    HW231287   1.642   4.510   7.509  0.7993 -2.8237  0.7865
 6551SOL     OW31288   1.384   2.444  11.753 -0.3892 -0.2392 -0.4834
 6551SOL    HW131289   1.328   2.398  11.816 -0.1101  1.7099  1.2005
 6551SOL    HW231290   1.470   2.448  11.794 -1.7348 -2.5716  2.5661
 6552SOL     OW31291   3.852   0.157   2.117  0.0517  0.0718 -0.2599
 6552SOL    HW131292   3.862   0.089   2.051 -1.1428  0.9294 -1.3326
 6552SOL    HW231293   3.906   0.117   2.185  2.5106 -0.1870 -2.3808
 6553SOL     OW31294   1.932   2.019   0.140 -0.0237 -0.2788 -0.2689
 6553SOL    HW131295   1.930   2.113   0.124  1.0667 -0.0487  0.9334
 6553SOL    HW231296   1.993   2.020   0.213 -1.0193  1.1328  0.5634
 6554SOL     OW31297   1.476   0.804  17.710  0.1128 -0.0795 -0.2348
 6554SOL    HW131298   1.552   0.859  17.690 -0.6180  0.7355 -0.7985
 6554SOL    HW231299   1.437   0.861   0.015 -0.7765  0.9843 -1.6636
 6555SOL     OW31300   1.915   2.165  13.827  0.3976  0.7548  0.1510
 6555SOL    HW131301   1.870   2.200  13.750 -2.2426 -0.4417  1.1549
 6555SOL    HW231302   1.887   2.222  13.898 -1.0207 -2.2206  1.9839
 6556SOL     OW31303   4.641   3.009   0.543  0.6008  0.0999  0.4781
 6556SOL    HW131304   4.665   2.970   0.627  0.0937 -0.3557  0.4117
 6556SOL    HW231305   4.636   2.930   0.489 -0.2555 -0.1759  0.9621
 6557SOL     OW31306   2.974   4.219   4.712  0.3429 -0.3054  0.4810
 6557SOL    HW131307   2.982   4.124   4.718 -0.9524 -0.3505  1.4472
 6557SOL    HW231308   2.980   4.246   4.804  1.4156 -1.5257  0.7706
 6558SOL     OW31309   3.477   0.560   4.770  0.0898  0.5445  0.1862
 6558SOL    HW131310   3.524   0.476   4.775  3.2978  2.3735  0.8382
 6558SOL    HW231311   3.394   0.534   4.810 -0.9452  1.5004 -1.3514
 6559SOL     OW31312   1.649   3.860   6.449 -0.1521 -0.1583 -0.6455
 6559SOL    HW131313   1.589   3.923   6.409  0.2385 -0.5111 -1.8063
 6559SOL    HW231314   1.713   3.915   6.495  1.0161 -2.4621  0.4796
 6560SOL     OW31315   4.412   0.924   7.816 -0.1011  0.0335 -0.1236
 6560SOL    HW131316   4.369   1.004   7.847  0.7703  0.4453  0.0253
 6560SOL    HW231317   4.425   0.890   7.904 -1.1757  1.9000  0.7663
 6561SOL     OW31318   0.205   2.708   4.738 -1.2749  0.1409 -0.2860
 6561SOL    HW131319   0.158   2.654   4.674 -1.0166 -0.7323  0.2584
 6561SOL    HW231320   0.152   2.689   4.815 -1.0237 -0.9633 -0.3784
 6562SOL     OW31321   0.042   0.786   8.885 -0.0630 -0.4298 -0.1805
 6562SOL    HW131322   0.054   0.749   8.973 -1.4703 -0.9936 -0.2238
 6562SOL    HW231323   0.074   0.717   8.827  0.9091  1.2424 -1.6335
 6563SOL     OW31324   2.978   0.651  12.681  0.0921  0.1642 -0.0428
 6563SOL    HW131325   3.056   0.635  12.734  0.9940 -1.0048 -1.7510
 6563SOL    HW231326   3.013   0.645  12.593 -0.1489 -2.5136  0.0598
 6564SOL     OW31327   3.358   1.416  15.740  0.6414  0.8769  0.4914
 6564SOL    HW131328   3.394   1.498  15.772 -0.1629  1.6235 -0.5040
 6564SOL    HW231329   3.417   1.410  15.665  1.3932  1.4967  1.0340
 6565SOL     OW31330   4.086   0.057  10.000  0.0890  0.7250  0.0724
 6565SOL    HW131331   4.113   0.007   9.923  2.7936 -2.0052  2.8198
 6565SOL    HW231332   4.125   0.143   9.985  1.9588  0.2587  2.2259
 6566SOL     OW31333   2.546   1.432   4.581  0.2164  0.3854  0.8633
 6566SOL    HW131334   2.490   1.420   4.504  1.1325 -0.2788  0.2931
 6566SOL    HW231335   2.622   1.452   4.525 -1.2924  1.2228 -0.8979
 6567SOL     OW31336   0.280   0.769  16.211 -0.1086  0.3925 -0.2825
 6567SOL    HW131337   0.371   0.738  16.220 -0.4519 -0.0970  1.4443
 6567SOL    HW231338   0.242   0.720  16.138 -1.2267 -0.6553  1.0072
 6568SOL     OW31339   4.383   2.030   6.264 -0.1043  0.1655  0.1004
 6568SOL    HW131340   4.354   1.950   6.307  0.3638 -0.9100 -1.5677
 6568SOL    HW231341   4.314   2.091   6.286  1.4823  1.2265  2.0608
 6569SOL     OW31342   2.083   0.055   0.313  0.1453 -0.4190  0.2190
 6569SOL    HW131343   2.064   0.068   0.220 -0.4422 -0.6889  0.2997
 6569SOL    HW231344   2.177   0.043   0.305  0.0708 -0.9572  0.1622
 6570SOL     OW31345   2.641   4.530   2.530  0.2065 -0.9631  0.2956
 6570SOL    HW131346   2.604   4.581   2.603 -0.9821  2.1469 -2.5024
 6570SOL    HW231347   2.610   4.446   2.563  0.6906 -1.5299 -0.7322
 6571SOL     OW31348   2.677   3.659   0.778  0.1069  0.3140  0.0606
 6571SOL    HW131349   2.747   3.630   0.719  1.9621  4.3650  0.1937
 6571SOL    HW231350   2.646   3.575   0.810 -2.1856  1.3747  0.5792
 6572SOL     OW31351   0.192   3.107  13.040  0.1532 -0.5196 -0.1989
 6572SOL    HW131352   0.234   3.101  12.955  0.9706 -0.9711  0.2331
 6572SOL    HW231353   0.164   3.019  13.067  0.9483 -1.2217 -1.6795
 6573SOL     OW31354   4.559   2.012   6.896  0.2256 -0.1417 -0.8041
 6573SOL    HW131355   4.555   2.103   6.926 -1.4174 -0.4063 -0.1871
 6573SOL    HW231356   4.472   1.978   6.918  0.9154 -0.0664  2.0635
 6574SOL     OW31357   0.155   2.605   5.167  0.0963  0.1164 -0.3516
 6574SOL    HW131358   0.169   2.682   5.111  1.7461  0.2538  0.2474
 6574SOL    HW231359   0.061   2.604   5.180  0.1649 -1.7547 -0.1112
 6575SOL     OW31360   3.393   3.045   6.204 -0.4592 -0.6799 -0.8014
 6575SOL    HW131361   3.329   2.991   6.156  0.6375 -0.4026 -2.5724
 6575SOL    HW231362   3.458   2.975   6.200  1.3244  1.0391 -1.8879
 6576SOL     OW31363   1.017   4.118   2.679  0.1354  0.8219 -0.2301
 6576SOL    HW131364   0.960   4.054   2.637  1.6358 -0.8957  0.3810
 6576SOL    HW231365   1.057   4.061   2.745 -0.9646 -0.8124 -0.9702
 6577SOL     OW31366   0.074   3.713   3.715  0.3614 -0.3366 -0.1272
 6577SOL    HW131367   0.063   3.807   3.725  1.7566 -0.1223 -0.4907
 6577SOL    HW231368   0.035   3.684   3.797 -0.3199  0.5163 -0.1512
 6578SOL     OW31369   1.568   1.331  16.980  0.0636  0.1173 -0.6751
 6578SOL    HW131370   1.583   1.425  16.987  2.5809 -0.4667  1.7297
 6578SOL    HW231371   1.485   1.329  16.933  0.3344 -0.8887 -1.1242
 6579SOL     OW31372   1.365   1.084   4.371  0.4393 -0.1093  0.1619
 6579SOL    HW131373   1.276   1.060   4.399  0.5407 -1.5018 -0.6905
 6579SOL    HW231374   1.413   1.093   4.453  0.5864  0.7314 -0.0147
 6580SOL     OW31375   2.975   3.709  16.910 -0.7124 -0.2177  0.0592
 6580SOL    HW131376   2.951   3.785  16.962 -0.9518  0.2923 -0.7866
 6580SOL    HW231377   3.065   3.724  16.881 -0.2932 -1.6146  0.6254
 6581SOL     OW31378   2.743   4.066   7.606 -0.1824  0.2596 -0.4249
 6581SOL    HW131379   2.818   4.117   7.636  0.0334 -0.8220  0.8823
 6581SOL    HW231380   2.778   3.977   7.598  2.3387  1.1146  1.1198
 6582SOL     OW31381   3.265   3.267  10.089  0.2116 -0.4551  0.5489
 6582SOL    HW131382   3.335   3.225  10.039 -0.5259 -1.9450  0.7524
 6582SOL    HW231383   3.221   3.183  10.102 -1.8381  0.3679 -1.0092
 6583SOL     OW31384   4.032   4.561  14.080  0.2745 -0.1578 -0.4142
 6583SOL    HW131385   4.042   4.630  14.146 -2.3981  0.0482 -0.2260
 6583SOL    HW231386   4.066   4.597  13.998 -1.5356 -0.4533 -1.2900
 6584SOL     OW31387   3.513   0.570   8.870  0.1439  0.0224  0.4635
 6584SOL    HW131388   3.488   0.657   8.838 -0.0592  0.1525  0.9810
 6584SOL    HW231389   3.432   0.526   8.845 -0.4243  0.9595  0.6657
 6585SOL     OW31390   2.730   2.726   0.622 -0.5542  0.2496 -0.1789
 6585SOL    HW131391   2.772   2.675   0.554  2.3560  3.8108 -1.0553
 6585SOL    HW231392   2.795   2.723   0.692  0.0603  1.5798 -0.7020
 6586SOL     OW31393   0.585   2.358  16.129 -0.4876  0.6464  0.4951
 6586SOL    HW131394   0.527   2.290  16.095 -0.3374  0.9854 -0.4536
 6586SOL    HW231395   0.543   2.406  16.200  1.3440  1.4695  1.0188
 6587SOL     OW31396   3.968   2.393   8.128 -0.4514  0.4291  0.5085
 6587SOL    HW131397   3.930   2.347   8.203  0.1397 -1.1947 -0.1875
 6587SOL    HW231398   3.947   2.329   8.060  0.4637  0.5146  0.1598
 6588SOL     OW31399   1.898   3.884   4.423  0.2633 -0.0410  0.1581
 6588SOL    HW131400   1.960   3.888   4.350 -1.5129  0.6938 -1.3178
 6588SOL    HW231401   1.919   3.953   4.485 -0.1631  0.6502 -0.4742
 6589SOL     OW31402   3.275   4.581   4.765 -0.1236  0.4948 -0.2341
 6589SOL    HW131403   3.255   4.550   4.853  3.9655  2.4953  1.3779
 6589SOL    HW231404   3.234   4.519   4.705  1.5139  1.0328 -1.9144
 6590SOL     OW31405   3.707   2.285   2.780 -0.0481  0.4599 -0.0532
 6590SOL    HW131406   3.639   2.263   2.843 -0.2102  1.8546  0.2720
 6590SOL    HW231407   3.655   2.328   2.712  1.2306 -1.0484 -1.9655
 6591SOL     OW31408   4.385   1.047   7.158  0.3810  0.4156  0.0975
 6591SOL    HW131409   4.401   1.067   7.066  1.6940 -1.8310 -0.1688
 6591SOL    HW231410   4.346   0.959   7.160 -2.2920  1.6347  0.9096
 6592SOL     OW31411   4.487   0.801   9.434  0.4039 -0.1639 -0.4328
 6592SOL    HW131412   4.490   0.773   9.342 -0.6311 -1.1445 -0.1603
 6592SOL    HW231413   4.560   0.863   9.439  1.1724 -1.0955 -0.0805
 6593SOL     OW31414   4.298   0.892   2.523 -0.3190 -0.1661 -0.5620
 6593SOL    HW131415   4.275   0.914   2.613 -0.5037  0.5563 -0.7833
 6593SOL    HW231416   4.379   0.842   2.539  0.4465  1.7694  1.6092
 6594SOL     OW31417   2.755   1.117   3.515 -0.0768 -0.1403  0.7020
 6594SOL    HW131418   2.686   1.172   3.478  1.2576  1.0715  0.0100
 6594SOL    HW231419   2.774   1.164   3.596 -1.4338  2.1080 -0.3017
 6595SOL     OW31420   0.631   0.365   0.884  0.5980  0.4317 -1.1277
 6595SOL    HW131421   0.715   0.346   0.927 -0.7263  1.0996  1.8052
 6595SOL    HW231422   0.652   0.317   0.804 -1.4364 -1.9366 -0.2721
 6596SOL     OW31423   2.324   1.996   1.182  0.1139 -0.1172  0.0376
 6596SOL    HW131424   2.268   2.022   1.255  0.6330 -0.6700  0.6302
 6596SOL    HW231425   2.409   2.024   1.215 -1.0827  1.5403  1.7474
 6597SOL     OW31426   2.033   0.507   3.570  0.0328  0.4367  0.4201
 6597SOL    HW131427   2.121   0.544   3.567  0.7983 -1.6737 -2.5081
 6597SOL    HW231428   2.048   0.413   3.577  0.4266  0.4699 -0.0089
 6598SOL     OW31429   3.154   2.624   8.427  0.0372 -0.2717 -0.3377
 6598SOL    HW131430   3.158   2.676   8.508 -0.9669  0.7190 -0.9328
 6598SOL    HW231431   3.238   2.642   8.386 -0.6335  0.7479 -1.2820
 6599SOL     OW31432   4.370   3.708   0.731 -0.2175  0.2193 -0.3177
 6599SOL    HW131433   4.397   3.798   0.751 -0.8252  0.1116  0.9449
 6599SOL    HW231434   4.457   3.668   0.734 -0.6011 -0.5576  0.3408
 6600SOL     OW31435   4.618   3.577  10.174 -0.5601 -0.5549 -0.4172
 6600SOL    HW131436   4.646   3.489  10.149  0.5080 -0.6058  0.9645
 6600SOL    HW231437   4.664   3.597  10.256 -1.1160 -1.6148  0.1632
 6601SOL     OW31438   0.365   0.551   8.100 -0.7483  0.7282 -0.1803
 6601SOL    HW131439   0.455   0.529   8.073  0.2427  1.3689  2.6354
 6601SOL    HW231440   0.358   0.642   8.070 -0.1874  1.1861  1.0650
 6602SOL     OW31441   1.803   2.119  17.003 -0.3366 -0.9656  0.2249
 6602SOL    HW131442   1.719   2.119  16.959 -0.7195 -0.9565  0.9478
 6602SOL    HW231443   1.789   2.191  17.065  0.8994 -1.4477  1.0725
 6603SOL     OW31444   4.711   3.270   2.176  0.2484 -0.7268 -0.4970
 6603SOL    HW131445   0.061   3.244   2.169  0.5158  0.2238 -0.5353
 6603SOL    HW231446   4.673   3.183   2.190  1.8863 -1.8289 -3.1018
 6604SOL     OW31447   1.774   1.467   1.996 -0.2765  0.5046 -0.2415
 6604SOL    HW131448   1.836   1.467   1.923  0.8007 -1.3534  0.6670
 6604SOL    HW231449   1.815   1.528   2.058 -0.5730 -1.2132  1.6483
 6605SOL     OW31450   2.617   0.220  10.860  0.3710 -0.3026 -0.2517
 6605SOL    HW131451   2.671   0.191  10.787 -1.5582 -2.2922 -0.9007
 6605SOL    HW231452   2.632   0.314  10.857 -0.6650 -0.0756  1.4189
 6606SOL     OW31453   1.124   2.683  11.996 -0.1266  0.5228 -0.1229
 6606SOL    HW131454   1.126   2.702  12.090  1.8445  2.0464 -0.4665
 6606SOL    HW231455   1.029   2.687  11.984  0.0416 -2.3570 -2.5315
 6607SOL     OW31456   0.189   4.325  17.206  0.0923  0.4309 -0.7005
 6607SOL    HW131457   0.148   4.356  17.287 -2.4751  0.8066 -2.1781
 6607SOL    HW231458   0.260   4.390  17.200  0.8487 -0.4718 -1.4355
 6608SOL     OW31459   4.567   1.684   2.422  0.2638 -0.5364 -0.2015
 6608SOL    HW131460   4.540   1.629   2.348  0.2526  0.7958 -1.1883
 6608SOL    HW231461   4.509   1.649   2.490  0.0939 -2.1069 -1.1464
 6609SOL     OW31462   1.909   4.560  15.355  0.5068  0.4035 -0.2376
 6609SOL    HW131463   1.927   4.525  15.268 -2.4367 -1.5096 -0.0550
 6609SOL    HW231464   1.948   4.496  15.414  0.5684 -0.4409 -1.2052
 6610SOL     OW31465   1.790   4.140   1.996  0.5124 -0.3120 -0.5858
 6610SOL    HW131466   1.782   4.210   1.931  3.6052  0.6813  0.1055
 6610SOL    HW231467   1.807   4.188   2.076  0.0702 -1.6142  0.2965
 6611SOL     OW31468   3.686   0.366   5.497 -0.0872  0.4729 -0.3841
 6611SOL    HW131469   3.605   0.369   5.547 -0.6389  0.3240 -1.2690
 6611SOL    HW231470   3.658   0.384   5.407 -0.4689  0.4007 -0.2802
 6612SOL     OW31471   0.038   1.108   5.245  0.2269 -0.7586 -0.1353
 6612SOL    HW131472   0.084   1.192   5.246 -0.9272 -0.1195 -0.0452
 6612SOL    HW231473   0.116   1.055   5.260 -1.2368 -2.7467  0.4898
 6613SOL     OW31474   0.431   4.702   8.836 -0.0924 -0.4190  0.5571
 6613SOL    HW131475   0.454   4.689   8.929 -1.8850 -1.5664  0.8321
 6613SOL    HW231476   0.404   4.611   8.826 -0.6225 -0.1614 -0.2858
 6614SOL     OW31477   0.136   3.325   3.399 -0.3298  0.0626 -0.4075
 6614SOL    HW131478   0.122   3.246   3.450 -2.9128  0.9267  0.1953
 6614SOL    HW231479   0.217   3.349   3.446  2.2896 -0.3019 -4.7040
 6615SOL     OW31480   0.933   4.346   4.652 -0.0182 -0.9590 -0.2099
 6615SOL    HW131481   0.855   4.374   4.701 -0.2363 -1.2731 -0.3752
 6615SOL    HW231482   0.886   4.334   4.570  2.0041  1.3110 -1.6831
 6616SOL     OW31483   0.728   2.080  11.575 -0.9244  0.5683 -0.3151
 6616SOL    HW131484   0.698   2.038  11.656  3.1181  0.3404  1.0771
 6616SOL    HW231485   0.778   2.006  11.542  0.6379  0.8718  1.3546
 6617SOL     OW31486   4.399   4.086   2.747  0.3426  0.0956  0.1830
 6617SOL    HW131487   4.409   4.036   2.666 -0.3855  1.1060 -0.5482
 6617SOL    HW231488   4.412   4.172   2.707 -0.1923 -0.5916 -1.4760
 6618SOL     OW31489   3.423   4.015   8.463 -0.8821  0.2939  0.1484
 6618SOL    HW131490   3.356   3.999   8.529  1.0937 -0.1757  2.0328
 6618SOL    HW231491   3.374   4.065   8.398 -1.2702 -1.6392 -1.0444
 6619SOL     OW31492   0.926   2.811  11.639  0.2267 -0.0296 -0.3655
 6619SOL    HW131493   1.003   2.814  11.695 -0.7792  0.2456  1.0287
 6619SOL    HW231494   0.857   2.833  11.702  1.3700 -0.4635  1.0547
 6620SOL     OW31495   4.379   4.398   8.726 -0.1243 -0.1862 -0.4084
 6620SOL    HW131496   4.323   4.400   8.648 -3.6145  0.9407  2.1158
 6620SOL    HW231497   4.442   4.329   8.709  0.0333  0.3689 -2.1238
 6621SOL     OW31498   0.660   0.376  10.505 -0.4087  0.0501  0.2229
 6621SOL    HW131499   0.732   0.438  10.489  0.1812 -0.7023 -0.0218
 6621SOL    HW231500   0.654   0.336  10.418 -0.9515  2.5490 -0.8794
 6622SOL     OW31501   2.716   1.642   2.536  0.2709  0.1003  0.6202
 6622SOL    HW131502   2.741   1.593   2.458 -0.9924  3.6580 -2.0424
 6622SOL    HW231503   2.623   1.629   2.519  0.3643  0.3849 -0.1139
 6623SOL     OW31504   0.496   2.121   3.942  0.1875 -0.2281  0.0370
 6623SOL    HW131505   0.430   2.053   3.930 -1.0951  1.2099 -1.1305
 6623SOL    HW231506   0.576   2.075   3.918 -0.6470 -1.3257 -0.6203
 6624SOL     OW31507   3.636   3.616   3.622 -0.5001  0.0796 -0.5567
 6624SOL    HW131508   3.712   3.573   3.582 -0.3410 -0.4247  0.2798
 6624SOL    HW231509   3.589   3.636   3.541  0.3708 -1.1107 -1.3645
 6625SOL     OW31510   4.352   2.557   9.288 -0.7222  0.1353 -0.5000
 6625SOL    HW131511   4.338   2.474   9.242  2.3281  1.2641 -3.4730
 6625SOL    HW231512   4.272   2.610   9.277 -0.8781 -0.3612 -1.8014
 6626SOL     OW31513   2.493   2.459  12.862  0.1989 -0.1336 -0.1020
 6626SOL    HW131514   2.433   2.387  12.842  0.1869  0.0307 -0.6411
 6626SOL    HW231515   2.492   2.516  12.786 -1.5081  1.2942  1.0127
 6627SOL     OW31516   0.895   3.539   8.567 -0.9068  0.2480  0.6423
 6627SOL    HW131517   0.818   3.547   8.624  0.2914 -1.3445  2.4872
 6627SOL    HW231518   0.971   3.561   8.620  0.3755 -0.3129 -0.9784
 6628SOL     OW31519   1.729   0.804   1.832 -0.5883 -0.3799 -0.0784
 6628SOL    HW131520   1.739   0.860   1.755 -3.8570  0.4682  0.1114
 6628SOL    HW231521   1.721   0.872   1.900 -0.2873  1.7856 -2.2240
 6629SOL     OW31522   3.189   1.737  11.298 -0.5434 -0.3646  0.1971
 6629SOL    HW131523   3.264   1.797  11.303 -1.4574  0.8180 -0.3242
 6629SOL    HW231524   3.205   1.689  11.379  1.6827  0.9596  0.5415
 6630SOL     OW31525   0.817   2.479  10.054  0.0522  0.0174  0.7330
 6630SOL    HW131526   0.861   2.442   9.977 -0.9899 -1.7540  0.9782
 6630SOL    HW231527   0.728   2.445  10.046 -0.4376  0.9054  2.4677
 6631SOL     OW31528   3.193   4.420   6.274 -0.6136  0.4098 -0.0984
 6631SOL    HW131529   3.211   4.365   6.351  0.4338  0.4425 -0.3241
 6631SOL    HW231530   3.098   4.417   6.288 -0.3627  1.2577  1.7719
 6632SOL     OW31531   3.472   3.995  17.320  0.3433  0.3643  0.4747
 6632SOL    HW131532   3.498   4.033  17.236 -0.0737  2.9741  1.4971
 6632SOL    HW231533   3.429   4.074  17.353 -2.2513 -0.8023 -0.0807
 6633SOL     OW31534   4.463   4.686   2.696  0.0083 -1.5613 -0.0837
 6633SOL    HW131535   4.399   4.704   2.765  1.9968  1.6484  0.8829
 6633SOL    HW231536   4.419   4.705   2.613  0.7500 -0.7185 -0.2855
 6634SOL     OW31537   3.598   1.872   4.426  0.4739  0.5813 -0.4455
 6634SOL    HW131538   3.605   1.798   4.365 -0.3714  0.3429 -0.2543
 6634SOL    HW231539   3.688   1.883   4.457  0.4312 -1.0572  0.2459
 6635SOL     OW31540   1.332   4.116   6.810 -0.8732  0.0249  0.2472
 6635SOL    HW131541   1.424   4.141   6.807 -0.4565 -1.8124 -1.7581
 6635SOL    HW231542   1.325   4.071   6.894 -1.6324  0.4295  0.4057
 6636SOL     OW31543   3.943   1.687   7.210  0.1715 -0.3383 -0.4038
 6636SOL    HW131544   3.924   1.619   7.146 -1.5686 -0.8569  0.6690
 6636SOL    HW231545   3.931   1.769   7.163 -1.8646 -0.8362 -0.7541
 6637SOL     OW31546   0.736   1.072   2.123  0.0199  0.1387  0.0365
 6637SOL    HW131547   0.653   1.045   2.162  0.5139 -1.9947 -0.4405
 6637SOL    HW231548   0.720   1.053   2.031 -0.7769 -1.4571  0.5272
 6638SOL     OW31549   3.340   3.246   9.578 -0.0080  0.3250 -0.7144
 6638SOL    HW131550   3.270   3.295   9.535  0.0490 -0.5231 -1.7679
 6638SOL    HW231551   3.287   3.201   9.645 -0.7636  2.0410 -0.1677
 6639SOL     OW31552   2.188   2.788   9.068  0.2489  0.3537  0.4906
 6639SOL    HW131553   2.145   2.723   9.124  1.4565 -0.5297  0.3819
 6639SOL    HW231554   2.224   2.731   9.000 -4.1771 -2.4738  0.5448
 6640SOL     OW31555   0.169   2.158   2.366  0.4232 -0.1336  0.1522
 6640SOL    HW131556   0.169   2.174   2.271  0.7563  3.1490  0.7004
 6640SOL    HW231557   0.252   2.110   2.371  0.3536 -0.6103 -3.0919
 6641SOL     OW31558   0.973   2.967   2.302  0.3929  0.4640 -0.3344
 6641SOL    HW131559   0.912   3.032   2.266 -0.6008 -0.4492 -0.2807
 6641SOL    HW231560   1.045   2.964   2.239  0.7788 -2.0969  0.2334
 6642SOL     OW31561   4.312   4.334  11.226  0.5616  0.0933 -0.2042
 6642SOL    HW131562   4.255   4.345  11.149 -2.6434  2.5340  2.5278
 6642SOL    HW231563   4.247   4.283  11.274 -0.8995  0.1093 -2.1205
 6643SOL     OW31564   3.996   1.982   8.036  0.1800 -0.0130 -0.0903
 6643SOL    HW131565   3.967   1.952   7.950  1.8721 -2.4166  0.1834
 6643SOL    HW231566   3.944   2.062   8.045  0.6420  0.0925  1.5895
 6644SOL     OW31567   3.665   1.114   0.697 -0.2923 -0.3177 -0.3959
 6644SOL    HW131568   3.688   1.180   0.632 -1.3284 -1.0483 -1.5108
 6644SOL    HW231569   3.679   1.161   0.779 -0.1599 -0.5772 -0.2686
 6645SOL     OW31570   4.266   0.984   9.413 -0.0283 -0.0669  0.6831
 6645SOL    HW131571   4.336   1.022   9.361 -0.3855  0.6454  0.7189
 6645SOL    HW231572   4.316   0.906   9.437  0.4863 -0.0267 -0.2646
 6646SOL     OW31573   2.183   2.933   4.120 -0.0179 -0.3468  0.0488
 6646SOL    HW131574   2.114   2.916   4.184 -0.4823  0.1528 -0.3138
 6646SOL    HW231575   2.193   3.028   4.120 -3.5209  0.0331 -0.1770
 6647SOL     OW31576   2.265   3.563  17.245 -0.4486  0.6147  0.1385
 6647SOL    HW131577   2.170   3.560  17.232 -0.4436 -2.0958  0.6138
 6647SOL    HW231578   2.278   3.469  17.230  0.8887  0.3926  2.6775
 6648SOL     OW31579   4.308   4.053  16.552  0.5460 -0.1871  0.0157
 6648SOL    HW131580   4.281   3.969  16.590  1.4316  0.9624  3.2205
 6648SOL    HW231581   4.228   4.077  16.506  0.5566  0.5636  0.3971
 6649SOL     OW31582   2.945   3.201   2.164 -0.0774  0.8302 -0.0719
 6649SOL    HW131583   2.963   3.295   2.156 -0.8330  0.9753 -0.1198
 6649SOL    HW231584   2.937   3.194   2.068 -0.5384  0.1936  0.0149
 6650SOL     OW31585   0.502   0.598   2.562 -0.2141 -0.0548 -0.1263
 6650SOL    HW131586   0.487   0.625   2.471  1.0935  0.6786 -0.1241
 6650SOL    HW231587   0.596   0.616   2.565  0.0916 -1.0945 -3.4540
 6651SOL     OW31588   4.234   4.218   4.417 -0.1048 -0.3483 -0.0091
 6651SOL    HW131589   4.140   4.219   4.398 -0.4965 -3.0792  1.6704
 6651SOL    HW231590   4.245   4.162   4.494 -2.5038  0.4656  0.9368
 6652SOL     OW31591   1.629   0.587  15.497  0.4161  0.5162 -0.7473
 6652SOL    HW131592   1.601   0.574  15.406  0.1081  0.5417 -0.6571
 6652SOL    HW231593   1.714   0.544  15.501 -0.0390 -0.2582  0.5770
 6653SOL     OW31594   1.859   2.935  16.550 -0.3366  0.5651  0.4236
 6653SOL    HW131595   1.772   2.928  16.589 -0.9861 -0.0675 -1.1133
 6653SOL    HW231596   1.909   2.927  16.631  0.3827 -0.6041 -0.1307
 6654SOL     OW31597   1.769   2.635   5.676 -0.2101 -0.6093 -0.4519
 6654SOL    HW131598   1.853   2.622   5.719 -1.8780 -1.5154  2.4742
 6654SOL    HW231599   1.757   2.551   5.631  0.1768 -2.0254  2.0931
 6655SOL     OW31600   2.628   0.602   4.493 -0.3332 -1.1102 -0.0013
 6655SOL    HW131601   2.697   0.603   4.427  0.0211 -0.1862  0.3728
 6655SOL    HW231602   2.645   0.685   4.539  2.9803 -0.4677 -2.3217
 6656SOL     OW31603   3.213   3.501   6.503 -0.4755 -0.4738 -0.0967
 6656SOL    HW131604   3.153   3.447   6.450  0.3129 -1.0363 -0.4161
 6656SOL    HW231605   3.172   3.492   6.590 -2.1736 -2.6149 -1.0955
 6657SOL     OW31606   2.471   3.680   0.998  0.6763 -0.3554  0.0186
 6657SOL    HW131607   2.489   3.709   0.909  4.4902 -0.1688  0.8537
 6657SOL    HW231608   2.449   3.761   1.044  1.1520 -0.1862 -0.0543
 6658SOL     OW31609   4.176   3.100   9.360  0.0940  0.1931  0.0310
 6658SOL    HW131610   4.239   3.062   9.298 -1.9336 -0.9342 -1.3350
 6658SOL    HW231611   4.190   3.047   9.438  1.8752  1.5728  0.6541
 6659SOL     OW31612   1.385   1.763   7.700  0.5349  0.1924  0.5393
 6659SOL    HW131613   1.366   1.833   7.762 -0.1980  1.6932 -1.3800
 6659SOL    HW231614   1.312   1.704   7.721  1.3479 -2.1510 -3.0691
 6660SOL     OW31615   3.838   1.408   5.959  0.1911 -0.1202  0.1933
 6660SOL    HW131616   3.814   1.355   6.035 -0.2475 -1.5916 -0.9876
 6660SOL    HW231617   3.811   1.497   5.981 -3.5215 -1.0353 -0.7472
 6661SOL     OW31618   0.888   2.095   1.394 -0.3518  0.9153 -0.5981
 6661SOL    HW131619   0.960   2.073   1.452 -0.8408  1.2042  0.1170
 6661SOL    HW231620   0.898   2.028   1.327  1.9233  1.0881 -0.4097
 6662SOL     OW31621   1.804   3.922   3.393  0.1137 -0.7554 -0.0406
 6662SOL    HW131622   1.885   3.944   3.348  0.8246  0.3524  1.7716
 6662SOL    HW231623   1.799   3.828   3.375  0.9357 -0.8422  0.1814
 6663SOL     OW31624   2.023   2.239  11.045 -0.3470 -0.0570  0.5216
 6663SOL    HW131625   2.016   2.144  11.033 -1.5171  0.1078 -0.0952
 6663SOL    HW231626   1.931   2.264  11.053 -0.3672 -0.0789  0.3531
 6664SOL     OW31627   4.339   1.390   6.827  0.3758 -0.0729  0.1856
 6664SOL    HW131628   4.372   1.480   6.831 -0.2247  0.0716  1.9617
 6664SOL    HW231629   4.244   1.401   6.829  0.2687 -1.0816  1.1071
 6665SOL     OW31630   2.041   1.534   9.110 -0.2828  0.3012 -0.0859
 6665SOL    HW131631   2.098   1.510   9.182  0.5503 -1.4140 -1.3110
 6665SOL    HW231632   2.106   1.542   9.041 -0.9080  0.7935 -0.6240
 6666SOL     OW31633   2.761   3.667  15.819 -0.4837  0.5091  0.5332
 6666SOL    HW131634   2.810   3.748  15.806  0.2479 -0.0378 -0.0816
 6666SOL    HW231635   2.738   3.680  15.911 -0.1800  0.1405  0.6642
 6667SOL     OW31636   4.641   3.770   6.449 -0.5705  0.3288  0.2511
 6667SOL    HW131637   4.547   3.753   6.446 -0.6589  0.8704 -0.1502
 6667SOL    HW231638   4.654   3.800   6.540 -2.3124 -2.0542  1.2862
 6668SOL     OW31639   0.124   0.762   5.879  0.1638 -0.2949 -0.4237
 6668SOL    HW131640   0.169   0.700   5.936 -1.3598  0.2673  1.4066
 6668SOL    HW231641   0.047   0.785   5.932 -0.1285 -1.4500 -0.3461
 6669SOL     OW31642   3.216   0.854   7.428  0.0572  0.0264 -0.0956
 6669SOL    HW131643   3.219   0.920   7.497  1.3848  1.5038 -1.5786
 6669SOL    HW231644   3.176   0.900   7.353  0.2551 -0.4627 -0.5019
 6670SOL     OW31645   2.012   0.831  12.587 -0.3875  0.1257  0.3421
 6670SOL    HW131646   1.990   0.910  12.537 -0.6337 -0.3466 -0.2916
 6670SOL    HW231647   2.105   0.854  12.583  0.2233 -2.5224 -0.7259
 6671SOL     OW31648   3.642   0.088   5.531  0.0096  0.0802  0.2657
 6671SOL    HW131649   3.726   0.072   5.573 -0.2359 -0.7061  0.4721
 6671SOL    HW231650   3.651   0.182   5.520 -2.0644 -0.0842 -2.6951
 6672SOL     OW31651   2.949   0.779   3.436 -0.3696  0.2430  0.0720
 6672SOL    HW131652   2.937   0.728   3.517  4.2919 -0.7875  0.1338
 6672SOL    HW231653   2.866   0.759   3.392  0.1759  0.1843 -0.9078
 6673SOL     OW31654   0.300   0.949   4.474 -0.2846  0.1373 -0.3425
 6673SOL    HW131655   0.280   0.871   4.422 -0.9983 -1.2292  1.9873
 6673SOL    HW231656   0.396   0.951   4.470 -0.1583 -0.2827  2.8406
 6674SOL     OW31657   3.587   3.379   2.668  0.4524  0.0581 -0.2403
 6674SOL    HW131658   3.566   3.463   2.709 -1.7101 -0.2160 -0.7911
 6674SOL    HW231659   3.683   3.380   2.659  0.3378  0.1604 -1.4904
 6675SOL     OW31660   1.415   3.253   1.740  0.2607  0.4129  0.0358
 6675SOL    HW131661   1.486   3.269   1.802  0.1624 -0.6469  0.4065
 6675SOL    HW231662   1.335   3.282   1.784 -0.2380  1.0451 -1.2571
 6676SOL     OW31663   1.764   1.438   8.023 -0.5251 -0.5558 -0.3006
 6676SOL    HW131664   1.780   1.427   8.117  0.6465  1.2659 -0.3000
 6676SOL    HW231665   1.669   1.449   8.019 -0.6159 -1.5604 -0.9409
 6677SOL     OW31666   2.458   4.356   4.458  0.4575  0.5727 -0.0095
 6677SOL    HW131667   2.424   4.343   4.547  1.2812 -1.5648 -0.0167
 6677SOL    HW231668   2.386   4.324   4.403  0.5334 -3.1561  2.0623
 6678SOL     OW31669   1.008   2.196   2.206  0.3301 -0.2448 -0.1119
 6678SOL    HW131670   0.934   2.157   2.253 -0.0381 -0.1242 -0.5973
 6678SOL    HW231671   0.999   2.151   2.122  3.5474  0.7429 -1.0163
 6679SOL     OW31672   4.706   4.374  11.250 -0.7196  0.0852 -0.1590
 6679SOL    HW131673   4.726   4.353  11.159  0.1090  1.4377 -0.2929
 6679SOL    HW231674   4.668   4.291  11.281 -0.6202 -0.1951 -0.7893
 6680SOL     OW31675   2.774   2.268  13.891 -0.5891 -0.7778  0.5448
 6680SOL    HW131676   2.759   2.352  13.848 -1.3654 -0.6734  1.0029
 6680SOL    HW231677   2.868   2.256  13.884 -0.5205 -0.1476  0.3593
 6681SOL     OW31678   0.435   0.544  12.622 -0.4781 -0.2041  0.2105
 6681SOL    HW131679   0.408   0.591  12.543  1.3137 -0.0758 -0.3239
 6681SOL    HW231680   0.349   0.531  12.663 -0.6867  0.9377  0.1242
 6682SOL     OW31681   0.001   0.454   8.284 -0.7113 -0.2999 -0.1945
 6682SOL    HW131682   0.004   0.529   8.224  1.6922  0.0601  0.3666
 6682SOL    HW231683   4.647   0.458   8.283 -0.6589  0.6377 -1.6152
 6683SOL     OW31684   3.702   3.038   2.925 -0.6798  0.1820  0.0512
 6683SOL    HW131685   3.684   3.121   2.970 -1.1093  1.2606 -2.1328
 6683SOL    HW231686   3.719   3.070   2.837 -1.4924  0.1850 -0.0984
 6684SOL     OW31687   2.995   4.620   7.316 -0.2673 -0.6020 -0.4518
 6684SOL    HW131688   3.023   4.693   7.371 -0.8841  0.0004 -0.9386
 6684SOL    HW231689   2.964   4.555   7.379 -0.1315 -0.5625 -0.3441
 6685SOL     OW31690   2.124   1.080   5.295  0.4853  0.0983  0.5293
 6685SOL    HW131691   2.105   0.989   5.276  1.8235  0.2972 -1.6652
 6685SOL    HW231692   2.216   1.094   5.275  0.0432  1.3670 -0.6214
 6686SOL     OW31693   1.161   3.141   2.143 -0.1741  0.5614  0.0893
 6686SOL    HW131694   1.153   3.131   2.237 -0.6066 -0.2662 -0.0379
 6686SOL    HW231695   1.189   3.233   2.140  0.9457  0.2757  2.4981
 6687SOL     OW31696   4.472   1.190   3.271 -0.4335 -0.1052 -0.1235
 6687SOL    HW131697   4.493   1.134   3.346  0.4065 -0.0668 -0.3275
 6687SOL    HW231698   4.423   1.257   3.318  2.5553  0.3592  2.3775
 6688SOL     OW31699   2.851   1.492   6.663 -0.1057  0.2233 -0.2959
 6688SOL    HW131700   2.886   1.571   6.622  0.0646 -0.9101 -2.3425
 6688SOL    HW231701   2.830   1.523   6.751  1.4374  1.0862 -0.2442
 6689SOL     OW31702   0.430   3.720  10.697 -0.0775 -0.3259  0.4211
 6689SOL    HW131703   0.437   3.804  10.741  1.9838  0.1245 -0.7637
 6689SOL    HW231704   0.520   3.690  10.707 -0.4512 -1.1703  1.2413
 6690SOL     OW31705   1.872   2.282   2.359 -0.6484  0.4059  0.3281
 6690SOL    HW131706   1.819   2.318   2.288  0.0748  0.9010  0.0379
 6690SOL    HW231707   1.906   2.200   2.324 -0.7539  0.3925  0.2599
 6691SOL     OW31708   4.266   1.092   1.439  0.2480  0.5272 -0.0343
 6691SOL    HW131709   4.248   1.185   1.448 -1.2008  0.0482  1.8077
 6691SOL    HW231710   4.324   1.093   1.362  0.1630 -0.8680 -0.1246
 6692SOL     OW31711   0.848   2.603  13.731 -0.7920  0.0638  0.1466
 6692SOL    HW131712   0.832   2.646  13.815 -0.1343 -3.1967  1.9755
 6692SOL    HW231713   0.942   2.616  13.723 -0.7657  1.3235  2.4362
 6693SOL     OW31714   1.384   1.980   2.382 -0.2625  0.2107  0.1669
 6693SOL    HW131715   1.436   1.911   2.424  1.2895  1.5110  0.4019
 6693SOL    HW231716   1.297   1.942   2.373 -0.5012  0.8765 -0.3130
 6694SOL     OW31717   2.024   4.297  14.239  0.1066 -0.1776  0.2173
 6694SOL    HW131718   2.106   4.322  14.283  0.8345  0.2974 -1.4316
 6694SOL    HW231719   2.007   4.216  14.288 -1.1248 -0.4890 -0.7533
 6695SOL     OW31720   4.087   0.892  13.864 -0.2828  0.7992  0.3861
 6695SOL    HW131721   4.159   0.932  13.913  2.1405 -0.3253 -2.3102
 6695SOL    HW231722   4.021   0.929  13.923  1.6007  2.8086  1.2468
 6696SOL     OW31723   0.333   2.988   0.564 -0.0972 -0.1328 -0.0936
 6696SOL    HW131724   0.272   3.059   0.584  0.7769  0.6260 -0.1139
 6696SOL    HW231725   0.398   2.990   0.635  0.7697  0.3260 -0.9126
 6697SOL     OW31726   4.605   0.351   5.212 -0.3022 -0.0683 -0.5885
 6697SOL    HW131727   4.509   0.347   5.206 -0.3747  0.6588  0.1662
 6697SOL    HW231728   4.615   0.325   5.304  0.7682  1.7227 -0.2056
 6698SOL     OW31729   0.764   2.080   2.334 -0.1371  0.0214  0.4837
 6698SOL    HW131730   0.731   2.165   2.360  0.5483  0.8444 -1.3154
 6698SOL    HW231731   0.708   2.025   2.389  0.7227  0.9676  2.2875
 6699SOL     OW31732   4.416   2.551   4.720 -0.2595  0.2839 -0.3550
 6699SOL    HW131733   4.491   2.558   4.661 -1.2038  2.5326 -1.2800
 6699SOL    HW231734   4.346   2.595   4.673 -0.1040  0.5641 -0.3192
 6700SOL     OW31735   3.909   0.817   3.517 -0.4543  0.3418  0.1243
 6700SOL    HW131736   3.861   0.835   3.435 -0.0645  0.6556 -0.0347
 6700SOL    HW231737   3.838   0.822   3.581  0.3036 -1.5500  1.0834
 6701SOL     OW31738   0.275   1.005   7.816 -0.1277 -0.4931 -0.4424
 6701SOL    HW131739   0.230   0.934   7.771 -1.0430 -0.4898  0.4719
 6701SOL    HW231740   0.311   1.061   7.747 -1.0480  0.0556 -0.4829
 6702SOL     OW31741   3.086   3.647  16.239 -0.6481  0.3315  0.2784
 6702SOL    HW131742   3.018   3.706  16.269 -1.1166  0.4419 -1.0127
 6702SOL    HW231743   3.050   3.582  16.178 -1.6270 -0.1419  1.3496
 6703SOL     OW31744   3.730   4.401  14.180 -0.3657  0.3694 -0.4969
 6703SOL    HW131745   3.805   4.446  14.218 -0.1945  1.8218 -2.5508
 6703SOL    HW231746   3.773   4.319  14.154 -1.1485  0.1749 -1.1617
 6704SOL     OW31747   1.679   0.145  11.459 -0.0584  0.0430 -0.3864
 6704SOL    HW131748   1.586   0.166  11.466 -0.1377 -0.8067  1.0824
 6704SOL    HW231749   1.714   0.171  11.544 -1.5942  0.6016  0.0742
 6705SOL     OW31750   2.560   1.395   4.870 -0.6758  0.3161 -0.2221
 6705SOL    HW131751   2.568   1.434   4.783  0.1570 -0.7421 -0.6182
 6705SOL    HW231752   2.639   1.422   4.916  0.8128 -0.1280 -2.5684
 6706SOL     OW31753   2.174   0.108  16.049 -0.2724 -0.2623 -0.1404
 6706SOL    HW131754   2.265   0.111  16.081 -0.4196 -0.6666  0.3193
 6706SOL    HW231755   2.164   0.019  16.084 -1.4788  0.2233  0.7594
 6707SOL     OW31756   4.165   0.308   9.056 -0.4140  0.7334  0.4032
 6707SOL    HW131757   4.251   0.350   9.054  0.1216 -0.3912 -0.2841
 6707SOL    HW231758   4.130   0.325   8.969  0.3169  0.7011  0.0977
 6708SOL     OW31759   2.373   2.255   6.249  0.1523  0.3781 -0.4615
 6708SOL    HW131760   2.364   2.185   6.185  1.6611  1.5312 -1.9097
 6708SOL    HW231761   2.286   2.291   6.230 -0.3010 -0.8336 -0.6617
 6709SOL     OW31762   1.817   2.198  10.488 -0.1679 -0.3849 -0.3975
 6709SOL    HW131763   1.826   2.115  10.442  1.4687 -0.2945 -0.2502
 6709SOL    HW231764   1.838   2.255  10.415  1.0338 -0.0393  0.2202
 6710SOL     OW31765   3.412   3.931   7.810  0.0791 -0.2576  0.1443
 6710SOL    HW131766   3.422   4.010   7.757  2.8390  0.1625  1.3204
 6710SOL    HW231767   3.344   3.881   7.765 -0.3741 -0.2674  0.8423
 6711SOL     OW31768   0.484   1.544  11.067 -0.2625  0.5888 -0.2449
 6711SOL    HW131769   0.466   1.610  11.133 -2.5349 -0.7762  0.4990
 6711SOL    HW231770   0.579   1.532  11.061 -0.2478 -0.4978  2.3431
 6712SOL     OW31771   2.929   0.405   4.593  0.5557  0.1017 -0.4748
 6712SOL    HW131772   2.941   0.348   4.669  2.7107  1.3199  0.0853
 6712SOL    HW231773   2.838   0.395   4.565  0.4419  1.6364 -0.6902
 6713SOL     OW31774   0.610   3.320  15.521  0.1658  0.3494  0.3273
 6713SOL    HW131775   0.641   3.395  15.471 -2.3406 -0.0687 -1.8153
 6713SOL    HW231776   0.526   3.360  15.544 -0.7863 -0.2771 -2.1109
 6714SOL     OW31777   4.344   1.013  17.213 -0.1966  0.5908  0.2255
 6714SOL    HW131778   4.420   0.987  17.161  0.4109  1.2494  0.7790
 6714SOL    HW231779   4.269   0.963  17.182  0.0535 -0.8723  1.9521
 6715SOL     OW31780   1.590   2.809   3.929  0.1701  0.2425 -0.4481
 6715SOL    HW131781   1.636   2.879   3.883  0.5899 -0.1216 -0.5897
 6715SOL    HW231782   1.642   2.805   4.009  1.0736  2.2730 -0.9332
 6716SOL     OW31783   3.957   2.284   4.927  0.5731  0.1320  0.1471
 6716SOL    HW131784   3.973   2.311   4.836 -0.2216  1.7588  0.4969
 6716SOL    HW231785   3.945   2.370   4.968 -0.8357  1.2484 -2.6157
 6717SOL     OW31786   3.239   3.679   3.995  0.1136  0.3583 -0.0398
 6717SOL    HW131787   3.294   3.606   3.966 -0.5128  0.1140 -0.6163
 6717SOL    HW231788   3.276   3.745   3.935  0.3438  0.1267 -0.1521
 6718SOL     OW31789   1.584   2.898   7.029  0.1592 -0.0740  0.2701
 6718SOL    HW131790   1.498   2.940   7.026 -0.2210 -0.7767  1.6337
 6718SOL    HW231791   1.637   2.972   6.998 -1.9497  0.9121 -0.9832
 6719SOL     OW31792   3.501   0.246   7.478  0.6702 -0.1752  1.2587
 6719SOL    HW131793   3.585   0.210   7.506  1.6419  2.5365  1.7812
 6719SOL    HW231794   3.527   0.290   7.397  1.8415 -2.2075  0.5418
 6720SOL     OW31795   3.710   3.470   9.487 -0.5703  0.0868  0.3296
 6720SOL    HW131796   3.687   3.549   9.537 -3.5445  0.8064 -2.1850
 6720SOL    HW231797   3.740   3.520   9.411 -0.5550 -1.4557 -0.6872
 6721SOL     OW31798   2.031   3.143  15.194 -0.6577 -0.1235 -1.1279
 6721SOL    HW131799   1.991   3.106  15.115 -1.2427 -1.6383 -0.1145
 6721SOL    HW231800   2.056   3.067  15.245  0.6494  0.7765 -0.4279
 6722SOL     OW31801   1.406   0.932   5.741  0.6737  0.1321  0.0132
 6722SOL    HW131802   1.412   0.979   5.825  1.8809  2.6066 -1.4600
 6722SOL    HW231803   1.322   0.974   5.719  1.0516  1.1556  0.5496
 6723SOL     OW31804   4.204   3.943   9.092 -0.3754  0.2260 -0.0028
 6723SOL    HW131805   4.175   4.031   9.068 -0.4270  0.7564  1.9875
 6723SOL    HW231806   4.185   3.926   9.184  0.4152 -2.0172 -0.2619
 6724SOL     OW31807   4.595   2.646   9.152 -0.8403  0.1272  0.7720
 6724SOL    HW131808   4.653   2.667   9.225 -0.2722  0.1101  0.3240
 6724SOL    HW231809   4.519   2.623   9.206  0.3891 -1.5691  1.7841
 6725SOL     OW31810   0.527   0.944   2.373 -0.0752 -0.1255  0.2901
 6725SOL    HW131811   0.591   0.928   2.303 -0.2617 -0.6615  0.2427
 6725SOL    HW231812   0.488   1.029   2.350  1.7456  0.3461 -1.1219
 6726SOL     OW31813   4.545   3.272   4.539  0.0196 -0.3810  0.3113
 6726SOL    HW131814   4.475   3.338   4.545 -0.0826 -0.3187 -1.6085
 6726SOL    HW231815   4.606   3.317   4.598  0.1550 -0.1466 -0.0072
 6727SOL     OW31816   1.392   1.356   4.995  0.0685  0.0097  0.8683
 6727SOL    HW131817   1.314   1.365   5.050 -1.2312 -0.1461 -0.9260
 6727SOL    HW231818   1.378   1.433   4.939  1.9643 -0.1112  0.2093
 6728SOL     OW31819   4.389   3.911   8.575 -0.3781 -0.4778 -0.0420
 6728SOL    HW131820   4.421   3.894   8.486 -1.8229  0.6688 -0.7801
 6728SOL    HW231821   4.308   3.961   8.566 -2.4149 -3.8710 -0.2617
 6729SOL     OW31822   4.437   4.387   8.262  0.2017  0.3601 -0.4678
 6729SOL    HW131823   4.512   4.329   8.278 -0.9275 -0.9386  0.0892
 6729SOL    HW231824   4.474   4.475   8.255 -0.9755  0.8650 -0.2613
 6730SOL     OW31825   3.060   1.242   4.949 -0.1704 -0.1368 -0.8799
 6730SOL    HW131826   3.095   1.176   4.890  1.1021  0.6259 -0.9910
 6730SOL    HW231827   3.011   1.182   5.006 -2.6337  1.3031 -1.4883
 6731SOL     OW31828   4.547   0.828  15.165  0.0245  0.5189  0.0973
 6731SOL    HW131829   4.508   0.915  15.172  0.1015  0.6417 -1.0769
 6731SOL    HW231830   4.504   0.787  15.090  0.1548 -0.5411  0.5926
 6732SOL     OW31831   1.372   3.890   0.419 -0.1535 -0.3994 -0.0245
 6732SOL    HW131832   1.448   3.948   0.412 -1.4838  1.4432  0.9839
 6732SOL    HW231833   1.343   3.877   0.328  1.0004  3.0275 -0.8752
 6733SOL     OW31834   1.945   3.201  10.865  0.0627  0.1666  0.2342
 6733SOL    HW131835   1.953   3.106  10.856 -0.3272  0.1852 -0.2768
 6733SOL    HW231836   2.009   3.239  10.805  2.2147 -0.6848  2.0012
 6734SOL     OW31837   1.278   2.685   5.949  0.4321 -0.2056  0.4411
 6734SOL    HW131838   1.361   2.640   5.967 -0.9222 -2.7111  0.4635
 6734SOL    HW231839   1.211   2.617   5.941  0.9509 -0.6111 -0.4582
 6735SOL     OW31840   0.006   3.976   2.317  0.0644 -0.2011 -0.0023
 6735SOL    HW131841   0.073   3.920   2.355 -1.4775 -1.5058  0.7920
 6735SOL    HW231842   4.711   4.016   2.396 -3.2834  1.0516 -2.1290
 6736SOL     OW31843   3.811   3.479   3.461  0.2480  0.1645  0.0402
 6736SOL    HW131844   3.789   3.391   3.430  1.1566  0.0313 -0.2102
 6736SOL    HW231845   3.905   3.466   3.456  0.1730  0.1130 -1.2568
 6737SOL     OW31846   3.402   0.891  16.976 -0.1853 -0.1385 -0.3018
 6737SOL    HW131847   3.372   0.982  16.973  0.6657  0.1968  1.6685
 6737SOL    HW231848   3.357   0.846  17.047  3.2806 -0.5927  1.5943
 6738SOL     OW31849   2.432   1.914   3.073 -0.1560  0.7052  0.7699
 6738SOL    HW131850   2.376   1.925   3.149 -0.6777  0.4131  0.4327
 6738SOL    HW231851   2.510   1.962   3.098  0.4978  0.9342 -1.6854
 6739SOL     OW31852   0.557   4.189   6.447 -0.3832 -0.5024 -0.2580
 6739SOL    HW131853   0.612   4.203   6.524 -1.3714  0.8418  0.2083
 6739SOL    HW231854   0.586   4.259   6.390  2.5269 -1.7654 -0.3168
 6740SOL     OW31855   3.936   0.487   5.296  0.4143  0.3114 -0.1107
 6740SOL    HW131856   3.924   0.556   5.230 -1.5569 -0.8730 -0.9817
 6740SOL    HW231857   3.914   0.408   5.246 -0.6135 -0.3797  1.4587
 6741SOL     OW31858   1.719   2.103   2.074  0.1119  0.0530  0.1258
 6741SOL    HW131859   1.783   2.073   2.139  0.6891 -1.4223 -1.1351
 6741SOL    HW231860   1.734   2.038   2.005  0.9537  1.4961 -1.0514
 6742SOL     OW31861   1.810   3.370   1.666 -0.2231 -0.7815 -0.2031
 6742SOL    HW131862   1.789   3.396   1.576  0.0244  0.3055  0.0575
 6742SOL    HW231863   1.745   3.301   1.679  0.2765 -0.8898  1.7572
 6743SOL     OW31864   3.242   4.397   8.750 -0.6077 -0.4612  0.2201
 6743SOL    HW131865   3.191   4.395   8.669  0.6754 -0.2155 -0.5941
 6743SOL    HW231866   3.323   4.441   8.725 -0.3631 -0.0893  1.6623
 6744SOL     OW31867   2.682   1.208   9.296 -0.2989 -0.1525 -0.0494
 6744SOL    HW131868   2.670   1.154   9.374  0.3124  2.2493  1.7095
 6744SOL    HW231869   2.603   1.187   9.246  0.0273  0.1048 -0.6729
 6745SOL     OW31870   0.105   2.837   2.968  0.5843 -0.1068 -0.3720
 6745SOL    HW131871   0.192   2.872   2.948  0.1516  1.1937  0.0417
 6745SOL    HW231872   0.090   2.876   3.054 -1.1253  0.6130 -0.9908
 6746SOL     OW31873   3.252   3.399   1.953 -0.7157 -0.0404 -0.1931
 6746SOL    HW131874   3.303   3.458   1.897  0.0989  0.6460  1.2824
 6746SOL    HW231875   3.262   3.317   1.904  0.9059  0.4706 -0.7301
 6747SOL     OW31876   2.816   1.842   8.499  0.0469  0.0495 -0.0797
 6747SOL    HW131877   2.862   1.874   8.576 -2.4301 -0.6754  1.6901
 6747SOL    HW231878   2.811   1.751   8.528 -1.4439  0.3223  0.4838
 6748SOL     OW31879   2.517   4.214   0.056 -0.3135  0.2939 -0.1767
 6748SOL    HW131880   2.529   4.134   0.004  0.8742 -1.1571  2.3086
 6748SOL    HW231881   2.422   4.218   0.069 -0.0245 -2.5655  3.1288
 6749SOL     OW31882   3.525   4.646   2.878 -0.0816  0.2278 -0.1528
 6749SOL    HW131883   3.516   4.558   2.915 -0.3433 -0.2451 -1.3162
 6749SOL    HW231884   3.585   4.629   2.805 -0.5852 -0.8387 -0.3313
 6750SOL     OW31885   1.726   4.424   4.425 -0.3485 -0.3431 -0.3669
 6750SOL    HW131886   1.686   4.338   4.442  3.2744 -1.8786  0.4518
 6750SOL    HW231887   1.799   4.414   4.485  0.1671  0.6468 -0.8258
 6751SOL     OW31888   1.792   0.607   2.653 -0.5996  0.1078  0.7120
 6751SOL    HW131889   1.738   0.533   2.626  1.3322 -0.4009 -1.7364
 6751SOL    HW231890   1.748   0.636   2.733 -0.3266 -2.0062  1.6187
 6752SOL     OW31891   1.010   4.601  13.836 -0.1041  0.4751  0.6724
 6752SOL    HW131892   1.052   4.658  13.771 -0.4044 -0.5038 -0.3873
 6752SOL    HW231893   0.926   4.640  13.860 -0.4851  0.1749 -0.1655
 6753SOL     OW31894   2.842   4.163  14.494 -0.2645 -0.1554 -0.3690
 6753SOL    HW131895   2.838   4.197  14.405  1.6504  1.5103  0.1750
 6753SOL    HW231896   2.863   4.242  14.544 -0.1177 -1.5003  1.7258
 6754SOL     OW31897   1.594   3.736   3.754 -0.4551  0.0160 -0.2036
 6754SOL    HW131898   1.638   3.812   3.792  0.2595 -0.9763  0.9618
 6754SOL    HW231899   1.553   3.781   3.681  1.9032  1.2526 -0.7713
 6755SOL     OW31900   2.426   0.784   7.543  0.1628  0.2739  0.8235
 6755SOL    HW131901   2.465   0.705   7.579  1.4742  0.7050  0.3516
 6755SOL    HW231902   2.508   0.832   7.528  0.4968 -0.5779 -0.1283
 6756SOL     OW31903   3.676   1.055   9.929  0.4788  0.1263  0.1658
 6756SOL    HW131904   3.722   0.972   9.915 -0.9954 -0.8374  1.0516
 6756SOL    HW231905   3.744   1.116   9.901  1.8494 -0.9952  1.0785
 6757SOL     OW31906   0.382   2.902   8.205 -0.5435  0.1915  0.0895
 6757SOL    HW131907   0.365   2.967   8.273 -1.6032 -0.0368  0.0392
 6757SOL    HW231908   0.357   2.952   8.127 -0.1487  0.5293  0.1776
 6758SOL     OW31909   2.541   3.374   3.462 -0.7595  0.2387 -0.0926
 6758SOL    HW131910   2.591   3.344   3.538 -4.3411 -1.8762  1.4447
 6758SOL    HW231911   2.468   3.312   3.464 -0.0260 -0.6064  0.4776
 6759SOL     OW31912   0.444   1.152   7.653  0.1498  0.0617 -0.4963
 6759SOL    HW131913   0.461   1.068   7.609 -1.8275  0.0041 -1.1739
 6759SOL    HW231914   0.398   1.191   7.579  1.6304 -1.5961 -2.3030
 6760SOL     OW31915   3.885   3.989  12.093  0.6162  0.2377  0.4584
 6760SOL    HW131916   3.951   4.057  12.081  0.3114  1.3648  4.8847
 6760SOL    HW231917   3.898   3.965  12.185  1.8645  2.3141  0.8489
 6761SOL     OW31918   1.810   2.474   6.775  0.2467 -0.0229 -0.4478
 6761SOL    HW131919   1.787   2.547   6.717 -0.2882 -0.5283 -0.8685
 6761SOL    HW231920   1.771   2.505   6.856  1.1363  3.6579 -1.3840
 6762SOL     OW31921   2.871   4.481   4.788 -0.2288 -0.1845 -0.1398
 6762SOL    HW131922   2.814   4.547   4.748  1.8672  0.8750 -1.3573
 6762SOL    HW231923   2.894   4.420   4.718  1.1694 -1.5615  1.5289
 6763SOL     OW31924   0.540   2.969   2.719 -0.3246 -0.1754  0.0907
 6763SOL    HW131925   0.595   2.891   2.720  0.0335  0.0733 -0.0818
 6763SOL    HW231926   0.564   3.028   2.646  1.7400 -1.9776 -0.6819
 6764SOL     OW31927   4.404   2.013   4.927 -0.0270  0.2913  0.3625
 6764SOL    HW131928   4.466   2.076   4.890  0.9133 -1.6507 -1.4418
 6764SOL    HW231929   4.320   2.058   4.920  0.5685  1.4516  0.6741
 6765SOL     OW31930   1.650   3.082   2.517  0.6513  0.1166  0.0144
 6765SOL    HW131931   1.736   3.040   2.509  0.1354 -0.4871 -2.3349
 6765SOL    HW231932   1.600   3.006   2.546  1.6571  0.5974  2.9603
 6766SOL     OW31933   2.511   2.298   7.280  0.1413  0.3626  0.3392
 6766SOL    HW131934   2.461   2.379   7.288 -2.1931 -0.9656 -0.8457
 6766SOL    HW231935   2.485   2.271   7.192  2.0562 -0.3499 -0.0167
 6767SOL     OW31936   1.306   1.038   6.476  0.1372 -0.0927  0.5216
 6767SOL    HW131937   1.211   1.040   6.483  0.1706 -0.5750  1.1023
 6767SOL    HW231938   1.327   1.114   6.530 -4.0092  1.8991 -0.6463
 6768SOL     OW31939   2.040   0.491   8.710 -0.5193  0.1385 -0.1003
 6768SOL    HW131940   1.992   0.534   8.639 -2.4039 -0.7053  0.6574
 6768SOL    HW231941   2.127   0.528   8.697 -0.5289 -0.9450 -3.2343
 6769SOL     OW31942   4.724   3.280   8.360 -1.1852 -0.4247  0.1142
 6769SOL    HW131943   4.665   3.206   8.375 -1.8130  0.0487 -0.0298
 6769SOL    HW231944   0.051   3.271   8.427 -1.8060 -1.7739  0.5641
 6770SOL     OW31945   4.593   0.648   4.189 -0.1030 -0.0982 -0.5965
 6770SOL    HW131946   4.554   0.723   4.143 -0.2720  0.6003  0.6970
 6770SOL    HW231947   4.619   0.694   4.268 -1.6155  0.9194 -0.6792
 6771SOL     OW31948   0.265   0.232   6.242  0.2135 -0.4207 -0.1944
 6771SOL    HW131949   0.335   0.176   6.208  0.1952  0.4258 -1.6459
 6771SOL    HW231950   0.178   0.194   6.226 -1.7907  3.9050  0.2941
 6772SOL     OW31951   1.505   1.973   2.928  0.0966  0.1297 -0.0994
 6772SOL    HW131952   1.576   2.009   2.874 -0.2902 -0.7563 -1.2180
 6772SOL    HW231953   1.484   2.059   2.964  0.5277  0.5295 -0.7971
 6773SOL     OW31954   2.362   0.741   5.176  0.4993 -0.1473  0.2176
 6773SOL    HW131955   2.439   0.699   5.139  0.1286  0.5171 -1.3091
 6773SOL    HW231956   2.348   0.793   5.097  1.2978 -0.4345 -0.1103
 6774SOL     OW31957   4.715   3.515  17.601  0.1975  0.1933 -0.2459
 6774SOL    HW131958   0.061   3.496  17.637  0.1426  4.9188  2.3294
 6774SOL    HW231959   4.688   3.427  17.576  0.1471  0.7228 -2.0095
 6775SOL     OW31960   4.621   0.599   4.579  0.1383  0.7602  0.4219
 6775SOL    HW131961   4.707   0.598   4.621  0.5396  0.5319 -0.4171
 6775SOL    HW231962   4.638   0.670   4.516  0.2156  0.9322  0.6340
 6776SOL     OW31963   0.408   1.174   7.321  0.2329 -0.2077  0.1340
 6776SOL    HW131964   0.492   1.199   7.283  0.1620  0.4655  0.4256
 6776SOL    HW231965   0.370   1.126   7.246  0.8233 -0.8293  0.2351
 6777SOL     OW31966   2.047   3.063  12.278  0.4343 -0.4484 -0.0435
 6777SOL    HW131967   2.113   3.118  12.236 -0.2546  0.5820  0.2222
 6777SOL    HW231968   1.980   3.125  12.308  1.3950 -0.3102  1.8474
 6778SOL     OW31969   0.906   4.281   7.471 -0.6115  0.1967 -0.4234
 6778SOL    HW131970   0.890   4.296   7.564 -2.1787  2.7342 -1.1205
 6778SOL    HW231971   0.817   4.286   7.436  0.1282  1.8128 -2.0970
 6779SOL     OW31972   2.749   2.215   9.398  0.7346 -0.2526 -0.0252
 6779SOL    HW131973   2.703   2.182   9.476 -0.9466  2.3012  0.0690
 6779SOL    HW231974   2.818   2.261   9.446 -0.5400  0.8652  0.7490
 6780SOL     OW31975   4.737   4.564   7.292 -0.4031  0.0345  0.2075
 6780SOL    HW131976   4.693   4.520   7.220 -0.3484  0.4817 -0.0972
 6780SOL    HW231977   0.086   4.533   7.287 -0.4336 -0.1417  0.7501
 6781SOL     OW31978   4.646   0.636  11.243 -0.3310  0.2626  0.4244
 6781SOL    HW131979   4.682   0.563  11.192  0.1637 -0.1339  1.3442
 6781SOL    HW231980   4.580   0.597  11.300  1.7137 -1.3168  1.6959
 6782SOL     OW31981   3.169   3.790   6.292 -0.0808  0.2073  0.4440
 6782SOL    HW131982   3.119   3.794   6.374 -1.2363  0.2338 -0.2520
 6782SOL    HW231983   3.111   3.738   6.236  0.1653 -0.3391  0.6983
 6783SOL     OW31984   1.942   3.110  13.911 -0.6164  0.4556 -0.0850
 6783SOL    HW131985   1.910   3.122  13.822 -1.1681 -2.0063 -0.2239
 6783SOL    HW231986   1.911   3.181  13.968  2.1522  1.2678  0.4348
 6784SOL     OW31987   2.717   4.083   6.026 -0.0713  0.8514  0.2976
 6784SOL    HW131988   2.732   4.176   6.012 -2.5211  1.4518  1.5446
 6784SOL    HW231989   2.793   4.035   5.993 -1.6754 -1.3467 -0.2250
 6785SOL     OW31990   1.101   0.629   2.070 -0.0448  0.0288  0.2302
 6785SOL    HW131991   1.182   0.679   2.061  0.8692 -1.4396  0.3107
 6785SOL    HW231992   1.114   0.541   2.035 -0.9121  0.1429 -0.3901
 6786SOL     OW31993   2.117   2.255  10.424 -0.0234 -0.1885  0.2315
 6786SOL    HW131994   2.176   2.321  10.462  0.5626 -1.8689  2.2329
 6786SOL    HW231995   2.048   2.309  10.384 -0.4511  0.7273  2.2137
 6787SOL     OW31996   0.818   3.618   2.369  0.4932  0.9635  0.1568
 6787SOL    HW131997   0.748   3.656   2.421 -0.5540 -1.0233  0.2048
 6787SOL    HW231998   0.805   3.683   2.300  0.6782 -0.4881 -1.2705
 6788SOL     OW31999   1.718   0.569   8.660 -0.4129 -0.0837 -0.5222
 6788SOL    HW132000   1.660   0.600   8.729  0.8576  0.7655  0.1611
 6788SOL    HW232001   1.676   0.487   8.632 -0.8971 -0.2925  0.8061
 6789SOL     OW32002   1.119   4.100   5.789 -0.0255 -0.5292 -0.2646
 6789SOL    HW132003   1.030   4.114   5.822 -1.3292 -0.7069 -3.6920
 6789SOL    HW232004   1.131   4.008   5.814 -0.6079 -0.1831  1.2836
 6790SOL     OW32005   1.853   0.507   0.804 -0.0109  0.2898 -0.0764
 6790SOL    HW132006   1.867   0.592   0.761 -0.6544  0.0896 -0.6775
 6790SOL    HW232007   1.821   0.452   0.732 -0.7020 -1.0113  1.2400
 6791SOL     OW32008   1.067   3.243   6.516  0.3515 -0.2072  0.3177
 6791SOL    HW132009   1.127   3.292   6.459  1.2511 -1.4635  0.1934
 6791SOL    HW232010   1.024   3.311   6.567 -0.5809 -0.9550  0.5242
 6792SOL     OW32011   1.630   3.414   5.535  0.3549  0.3688 -0.1722
 6792SOL    HW132012   1.577   3.424   5.614  0.3932  2.9785 -0.4758
 6792SOL    HW232013   1.690   3.345   5.565  0.2363 -0.3726 -1.6406
 6793SOL     OW32014   1.741   3.011  14.305 -0.0840 -0.1296  0.5297
 6793SOL    HW132015   1.714   3.103  14.297  1.7254  0.2379 -1.4339
 6793SOL    HW232016   1.738   2.979  14.215  1.6697  2.1714 -0.3538
 6794SOL     OW32017   4.664   3.540   0.966  0.3361  0.1879  0.0523
 6794SOL    HW132018   4.692   3.629   0.989 -2.0933  0.3179  2.4596
 6794SOL    HW232019   4.660   3.511   1.057  0.8247  1.5122  0.4973
 6795SOL     OW32020   0.939   0.096  11.940  0.3203 -0.1962 -0.6176
 6795SOL    HW132021   0.912   0.010  11.906 -1.6119  0.0928  0.1853
 6795SOL    HW232022   1.033   0.085  11.951 -0.1399 -2.4627  1.1211
 6796SOL     OW32023   1.406   3.788  10.472 -0.6547  0.2302 -0.3223
 6796SOL    HW132024   1.501   3.780  10.465 -1.2990 -4.9959 -3.4882
 6796SOL    HW232025   1.376   3.757  10.557 -0.5761  2.9564  0.7082
 6797SOL     OW32026   1.314   2.632  14.820  0.0256 -0.1948 -0.3040
 6797SOL    HW132027   1.301   2.615  14.727 -0.2563  1.1335 -0.5047
 6797SOL    HW232028   1.243   2.689  14.849 -0.3676 -1.2147  0.7273
 6798SOL     OW32029   0.731   1.969   4.744  0.5999 -0.6620 -0.1806
 6798SOL    HW132030   0.754   1.952   4.835  1.3315 -1.6376 -0.5492
 6798SOL    HW232031   0.664   2.038   4.747  0.8428 -0.4192 -0.2810
 6799SOL     OW32032   0.354   0.638   9.373  0.5132 -0.3085 -0.7263
 6799SOL    HW132033   0.327   0.720   9.332  0.5069  0.4887  0.8631
 6799SOL    HW232034   0.448   0.631   9.355  0.0857 -2.2339 -2.1243
 6800SOL     OW32035   3.912   0.074   6.612  0.1061 -0.3387  0.0321
 6800SOL    HW132036   4.007   0.078   6.602 -0.0402 -0.9203 -1.4444
 6800SOL    HW232037   3.894   0.163   6.645 -0.6728 -0.3395 -0.3940
 6801SOL     OW32038   0.732   0.582   1.232  0.4156  0.7692  0.5877
 6801SOL    HW132039   0.821   0.611   1.252  1.1474 -0.1273 -1.3974
 6801SOL    HW232040   0.691   0.666   1.212  0.3241  0.1302 -1.9201
 6802SOL     OW32041   0.132   3.455   4.950 -0.0125  0.0704 -0.4830
 6802SOL    HW132042   0.041   3.442   4.924  0.0649  0.3747 -0.9065
 6802SOL    HW232043   0.118   3.483   5.041 -1.0098 -0.0404 -0.6050
 6803SOL     OW32044   1.367   3.345   3.978 -0.7521 -0.1190 -0.8893
 6803SOL    HW132045   1.409   3.267   3.944  1.0680  0.2049  0.5693
 6803SOL    HW232046   1.383   3.414   3.914 -1.7282 -0.2092 -1.2222
 6804SOL     OW32047   2.301   4.149  13.687  0.9275  0.0983 -0.5702
 6804SOL    HW132048   2.236   4.132  13.755  2.0157 -1.1866  0.1442
 6804SOL    HW232049   2.329   4.059  13.676 -0.0434 -0.3471  0.6508
 6805SOL     OW32050   1.310   3.370   5.703 -0.2031 -0.2454 -0.1384
 6805SOL    HW132051   1.260   3.335   5.777  2.3468 -0.2373  1.5776
 6805SOL    HW232052   1.287   3.305   5.637 -1.6034  2.4424 -2.3269
 6806SOL     OW32053   3.503   1.405  12.170 -0.3358  0.5914  0.5832
 6806SOL    HW132054   3.492   1.343  12.242 -0.2716  1.0193  0.9666
 6806SOL    HW232055   3.547   1.474  12.220  0.4599 -0.3613  1.2026
 6807SOL     OW32056   1.192   3.414   6.364 -0.0928  0.1835 -0.0551
 6807SOL    HW132057   1.154   3.493   6.401 -1.6491 -0.6596  0.1849
 6807SOL    HW232058   1.285   3.419   6.384 -0.5386 -1.9271  2.5468
 6808SOL     OW32059   4.060   2.077   4.580  0.4383  0.7396 -0.8561
 6808SOL    HW132060   4.053   2.068   4.675  1.2046 -1.2678 -0.9893
 6808SOL    HW232061   4.148   2.111   4.564  1.2859 -0.8628  0.3832
 6809SOL     OW32062   4.530   0.005  16.630  0.1523 -0.2259  0.7084
 6809SOL    HW132063   4.541   0.053  16.712 -0.0639  1.7672 -0.4101
 6809SOL    HW232064   4.536   4.654  16.658  0.2159 -1.2867 -2.8430
 6810SOL     OW32065   4.635   0.778   2.848  0.1751  0.4090 -0.7071
 6810SOL    HW132066   4.638   0.782   2.944 -0.6908 -0.8545 -0.6286
 6810SOL    HW232067   4.715   0.828   2.831  1.1299 -0.2458  1.8149
 6811SOL     OW32068   1.183   2.373  16.318 -0.6048 -0.3766  0.4737
 6811SOL    HW132069   1.204   2.284  16.348  0.6062  0.2253  1.4339
 6811SOL    HW232070   1.094   2.379  16.352  0.8491  1.9262  3.9535
 6812SOL     OW32071   1.257   3.161  10.451  0.9634  0.1928  0.6299
 6812SOL    HW132072   1.229   3.074  10.422  0.5463 -0.5227  3.1983
 6812SOL    HW232073   1.330   3.136  10.507 -0.9658 -2.6406  1.8907
 6813SOL     OW32074   3.690   2.019  15.990  0.1581  0.7905  0.0113
 6813SOL    HW132075   3.685   2.006  16.085  0.7822 -1.4995 -0.2614
 6813SOL    HW232076   3.615   2.076  15.971 -0.4896 -0.8483 -2.2815
 6814SOL     OW32077   2.005   3.434   1.222  0.2614  0.0733 -0.5067
 6814SOL    HW132078   1.970   3.451   1.310 -0.3807  1.2035 -0.9865
 6814SOL    HW232079   1.936   3.381   1.183 -0.4757  0.0440  0.8008
 6815SOL     OW32080   0.533   2.672  12.916  0.0709 -0.7382 -0.1820
 6815SOL    HW132081   0.559   2.679  13.008 -0.9879 -0.1371  0.0855
 6815SOL    HW232082   0.463   2.606  12.917 -0.6390  0.0071 -0.0117
 6816SOL     OW32083   0.740   2.735   3.885  0.4041  0.3721 -0.0098
 6816SOL    HW132084   0.695   2.815   3.857 -0.8192 -0.3144  0.0065
 6816SOL    HW232085   0.826   2.755   3.849 -1.0553  0.8760 -3.1979
 6817SOL     OW32086   3.347   2.102   7.243  0.0123 -0.2866 -0.0779
 6817SOL    HW132087   3.407   2.027   7.242  1.7116  1.0804  0.5548
 6817SOL    HW232088   3.291   2.072   7.171 -1.0059 -1.0849  1.0481
 6818SOL     OW32089   1.199   1.254   1.920  0.4439 -0.2894 -0.1218
 6818SOL    HW132090   1.186   1.307   1.842  1.7999  1.4109  0.8053
 6818SOL    HW232091   1.147   1.178   1.894  0.8773 -0.5557 -0.2106
 6819SOL     OW32092   4.022   0.776   6.311 -0.1755 -0.1445 -0.2813
 6819SOL    HW132093   3.959   0.704   6.321 -0.2323  0.2316  1.9137
 6819SOL    HW232094   4.095   0.732   6.267 -1.4591 -1.8285 -0.7700
 6820SOL     OW32095   2.200   2.045   1.412  0.5745  0.6645  0.2421
 6820SOL    HW132096   2.189   1.950   1.410  1.9378  0.5309 -0.7064
 6820SOL    HW232097   2.274   2.047   1.473 -1.3837 -2.3932  2.7454
 6821SOL     OW32098   4.557   1.544   5.067 -0.2240  0.1514  0.3907
 6821SOL    HW132099   4.561   1.631   5.027 -3.4190  0.6238  1.0801
 6821SOL    HW232100   4.463   1.542   5.087  0.0780 -0.9086  1.7597
 6822SOL     OW32101   4.071   0.648  13.755 -0.4208  0.3121 -0.9015
 6822SOL    HW132102   4.077   0.738  13.789 -1.8705  0.3951 -0.8700
 6822SOL    HW232103   4.159   0.641  13.717 -1.3896  0.6051 -3.2182
 6823SOL     OW32104   4.534   2.466   3.402 -0.3857  0.0932 -0.0287
 6823SOL    HW132105   4.519   2.545   3.455  2.3004  1.1164 -0.8199
 6823SOL    HW232106   4.463   2.461   3.338 -0.0788  0.9920 -0.4412
 6824SOL     OW32107   1.041   2.176   4.340 -0.1614 -0.0303 -0.5152
 6824SOL    HW132108   1.130   2.142   4.346  1.3792  4.1649  0.3222
 6824SOL    HW232109   1.002   2.089   4.327 -0.6242 -0.2111  2.2385
 6825SOL     OW32110   0.849   4.328   3.118 -0.2422 -0.7366  0.2059
 6825SOL    HW132111   0.903   4.358   3.046 -1.2926 -0.1146 -0.3202
 6825SOL    HW232112   0.822   4.415   3.146  1.7603  0.5195 -1.8754
 6826SOL     OW32113   3.712   0.951   3.714 -0.2058  0.3118 -0.7107
 6826SOL    HW132114   3.670   0.901   3.784 -2.3955 -0.6782 -2.7497
 6826SOL    HW232115   3.636   1.005   3.694 -0.0593  0.3769 -1.0984
 6827SOL     OW32116   3.744   1.954   1.071  0.1878 -0.0244  0.7982
 6827SOL    HW132117   3.803   2.021   1.035 -0.4536  0.3995  0.5204
 6827SOL    HW232118   3.770   1.881   1.015 -1.8380 -1.6472  1.9921
 6828SOL     OW32119   2.491   3.845  15.075 -0.0774  0.0147  0.5695
 6828SOL    HW132120   2.563   3.879  15.128  0.2308 -0.1523  0.2571
 6828SOL    HW232121   2.509   3.751  15.071 -1.3171 -0.2002  0.2270
 6829SOL     OW32122   3.099   0.563   9.580 -0.4880  0.1718  0.4205
 6829SOL    HW132123   3.023   0.571   9.638 -0.0961 -0.2475  0.9882
 6829SOL    HW232124   3.093   0.648   9.538  2.2714  0.1490 -0.0331
 6830SOL     OW32125   2.762   3.631   2.387 -0.2299  0.8795 -0.1290
 6830SOL    HW132126   2.751   3.536   2.375  0.2515  0.5363  2.0633
 6830SOL    HW232127   2.698   3.668   2.326 -0.2122 -0.4459 -0.9502
 6831SOL     OW32128   3.563   0.061  12.186  0.2121  0.5749  0.0652
 6831SOL    HW132129   3.499   0.063  12.114 -0.9394 -0.2835  1.0552
 6831SOL    HW232130   3.571   4.714  12.222 -0.9451 -0.0403 -1.1713
 6832SOL     OW32131   3.189   3.143  11.187 -0.3712  0.1617  0.0260
 6832SOL    HW132132   3.165   3.211  11.125  2.2950  0.4854 -0.6472
 6832SOL    HW232133   3.169   3.067  11.132 -0.9551  0.1978  0.1926
 6833SOL     OW32134   1.444   4.472   2.244 -0.2700  0.1838  0.0166
 6833SOL    HW132135   1.354   4.477   2.212  0.4061 -1.7621 -2.1556
 6833SOL    HW232136   1.452   4.382   2.275  1.8199  1.3273  2.9135
 6834SOL     OW32137   1.622   2.578   2.723 -0.3368  0.0620 -0.0538
 6834SOL    HW132138   1.714   2.599   2.741 -0.3983 -0.4028  0.7791
 6834SOL    HW232139   1.597   2.547   2.809 -0.0875 -0.1424 -0.0543
 6835SOL     OW32140   4.259   0.667   5.818  0.1765  0.2627 -0.0669
 6835SOL    HW132141   4.188   0.624   5.865  0.0028 -0.4920 -1.0249
 6835SOL    HW232142   4.315   0.593   5.791 -0.9271 -0.8709  0.7746
 6836SOL     OW32143   3.249   0.742  16.805  0.2159 -0.1404 -0.7403
 6836SOL    HW132144   3.306   0.668  16.827 -1.9263 -2.0723 -1.8308
 6836SOL    HW232145   3.308   0.807  16.845 -2.1024  0.6605  1.3575
 6837SOL     OW32146   2.210   2.931   9.765 -0.9951  0.4191 -0.4275
 6837SOL    HW132147   2.212   2.908   9.858  0.9304  3.0707  0.1911
 6837SOL    HW232148   2.305   2.923   9.751 -1.0021  1.2696 -0.9131
 6838SOL     OW32149   3.858   3.148  16.409  0.5415  0.2918  0.1842
 6838SOL    HW132150   3.872   3.054  16.419 -0.0083  0.1104 -0.7175
 6838SOL    HW232151   3.945   3.171  16.376  1.5243 -1.5767  1.5557
 6839SOL     OW32152   4.187   1.702   0.513  0.8470 -0.3636 -0.3926
 6839SOL    HW132153   4.281   1.721   0.509  1.1338 -1.0795  2.4639
 6839SOL    HW232154   4.169   1.651   0.434 -2.5055 -0.1457  0.2024
 6840SOL     OW32155   3.685   3.652   4.311 -0.0764  0.3234 -0.5778
 6840SOL    HW132156   3.718   3.721   4.253  1.5604  0.4971  0.5485
 6840SOL    HW232157   3.727   3.673   4.395  0.6259  1.9589 -1.3458
 6841SOL     OW32158   4.158   1.148   8.594  0.0085  0.0366  0.0796
 6841SOL    HW132159   4.246   1.181   8.577  0.1406 -0.5948 -0.4657
 6841SOL    HW232160   4.112   1.231   8.608 -0.5221 -0.6118  2.1841
 6842SOL     OW32161   1.651   4.473  15.523 -0.4662 -0.2918 -0.0300
 6842SOL    HW132162   1.737   4.458  15.562  0.0140  0.9692 -0.5990
 6842SOL    HW232163   1.589   4.436  15.585  1.5554 -0.9237  1.6339
 6843SOL     OW32164   2.853   4.007  10.971  0.3813  0.2032  0.1473
 6843SOL    HW132165   2.903   4.083  11.003 -2.6051  1.5849  1.5382
 6843SOL    HW232166   2.838   4.028  10.879  1.6429 -0.3198 -0.1840
 6844SOL     OW32167   4.102   2.609  13.490  0.0572  0.4111 -0.2658
 6844SOL    HW132168   4.066   2.645  13.408 -0.4683  1.5200  0.4534
 6844SOL    HW232169   4.192   2.628  13.465  0.0479 -2.5864 -2.5346
 6845SOL     OW32170   4.194   4.296   8.201 -0.1306 -0.1435  0.3671
 6845SOL    HW132171   4.281   4.335   8.215 -0.5421  1.8224 -2.5738
 6845SOL    HW232172   4.196   4.291   8.105  1.8104  1.5230  0.2972
 6846SOL     OW32173   4.461   0.385  17.641  0.2036  0.5156  0.1317
 6846SOL    HW132174   4.546   0.371  17.682  0.0596 -3.2110 -0.7720
 6846SOL    HW232175   4.404   0.318  17.680  2.1544 -0.6563  0.9701
 6847SOL     OW32176   0.249   1.056   9.702 -0.7554 -0.1415 -0.1132
 6847SOL    HW132177   0.263   1.102   9.619 -1.8064  0.4179  0.0260
 6847SOL    HW232178   0.339   1.023   9.711 -1.6654 -2.0915  1.7222
 6848SOL     OW32179   1.676   4.720   4.442 -0.2038 -0.2694 -0.8201
 6848SOL    HW132180   1.611   4.721   4.372 -2.0404  2.0822  0.9026
 6848SOL    HW232181   1.669   4.633   4.482  0.6459 -0.2339 -0.5855
 6849SOL     OW32182   4.437   4.456  15.697  0.2240 -0.8509 -0.4551
 6849SOL    HW132183   4.422   4.374  15.649 -2.8405 -0.5993  0.0331
 6849SOL    HW232184   4.367   4.464  15.762  2.6157 -0.5859  2.0454
 6850SOL     OW32185   4.149   0.366   6.503 -0.2984 -0.4952  0.2961
 6850SOL    HW132186   4.075   0.376   6.563 -0.3313  1.0704 -0.0175
 6850SOL    HW232187   4.112   0.395   6.420  0.4746 -0.8804 -0.1791
 6851SOL     OW32188   2.164   0.314   1.926  0.5197 -0.1823  0.0229
 6851SOL    HW132189   2.208   0.232   1.903  1.5702  0.3338  0.1971
 6851SOL    HW232190   2.113   0.276   1.998 -0.7980  1.4211 -0.0723
 6852SOL     OW32191   3.462   3.851  14.206 -0.3127  0.3076  0.1786
 6852SOL    HW132192   3.426   3.918  14.265 -0.0950  0.4294  0.1718
 6852SOL    HW232193   3.526   3.898  14.152 -0.1067  2.1847  2.0125
 6853SOL     OW32194   2.383   1.993   3.339 -0.3519  0.0061 -0.4373
 6853SOL    HW132195   2.476   1.996   3.364 -0.6582 -1.4357  0.8848
 6853SOL    HW232196   2.331   1.999   3.419 -1.0536 -0.5315 -0.8515
 6854SOL     OW32197   0.465   4.464  15.570  0.2565  0.1066  0.2089
 6854SOL    HW132198   0.385   4.450  15.621  0.6171  0.7411  0.9548
 6854SOL    HW232199   0.529   4.405  15.609 -1.2026 -0.7602  1.2540
 6855SOL     OW32200   2.881   3.024   9.244 -0.2397 -0.5350  0.4603
 6855SOL    HW132201   2.875   2.929   9.239 -1.5324 -0.3875 -0.7755
 6855SOL    HW232202   2.838   3.038   9.328 -1.0972  0.2924 -0.1214
 6856SOL     OW32203   1.828   3.439   3.511 -0.1356  0.1497 -0.1268
 6856SOL    HW132204   1.838   3.445   3.606 -0.1053 -0.1438 -0.1105
 6856SOL    HW232205   1.919   3.459   3.491  0.1911 -0.2945  0.9030
 6857SOL     OW32206   2.405   0.353   2.172 -0.2469  0.1913  0.0740
 6857SOL    HW132207   2.407   0.284   2.106  0.5465 -0.7057  1.0460
 6857SOL    HW232208   2.323   0.340   2.220 -0.2326  0.6185  0.2166
 6858SOL     OW32209   2.671   3.375   2.247 -0.7957  0.4306  0.1063
 6858SOL    HW132210   2.729   3.391   2.173 -2.0957 -0.4183 -1.0786
 6858SOL    HW232211   2.613   3.309   2.211 -1.6139  1.4698 -0.4567
 6859SOL     OW32212   3.872   3.221   7.061 -0.3864  0.8185  0.0940
 6859SOL    HW132213   3.898   3.223   7.154 -2.8765 -1.8283  0.8383
 6859SOL    HW232214   3.820   3.142   7.051  0.6581 -0.0307  1.3319
 6860SOL     OW32215   3.755   4.592   6.517  0.4795 -0.3162 -0.4395
 6860SOL    HW132216   3.807   4.672   6.522  1.1718 -0.7782 -0.3204
 6860SOL    HW232217   3.778   4.567   6.428  1.8882 -2.2667  0.4685
 6861SOL     OW32218   0.073   1.463   6.238  0.3004  0.0578  0.1710
 6861SOL    HW132219   0.168   1.462   6.224 -0.0586  1.8364 -2.4368
 6861SOL    HW232220   0.044   1.553   6.251  0.4141  0.1467 -0.1947
 6862SOL     OW32221   2.388   2.053  14.707  0.4188  0.4674 -0.3309
 6862SOL    HW132222   2.476   2.036  14.741 -0.1148 -0.3718  0.6227
 6862SOL    HW232223   2.416   2.102  14.630 -0.1874 -1.3877 -1.7217
 6863SOL     OW32224   2.388   3.550   7.727  0.6892  0.7132 -0.2162
 6863SOL    HW132225   2.358   3.615   7.663  0.5155  1.4634  0.6313
 6863SOL    HW232226   2.407   3.603   7.804 -0.3374  1.6544 -0.5955
 6864SOL     OW32227   3.482   4.216   7.616  0.3712 -0.1017  0.4202
 6864SOL    HW132228   3.568   4.253   7.598  0.3655 -0.0973  0.4019
 6864SOL    HW232229   3.478   4.130   7.576 -0.1306 -0.4760  1.2699
 6865SOL     OW32230   1.882   4.603  14.667 -0.1325 -0.1083 -0.0278
 6865SOL    HW132231   1.828   4.651  14.604 -1.4667 -0.8349  0.5693
 6865SOL    HW232232   1.932   4.540  14.616  0.3273  0.1667  0.0895
 6866SOL     OW32233   2.470   1.091   7.653  0.1416 -0.0310  0.3332
 6866SOL    HW132234   2.412   1.133   7.589 -0.7720 -0.5125  0.8446
 6866SOL    HW232235   2.532   1.061   7.588 -0.1253  0.2795 -0.0620
 6867SOL     OW32236   1.879   2.389   7.543 -0.1506 -0.2122  0.2075
 6867SOL    HW132237   1.929   2.356   7.617  0.7580 -0.8558 -0.6979
 6867SOL    HW232238   1.789   2.361   7.559 -1.1464  1.2559 -2.7049
 6868SOL     OW32239   0.600   3.140   6.150  0.1586  0.5706  0.5987
 6868SOL    HW132240   0.640   3.217   6.111 -1.1031 -0.0208 -1.8730
 6868SOL    HW232241   0.577   3.084   6.076  1.5883  1.6372 -0.6309
 6869SOL     OW32242   0.613   2.561   9.029 -0.3734 -0.2945  0.3203
 6869SOL    HW132243   0.676   2.626   9.059  0.3279 -1.9456  2.4130
 6869SOL    HW232244   0.531   2.583   9.074 -1.5036  0.4999 -2.1416
 6870SOL     OW32245   2.730   1.552  13.960  0.2605  0.1246  0.0681
 6870SOL    HW132246   2.694   1.610  14.027 -1.0933  1.1908 -1.5694
 6870SOL    HW232247   2.770   1.615  13.900  1.0669  0.5963  1.1035
 6871SOL     OW32248   4.400   3.873   4.381  0.5714 -0.0566  0.5222
 6871SOL    HW132249   4.408   3.792   4.331  0.1916  0.0065  0.3560
 6871SOL    HW232250   4.319   3.912   4.348  0.6852 -1.1683 -1.0794
 6872SOL     OW32251   2.801   4.378   9.220  0.1810  0.2078 -0.3168
 6872SOL    HW132252   2.771   4.297   9.263  1.6352  0.0037  0.3045
 6872SOL    HW232253   2.895   4.379   9.238 -0.5653 -0.3438  3.5374
 6873SOL     OW32254   2.970   1.206   5.485 -0.3157 -0.1650 -0.3687
 6873SOL    HW132255   3.034   1.205   5.414 -0.2431  1.4316 -0.3230
 6873SOL    HW232256   2.976   1.116   5.519  0.8611  0.5080  1.2072
 6874SOL     OW32257   4.729   3.285   0.899 -0.7042 -0.5425  0.2530
 6874SOL    HW132258   4.661   3.277   0.966 -0.7999  2.5100  0.4929
 6874SOL    HW232259   4.731   3.380   0.892  0.0924 -0.5667  0.1783
 6875SOL     OW32260   0.386   4.131   5.824 -0.6592  0.2649  0.4315
 6875SOL    HW132261   0.390   4.227   5.817 -2.7490  0.3059 -0.0205
 6875SOL    HW232262   0.390   4.121   5.919  0.0677 -0.9098  0.2707
 6876SOL     OW32263   4.540   2.528  17.756 -0.0169  0.1735 -0.4483
 6876SOL    HW132264   4.446   2.530  17.738  0.1444  0.8674 -1.2091
 6876SOL    HW232265   4.560   2.621  17.750  1.3152 -0.2256 -2.3948
 6877SOL     OW32266   1.148   2.611  11.298 -0.6012 -0.4358 -0.8833
 6877SOL    HW132267   1.193   2.611  11.383  1.2970  0.0358 -1.8720
 6877SOL    HW232268   1.060   2.637  11.322 -0.0300  3.0398 -2.6495
 6878SOL     OW32269   0.494   0.656   4.608 -0.4864 -0.5016  0.0704
 6878SOL    HW132270   0.471   0.608   4.528 -3.3400  0.3164  0.3872
 6878SOL    HW232271   0.475   0.747   4.583 -0.4618 -0.4726  0.1585
 6879SOL     OW32272   4.046   2.550  12.744 -0.9032 -0.4256  0.4242
 6879SOL    HW132273   4.030   2.614  12.813  1.5439 -0.3431  0.8868
 6879SOL    HW232274   4.030   2.603  12.667 -0.9002 -2.4367 -0.9740
 6880SOL     OW32275   4.088   2.187   8.851 -0.2268 -0.2053 -0.3154
 6880SOL    HW132276   4.151   2.150   8.790 -0.2335 -0.8424  0.0630
 6880SOL    HW232277   4.120   2.276   8.868  1.6214 -0.1777 -4.0313
 6881SOL     OW32278   1.149   4.487  15.019  0.6398  0.0607  0.2728
 6881SOL    HW132279   1.079   4.451  14.965  1.2487  0.9657 -1.1353
 6881SOL    HW232280   1.223   4.426  15.008  2.5157  2.9815 -3.2778
 6882SOL     OW32281   2.918   3.094   5.615  0.4949  1.0244  0.2966
 6882SOL    HW132282   2.851   3.163   5.623  0.6394  1.0853  0.9823
 6882SOL    HW232283   2.927   3.083   5.521 -0.3102 -2.9776  0.7063
 6883SOL     OW32284   0.985   3.424  11.248 -0.2231 -0.3073 -0.0043
 6883SOL    HW132285   0.965   3.344  11.296  0.9129  0.0756  1.1105
 6883SOL    HW232286   1.067   3.444  11.293  0.0240  0.2782 -0.7132
 6884SOL     OW32287   4.251   1.152   6.592 -0.0082 -0.1134  0.3068
 6884SOL    HW132288   4.185   1.111   6.535 -0.6881  1.7668 -0.2606
 6884SOL    HW232289   4.226   1.243   6.578  0.3312  0.1891  1.6612
 6885SOL     OW32290   1.584   2.948   5.384  0.5107  0.4115  0.0061
 6885SOL    HW132291   1.654   2.903   5.432 -1.4129  0.2246  2.6203
 6885SOL    HW232292   1.630   2.949   5.299 -0.5996  1.3414 -0.5827
 6886SOL     OW32293   2.055   0.964   7.500 -0.1735  0.0626  0.1192
 6886SOL    HW132294   2.010   0.984   7.582  0.0085 -0.2159  0.2886
 6886SOL    HW232295   1.990   1.001   7.442 -1.8499 -0.5960  1.5707
 6887SOL     OW32296   3.597   1.100   2.826 -0.1088 -0.0629 -0.5527
 6887SOL    HW132297   3.661   1.105   2.755  1.2712 -0.2515  0.6725
 6887SOL    HW232298   3.532   1.043   2.786 -1.3659  1.3956 -0.5982
 6888SOL     OW32299   1.047   0.432   8.883 -0.1522  0.4771 -0.4623
 6888SOL    HW132300   1.083   0.476   8.806  1.7926 -2.9687 -1.4930
 6888SOL    HW232301   1.000   0.361   8.841 -1.8631 -0.4819  3.0342
 6889SOL     OW32302   3.339   2.857  15.725 -0.3031  0.7981 -0.1373
 6889SOL    HW132303   3.312   2.949  15.729  0.1193  0.8911  0.5674
 6889SOL    HW232304   3.325   2.813  15.809 -0.9916 -0.6026 -0.9924
 6890SOL     OW32305   2.466   2.567   9.321 -0.6183 -0.8150 -0.2960
 6890SOL    HW132306   2.382   2.606   9.346  0.3514  0.2786  1.1764
 6890SOL    HW232307   2.489   2.640   9.263 -0.3968  0.1487  1.0143
 6891SOL     OW32308   1.047   1.730   5.440 -0.2352 -0.5881  0.0195
 6891SOL    HW132309   1.057   1.792   5.367  0.1875 -0.2671  0.3510
 6891SOL    HW232310   0.956   1.745   5.466 -0.4256 -0.0880 -0.9298
 6892SOL     OW32311   0.604   0.398   1.402 -0.2303 -0.1965  0.1644
 6892SOL    HW132312   0.589   0.318   1.352 -0.2647 -0.4785  0.6233
 6892SOL    HW232313   0.639   0.462   1.340 -2.1483  1.3157  0.6482
 6893SOL     OW32314   1.537   4.555   5.627  0.0517  0.3044  0.1358
 6893SOL    HW132315   1.632   4.562   5.622  0.0833 -0.5509 -0.5923
 6893SOL    HW232316   1.528   4.471   5.583  0.0474 -0.4946  1.6401
 6894SOL     OW32317   2.444   4.677   7.157  0.2231 -0.3205 -0.3219
 6894SOL    HW132318   2.459   4.589   7.123  0.5593  0.5993 -2.6084
 6894SOL    HW232319   2.530   4.716   7.173 -0.2267  0.7840 -0.5874
 6895SOL     OW32320   1.187   0.678   8.186 -0.0950  0.0370  0.4671
 6895SOL    HW132321   1.132   0.627   8.245 -1.8468 -0.5984 -1.7307
 6895SOL    HW232322   1.139   0.683   8.104  0.8309  2.4648  0.0520
 6896SOL     OW32323   0.052   4.386  17.527  0.0692  0.2864 -0.3270
 6896SOL    HW132324   0.129   4.333  17.546 -0.3743 -0.4635 -0.6527
 6896SOL    HW232325   0.073   4.464  17.579  0.0523  0.2981 -0.3379
 6897SOL     OW32326   1.676   2.003   4.839 -0.4267  0.0465  0.1347
 6897SOL    HW132327   1.677   1.922   4.788  0.1136  0.0312  0.1752
 6897SOL    HW232328   1.748   1.983   4.899  2.2961  1.0623 -2.7867
 6898SOL     OW32329   4.591   4.624   5.026 -0.0531  0.1870  0.4029
 6898SOL    HW132330   4.531   4.697   5.009  0.6400  0.6189 -0.1987
 6898SOL    HW232331   4.621   4.610   4.936  1.1979 -1.1332  1.0337
 6899SOL     OW32332   4.235   0.795  10.722  0.1681 -0.2703 -0.0683
 6899SOL    HW132333   4.199   0.850  10.791  0.1432 -1.8966  1.2412
 6899SOL    HW232334   4.291   0.858  10.677  1.2689 -0.4456  1.0347
 6900SOL     OW32335   3.676   3.740   6.164 -0.7141 -0.9668 -0.2647
 6900SOL    HW132336   3.655   3.661   6.215  2.1109 -0.4607  1.6859
 6900SOL    HW232337   3.592   3.785   6.175 -0.3797 -0.6038  0.8009
 6901SOL     OW32338   4.690   0.996   9.470 -0.2045  0.2719  0.4032
 6901SOL    HW132339   0.040   1.012   9.495 -0.2230  2.3775 -0.8520
 6901SOL    HW232340   4.658   1.084   9.451 -0.2950  0.9247  3.6219
 6902SOL     OW32341   3.249   2.824   4.852  0.2580  0.5627  0.3864
 6902SOL    HW132342   3.184   2.842   4.785  1.0495 -1.4471 -0.9217
 6902SOL    HW232343   3.268   2.914   4.879  0.1953 -0.2983  3.3136
 6903SOL     OW32344   4.152   2.885   6.603  0.4503  0.5724  0.9739
 6903SOL    HW132345   4.132   2.798   6.567  1.6441  2.0603 -3.2792
 6903SOL    HW232346   4.126   2.947   6.536  0.9880 -0.8399 -0.5568
 6904SOL     OW32347   2.865   0.429   7.139 -0.4161 -0.8377  0.2535
 6904SOL    HW132348   2.916   0.359   7.180  1.2399  1.6338  2.4306
 6904SOL    HW232349   2.800   0.380   7.088 -0.5321  1.5390 -1.8468
 6905SOL     OW32350   4.657   3.651   2.284  0.4894  0.4737  0.2599
 6905SOL    HW132351   4.698   3.671   2.368 -2.0103 -0.9412  1.7968
 6905SOL    HW232352   4.567   3.679   2.297  0.8259  1.4442  0.5143
 6906SOL     OW32353   4.328   0.602   1.719 -0.3648 -0.0119 -0.0723
 6906SOL    HW132354   4.328   0.511   1.750 -1.8527 -0.6096 -1.8347
 6906SOL    HW232355   4.380   0.599   1.639 -0.6388  0.0111 -0.2498
 6907SOL     OW32356   2.002   4.518   6.579 -0.3452  0.2716  0.6418
 6907SOL    HW132357   1.952   4.531   6.498 -0.7176 -0.9953  0.6717
 6907SOL    HW232358   1.944   4.555   6.646 -1.1028  0.8738 -0.3368
 6908SOL     OW32359   3.629   1.340   6.249 -0.0858 -0.2307  0.7315
 6908SOL    HW132360   3.536   1.321   6.235  0.0337  0.0243 -0.3709
 6908SOL    HW232361   3.610   1.432   6.267 -0.5500 -0.0499 -0.6900
 6909SOL     OW32362   3.440   1.533   9.172  0.1307 -0.2240  0.6000
 6909SOL    HW132363   3.345   1.536   9.182  0.1603 -3.4594  1.7720
 6909SOL    HW232364   3.448   1.553   9.078  2.4441  0.2355  0.8987
 6910SOL     OW32365   4.260   2.904   9.543 -0.0785 -0.5097  0.2046
 6910SOL    HW132366   4.298   2.950   9.618  2.6913 -0.8638 -0.9802
 6910SOL    HW232367   4.299   2.820   9.567 -0.2514  0.0814  2.5616
 6911SOL     OW32368   1.254   4.326   1.272  0.2131 -0.1720 -0.3514
 6911SOL    HW132369   1.302   4.245   1.255 -0.4189 -0.7425  0.6124
 6911SOL    HW232370   1.284   4.351   1.359 -1.5362 -1.2301  0.5554
 6912SOL     OW32371   1.798   1.776  13.867 -0.1122 -0.3677 -0.1272
 6912SOL    HW132372   1.852   1.705  13.831  1.3303  0.4969  0.3185
 6912SOL    HW232373   1.855   1.804  13.938  0.0649 -1.2972  0.0952
 6913SOL     OW32374   2.803   0.290   3.441  0.0531 -0.2115  0.3887
 6913SOL    HW132375   2.811   0.355   3.511  0.2773 -0.4991  0.6311
 6913SOL    HW232376   2.878   0.237   3.469 -1.2393 -1.7032  1.0268
 6914SOL     OW32377   3.299   0.830   4.113 -0.0030  0.2832  0.1128
 6914SOL    HW132378   3.262   0.745   4.089  0.5501  0.6614 -2.0728
 6914SOL    HW232379   3.276   0.876   4.032 -0.4363  2.8039  1.6893
 6915SOL     OW32380   3.158   3.698   0.170 -0.0744  0.2031  0.8003
 6915SOL    HW132381   3.214   3.681   0.094  0.2866  1.5106  0.7793
 6915SOL    HW232382   3.171   3.792   0.182  1.9877  0.1078 -0.6363
 6916SOL     OW32383   0.454   2.590   7.103 -0.4416  0.2475  0.0492
 6916SOL    HW132384   0.385   2.533   7.069  1.1310 -1.5115 -0.2688
 6916SOL    HW232385   0.528   2.546   7.061 -1.2286 -3.2333  2.2965
 6917SOL     OW32386   2.466   0.977   6.216  0.3483 -0.3682 -0.1494
 6917SOL    HW132387   2.435   1.054   6.264  1.3421 -0.0392 -0.0380
 6917SOL    HW232388   2.526   1.025   6.159  2.4980 -1.4694  1.1824
 6918SOL     OW32389   4.019   4.435   0.885  0.8142 -0.0018  0.0942
 6918SOL    HW132390   4.027   4.458   0.792  1.4089  1.7378  0.5869
 6918SOL    HW232391   4.109   4.442   0.916  1.2581 -0.9710 -0.9851
 6919SOL     OW32392   4.499   3.823   8.333  1.3230 -0.1286  0.7967
 6919SOL    HW132393   4.490   3.892   8.268  0.8860  0.5763  1.6089
 6919SOL    HW232394   4.519   3.751   8.273  1.3832  0.2411  0.3724
 6920SOL     OW32395   1.268   0.225   0.143 -0.0586 -0.1817  0.0651
 6920SOL    HW132396   1.326   0.228   0.067 -1.2961 -1.2757 -0.9478
 6920SOL    HW232397   1.252   0.130   0.140 -2.6098  0.2473 -0.2756
 6921SOL     OW32398   3.929   3.297   9.901  0.7502 -0.0677 -0.3223
 6921SOL    HW132399   3.910   3.323   9.811  1.6630 -1.8618 -1.0341
 6921SOL    HW232400   3.936   3.382   9.944 -2.6733  1.4065 -2.6288
 6922SOL     OW32401   0.177   1.554   7.909 -0.2309  0.0390  0.1594
 6922SOL    HW132402   0.114   1.520   7.973 -1.3565  3.2788  0.7913
 6922SOL    HW232403   0.255   1.573   7.961 -1.7487  2.7440  1.4630
 6923SOL     OW32404   4.733   3.625   2.544 -0.6632  0.0331  0.1487
 6923SOL    HW132405   4.727   3.641   2.638  0.4834 -1.5842  0.4870
 6923SOL    HW232406   0.054   3.696   2.528  0.0566 -0.0430  2.7042
 6924SOL     OW32407   0.659   2.978   8.154  0.0954 -0.2051 -0.0773
 6924SOL    HW132408   0.597   2.914   8.189  0.2044 -0.0746  0.3577
 6924SOL    HW232409   0.709   2.914   8.103  0.5284  0.5930 -0.6472
 6925SOL     OW32410   4.720   2.740   2.754 -0.2327 -0.1839  0.6216
 6925SOL    HW132411   0.066   2.742   2.714 -1.4825  1.5167 -1.9975
 6925SOL    HW232412   0.011   2.777   2.837 -0.1069 -1.9074  1.3498
 6926SOL     OW32413   4.351   0.426  12.447 -0.1161 -0.0643 -0.0750
 6926SOL    HW132414   4.366   0.520  12.440  0.7744 -0.2716 -1.0157
 6926SOL    HW232415   4.436   0.381  12.443 -0.5466 -0.7476 -1.2989
 6927SOL     OW32416   4.257   3.177   5.163  0.5769 -0.7925 -0.6785
 6927SOL    HW132417   4.267   3.256   5.215 -2.7578 -1.0074  0.2597
 6927SOL    HW232418   4.199   3.200   5.090 -0.4482 -4.3207 -0.9665
 6928SOL     OW32419   3.292   1.792  15.201  0.1154 -0.0567 -0.4247
 6928SOL    HW132420   3.282   1.832  15.114  2.2032  1.6299  0.0951
 6928SOL    HW232421   3.384   1.764  15.194 -0.2196 -1.2819  0.1602
 6929SOL     OW32422   1.073   3.430   6.130  0.0471 -0.1578 -0.1848
 6929SOL    HW132423   1.008   3.454   6.197  0.0935  0.9159 -0.5155
 6929SOL    HW232424   1.140   3.415   6.197  0.2966  1.1252 -0.1433
 6930SOL     OW32425   1.213   0.744   4.321 -0.1837 -0.0611 -0.0832
 6930SOL    HW132426   1.129   0.759   4.364 -1.0756 -0.9720 -1.4857
 6930SOL    HW232427   1.264   0.730   4.400 -0.8376 -1.2918  0.1207
 6931SOL     OW32428   0.505   4.577   2.143 -0.1184 -0.1564  0.2452
 6931SOL    HW132429   0.503   4.654   2.087  0.4834 -0.3763 -0.0858
 6931SOL    HW232430   0.460   4.506   2.097  1.5762 -1.0462 -0.0563
 6932SOL     OW32431   0.110   0.495   9.382  0.3928  0.6910 -0.1723
 6932SOL    HW132432   0.056   0.547   9.442  0.1099  0.9621 -0.6704
 6932SOL    HW232433   0.199   0.524   9.402  1.2515 -0.2312 -2.7495
 6933SOL     OW32434   3.387   1.935  11.312 -0.2270  0.0068 -0.1722
 6933SOL    HW132435   3.389   1.924  11.407 -2.5248  0.4445 -0.0877
 6933SOL    HW232436   3.434   2.018  11.307 -1.5756  0.6769 -1.4694
 6934SOL     OW32437   1.150   2.590  13.640  0.4128 -0.3515  0.2819
 6934SOL    HW132438   1.213   2.599  13.568  0.3117  0.5384  0.3080
 6934SOL    HW232439   1.102   2.514  13.606  0.1467  0.8010 -1.9299
 6935SOL     OW32440   3.721   1.893  11.552 -1.0516 -0.0393 -0.3825
 6935SOL    HW132441   3.675   1.937  11.623 -3.9756 -3.1527 -0.3262
 6935SOL    HW232442   3.707   1.803  11.582 -1.4010  0.1242 -0.0593
 6936SOL     OW32443   0.126   4.425   5.697  0.2361 -0.7225  0.3581
 6936SOL    HW132444   0.124   4.486   5.623 -0.5853 -1.1030  0.0638
 6936SOL    HW232445   0.084   4.347   5.660 -0.1329 -0.5802  0.4787
 6937SOL     OW32446   0.447   2.747  10.288 -0.2486 -0.0337  0.4030
 6937SOL    HW132447   0.373   2.776  10.234  2.0776  1.8559 -1.7761
 6937SOL    HW232448   0.454   2.825  10.343 -1.2235 -0.9523  1.8372
 6938SOL     OW32449   2.955   3.860   5.695  0.2640  0.2335 -0.8896
 6938SOL    HW132450   2.994   3.926   5.638 -1.6371  0.6796 -1.6858
 6938SOL    HW232451   2.877   3.825   5.651 -0.0564  1.2843 -1.1617
 6939SOL     OW32452   2.227   2.676   9.409  0.0746  0.0361  0.1656
 6939SOL    HW132453   2.155   2.735   9.433 -1.0684 -1.8674  1.4048
 6939SOL    HW232454   2.188   2.630   9.335 -1.8274 -0.2149  1.3314
 6940SOL     OW32455   3.475   0.746   5.103 -0.1289  0.0080  0.1599
 6940SOL    HW132456   3.460   0.743   5.198 -1.5087  0.0436 -0.0515
 6940SOL    HW232457   3.523   0.666   5.084 -1.5751 -1.0640  1.0441
 6941SOL     OW32458   4.581   0.419   9.053 -0.5537 -0.1389 -0.7599
 6941SOL    HW132459   4.563   0.411   9.147  0.3584 -2.9392 -0.8183
 6941SOL    HW232460   4.501   0.454   9.014 -0.5786  0.3152 -0.2860
 6942SOL     OW32461   0.316   2.833   4.369 -0.5565 -0.2440  0.3222
 6942SOL    HW132462   0.343   2.914   4.325 -0.1949 -1.3461 -1.5029
 6942SOL    HW232463   0.396   2.803   4.411 -1.6477 -0.7168  2.0235
 6943SOL     OW32464   3.761   4.037   2.145 -0.3168 -0.0407 -0.2890
 6943SOL    HW132465   3.696   4.097   2.107 -2.0435 -1.2604  0.7518
 6943SOL    HW232466   3.837   4.050   2.087  3.4449 -1.8182  4.2630
 6944SOL     OW32467   4.229   0.530  10.691 -0.5877  0.2625 -0.2011
 6944SOL    HW132468   4.227   0.623  10.712  2.0683 -0.3634  2.7703
 6944SOL    HW232469   4.186   0.542  10.606  0.1820 -2.7903 -1.0343
 6945SOL     OW32470   4.125   0.631  12.697  0.1914 -0.2635  0.4193
 6945SOL    HW132471   4.216   0.660  12.711 -0.3463  1.6639 -0.0831
 6945SOL    HW232472   4.089   0.658  12.782 -1.3142 -2.1319  0.3729
 6946SOL     OW32473   0.782   2.591  11.722  0.6652  0.4706 -0.5639
 6946SOL    HW132474   0.789   2.504  11.681  0.2094 -0.4402  1.2562
 6946SOL    HW232475   0.851   2.631  11.669  0.8568 -0.1312 -0.7708
 6947SOL     OW32476   3.554   3.564   8.712 -0.6485 -0.4805 -0.1020
 6947SOL    HW132477   3.475   3.598   8.669 -1.7380 -1.5421  1.0792
 6947SOL    HW232478   3.605   3.644   8.723  1.7510 -2.2484  1.4652
 6948SOL     OW32479   0.296   1.935  13.280  0.2436  0.1209 -0.5072
 6948SOL    HW132480   0.232   1.956  13.349  0.5132  1.6643 -0.7129
 6948SOL    HW232481   0.378   1.932  13.330 -0.8048 -1.0269  1.1412
 6949SOL     OW32482   0.516   4.194  17.718  0.2341  0.1106  0.4014
 6949SOL    HW132483   0.513   4.157  17.629  0.1633  1.9757 -0.3621
 6949SOL    HW232484   0.595   4.150  17.749  0.3574 -0.3543 -0.5421
 6950SOL     OW32485   0.250   0.089   7.171 -0.5338 -0.7279 -0.1515
 6950SOL    HW132486   0.189   0.044   7.228  0.9984 -2.3054  0.2428
 6950SOL    HW232487   0.303   0.019   7.132 -2.6605 -2.4635  0.0705
 6951SOL     OW32488   2.429   1.620   4.039 -0.0753  0.5071  0.0256
 6951SOL    HW132489   2.412   1.708   4.006 -0.1905 -0.5307 -2.6629
 6951SOL    HW232490   2.370   1.622   4.114  0.0884 -0.1769  0.1731
 6952SOL     OW32491   1.377   3.085   9.469 -0.1279 -0.4330 -0.1399
 6952SOL    HW132492   1.322   3.061   9.543  0.7733 -0.3530  0.5573
 6952SOL    HW232493   1.334   3.161   9.430  1.8516  0.6007 -0.3170
 6953SOL     OW32494   3.312   4.166   3.903 -0.1885 -0.2420  0.1651
 6953SOL    HW132495   3.386   4.107   3.891  1.1262  1.1003  1.7695
 6953SOL    HW232496   3.266   4.120   3.974  3.7403 -4.4090  0.0417
 6954SOL     OW32497   4.390   2.589   7.450  0.0154 -0.4320 -0.1355
 6954SOL    HW132498   4.466   2.639   7.480 -0.4073  2.1842 -3.4015
 6954SOL    HW232499   4.407   2.591   7.355 -0.2788  0.4686 -0.1722
 6955SOL     OW32500   0.486   2.627   6.570 -0.6315  0.1752 -0.5773
 6955SOL    HW132501   0.559   2.566   6.558  0.9148  2.4851 -2.9758
 6955SOL    HW232502   0.453   2.598   6.655  2.6023 -0.2335  0.5713
 6956SOL     OW32503   0.213   1.241   3.911  0.0712 -0.4276  0.4034
 6956SOL    HW132504   0.210   1.229   4.006  1.0048  2.5547  0.8252
 6956SOL    HW232505   0.118   1.252   3.899  0.0105  0.5920  1.8001
 6957SOL     OW32506   4.290   4.135   4.667  0.1660  0.0987  0.2270
 6957SOL    HW132507   4.197   4.160   4.671  0.0842 -0.0695 -0.7297
 6957SOL    HW232508   4.285   4.051   4.711  2.2367 -0.4437 -0.6097
 6958SOL     OW32509   3.434   2.325  12.964  0.7890  0.0029 -0.1515
 6958SOL    HW132510   3.503   2.352  12.904  0.0232  0.3783 -0.8559
 6958SOL    HW232511   3.461   2.233  12.975 -0.2102 -0.4544 -1.7048
 6959SOL     OW32512   2.502   0.567   3.112  0.4121  0.6805  0.1812
 6959SOL    HW132513   2.433   0.584   3.048 -1.2495  1.3431  2.1755
 6959SOL    HW232514   2.567   0.536   3.049  0.6405  1.3654  0.0769
 6960SOL     OW32515   0.323   2.152   5.895  0.3185 -0.7461  0.1167
 6960SOL    HW132516   0.358   2.063   5.903 -0.8961 -1.4097 -2.0521
 6960SOL    HW232517   0.233   2.145   5.863  0.1506  0.7337  0.2626
 6961SOL     OW32518   3.744   0.149   2.719  0.2899  0.0334 -0.0697
 6961SOL    HW132519   3.823   0.167   2.668  0.5787 -2.0046 -0.3258
 6961SOL    HW232520   3.781   0.176   2.803  0.4540  2.2269 -0.8272
 6962SOL     OW32521   2.412   0.153   3.109 -0.0656 -0.2669 -0.1401
 6962SOL    HW132522   2.448   0.078   3.061  1.5269  0.9861 -0.9288
 6962SOL    HW232523   2.478   0.221   3.091 -0.4403  0.1940  0.2189
 6963SOL     OW32524   3.179   2.207   0.964 -0.1937 -0.4037 -0.2272
 6963SOL    HW132525   3.126   2.227   1.040 -2.1503 -2.4505 -1.0812
 6963SOL    HW232526   3.219   2.132   1.007 -2.2158 -1.1476  0.3244
 6964SOL     OW32527   2.323   1.643   0.106 -0.0623  1.1823  0.2798
 6964SOL    HW132528   2.303   1.577   0.039 -0.6376  1.8357 -0.1897
 6964SOL    HW232529   2.289   1.584   0.174  0.3416  0.7614  0.1126
 6965SOL     OW32530   0.288   0.510   9.038  0.5174  0.6991  0.1147
 6965SOL    HW132531   0.370   0.508   9.087  0.1230 -0.8139  0.7205
 6965SOL    HW232532   0.234   0.446   9.085 -1.6883  1.2363 -1.6953
 6966SOL     OW32533   2.279   2.640   8.871  0.0140  0.4833 -0.3378
 6966SOL    HW132534   2.238   2.620   8.786 -1.6672  1.5795  0.2294
 6966SOL    HW232535   2.373   2.635   8.853 -0.0702  0.6617 -0.8465
 6967SOL     OW32536   0.102   1.662   2.683 -0.9656 -0.6219 -0.3615
 6967SOL    HW132537   0.196   1.680   2.688 -1.1447  0.2212 -0.0997
 6967SOL    HW232538   0.080   1.723   2.613 -1.8410  0.7719  1.1528
 6968SOL     OW32539   0.709   2.013   8.460 -0.3721  0.2380 -0.2096
 6968SOL    HW132540   0.771   1.957   8.505  0.9505  0.1330 -2.1402
 6968SOL    HW232541   0.698   1.957   8.383  0.9317 -1.5089  0.9068
 6969SOL     OW32542   2.570   3.259   2.476  0.7868 -0.2996  0.1876
 6969SOL    HW132543   2.644   3.204   2.500  0.3778 -0.1048  1.9211
 6969SOL    HW232544   2.593   3.293   2.389  1.6371  1.1753  0.9838
 6970SOL     OW32545   0.580   2.920   3.487  0.0244  0.4620  0.1016
 6970SOL    HW132546   0.641   2.887   3.421 -1.3888 -0.0847 -0.9362
 6970SOL    HW232547   0.501   2.871   3.466 -0.5291  1.0539  0.7895
 6971SOL     OW32548   4.679   1.791   8.204  0.0389  0.0785  0.0384
 6971SOL    HW132549   4.702   1.874   8.244 -1.7732  1.3601 -1.5608
 6971SOL    HW232550   4.592   1.787   8.245 -0.3489  1.2800 -0.6816
 6972SOL     OW32551   3.358   3.616   9.273  0.6642  0.4385 -0.1269
 6972SOL    HW132552   3.334   3.609   9.365 -2.5610 -4.2292 -1.3039
 6972SOL    HW232553   3.430   3.677   9.288  1.7056 -0.5578 -1.1090
 6973SOL     OW32554   4.348   1.697   4.007 -0.0564  0.2504 -0.3428
 6973SOL    HW132555   4.301   1.777   3.984 -0.6895  0.2948  1.0682
 6973SOL    HW232556   4.441   1.717   4.001  0.0491 -0.6692 -1.8034
 6974SOL     OW32557   4.618   4.112  16.992  0.5046 -0.9314  0.2236
 6974SOL    HW132558   4.555   4.125  17.063 -0.0305 -1.7317 -0.1058
 6974SOL    HW232559   4.555   4.107  16.919 -1.3411  3.7948  1.4954
 6975SOL     OW32560   1.937   3.990   5.237 -0.6371  0.1516 -0.1168
 6975SOL    HW132561   1.893   3.991   5.322 -1.6694 -0.7566 -0.6491
 6975SOL    HW232562   2.018   3.943   5.253 -1.0159 -0.3209  0.3959
 6976SOL     OW32563   2.268   4.309  12.155 -0.1496  0.0304 -0.8422
 6976SOL    HW132564   2.204   4.249  12.193  0.0205 -0.1766 -0.8769
 6976SOL    HW232565   2.304   4.255  12.084 -0.2024  0.5754 -1.2843
 6977SOL     OW32566   4.632   4.335   9.481  0.0384 -0.3931  0.2813
 6977SOL    HW132567   4.691   4.271   9.522 -1.0220 -1.5812 -0.0650
 6977SOL    HW232568   4.570   4.281   9.432  0.3011  0.6493 -1.1860
 6978SOL     OW32569   3.662   1.644  11.052  0.3234  0.2259  0.2696
 6978SOL    HW132570   3.574   1.673  11.075  1.7183  4.0654  0.9072
 6978SOL    HW232571   3.678   1.568  11.107 -3.6441  0.1199  1.2445
 6979SOL     OW32572   1.299   3.451   6.738  0.2031  0.5784 -0.1780
 6979SOL    HW132573   1.296   3.546   6.732  1.6099  0.6065 -0.4536
 6979SOL    HW232574   1.390   3.421   6.747  0.1496  0.1581 -0.9793
 6980SOL     OW32575   0.857   0.797   2.190  0.0326 -0.3979  0.1212
 6980SOL    HW132576   0.838   0.886   2.160  0.1067 -0.1414  0.8316
 6980SOL    HW232577   0.909   0.763   2.117  0.0736  0.3906 -0.2157
 6981SOL     OW32578   2.956   4.234   9.002 -0.0204  0.4204  0.4266
 6981SOL    HW132579   2.945   4.319   8.959 -2.6572 -0.0104  0.2171
 6981SOL    HW232580   2.988   4.255   9.090  0.5707  0.5230  0.1821
 6982SOL     OW32581   0.315   1.693   5.662  0.3282 -0.5904 -0.1283
 6982SOL    HW132582   0.406   1.722   5.664 -0.8556  3.0307  1.1331
 6982SOL    HW232583   0.273   1.773   5.631  2.1661  0.6745  0.6428
 6983SOL     OW32584   0.900   2.348   4.482 -0.2299  0.2360 -0.0246
 6983SOL    HW132585   0.979   2.300   4.455  0.3116  0.4376  1.2299
 6983SOL    HW232586   0.902   2.331   4.576 -2.0799  1.3422  0.2006
 6984SOL     OW32587   3.554   4.067   8.786  0.3522 -0.0568  0.4694
 6984SOL    HW132588   3.480   4.026   8.742 -0.2110 -0.1611  1.5200
 6984SOL    HW232589   3.563   4.140   8.724  0.7436  0.8389  1.5894
 6985SOL     OW32590   3.136   3.655  13.258  0.2228 -0.2772  0.0349
 6985SOL    HW132591   3.076   3.729  13.263 -1.4114 -1.6751  0.9169
 6985SOL    HW232592   3.181   3.658  13.342  0.6276 -1.1283 -0.1498
 6986SOL     OW32593   4.166   0.335   2.279  0.5853 -0.3054 -0.4052
 6986SOL    HW132594   4.140   0.393   2.207 -0.4847 -1.7448 -1.1608
 6986SOL    HW232595   4.173   0.399   2.351  0.7438  0.5105 -1.1413
 6987SOL     OW32596   4.475   0.372   3.468  0.3687  0.3060  0.0663
 6987SOL    HW132597   4.550   0.349   3.524  2.6722  0.2601 -3.0528
 6987SOL    HW232598   4.444   0.285   3.444  0.2232  0.3739  0.0104
 6988SOL     OW32599   2.835   0.923  11.132  0.4352 -0.5266  0.1355
 6988SOL    HW132600   2.796   1.011  11.135  2.3106  0.2763  0.8875
 6988SOL    HW232601   2.837   0.907  11.227 -0.8646 -0.5882  0.1645
 6989SOL     OW32602   2.674   2.272   0.310 -0.3647  0.2711 -0.6220
 6989SOL    HW132603   2.592   2.239   0.347 -0.7685  0.8504 -1.0059
 6989SOL    HW232604   2.637   2.328   0.242 -0.1671 -1.9066 -2.5311
 6990SOL     OW32605   2.989   0.783   9.893  0.2634  0.1613  0.6526
 6990SOL    HW132606   2.941   0.735   9.826  0.3758 -1.3248  1.6285
 6990SOL    HW232607   3.047   0.714   9.927 -1.7851 -1.8038  0.0967
 6991SOL     OW32608   1.682   2.932   2.159  0.0789 -0.2293  0.4249
 6991SOL    HW132609   1.726   2.878   2.224  1.1395 -0.3288 -0.3838
 6991SOL    HW232610   1.598   2.959   2.197 -0.0663  1.9108 -1.3902
 6992SOL     OW32611   1.586   0.526   2.304  0.8019 -0.2519 -0.8969
 6992SOL    HW132612   1.544   0.611   2.289 -0.7151 -0.5609  1.5364
 6992SOL    HW232613   1.678   0.542   2.285  0.6392  0.6440 -0.9461
 6993SOL     OW32614   0.393   0.320   3.494 -0.4630  0.5927  0.8527
 6993SOL    HW132615   0.370   0.389   3.557 -1.3371  0.9090  0.1875
 6993SOL    HW232616   0.489   0.323   3.499 -0.4826 -1.0691  1.9979
 6994SOL     OW32617   2.996   2.721  15.132  0.1978 -0.4612 -0.4472
 6994SOL    HW132618   3.080   2.766  15.140 -0.1814 -0.2548  2.1302
 6994SOL    HW232619   2.992   2.738  15.038  0.4119  1.6923 -0.0542
 6995SOL     OW32620   4.191   4.522   9.177  0.0124 -0.5142 -0.0936
 6995SOL    HW132621   4.279   4.558   9.173 -1.3796  3.1916  2.5387
 6995SOL    HW232622   4.140   4.577   9.117 -1.3183 -1.0807  0.5062
 6996SOL     OW32623   1.720   0.154   6.049  0.9156 -0.1243 -0.7095
 6996SOL    HW132624   1.703   0.173   5.957  2.1215 -0.1945 -0.9341
 6996SOL    HW232625   1.814   0.148   6.063  1.2877  1.3347 -2.6144
 6997SOL     OW32626   1.430   2.183   9.675  0.2173 -0.1343  0.3969
 6997SOL    HW132627   1.502   2.153   9.730  0.4565 -0.7820 -0.2667
 6997SOL    HW232628   1.480   2.197   9.594 -0.0469  2.2964  0.6629
 6998SOL     OW32629   2.315   2.702   8.006 -0.2478 -0.6376 -0.8766
 6998SOL    HW132630   2.264   2.707   8.088 -0.9876  0.6322 -1.4073
 6998SOL    HW232631   2.326   2.607   8.009 -2.2410 -0.8109  1.2673
 6999SOL     OW32632   1.893   4.208   2.250 -0.6175 -0.0561  0.4981
 6999SOL    HW132633   1.917   4.301   2.258  0.4881 -0.4351  1.6267
 6999SOL    HW232634   1.978   4.165   2.244 -0.7403 -0.1258 -0.7260
 7000SOL     OW32635   3.361   4.355   3.585 -0.3256 -0.0736  0.2747
 7000SOL    HW132636   3.296   4.296   3.547  1.9545 -2.3997 -0.0393
 7000SOL    HW232637   3.408   4.385   3.507  1.6265  1.7454  2.1392
 7001SOL     OW32638   3.406   1.169   3.194 -0.1299  0.5855  0.5735
 7001SOL    HW132639   3.414   1.149   3.287 -0.5246  1.5352  0.8135
 7001SOL    HW232640   3.311   1.173   3.181  0.0856  1.6758 -0.6955
 7002SOL     OW32641   1.598   1.596   9.614 -0.0852 -0.6512  0.1297
 7002SOL    HW132642   1.540   1.651   9.666  0.0535  0.4271 -0.8666
 7002SOL    HW232643   1.580   1.517   9.665 -1.7510 -0.9807 -0.9678
 7003SOL     OW32644   4.110   1.959   2.297  0.5635  0.1473 -0.0985
 7003SOL    HW132645   4.145   1.907   2.369  2.2603  1.3348 -0.0615
 7003SOL    HW232646   4.184   1.954   2.236  1.4288  1.5252  0.8476
 7004SOL     OW32647   1.416   1.392   7.814  0.1785  0.1879 -0.3347
 7004SOL    HW132648   1.492   1.444   7.787  0.7612 -2.4586 -3.8295
 7004SOL    HW232649   1.446   1.301   7.809 -2.0048 -0.4572 -2.0284
 7005SOL     OW32650   0.258   0.789   8.020 -0.4227  0.2686  0.1953
 7005SOL    HW132651   0.238   0.876   8.053 -0.1456  0.7995 -1.0396
 7005SOL    HW232652   0.299   0.817   7.938 -0.9459 -3.1629 -1.2175
 7006SOL     OW32653   0.491   1.300   4.760  0.0742  0.5607  0.0994
 7006SOL    HW132654   0.433   1.225   4.757  2.8633 -1.4475 -4.0581
 7006SOL    HW232655   0.432   1.375   4.757 -1.2311 -0.5496 -1.7645
 7007SOL     OW32656   1.236   3.040  14.336  1.0054 -0.2505  0.2311
 7007SOL    HW132657   1.302   3.108  14.349  1.5294 -0.5543 -0.9064
 7007SOL    HW232658   1.155   3.090  14.348 -0.5076 -2.6045 -0.2144
 7008SOL     OW32659   0.724   1.184   3.592  0.4170 -0.0970  0.6611
 7008SOL    HW132660   0.648   1.226   3.632  0.2330 -0.6866  0.9304
 7008SOL    HW232661   0.760   1.143   3.670 -0.2264  1.5456  1.8181
 7009SOL     OW32662   4.556   3.251  13.585 -0.1183  0.3359 -0.2370
 7009SOL    HW132663   4.602   3.196  13.522 -0.3480 -0.2255  0.0857
 7009SOL    HW232664   4.625   3.314  13.608  1.7282 -1.9464  0.5032
 7010SOL     OW32665   0.050   3.986   1.645 -0.1491  0.2450 -0.4996
 7010SOL    HW132666   0.123   3.946   1.597 -1.2349  0.0474 -1.9787
 7010SOL    HW232667   4.725   3.974   1.577 -0.6199 -2.4850  0.4062
 7011SOL     OW32668   0.333   1.520   5.071  0.1878  0.4059  0.4189
 7011SOL    HW132669   0.374   1.491   4.990  1.5529 -0.0959  1.2941
 7011SOL    HW232670   0.243   1.536   5.044 -0.3003 -1.5811  0.8605
 7012SOL     OW32671   0.188   0.168  15.340 -0.4375  0.3101  0.0795
 7012SOL    HW132672   0.136   0.247  15.358 -2.6511 -1.0461 -0.3600
 7012SOL    HW232673   0.171   0.112  15.416  6.0895 -0.9764  0.6040
 7013SOL     OW32674   1.294   3.566  13.724  0.4791  0.0326  0.2439
 7013SOL    HW132675   1.352   3.628  13.680  2.2013 -2.5261 -1.1011
 7013SOL    HW232676   1.267   3.622  13.797  1.8129 -0.1380  0.8594
 7014SOL     OW32677   4.005   4.548   6.085 -0.3846  0.3176 -0.2311
 7014SOL    HW132678   4.000   4.460   6.048 -1.3596  0.7699 -1.2115
 7014SOL    HW232679   4.030   4.587   6.001 -3.8066  1.9421 -0.4986
 7015SOL     OW32680   1.829   4.038  15.113 -0.8376 -0.2330  0.0876
 7015SOL    HW132681   1.765   4.104  15.138  0.0649  0.9918 -0.8083
 7015SOL    HW232682   1.816   3.977  15.185  0.8316  0.4670  0.9765
 7016SOL     OW32683   2.889   2.215   2.693  0.3404  0.0190  0.1846
 7016SOL    HW132684   2.796   2.208   2.713  0.5948  2.8367  2.3572
 7016SOL    HW232685   2.888   2.251   2.604  0.1499  0.1689  0.2472
 7017SOL     OW32686   4.173   1.355  10.230 -0.3096  0.0256  0.2556
 7017SOL    HW132687   4.166   1.283  10.168  0.9312  0.0694  0.0506
 7017SOL    HW232688   4.238   1.408  10.185  2.5381 -0.5311  3.6889
 7018SOL     OW32689   1.700   2.861  14.978 -0.0997 -0.5150 -0.2627
 7018SOL    HW132690   1.643   2.938  14.970 -0.0822 -0.5936 -1.1596
 7018SOL    HW232691   1.635   2.795  15.003  0.0804 -0.4079  0.4566
 7019SOL     OW32692   0.495   1.787   3.341 -0.3346 -0.3283 -0.4073
 7019SOL    HW132693   0.447   1.860   3.301  2.4164  0.1399 -2.9030
 7019SOL    HW232694   0.451   1.709   3.307 -0.6930 -0.7075  0.9157
 7020SOL     OW32695   2.193   4.186  13.940 -0.0510  0.1526  0.2561
 7020SOL    HW132696   2.142   4.266  13.954 -0.2583 -0.1188  1.0921
 7020SOL    HW232697   2.120   4.126  13.928 -0.6031  0.7364  0.7167
 7021SOL     OW32698   2.199   4.110   3.830 -0.3471 -0.0045  0.1199
 7021SOL    HW132699   2.287   4.129   3.864 -0.2684  1.0310 -0.6795
 7021SOL    HW232700   2.179   4.194   3.789  1.3402  0.2279 -0.2437
 7022SOL     OW32701   2.832   1.489   4.973  0.1499  0.1539  0.1483
 7022SOL    HW132702   2.860   1.580   4.962  0.8822 -0.1193 -0.2080
 7022SOL    HW232703   2.908   1.457   5.021  1.8215  2.5465 -0.9222
 7023SOL     OW32704   4.538   1.525   3.369  0.1420  0.0502 -0.4288
 7023SOL    HW132705   4.480   1.477   3.427  2.0029 -1.7598 -0.0864
 7023SOL    HW232706   4.603   1.464   3.334 -0.6321  0.4096 -2.4805
 7024SOL     OW32707   1.565   3.442   8.822  0.2997 -0.5196 -0.3126
 7024SOL    HW132708   1.571   3.377   8.751 -1.4617 -0.0454 -0.8846
 7024SOL    HW232709   1.495   3.391   8.863 -0.4016 -0.0840 -0.9868
 7025SOL     OW32710   2.365   1.026   4.705  0.1593 -0.0127 -0.4502
 7025SOL    HW132711   2.381   0.937   4.675  3.5055  0.5390 -0.3329
 7025SOL    HW232712   2.454   1.058   4.689  0.1875 -0.7113 -1.6236
 7026SOL     OW32713   2.121   2.832   3.815  0.0872 -0.3555 -0.2767
 7026SOL    HW132714   2.100   2.841   3.908 -1.5972  1.6971 -0.8833
 7026SOL    HW232715   2.071   2.908   3.788 -0.5904 -0.1589  1.5609
 7027SOL     OW32716   1.313   0.349  16.156  0.7318 -0.2287 -0.0047
 7027SOL    HW132717   1.355   0.417  16.103  1.6594 -0.1204  0.8508
 7027SOL    HW232718   1.227   0.335  16.117  0.6451  1.3113 -0.3552
 7028SOL     OW32719   2.626   0.329   7.010  0.0183  1.0210  0.3035
 7028SOL    HW132720   2.634   0.250   6.957 -0.5695 -0.3447  2.2681
 7028SOL    HW232721   2.535   0.328   7.041  0.9631  2.3941  3.1316
 7029SOL     OW32722   3.749   2.414   0.555  0.4944  0.2347 -0.1154
 7029SOL    HW132723   3.737   2.502   0.518 -3.6430 -0.1736  0.2836
 7029SOL    HW232724   3.825   2.393   0.501  1.4850  2.4447  0.4045
 7030SOL     OW32725   1.073   0.442   3.045 -0.0024 -0.2771 -0.3735
 7030SOL    HW132726   1.153   0.397   3.072 -1.0741 -0.5865  2.3093
 7030SOL    HW232727   1.104   0.524   3.007  1.6109 -1.5122 -1.6689
 7031SOL     OW32728   1.608   1.849   9.517  0.1051 -0.3672  0.4059
 7031SOL    HW132729   1.544   1.859   9.446 -0.1369 -1.0843  0.5205
 7031SOL    HW232730   1.609   1.755   9.532  0.2599 -0.6344 -1.3800
 7032SOL     OW32731   4.142   3.961   3.789  0.7294  0.3484  0.5994
 7032SOL    HW132732   4.105   4.039   3.830 -0.7348  0.4669 -0.9102
 7032SOL    HW232733   4.236   3.979   3.795  0.7552  0.5358 -0.3067
 7033SOL     OW32734   4.588   3.294   4.929 -0.6308  0.2997  0.3209
 7033SOL    HW132735   4.521   3.225   4.925 -0.1848 -0.1779  1.1108
 7033SOL    HW232736   4.652   3.247   4.982  1.4198  1.3542 -1.2421
 7034SOL     OW32737   1.675   2.171  15.053 -0.2343  0.6383  0.2592
 7034SOL    HW132738   1.737   2.176  15.126 -0.6242  0.6824  0.5884
 7034SOL    HW232739   1.726   2.119  14.992 -1.0097  0.0856  0.0854
 7035SOL     OW32740   4.341   2.307  16.679 -0.5720  0.4353 -0.3993
 7035SOL    HW132741   4.393   2.349  16.748 -1.6419  1.7987 -0.4297
 7035SOL    HW232742   4.262   2.279  16.725  0.4068 -1.0646  0.3705
 7036SOL     OW32743   0.268   1.958   3.966  0.7665 -0.2431  0.0631
 7036SOL    HW132744   0.185   1.994   3.934  1.1395  0.7263  0.1838
 7036SOL    HW232745   0.250   1.865   3.950 -1.5674  0.8072 -3.3887
 7037SOL     OW32746   4.118   1.303   6.231 -0.4843 -0.0239 -0.0304
 7037SOL    HW132747   4.030   1.339   6.238 -0.6647 -0.0669 -2.0072
 7037SOL    HW232748   4.151   1.299   6.321  3.1656 -0.7439 -1.4114
 7038SOL     OW32749   1.398   4.245   7.817 -0.2635 -0.0442 -0.1686
 7038SOL    HW132750   1.348   4.316   7.858 -0.9131  0.3509 -1.6521
 7038SOL    HW232751   1.486   4.283   7.811 -1.2466  1.9437 -2.2721
 7039SOL     OW32752   1.770   3.320   2.705 -0.7566 -0.7464  0.0213
 7039SOL    HW132753   1.706   3.391   2.695  2.0810  1.8936  0.9800
 7039SOL    HW232754   1.714   3.242   2.715 -0.2711 -1.4020 -2.2168
 7040SOL     OW32755   0.932   4.220   3.339  0.3347  0.4379 -0.0187
 7040SOL    HW132756   0.893   4.252   3.257  1.0648 -2.8945 -1.6866
 7040SOL    HW232757   0.974   4.296   3.378 -0.3767  1.6698 -1.6734
 7041SOL     OW32758   2.967   2.889  11.351  0.0201 -0.1709 -0.1557
 7041SOL    HW132759   2.906   2.930  11.290 -0.3874  0.4871  0.7081
 7041SOL    HW232760   2.913   2.859  11.423 -1.7006  2.7749 -0.2487
 7042SOL     OW32761   1.650   2.537   3.765  0.0254  0.0168  0.2591
 7042SOL    HW132762   1.568   2.570   3.802 -0.6797 -1.3166 -0.1152
 7042SOL    HW232763   1.672   2.455   3.809  0.8459  0.8718  1.4620
 7043SOL     OW32764   2.175   2.818   6.476  0.1548 -0.3211 -0.0156
 7043SOL    HW132765   2.202   2.902   6.439  1.2381 -0.1443  1.1831
 7043SOL    HW232766   2.218   2.761   6.413 -0.9528  1.2233 -2.1563
 7044SOL     OW32767   0.720   2.038   5.903  0.3891 -0.0752  0.3438
 7044SOL    HW132768   0.648   2.024   5.964  0.7818 -3.2175  0.0618
 7044SOL    HW232769   0.777   1.964   5.924  1.5795  0.4345 -1.1040
 7045SOL     OW32770   2.580   3.513  12.707 -0.0375 -0.1032  0.2535
 7045SOL    HW132771   2.599   3.427  12.745 -0.4837 -0.6014 -0.6607
 7045SOL    HW232772   2.489   3.531  12.731 -0.6559 -1.2077 -1.2921
 7046SOL     OW32773   1.900   4.087  10.063 -0.3170 -0.0692 -0.5931
 7046SOL    HW132774   1.924   4.173  10.099  1.0495 -0.0605 -1.5016
 7046SOL    HW232775   1.806   4.081  10.080 -0.5188 -1.9494 -2.4444
 7047SOL     OW32776   3.633   1.398   3.957 -0.3854 -0.1209  0.1552
 7047SOL    HW132777   3.647   1.306   3.983 -3.1434 -0.9599 -1.3673
 7047SOL    HW232778   3.685   1.438   4.026  1.7775 -0.9907 -0.9390
 7048SOL     OW32779   1.654   3.870   4.268 -0.3526 -0.2156 -0.1070
 7048SOL    HW132780   1.719   3.859   4.337 -0.2849 -2.3604 -0.5011
 7048SOL    HW232781   1.703   3.837   4.192 -2.0629 -2.5807 -0.2025
 7049SOL     OW32782   2.499   2.129  10.088  0.2471  0.2599 -0.0951
 7049SOL    HW132783   2.491   2.038  10.119 -1.8513 -0.5489 -2.9807
 7049SOL    HW232784   2.412   2.165  10.103  1.4128  2.1967  2.0063
 7050SOL     OW32785   3.490   2.866   3.034  0.3175  0.3367 -0.2450
 7050SOL    HW132786   3.456   2.956   3.031  0.0726  0.3400  2.5816
 7050SOL    HW232787   3.482   2.837   2.943  1.4248 -0.6675 -0.0119
 7051SOL     OW32788   1.405   4.519   1.140  0.3968 -0.1041 -0.1587
 7051SOL    HW132789   1.386   4.609   1.166  2.1677 -0.8648  3.8199
 7051SOL    HW232790   1.346   4.473   1.200 -0.3336  0.2232 -0.6325
 7052SOL     OW32791   1.806   2.846  17.276 -0.0949  0.0080 -0.3148
 7052SOL    HW132792   1.796   2.781  17.346  0.1518 -0.2818 -0.5484
 7052SOL    HW232793   1.854   2.913  17.325  1.2786 -2.1890  1.3268
 7053SOL     OW32794   3.161   2.628   5.996 -0.5726 -0.2162  0.2729
 7053SOL    HW132795   3.154   2.649   5.903  1.5311 -0.5599  0.0401
 7053SOL    HW232796   3.232   2.564   5.993  0.5699  0.9980  1.2150
 7054SOL     OW32797   3.462   4.557  11.539 -0.1331 -0.1527  0.8755
 7054SOL    HW132798   3.504   4.478  11.572  0.8985 -0.0423 -0.1249
 7054SOL    HW232799   3.424   4.538  11.453 -1.3210 -2.0962  1.8507
 7055SOL     OW32800   2.978   4.005   6.940 -0.4747  0.2544 -0.0831
 7055SOL    HW132801   2.911   3.939   6.955 -0.4807 -0.1713 -1.9837
 7055SOL    HW232802   3.058   3.963   6.971  0.4093  2.8435  1.1375
 7056SOL     OW32803   4.228   3.373   6.997 -0.4796 -0.1957 -0.5432
 7056SOL    HW132804   4.165   3.321   7.047  0.9877  1.3479  2.8984
 7056SOL    HW232805   4.255   3.436   7.063 -0.1972 -0.6626 -0.2177
 7057SOL     OW32806   0.087   2.206   5.077 -0.3802  0.8367 -0.0174
 7057SOL    HW132807   0.120   2.295   5.061  1.5768  0.1484  0.1399
 7057SOL    HW232808   0.044   2.221   5.161  0.7514  1.6176  0.4312
 7058SOL     OW32809   3.723   2.857  10.377  0.1556  0.3438  0.2192
 7058SOL    HW132810   3.695   2.814  10.458  0.5136 -0.0217  0.1482
 7058SOL    HW232811   3.764   2.785  10.329 -0.4021 -0.2344  0.6152
 7059SOL     OW32812   2.058   0.627   8.426  0.2298 -0.5371  0.5163
 7059SOL    HW132813   2.135   0.594   8.380  0.1088  0.2604 -0.2473
 7059SOL    HW232814   2.065   0.721   8.409 -0.3872 -0.8383 -1.3322
 7060SOL     OW32815   1.273   3.746  12.341 -0.1561  0.3450  0.4046
 7060SOL    HW132816   1.338   3.753  12.412  1.7325  0.0835 -1.2876
 7060SOL    HW232817   1.305   3.675  12.285  1.0110  1.5730 -0.4524
 7061SOL     OW32818   0.646   4.056   5.717  0.4707  0.4192  0.1605
 7061SOL    HW132819   0.586   4.052   5.642  0.7980 -0.5040 -0.0579
 7061SOL    HW232820   0.582   4.063   5.787  1.4787 -0.0196  1.1285
 7062SOL     OW32821   2.638   2.368  10.221  0.0508 -0.0840 -0.0259
 7062SOL    HW132822   2.663   2.288  10.175  0.0284  1.1792 -2.2433
 7062SOL    HW232823   2.555   2.397  10.183 -0.6027 -1.2410  0.5224
 7063SOL     OW32824   4.270   1.822   4.422 -0.3828  0.0606 -0.0104
 7063SOL    HW132825   4.208   1.874   4.370  0.0152  0.3427 -0.1973
 7063SOL    HW232826   4.282   1.744   4.368 -3.6526  0.8720 -1.9112
 7064SOL     OW32827   3.200   4.206   6.910  0.5195 -0.3294 -0.6268
 7064SOL    HW132828   3.125   4.147   6.918  0.4991  0.0712  2.4514
 7064SOL    HW232829   3.207   4.229   7.003  3.2098  0.3421 -1.0002
 7065SOL     OW32830   2.831   0.156   8.853 -0.3734 -0.1710  0.1125
 7065SOL    HW132831   2.755   0.162   8.794 -1.0678  2.2100  1.2808
 7065SOL    HW232832   2.850   0.063   8.836  0.5877  0.3665 -1.8341
 7066SOL     OW32833   4.080   0.977  11.316  0.3419 -0.4029  0.0366
 7066SOL    HW132834   4.101   0.903  11.260 -0.8364  0.0980 -1.0585
 7066SOL    HW232835   3.985   0.964  11.321  0.3124  0.1503  1.0715
 7067SOL     OW32836   1.941   3.216   6.504  0.6597  0.1157 -0.1113
 7067SOL    HW132837   1.876   3.207   6.574 -1.3817  1.4425 -1.8263
 7067SOL    HW232838   1.976   3.302   6.527  2.1370 -1.1122  2.1554
 7068SOL     OW32839   1.524   1.119   6.807 -0.5664 -0.1477  0.0922
 7068SOL    HW132840   1.541   1.212   6.791 -2.0251 -0.1647 -1.5040
 7068SOL    HW232841   1.435   1.115   6.841 -0.6408  0.2397 -0.0601
 7069SOL     OW32842   0.970   0.817   8.621 -0.0128 -0.0769 -0.5221
 7069SOL    HW132843   0.985   0.911   8.636 -1.1037  0.1024 -0.5564
 7069SOL    HW232844   0.960   0.811   8.526 -0.7414 -1.8713 -0.3345
 7070SOL     OW32845   0.098   0.717  10.998  0.7209  0.5950 -0.1577
 7070SOL    HW132846   0.030   0.747  11.058 -0.1728  1.3612 -1.5578
 7070SOL    HW232847   0.172   0.720  11.059  0.5366  1.8032  0.0040
 7071SOL     OW32848   1.697   3.105   1.350 -0.2273  0.5574  0.2266
 7071SOL    HW132849   1.690   3.030   1.409 -1.7956  0.2714 -0.3440
 7071SOL    HW232850   1.675   3.059   1.270 -0.8076  2.3944 -0.6774
 7072SOL     OW32851   2.289   1.884  14.930 -0.5288  0.4584 -0.1497
 7072SOL    HW132852   2.334   1.898  15.013 -0.9586 -1.5053  0.4251
 7072SOL    HW232853   2.333   1.954  14.882  3.2059  0.5612  3.4475
 7073SOL     OW32854   2.758   0.648   1.795  0.0040 -0.2272  0.2465
 7073SOL    HW132855   2.724   0.619   1.710 -1.3160 -0.4726  0.8449
 7073SOL    HW232856   2.701   0.724   1.810  1.0666  0.3838  1.1387
 7074SOL     OW32857   0.616   4.590   6.190  0.4484  0.1799  0.3985
 7074SOL    HW132858   0.616   4.587   6.285 -0.9090 -0.1722  0.3815
 7074SOL    HW232859   0.593   4.498   6.183 -0.5540  0.3367  1.8184
 7075SOL     OW32860   3.345   0.081  12.009  0.1033  0.2146 -0.0752
 7075SOL    HW132861   3.332   0.172  12.034  2.6510  1.1436 -2.0010
 7075SOL    HW232862   3.258   0.060  11.976  0.0365  0.0645  0.2006
 7076SOL     OW32863   1.062   3.237   4.996  0.2733  0.3660 -0.1886
 7076SOL    HW132864   1.137   3.236   5.055 -0.0086  0.4055  0.1715
 7076SOL    HW232865   1.034   3.328   5.009 -1.0945 -0.0379 -0.3058
 7077SOL     OW32866   2.387   3.238   8.983 -0.0506 -0.3053 -0.0776
 7077SOL    HW132867   2.316   3.196   9.032 -1.3150 -0.8393 -2.3424
 7077SOL    HW232868   2.414   3.304   9.046  1.0158  0.2503 -1.1301
 7078SOL     OW32869   1.025   2.593   8.220  0.1523 -0.2907  0.7746
 7078SOL    HW132870   0.955   2.558   8.166  0.8182  1.3288 -1.1375
 7078SOL    HW232871   0.979   2.592   8.303 -0.3754  0.6989  0.4829
 7079SOL     OW32872   1.739   0.577   6.003 -0.0929  0.1471  0.3010
 7079SOL    HW132873   1.704   0.496   5.964 -1.5915  0.8493  0.2312
 7079SOL    HW232874   1.725   0.556   6.095  0.2238 -0.2361  0.2649
 7080SOL     OW32875   3.392   0.672   9.790 -0.2049 -0.7266 -0.0560
 7080SOL    HW132876   3.437   0.752   9.815  0.1574 -0.5547 -1.2487
 7080SOL    HW232877   3.390   0.678   9.695  1.8737  0.7637 -0.0083
 7081SOL     OW32878   0.361   0.840   8.761  0.1390 -0.2882 -0.4293
 7081SOL    HW132879   0.368   0.819   8.668 -1.4314 -0.8498 -0.4176
 7081SOL    HW232880   0.387   0.757   8.801 -3.1632 -2.1410 -2.0963
 7082SOL     OW32881   0.068   1.597   7.486  0.2688 -0.0353 -0.5960
 7082SOL    HW132882   0.031   1.551   7.410 -0.6396  0.8016 -0.6518
 7082SOL    HW232883   0.162   1.607   7.469 -0.2192  1.8584 -2.1827
 7083SOL     OW32884   1.823   0.107   9.027 -1.0181  0.2178 -0.0433
 7083SOL    HW132885   1.848   0.168   8.958  0.3255  0.1370  0.3781
 7083SOL    HW232886   1.793   0.042   8.964  1.4464  0.3581 -1.3758
 7084SOL     OW32887   4.240   1.881  15.717  0.4493 -0.0337 -0.5733
 7084SOL    HW132888   4.149   1.869  15.691 -0.1132  1.0925  0.9206
 7084SOL    HW232889   4.244   1.975  15.732 -4.7278 -0.0309  0.6775
 7085SOL     OW32890   2.757   0.280   1.817  0.1022 -0.0592  0.7191
 7085SOL    HW132891   2.766   0.323   1.902 -1.4513  0.6865  0.4993
 7085SOL    HW232892   2.754   0.351   1.753 -2.3884 -0.7074  0.1300
 7086SOL     OW32893   3.309   1.301   2.918 -0.1123  0.5876 -0.4006
 7086SOL    HW132894   3.389   1.251   2.934 -0.3319  1.0493  2.2818
 7086SOL    HW232895   3.260   1.262   2.991  2.3107 -2.9065 -0.6046
 7087SOL     OW32896   0.887   4.345   9.930  0.3489 -0.2830  0.0444
 7087SOL    HW132897   0.889   4.285  10.004 -2.0980 -1.9762 -1.2441
 7087SOL    HW232898   0.794   4.368   9.923 -0.2098 -1.8534  2.3404
 7088SOL     OW32899   1.271   2.773   4.951  0.4415 -0.1894  0.0915
 7088SOL    HW132900   1.212   2.832   4.905 -0.7008 -1.4055 -0.0203
 7088SOL    HW232901   1.257   2.793   5.044  1.0681 -0.1981  0.1863
 7089SOL     OW32902   2.038   2.289   7.737 -0.1013  0.1302 -0.8440
 7089SOL    HW132903   2.013   2.302   7.828 -0.5229  0.9285 -1.0717
 7089SOL    HW232904   2.000   2.203   7.722  1.2215 -0.2291 -2.1785
 7090SOL     OW32905   0.991   1.557  11.447  0.9139  0.5598 -0.1804
 7090SOL    HW132906   1.067   1.613  11.461 -0.1212  2.2173 -1.2999
 7090SOL    HW232907   0.955   1.544  11.535  0.5614 -1.9286 -0.7013
 7091SOL     OW32908   1.571   1.926   5.167  0.0619 -0.0193 -0.0332
 7091SOL    HW132909   1.584   1.952   5.075  1.0266 -1.3551 -0.2806
 7091SOL    HW232910   1.573   1.832   5.149  1.5699  0.5063 -2.7530
 7092SOL     OW32911   2.212   3.192  14.815 -0.6885  0.4884  0.1020
 7092SOL    HW132912   2.292   3.203  14.763 -1.1577  0.9678 -0.5204
 7092SOL    HW232913   2.154   3.173  14.741  0.6783  1.8609 -1.3164
 7093SOL     OW32914   2.484   2.376  13.581 -0.1397  0.0388 -0.4264
 7093SOL    HW132915   2.425   2.304  13.606  0.6603 -0.6554 -0.5453
 7093SOL    HW232916   2.539   2.335  13.514  1.3465  1.8234 -0.2803
 7094SOL     OW32917   1.373   2.565   4.559  0.3130  0.1562  0.1143
 7094SOL    HW132918   1.313   2.627   4.601  0.8926  0.0283  1.1109
 7094SOL    HW232919   1.419   2.616   4.493 -1.3520 -0.8369 -1.8252
 7095SOL     OW32920   3.295   3.069  12.007  0.1680  0.8860 -0.5193
 7095SOL    HW132921   3.212   3.040  11.969 -0.3026 -0.5155  1.5597
 7095SOL    HW232922   3.278   3.068  12.101 -2.2262  0.4581 -0.9379
 7096SOL     OW32923   2.035   1.531   5.788 -0.7054 -0.1587  0.6202
 7096SOL    HW132924   2.103   1.596   5.806  0.7855 -1.1203 -1.5986
 7096SOL    HW232925   2.065   1.459   5.843  0.6972 -0.6282 -0.7819
 7097SOL     OW32926   2.896   3.684   5.027  0.4085 -0.3548  0.0383
 7097SOL    HW132927   2.868   3.720   4.943  3.2127  0.9359 -0.3596
 7097SOL    HW232928   2.986   3.717   5.039  0.5778 -0.5156 -0.7731
 7098SOL     OW32929   3.528   4.103   3.524 -0.3829 -0.3284  0.0525
 7098SOL    HW132930   3.448   4.154   3.535  1.3568  2.3151  0.6589
 7098SOL    HW232931   3.518   4.074   3.433  1.4073 -0.5690 -0.0743
 7099SOL     OW32932   1.333   1.584  14.446  0.8489 -0.0651 -0.6098
 7099SOL    HW132933   1.379   1.609  14.526  0.5549  0.3923 -0.5795
 7099SOL    HW232934   1.293   1.669  14.426 -2.2055 -1.2227  0.6679
 7100SOL     OW32935   2.772   2.037   5.785 -0.5242  0.3357 -0.9160
 7100SOL    HW132936   2.679   2.018   5.794 -0.5439 -0.4742 -2.8832
 7100SOL    HW232937   2.805   2.000   5.867 -0.1271  2.7322  0.0122
 7101SOL     OW32938   3.555   2.830   6.151  0.0293 -0.1115 -0.3239
 7101SOL    HW132939   3.572   2.864   6.064 -0.4156  0.0437 -0.3492
 7101SOL    HW232940   3.539   2.737   6.138  0.0305 -0.4011  1.7287
 7102SOL     OW32941   0.886   0.839  14.199  0.0629 -0.0277  0.3138
 7102SOL    HW132942   0.974   0.875  14.190  0.7656 -1.5847  0.9789
 7102SOL    HW232943   0.860   0.831  14.107 -1.8197 -1.6674  0.9875
 7103SOL     OW32944   1.505   2.158  15.271 -0.4727 -0.2130 -0.0613
 7103SOL    HW132945   1.583   2.184  15.222 -0.7835  0.0408 -0.4170
 7103SOL    HW232946   1.479   2.089  15.210  0.5996 -0.0760 -0.6862
 7104SOL     OW32947   1.839   2.279   7.136  0.3394  0.1872  1.3130
 7104SOL    HW132948   1.791   2.199   7.116  2.9020 -1.1487  0.5482
 7104SOL    HW232949   1.777   2.312   7.201  0.8729  1.2692  1.2780
 7105SOL     OW32950   1.734   4.261  15.269 -0.4451 -0.1352 -0.3509
 7105SOL    HW132951   1.788   4.327  15.226 -0.3489 -1.2992 -2.0430
 7105SOL    HW232952   1.789   4.231  15.341  0.0108  0.2192 -0.5502
 7106SOL     OW32953   2.931   0.236  12.576 -0.6252 -0.1271  0.4700
 7106SOL    HW132954   2.846   0.280  12.568  0.8792  1.9443 -4.4801
 7106SOL    HW232955   2.903   0.149  12.548  0.7941 -0.4817  0.1443
 7107SOL     OW32956   2.178   0.848   9.735  0.2155 -0.0673  0.4804
 7107SOL    HW132957   2.154   0.776   9.795  0.4160  0.0356  0.6846
 7107SOL    HW232958   2.182   0.917   9.802  0.3903 -0.5857  1.0089
 7108SOL     OW32959   0.674   3.626   4.178 -0.0424  0.0202  0.3223
 7108SOL    HW132960   0.630   3.542   4.161  1.1052 -0.6097  0.4846
 7108SOL    HW232961   0.639   3.670   4.100 -0.1149  0.0376  0.3644
 7109SOL     OW32962   0.336   0.662  11.224 -0.2380  0.0252  0.2093
 7109SOL    HW132963   0.425   0.628  11.238  0.0692  0.1651 -1.3849
 7109SOL    HW232964   0.289   0.584  11.253 -2.1345  0.1674 -2.4969
 7110SOL     OW32965   3.756   4.200   4.117 -0.4866  0.3398  0.5203
 7110SOL    HW132966   3.778   4.168   4.029  0.9142  3.9655 -0.4927
 7110SOL    HW232967   3.688   4.264   4.093 -0.2588 -0.0731 -1.2774
 7111SOL     OW32968   3.709   3.872  12.591 -0.5863 -0.7104 -0.6163
 7111SOL    HW132969   3.653   3.825  12.652 -0.1685 -0.1825  0.1717
 7111SOL    HW232970   3.772   3.917  12.647 -0.3673  0.9566 -2.2248
 7112SOL     OW32971   1.911   2.926   4.908  0.1560 -0.8810 -0.3796
 7112SOL    HW132972   1.918   2.831   4.894 -1.4011 -0.7944 -1.6683
 7112SOL    HW232973   1.994   2.952   4.948  0.6570 -1.1632 -1.2319
 7113SOL     OW32974   0.503   3.687   1.891 -0.6560  0.4811  0.0115
 7113SOL    HW132975   0.557   3.689   1.970 -0.6166 -3.0392  0.0590
 7113SOL    HW232976   0.515   3.595   1.870  0.8267  0.9964 -1.3397
 7114SOL     OW32977   3.415   2.355   6.280 -0.5552  0.2722 -0.0645
 7114SOL    HW132978   3.447   2.345   6.370  3.5092  1.7422 -1.3378
 7114SOL    HW232979   3.377   2.443   6.284  0.2417  0.6060  0.3076
 7115SOL     OW32980   2.060   3.144   3.499  0.3740 -0.2108  0.1979
 7115SOL    HW132981   2.073   3.050   3.512 -0.4086 -0.2459  0.7269
 7115SOL    HW232982   1.967   3.142   3.520  0.4457  1.0825  0.6258
 7116SOL     OW32983   1.503   3.704   8.814  0.3552  0.6407 -0.2138
 7116SOL    HW132984   1.437   3.692   8.882 -0.7356 -0.3133 -1.4466
 7116SOL    HW232985   1.530   3.614   8.798 -0.4477  0.3170  0.2670
 7117SOL     OW32986   2.953   3.959   5.935  0.2605  0.0474 -0.1489
 7117SOL    HW132987   2.950   3.943   5.841 -1.4373 -1.7614  0.2168
 7117SOL    HW232988   3.031   4.013   5.944  0.1369 -0.0151  1.3476
 7118SOL     OW32989   0.097   0.834   8.324  0.6039  0.0737  0.3986
 7118SOL    HW132990   0.095   0.790   8.239  1.7409  0.5403  0.1231
 7118SOL    HW232991   0.006   0.846   8.353 -0.8368 -1.0879 -3.6694
 7119SOL     OW32992   3.250   2.499   8.106 -0.0837 -0.1125  0.4119
 7119SOL    HW132993   3.191   2.449   8.163 -0.0182  0.5783  1.0803
 7119SOL    HW232994   3.310   2.526   8.175 -0.6189  1.6225  0.1849
 7120SOL     OW32995   1.493   1.460   1.901 -0.4222 -0.0719 -0.3339
 7120SOL    HW132996   1.570   1.477   1.955 -0.1812  1.2175 -1.1048
 7120SOL    HW232997   1.518   1.387   1.844  0.8507  0.8546 -0.9606
 7121SOL     OW32998   0.372   0.153   6.885  0.2329 -0.0523 -0.1038
 7121SOL    HW132999   0.391   0.197   6.802  2.7218 -1.1316 -0.1134
 7121SOL    HW233000   0.279   0.132   6.889  0.0608  1.5511  3.6967
 7122SOL     OW33001   1.176   1.966   7.263 -0.6037 -0.1207 -0.0283
 7122SOL    HW133002   1.122   2.020   7.321 -2.0591 -0.7688 -0.7764
 7122SOL    HW233003   1.111   1.964   7.193  0.6840 -0.0830 -1.2203
 7123SOL     OW33004   0.962   2.456  14.113  0.0543  0.2031  0.5120
 7123SOL    HW133005   0.903   2.472  14.187  0.0444 -0.4773  0.6579
 7123SOL    HW233006   0.898   2.408  14.060  1.0634 -0.3909 -0.1847
 7124SOL     OW33007   2.520   1.380   5.950  0.0338  0.0347  0.6691
 7124SOL    HW133008   2.554   1.335   6.027 -0.4420 -3.2376 -1.0272
 7124SOL    HW233009   2.481   1.312   5.894 -1.0304 -0.2906  1.7948
 7125SOL     OW33010   0.065   3.787   8.731  0.4460 -0.2492 -0.2405
 7125SOL    HW133011   0.140   3.815   8.784 -0.1280 -0.8373  0.8922
 7125SOL    HW233012   4.733   3.842   8.761  0.9267  1.0469 -1.4826
 7126SOL     OW33013   2.808   0.187   5.674 -0.2099  0.0776 -0.2421
 7126SOL    HW133014   2.821   0.257   5.738 -1.3246 -2.8942  3.2261
 7126SOL    HW233015   2.764   0.116   5.720  0.9104 -1.0821 -0.9532
 7127SOL     OW33016   4.184   2.193   6.339 -0.4758  0.2727 -0.1999
 7127SOL    HW133017   4.199   2.161   6.428  0.1016  2.6357  0.5399
 7127SOL    HW233018   4.236   2.273   6.343 -0.1731  0.0307  0.5907
 7128SOL     OW33019   1.499   0.666  11.872  0.2938  0.9946 -1.0972
 7128SOL    HW133020   1.530   0.585  11.831 -1.4587 -0.0125 -0.4015
 7128SOL    HW233021   1.574   0.687  11.928 -1.0831 -1.0564  1.4764
 7129SOL     OW33022   3.831   1.053   5.175 -0.4730 -0.0828  0.4359
 7129SOL    HW133023   3.844   1.132   5.227  1.3104 -0.3866  0.4605
 7129SOL    HW233024   3.902   1.007   5.220  0.1639 -0.7956 -1.2968
 7130SOL     OW33025   0.558   0.088   2.955  0.8935 -0.2600 -0.3805
 7130SOL    HW133026   0.504   0.011   2.937  1.6990 -0.8858 -0.1190
 7130SOL    HW233027   0.636   0.052   2.915  1.7263 -2.5643  3.3326
 7131SOL     OW33028   4.139   3.236  10.611 -0.2195  0.6196  0.2296
 7131SOL    HW133029   4.189   3.298  10.559  2.1349 -0.8860  0.6485
 7131SOL    HW233030   4.048   3.259  10.594 -0.2207  1.6567  1.7144
 7132SOL     OW33031   0.159   0.729  10.490  0.0160  0.0695  0.1164
 7132SOL    HW133032   0.169   0.804  10.549  1.5253 -1.5624  1.9176
 7132SOL    HW233033   0.082   0.765  10.446  1.3134  0.1157 -2.1188
 7133SOL     OW33034   2.301   3.632   2.232 -0.3042  0.2834 -0.2917
 7133SOL    HW133035   2.250   3.683   2.295 -1.8313 -1.6977  0.0932
 7133SOL    HW233036   2.305   3.543   2.267 -0.2291  0.2965 -0.2673
 7134SOL     OW33037   3.841   1.689  13.184  0.3121 -0.4450  0.2701
 7134SOL    HW133038   3.919   1.744  13.183 -0.7109  0.9765 -1.4376
 7134SOL    HW233039   3.873   1.624  13.122 -0.2089 -2.1042  1.7398
 7135SOL     OW33040   2.463   2.240   8.693 -0.1248 -0.4929 -0.3009
 7135SOL    HW133041   2.552   2.276   8.700  0.2314 -1.1031 -1.8538
 7135SOL    HW233042   2.440   2.208   8.781 -1.2359 -2.0404 -1.1687
 7136SOL     OW33043   2.456   0.963   7.364  0.2380  0.0004  0.3160
 7136SOL    HW133044   2.406   1.015   7.301  2.1843  1.7314  0.2215
 7136SOL    HW233045   2.392   0.913   7.415 -0.3420 -0.3166 -0.7110
 7137SOL     OW33046   0.606   3.172   0.948  0.3955 -0.2403  0.0524
 7137SOL    HW133047   0.686   3.224   0.936 -0.8574  1.3013 -1.5252
 7137SOL    HW233048   0.540   3.236   0.922  0.9787  0.5917  0.6452
 7138SOL     OW33049   4.559   0.875   8.729 -0.1421 -0.5729  0.3900
 7138SOL    HW133050   4.506   0.937   8.780 -0.0947 -0.2768  0.0785
 7138SOL    HW233051   4.636   0.859   8.784  0.2424 -0.0894 -0.0186
 7139SOL     OW33052   0.839   0.070  13.561  0.9039  0.0205  0.3767
 7139SOL    HW133053   0.872   0.156  13.536  0.8862  0.7037  2.7865
 7139SOL    HW233054   0.748   0.091  13.542  0.4047 -1.3079  1.3479
 7140SOL     OW33055   3.164   2.269   4.710  0.7873 -0.0157 -0.3712
 7140SOL    HW133056   3.256   2.250   4.693  0.9256 -1.9752  2.5467
 7140SOL    HW233057   3.144   2.313   4.627 -0.1394  1.0651  0.4135
 7141SOL     OW33058   0.434   0.064   6.152 -0.1585 -0.2010 -0.1908
 7141SOL    HW133059   0.488   4.726   6.144 -1.8989 -1.3960 -0.4503
 7141SOL    HW233060   0.372   0.037   6.083  0.7581 -1.1749 -0.6292
 7142SOL     OW33061   3.693   3.890   6.519 -0.1656 -0.2465  0.8768
 7142SOL    HW133062   3.750   3.908   6.444 -1.2831 -0.9252 -0.1325
 7142SOL    HW233063   3.604   3.877   6.486  1.1369 -1.7206 -2.0145
 7143SOL     OW33064   3.206   0.405   6.242  0.0909 -0.3966 -0.1335
 7143SOL    HW133065   3.190   0.311   6.228 -1.5467 -0.5349  2.7490
 7143SOL    HW233066   3.298   0.410   6.216  0.1342 -0.1697  0.0673
 7144SOL     OW33067   0.365   4.094   6.095  0.7050 -0.6593  0.1971
 7144SOL    HW133068   0.280   4.131   6.120  1.2548  0.9729 -0.3525
 7144SOL    HW233069   0.353   4.003   6.123 -0.9761 -0.0479  1.4791
 7145SOL     OW33070   3.058   2.890   5.117  0.5168  0.0257 -1.0815
 7145SOL    HW133071   3.016   2.912   5.034  1.3410  3.8508 -0.4815
 7145SOL    HW233072   2.993   2.855   5.177  1.3640  2.2867  1.1607
 7146SOL     OW33073   1.910   2.065  12.729 -0.4013  0.0413 -0.3652
 7146SOL    HW133074   1.964   2.001  12.774 -0.1777 -0.1522 -0.9044
 7146SOL    HW233075   1.836   2.007  12.711  0.0404 -0.4273 -0.6433
 7147SOL     OW33076   1.334   2.657   3.505 -0.1233  0.6939  0.1035
 7147SOL    HW133077   1.324   2.744   3.546 -0.6872 -0.1202  1.6969
 7147SOL    HW233078   1.393   2.679   3.433  1.0883 -0.4106  0.7718
 7148SOL     OW33079   3.795   2.959   8.109  0.6903  0.1601 -0.4547
 7148SOL    HW133080   3.793   2.864   8.109 -1.7042  0.1915  3.0614
 7148SOL    HW233081   3.795   2.981   8.203  0.4226 -0.8440 -0.2228
 7149SOL     OW33082   4.604   3.053   5.420 -0.6416 -0.4572  0.3940
 7149SOL    HW133083   4.560   3.053   5.335  1.0075  1.8523 -0.4619
 7149SOL    HW233084   4.697   3.041   5.401 -1.2662  0.3439 -3.1525
 7150SOL     OW33085   2.018   4.015   3.250  0.4457  0.8026 -0.3722
 7150SOL    HW133086   2.014   4.009   3.154  0.5313  0.6482 -0.3656
 7150SOL    HW233087   1.990   4.105   3.266  1.4319  1.0428 -0.0019
 7151SOL     OW33088   0.419   2.829  17.399  1.2085  0.3691  0.0071
 7151SOL    HW133089   0.371   2.774  17.337  1.5298 -0.0896  0.1669
 7151SOL    HW233090   0.387   2.915  17.373 -0.4785  0.8628  3.6444
 7152SOL     OW33091   0.524   3.270   3.245 -0.2170  0.0352  0.6142
 7152SOL    HW133092   0.454   3.328   3.216 -0.1051  0.4008  1.0632
 7152SOL    HW233093   0.593   3.337   3.248 -0.9516  0.7933  0.5744
 7153SOL     OW33094   2.727   0.928   4.427 -0.4797 -0.2130  0.0963
 7153SOL    HW133095   2.750   0.999   4.366 -0.5585 -0.4874 -0.2568
 7153SOL    HW233096   2.770   0.856   4.381  1.8022 -0.2055  2.2205
 7154SOL     OW33097   4.709   4.612  15.597 -0.2885  0.1821 -0.2852
 7154SOL    HW133098   4.663   4.566  15.526  1.0913 -0.1803 -0.9512
 7154SOL    HW233099   4.716   4.538  15.657 -0.2498  0.2878 -0.1597
 7155SOL     OW33100   3.958   1.690  15.347  0.1460 -0.5558  0.3127
 7155SOL    HW133101   3.977   1.614  15.402  1.1488 -0.2603  0.3671
 7155SOL    HW233102   4.036   1.745  15.358 -0.8849  0.8925  0.3723
 7156SOL     OW33103   2.651   0.867   3.658 -0.0129  0.0411 -0.2057
 7156SOL    HW133104   2.619   0.795   3.603 -2.9393  1.3759 -0.2463
 7156SOL    HW233105   2.687   0.923   3.589 -0.2147 -1.3227 -1.4244
 7157SOL     OW33106   1.054   0.865   5.799  0.4950 -0.7565 -0.0488
 7157SOL    HW133107   1.131   0.813   5.779  1.6168  0.4793  1.0593
 7157SOL    HW233108   1.085   0.951   5.770 -0.7533 -0.4576 -0.5033
 7158SOL     OW33109   3.676   4.321   6.053 -0.7731 -0.8142  0.1419
 7158SOL    HW133110   3.661   4.342   5.961  0.4186  0.2175  0.1759
 7158SOL    HW233111   3.770   4.340   6.059 -0.6139 -1.2319 -0.9832
 7159SOL     OW33112   3.988   4.644  13.411  0.3230  0.2836  0.3719
 7159SOL    HW133113   4.033   4.728  13.418  1.7502 -0.4879  0.6745
 7159SOL    HW233114   4.051   4.584  13.453 -0.4579 -1.0325 -0.3323
 7160SOL     OW33115   0.711   2.498   9.650 -0.0492 -1.1151 -0.7442
 7160SOL    HW133116   0.633   2.454   9.617 -0.7198  1.3150 -2.4229
 7160SOL    HW233117   0.693   2.590   9.632 -1.1812 -1.6648 -2.3264
 7161SOL     OW33118   4.497   3.739   7.526 -0.1905 -0.3919  0.3043
 7161SOL    HW133119   4.540   3.675   7.469  0.1589  0.2903 -0.2183
 7161SOL    HW233120   4.465   3.804   7.463  1.2838 -1.1443 -1.2306
 7162SOL     OW33121   1.544   2.443  17.149 -0.3264 -0.4459 -0.1472
 7162SOL    HW133122   1.535   2.503  17.075 -1.5268 -0.2231  0.1745
 7162SOL    HW233123   1.493   2.371  17.113 -2.2953  0.4157  0.9123
 7163SOL     OW33124   3.822   1.842   0.448  0.4548  0.4172 -0.0778
 7163SOL    HW133125   3.791   1.919   0.495  0.3266 -0.1845  0.8341
 7163SOL    HW233126   3.750   1.824   0.387 -0.0365 -1.9097  1.1912
 7164SOL     OW33127   1.672   0.445   3.022 -0.5237  0.1745  0.3403
 7164SOL    HW133128   1.688   0.525   2.971 -2.3076 -0.2942 -0.9324
 7164SOL    HW233129   1.585   0.440   2.983  1.3871 -0.5497 -3.7464
 7165SOL     OW33130   2.033   1.473   3.387 -0.7547 -0.3817  0.5061
 7165SOL    HW133131   2.055   1.403   3.325  0.5146  0.5760 -0.1230
 7165SOL    HW233132   1.938   1.474   3.372 -0.8633  0.3828  1.2440
 7166SOL     OW33133   1.313   4.727   1.749  0.3822 -0.1433  0.1444
 7166SOL    HW133134   1.219   4.736   1.765  0.6261  0.8784  0.9794
 7166SOL    HW233135   1.323   4.634   1.731  0.3040 -0.3096  0.9499
 7167SOL     OW33136   2.669   2.442   4.764 -0.0548 -0.2387 -0.3176
 7167SOL    HW133137   2.719   2.507   4.815 -1.9150  1.2082 -0.3573
 7167SOL    HW233138   2.645   2.376   4.829  2.1368  0.8520  1.6243
 7168SOL     OW33139   0.627   0.798   7.875 -0.3848 -0.3145 -0.7337
 7168SOL    HW133140   0.580   0.876   7.903  1.6220  0.7848 -0.4604
 7168SOL    HW233141   0.715   0.835   7.883 -1.8628  3.1892 -0.6203
 7169SOL     OW33142   3.188   4.094   1.813  0.0915  0.1850 -0.3958
 7169SOL    HW133143   3.143   4.090   1.898  1.6059  1.0776  0.4450
 7169SOL    HW233144   3.137   4.166   1.774  0.2063  1.3721  1.6376
 7170SOL     OW33145   1.308   3.093   6.385  0.4186  0.4944 -0.1573
 7170SOL    HW133146   1.213   3.086   6.392  0.4925  0.7839  1.2509
 7170SOL    HW233147   1.322   3.106   6.291 -0.7396 -0.8766 -0.5035
 7171SOL     OW33148   3.629   2.496  11.954 -0.6218 -0.1322  0.3004
 7171SOL    HW133149   3.585   2.524  11.874  3.3933 -0.4698 -2.0041
 7171SOL    HW233150   3.709   2.549  11.959  1.5008 -3.2904  0.0130
 7172SOL     OW33151   4.602   2.748   7.550 -0.6826 -0.0813  0.1642
 7172SOL    HW133152   4.674   2.732   7.489 -1.7435  3.2767 -1.9741
 7172SOL    HW233153   4.633   2.706   7.630  0.2506 -1.1141 -0.7500
 7173SOL     OW33154   0.640   4.308   7.358  0.2726 -0.4844 -0.0799
 7173SOL    HW133155   0.592   4.256   7.422 -1.6547  1.4487  0.0450
 7173SOL    HW233156   0.592   4.389   7.375 -1.1960 -1.1252 -1.1231
 7174SOL     OW33157   3.824   1.951   6.226 -0.2376  0.3601  0.2181
 7174SOL    HW133158   3.890   2.018   6.206 -0.0863  0.7982  2.1945
 7174SOL    HW233159   3.858   1.868   6.192  0.1596 -0.2486  2.1066
 7175SOL     OW33160   3.831   1.673  15.116  0.1786 -0.3776 -0.6767
 7175SOL    HW133161   3.872   1.591  15.090  2.8862  0.7512  0.0368
 7175SOL    HW233162   3.868   1.689  15.202 -1.0339 -3.3304  0.4075
 7176SOL     OW33163   4.578   1.823  11.469 -0.0899 -0.0453 -0.0682
 7176SOL    HW133164   4.658   1.835  11.520  0.6986 -0.4994 -1.2114
 7176SOL    HW233165   4.613   1.866  11.391 -0.2012 -0.6647 -0.4583
 7177SOL     OW33166   4.336   3.782   4.029  0.4629 -0.4365 -0.3424
 7177SOL    HW133167   4.420   3.814   4.063 -0.7676  3.0322 -0.5932
 7177SOL    HW233168   4.347   3.775   3.934  1.8692  1.9100 -0.3469
 7178SOL     OW33169   1.792   1.822   8.681  0.4403 -0.4113 -0.3220
 7178SOL    HW133170   1.796   1.838   8.776  1.5859  1.7663 -0.7394
 7178SOL    HW233171   1.789   1.727   8.675  0.5724 -0.3390 -1.5389
 7179SOL     OW33172   1.650   1.656   5.088  0.5473 -0.3896  0.0250
 7179SOL    HW133173   1.735   1.653   5.131  0.9885  1.4598 -0.6948
 7179SOL    HW233174   1.636   1.562   5.097 -1.6153  0.0763  1.5571
 7180SOL     OW33175   1.742   2.356   0.578  0.2207  0.1916  0.3883
 7180SOL    HW133176   1.835   2.359   0.558  0.5179 -0.6901  1.5852
 7180SOL    HW233177   1.712   2.299   0.507 -0.8258  1.5923 -0.3003
 7181SOL     OW33178   4.571   4.723   3.965  0.2024  0.3526  0.4155
 7181SOL    HW133179   4.566   0.015   4.055 -2.6732  3.3967 -0.8993
 7181SOL    HW233180   4.528   0.060   3.930  0.7216  0.4686  0.0291
 7182SOL     OW33181   0.202   4.444   8.606 -0.2313 -0.0980 -0.2790
 7182SOL    HW133182   0.197   4.362   8.654  1.7483  1.3404  2.3321
 7182SOL    HW233183   0.186   4.509   8.674  0.0102 -0.4738  0.1289
 7183SOL     OW33184   4.053   3.698  15.553 -0.6986 -0.2447 -0.1321
 7183SOL    HW133185   3.978   3.718  15.498  1.0075  1.6686 -1.7486
 7183SOL    HW233186   4.108   3.770  15.522  1.2436 -0.8660  1.8431
 7184SOL     OW33187   2.364   2.421  10.180  0.0151 -0.3767 -0.2454
 7184SOL    HW133188   2.334   2.331  10.184 -0.5894 -0.1806 -0.2910
 7184SOL    HW233189   2.332   2.469  10.257 -1.0602  1.4097 -1.7944
 7185SOL     OW33190   0.395   2.930   5.442  0.7189  0.2407 -0.0608
 7185SOL    HW133191   0.325   2.984   5.478  0.0506 -0.1071 -0.8542
 7185SOL    HW233192   0.404   2.959   5.351 -1.6627 -0.7351 -0.6137
 7186SOL     OW33193   1.129   3.252   1.881 -0.5294  0.1128 -0.1980
 7186SOL    HW133194   1.103   3.205   1.961  2.3925  1.3617  1.4952
 7186SOL    HW233195   1.184   3.326   1.907 -0.7748  0.9043 -1.9173
 7187SOL     OW33196   1.207   2.443   7.732  0.2526  0.1131  0.4635
 7187SOL    HW133197   1.262   2.463   7.807  0.0571 -1.4803  1.0324
 7187SOL    HW233198   1.271   2.474   7.669 -0.2388  0.2754  0.0444
 7188SOL     OW33199   1.769   2.861   5.853 -0.7517 -0.4943 -0.7189
 7188SOL    HW133200   1.759   2.771   5.825  2.6842 -1.3087  0.6400
 7188SOL    HW233201   1.754   2.910   5.772  1.2204  1.1045 -0.1189
 7189SOL     OW33202   3.325   3.851   6.686 -0.1629 -0.8505  0.2202
 7189SOL    HW133203   3.397   3.848   6.750  1.0792  1.1082 -1.1154
 7189SOL    HW233204   3.306   3.944   6.688  1.4333 -0.4986 -0.7175
 7190SOL     OW33205   0.209   3.976   8.878 -0.0547 -0.2722 -0.2211
 7190SOL    HW133206   0.171   3.915   8.940 -0.3214  1.3378  1.1998
 7190SOL    HW233207   0.264   4.026   8.938 -2.1484  0.5580  1.0053
 7191SOL     OW33208   4.062   2.282  10.031 -0.5212 -0.9508  0.5908
 7191SOL    HW133209   4.043   2.361   9.980  0.9163 -1.2671 -0.4421
 7191SOL    HW233210   4.014   2.211   9.988 -0.0174  0.2866 -1.9990
 7192SOL     OW33211   0.847   3.283   6.726  0.4688  0.2546  0.5081
 7192SOL    HW133212   0.931   3.276   6.771  0.4223 -0.5935  0.4540
 7192SOL    HW233213   0.844   3.376   6.702 -0.2810 -0.5309 -2.5213
 7193SOL     OW33214   1.383   4.163  12.955 -0.1721 -0.1975  0.6945
 7193SOL    HW133215   1.401   4.120  13.038  0.2513 -1.3963 -0.0241
 7193SOL    HW233216   1.411   4.091  12.898 -3.7235 -1.1005  0.1304
 7194SOL     OW33217   2.648   0.826   7.219 -0.1016 -0.3959 -0.4771
 7194SOL    HW133218   2.604   0.882   7.284  2.1433 -0.2147  0.8591
 7194SOL    HW233219   2.605   0.864   7.142 -1.4919 -0.1101  0.4241
 7195SOL     OW33220   3.612   2.815   2.807  0.6456 -0.3715 -0.8709
 7195SOL    HW133221   3.700   2.778   2.810  1.1777  0.9453 -0.1514
 7195SOL    HW233222   3.619   2.901   2.849 -0.6108 -0.2500 -0.9035
 7196SOL     OW33223   1.802   1.459  16.786 -0.4845  0.2864  0.0437
 7196SOL    HW133224   1.802   1.369  16.819 -1.9343 -0.1379 -1.1647
 7196SOL    HW233225   1.803   1.509  16.868  0.2376  0.4269 -0.0529
 7197SOL     OW33226   3.827   3.773  16.691  0.2437 -0.1984  0.3044
 7197SOL    HW133227   3.783   3.858  16.686  0.1927 -0.3717 -2.2654
 7197SOL    HW233228   3.768   3.712  16.647  0.0549  0.3212 -0.1633
 7198SOL     OW33229   0.848   3.114   7.741  0.1309 -0.4542  0.1164
 7198SOL    HW133230   0.851   3.164   7.823  1.1811  1.1305 -0.8942
 7198SOL    HW233231   0.912   3.045   7.757  0.3233 -0.3106 -0.0359
 7199SOL     OW33232   4.590   1.725   3.099 -0.9962 -0.3349 -0.0846
 7199SOL    HW133233   4.613   1.661   3.166 -2.2898 -1.4958 -0.7568
 7199SOL    HW233234   4.640   1.691   3.025 -0.9186 -0.5956  0.0887
 7200SOL     OW33235   0.797   3.671   3.540 -0.2651 -0.0981  0.2943
 7200SOL    HW133236   0.816   3.578   3.556  1.8347  0.6678  2.3027
 7200SOL    HW233237   0.814   3.709   3.626 -0.8760  2.0229 -0.5385
 7201SOL     OW33238   0.365   4.427  11.555 -0.3080  0.5523  0.1655
 7201SOL    HW133239   0.356   4.370  11.479  1.6426 -0.2219  0.5317
 7201SOL    HW233240   0.303   4.494  11.526 -1.8393 -0.8179  0.2704
 7202SOL     OW33241   1.463   1.391  11.906  0.3628 -0.4455  0.4430
 7202SOL    HW133242   1.410   1.423  11.833  2.6909  2.2523 -0.0828
 7202SOL    HW233243   1.439   1.299  11.902  1.9439 -0.8312  0.0515
 7203SOL     OW33244   0.339   1.372   0.756 -0.1213 -0.3518  0.5062
 7203SOL    HW133245   0.382   1.382   0.671 -1.4184 -3.1322 -0.4561
 7203SOL    HW233246   0.403   1.414   0.813 -1.2064  1.0199  0.7265
 7204SOL     OW33247   0.877   3.417  11.915 -0.0944 -0.3628  0.2645
 7204SOL    HW133248   0.924   3.423  11.999  0.8236 -1.0665 -0.1971
 7204SOL    HW233249   0.888   3.502  11.874 -0.1253  0.7083  2.4474
 7205SOL     OW33250   0.995   0.185  16.567 -0.0808 -0.6304  0.1166
 7205SOL    HW133251   1.035   0.213  16.485  1.0638  0.9115  1.1807
 7205SOL    HW233252   1.048   0.108  16.590 -3.2120 -1.9521  3.0081
 7206SOL     OW33253   3.241   2.869  11.335  0.2719 -0.6476  0.4494
 7206SOL    HW133254   3.260   2.962  11.343  2.3640 -1.0744  0.4791
 7206SOL    HW233255   3.145   2.867  11.343  0.2197 -2.1481 -0.5205
 7207SOL     OW33256   2.320   3.286   2.650  0.5798 -0.4037 -0.2870
 7207SOL    HW133257   2.365   3.228   2.711  2.0544 -1.1835 -2.1043
 7207SOL    HW233258   2.328   3.223   2.578 -1.7790 -1.4679  0.3928
 7208SOL     OW33259   2.595   4.566   8.374 -0.0499 -0.2890 -0.5109
 7208SOL    HW133260   2.513   4.584   8.420  0.5503 -2.0491  1.2604
 7208SOL    HW233261   2.569   4.527   8.291 -1.2370  0.6715 -0.5825
 7209SOL     OW33262   2.291   1.615   4.278 -0.0541 -0.2883  0.3487
 7209SOL    HW133263   2.236   1.609   4.356  0.0982  3.0041  0.7082
 7209SOL    HW233264   2.374   1.635   4.321  0.8074 -1.3458 -0.8244
 7210SOL     OW33265   2.162   3.999   7.824 -0.0852  0.3803  0.5385
 7210SOL    HW133266   2.242   3.966   7.783  0.8490  0.2932  2.4417
 7210SOL    HW233267   2.093   3.934   7.818  2.8800 -2.7930  0.7614
 7211SOL     OW33268   3.006   0.957   5.312  0.0725 -0.2831 -0.1825
 7211SOL    HW133269   2.981   0.879   5.261  2.4784 -0.6526 -0.8198
 7211SOL    HW233270   2.951   1.023   5.270 -0.2648  1.4728  3.0931
 7212SOL     OW33271   2.518   3.673  17.077  0.4987  0.3612  0.6472
 7212SOL    HW133272   2.494   3.758  17.040  0.7003  0.4916  0.8091
 7212SOL    HW233273   2.452   3.607  17.055  0.4566  0.8974 -0.8033
 7213SOL     OW33274   2.623   2.945   8.952  0.9768 -0.2327 -0.3141
 7213SOL    HW133275   2.657   3.033   8.964  0.3783  0.0086 -0.3981
 7213SOL    HW233276   2.610   2.941   8.857  1.9500 -2.4106 -0.3749
 7214SOL     OW33277   4.690   4.476  13.064  0.3417  0.2132  0.1908
 7214SOL    HW133278   4.640   4.548  13.102 -1.5728 -2.9113  3.5562
 7214SOL    HW233279   0.003   4.450  13.139  1.7470  3.2204  0.2060
 7215SOL     OW33280   3.891   4.261   8.233  0.1944 -0.1544 -0.6678
 7215SOL    HW133281   3.980   4.293   8.243  0.3828  0.0573 -2.9592
 7215SOL    HW233282   3.851   4.326   8.176 -1.1237 -0.6522 -0.3394
 7216SOL     OW33283   3.268   3.885   5.252 -0.5093  0.2091  0.0884
 7216SOL    HW133284   3.249   3.808   5.306  1.3340 -1.9593 -2.3607
 7216SOL    HW233285   3.324   3.930   5.315 -0.0450 -0.5905  0.2498
 7217SOL     OW33286   1.854   2.714   1.884  0.0912 -0.0998 -0.0233
 7217SOL    HW133287   1.833   2.716   1.977  2.6166  0.0314  0.5360
 7217SOL    HW233288   1.806   2.792   1.853  0.1332 -0.3382 -0.6869
 7218SOL     OW33289   1.069   4.727   4.087  0.3257  0.7026  0.2271
 7218SOL    HW133290   1.070   4.663   4.157  0.0998  2.6711  2.0239
 7218SOL    HW233291   1.119   4.685   4.016 -1.8478 -1.9071  0.2846
 7219SOL     OW33292   2.674   0.227   8.425  0.1748  0.0430 -0.0769
 7219SOL    HW133293   2.749   0.277   8.456  0.8469 -0.1783 -1.3593
 7219SOL    HW233294   2.631   0.207   8.509  1.1152 -0.1711  0.3489
 7220SOL     OW33295   3.687   1.160   8.897  0.1007  0.0157 -0.3885
 7220SOL    HW133296   3.604   1.202   8.877 -0.0435 -0.5189 -0.8932
 7220SOL    HW233297   3.744   1.237   8.891 -1.9143  1.6372  1.2346
 7221SOL     OW33298   0.871   3.678   8.843  0.1301 -0.0706 -0.0833
 7221SOL    HW133299   0.822   3.756   8.817  0.3637  0.2976  0.5938
 7221SOL    HW233300   0.959   3.703   8.817 -0.9809  0.1684 -3.6772
 7222SOL     OW33301   0.630   3.947   5.287  0.8154 -0.3366 -0.2013
 7222SOL    HW133302   0.686   3.877   5.320  1.7814  2.3897  3.8923
 7222SOL    HW233303   0.617   4.010   5.357  2.2593 -1.4543  1.0750
 7223SOL     OW33304   3.916   3.725   9.061  0.3251 -0.3046  0.0234
 7223SOL    HW133305   4.008   3.715   9.035  0.5293 -0.0681  0.6522
 7223SOL    HW233306   3.871   3.729   8.976 -1.1319 -1.9757  0.7215
 7224SOL     OW33307   3.923   3.965  14.947  0.3466 -0.2047  0.2916
 7224SOL    HW133308   3.991   3.976  15.013 -1.7586  2.2119  2.0213
 7224SOL    HW233309   3.844   3.997  14.990  0.4875  0.7927 -0.1800
 7225SOL     OW33310   0.254   3.113   5.587 -0.0040 -0.2935  0.0600
 7225SOL    HW133311   0.166   3.091   5.617 -0.4351  0.0405 -0.9968
 7225SOL    HW233312   0.236   3.202   5.558 -4.2319 -0.7243  1.3028
 7226SOL     OW33313   2.260   3.576   5.679 -0.3434 -0.2195  0.3045
 7226SOL    HW133314   2.185   3.554   5.623 -1.5765 -0.8461  2.2073
 7226SOL    HW233315   2.225   3.660   5.709 -3.0389 -0.3754 -2.3104
 7227SOL     OW33316   3.176   0.420   4.228 -0.1455 -0.0887  0.6684
 7227SOL    HW133317   3.109   0.361   4.261 -0.1938 -0.4847 -0.1478
 7227SOL    HW233318   3.145   0.431   4.138  2.5680  1.5063 -0.0786
 7228SOL     OW33319   2.900   2.403   2.993 -0.5449 -0.6189  0.2532
 7228SOL    HW133320   2.955   2.411   3.071  1.5915  2.8246 -1.6048
 7228SOL    HW233321   2.891   2.308   2.990 -0.3781 -0.6403  0.4725
 7229SOL     OW33322   0.582   0.875  13.850  0.0482 -0.2100 -0.1798
 7229SOL    HW133323   0.552   0.956  13.810  1.4250 -0.5396 -1.9033
 7229SOL    HW233324   0.676   0.880  13.867  0.0575 -3.6062  0.9088
 7230SOL     OW33325   0.665   0.928   4.763  0.4997  0.2712 -1.0488
 7230SOL    HW133326   0.619   1.010   4.778  1.7539  1.0920 -1.6540
 7230SOL    HW233327   0.635   0.900   4.677 -0.0104 -1.2218 -0.3850
 7231SOL     OW33328   2.414   2.660   8.506  0.6689 -0.5189  0.2656
 7231SOL    HW133329   2.329   2.682   8.543  1.7055  0.1998  2.2036
 7231SOL    HW233330   2.480   2.691   8.568 -0.5671  3.1412 -0.2210
 7232SOL     OW33331   0.235   4.396  16.775 -0.3746 -0.1203 -0.9756
 7232SOL    HW133332   0.169   4.346  16.824  1.8648 -0.6291  1.5189
 7232SOL    HW233333   0.255   4.340  16.700  0.9274 -1.5107  0.4124
 7233SOL     OW33334   3.448   1.023   5.027 -0.7287  0.7501 -0.5923
 7233SOL    HW133335   3.378   0.990   5.084  0.4841 -0.4371  0.2037
 7233SOL    HW233336   3.498   0.944   5.010 -1.2486  0.8190 -2.4378
 7234SOL     OW33337   2.673   0.219   7.728 -0.1179  0.2475  0.0096
 7234SOL    HW133338   2.657   0.276   7.803  0.0981  0.0601  0.1969
 7234SOL    HW233339   2.595   0.255   7.685  0.1972 -0.1079 -0.8522
 7235SOL     OW33340   4.167   1.636   9.251 -0.3628  0.1279 -0.3986
 7235SOL    HW133341   4.110   1.648   9.327 -0.5642  0.5157 -0.6137
 7235SOL    HW233342   4.252   1.619   9.291  0.4028  1.1338 -1.6352
 7236SOL     OW33343   1.032   4.456   8.401  0.2165 -0.2429 -0.3822
 7236SOL    HW133344   1.095   4.384   8.403 -1.5423 -1.7482  0.8572
 7236SOL    HW233345   0.965   4.422   8.460  3.3768  1.0796  3.9168
 7237SOL     OW33346   4.226   4.345   7.941  0.2493  0.1200  0.6001
 7237SOL    HW133347   4.147   4.341   7.887 -0.0813 -0.1795  1.1053
 7237SOL    HW233348   4.293   4.315   7.879  0.1247 -0.0829  0.5637
 7238SOL     OW33349   4.059   1.787   5.274 -0.2456  0.1026 -0.9445
 7238SOL    HW133350   3.995   1.836   5.325  0.0714 -0.1798 -0.2703
 7238SOL    HW233351   4.004   1.721   5.231 -1.3867  1.5247 -1.6412
 7239SOL     OW33352   0.104   0.525  10.814 -0.7106 -0.3116 -0.0166
 7239SOL    HW133353   0.101   0.602  10.870 -1.0788 -1.2486  1.2701
 7239SOL    HW233354   0.128   0.563  10.729  0.8638 -1.4045 -0.0676
 7240SOL     OW33355   4.364   0.742   8.173  0.0665 -0.4894 -0.1827
 7240SOL    HW133356   4.285   0.752   8.120  0.9993  0.5303 -1.3950
 7240SOL    HW233357   4.341   0.790   8.251  0.5330 -0.4002 -0.0981
 7241SOL     OW33358   1.023   4.564   5.343  0.1614 -0.6608  0.0606
 7241SOL    HW133359   0.984   4.605   5.420 -3.1486 -1.6871 -1.0694
 7241SOL    HW233360   0.946   4.519   5.308  0.1383 -0.1388 -0.5546
 7242SOL     OW33361   4.695   1.167  17.623 -0.4270 -0.2282 -0.7526
 7242SOL    HW133362   4.694   1.095  17.685  1.3595  1.4188  1.1914
 7242SOL    HW233363   4.633   1.138  17.556  0.8713 -2.4910 -0.9891
 7243SOL     OW33364   2.003   4.028   8.376  0.3183 -0.4086  0.5218
 7243SOL    HW133365   2.033   3.941   8.350  0.5700  0.9232 -3.5398
 7243SOL    HW233366   1.926   4.011   8.431 -0.7115 -0.8066 -1.0648
 7244SOL     OW33367   4.041   0.832   1.850  0.5412 -0.4406  0.0141
 7244SOL    HW133368   4.069   0.833   1.759 -2.7418  0.5937 -0.9786
 7244SOL    HW233369   3.986   0.910   1.841 -0.9164 -1.5169 -0.5032
 7245SOL     OW33370   4.420   1.207   8.565  0.5994  0.0687 -0.1508
 7245SOL    HW133371   4.430   1.299   8.585  0.3334  0.7029 -2.8528
 7245SOL    HW233372   4.475   1.199   8.487  1.3773  2.9173  0.1305
 7246SOL     OW33373   2.468   0.351   2.510  0.3166 -0.0767  0.4596
 7246SOL    HW133374   2.506   0.273   2.550 -0.8092  0.7376  3.1053
 7246SOL    HW233375   2.475   0.333   2.416  1.3403  0.3688  0.4496
 7247SOL     OW33376   1.221   2.519   4.847 -0.8782  0.0945 -0.3823
 7247SOL    HW133377   1.208   2.575   4.923 -0.2012 -1.3463  0.7874
 7247SOL    HW233378   1.265   2.582   4.791  1.2373  0.3311  1.5487
 7248SOL     OW33379   1.750   1.980   2.544 -0.2175 -0.7576 -0.0835
 7248SOL    HW133380   1.673   1.953   2.594 -0.7317 -1.6592 -1.3701
 7248SOL    HW233381   1.716   2.059   2.504 -2.1814 -2.4813 -1.7452
 7249SOL     OW33382   4.412   4.447   3.223 -0.3548  0.0548  0.1223
 7249SOL    HW133383   4.378   4.536   3.233  1.0776  0.5372  0.8183
 7249SOL    HW233384   4.432   4.422   3.314  1.2918  1.3274  0.1167
 7250SOL     OW33385   2.861   3.379   5.949  0.4672  0.2017 -0.1729
 7250SOL    HW133386   2.810   3.454   5.982 -0.5214  0.1397 -1.5433
 7250SOL    HW233387   2.845   3.316   6.020  0.6410 -0.2156 -0.5028
 7251SOL     OW33388   2.471   4.420  10.135 -0.3114  0.1387 -0.3239
 7251SOL    HW133389   2.521   4.353  10.089 -2.9666 -3.1270  1.5804
 7251SOL    HW233390   2.439   4.476  10.064 -1.0136 -2.9423 -2.4414
 7252SOL     OW33391   3.395   0.627  10.589  0.2062 -0.1761 -0.4765
 7252SOL    HW133392   3.452   0.688  10.542 -0.7802  1.7532  0.8150
 7252SOL    HW233393   3.411   0.655  10.679 -2.2166 -0.0200 -0.1017
 7253SOL     OW33394   0.864   1.866   6.384  0.1482 -0.1414 -0.1812
 7253SOL    HW133395   0.821   1.889   6.467 -0.4480  0.2386 -0.6034
 7253SOL    HW233396   0.948   1.913   6.381 -0.4612  0.8429 -1.6701
 7254SOL     OW33397   1.191   4.509  14.337 -0.4351  0.2571  0.5035
 7254SOL    HW133398   1.214   4.445  14.404 -0.2480 -1.6072 -1.3553
 7254SOL    HW233399   1.213   4.465  14.255  1.0013 -0.0693  1.0700
 7255SOL     OW33400   4.685   3.333  10.102  0.3393 -0.0288 -0.2605
 7255SOL    HW133401   0.006   3.281  10.049 -0.0663  1.1040 -1.8565
 7255SOL    HW233402   4.728   3.313  10.185 -1.7937 -0.7825  0.6647
 7256SOL     OW33403   4.584   0.885   8.057  0.6185 -0.3620  0.0281
 7256SOL    HW133404   4.538   0.828   8.117 -2.4136  0.7260 -1.2555
 7256SOL    HW233405   4.626   0.952   8.111  3.0840 -1.3224 -0.6735
 7257SOL     OW33406   3.023   0.716   9.101 -0.3501 -0.4407  0.0366
 7257SOL    HW133407   3.022   0.649   9.034 -1.9740  1.6446 -2.0299
 7257SOL    HW233408   2.940   0.697   9.146 -0.4296 -0.5700 -0.1662
 7258SOL     OW33409   2.420   0.170   1.943  0.1798 -0.0528 -0.1324
 7258SOL    HW133410   2.508   0.171   1.980  1.3827  0.6955 -3.0340
 7258SOL    HW233411   2.438   0.219   1.863  2.9908 -0.9231 -0.0322
 7259SOL     OW33412   2.388   0.956   1.536  0.8361 -0.0336  0.1865
 7259SOL    HW133413   2.341   1.033   1.567  1.5812  0.0672  1.0874
 7259SOL    HW233414   2.472   0.982   1.498  1.3576  0.4394  1.6612
 7260SOL     OW33415   4.063   3.657   7.936 -1.3165 -0.1891 -0.8266
 7260SOL    HW133416   4.053   3.627   8.027 -1.5423  1.0643 -0.4431
 7260SOL    HW233417   4.110   3.733   7.968 -0.1504 -0.7775 -1.1351
 7261SOL     OW33418   1.325   0.633   0.211  0.1789  0.3731 -0.5437
 7261SOL    HW133419   1.381   0.678   0.274 -0.2929  0.6158 -0.2983
 7261SOL    HW233420   1.372   0.650   0.129 -1.2263  1.8515 -1.0431
 7262SOL     OW33421   1.718   1.204   8.920 -0.4233  0.0141 -0.3622
 7262SOL    HW133422   1.653   1.133   8.927  0.3772 -0.6183  0.6346
 7262SOL    HW233423   1.704   1.253   9.001  0.3855  0.7931 -0.6976
 7263SOL     OW33424   0.421   0.578   8.359 -0.7586 -0.2418 -0.2116
 7263SOL    HW133425   0.379   0.575   8.273 -2.8943  3.9243  0.6878
 7263SOL    HW233426   0.398   0.487   8.377 -3.5283  0.6072  0.5602
 7264SOL     OW33427   1.822   4.295   4.694  0.2462  0.6852 -0.0530
 7264SOL    HW133428   1.731   4.323   4.691 -0.1239 -0.2499  2.1971
 7264SOL    HW233429   1.811   4.211   4.739  0.0846  0.3257 -0.7733
 7265SOL     OW33430   2.097   3.492   3.497  0.3112 -0.1703 -0.5490
 7265SOL    HW133431   2.102   3.587   3.483  0.1762 -0.0087  0.4301
 7265SOL    HW233432   2.120   3.459   3.411 -0.9892 -1.0837 -0.5569
 7266SOL     OW33433   4.347   0.630  10.353  0.3223  0.6088 -0.0141
 7266SOL    HW133434   4.427   0.631  10.405  0.8020  0.0423 -0.7355
 7266SOL    HW233435   4.281   0.609  10.419  0.2319 -0.5526 -0.4760
 7267SOL     OW33436   1.859   2.683   0.024  0.0635  0.1394  0.5515
 7267SOL    HW133437   1.790   2.660  17.723 -1.3869 -0.0066  2.2345
 7267SOL    HW233438   1.933   2.636  17.745 -2.3037 -2.2125 -1.0296
 7268SOL     OW33439   0.273   4.646   7.915  0.8058 -0.1496 -0.7824
 7268SOL    HW133440   0.209   4.714   7.937 -1.0403 -2.3738  0.7806
 7268SOL    HW233441   0.226   4.567   7.943  1.0503  0.0995  0.3349
 7269SOL     OW33442   1.470   3.146   7.979  0.4178  0.0292  0.4144
 7269SOL    HW133443   1.456   3.193   7.897  2.5892 -0.0163  0.0183
 7269SOL    HW233444   1.381   3.116   8.001  0.5545  0.5918  1.7257
 7270SOL     OW33445   0.190   1.327   5.262  0.2933  0.0161  0.0047
 7270SOL    HW133446   0.259   1.386   5.231 -1.4462  0.4690 -3.0030
 7270SOL    HW233447   0.171   1.362   5.349 -0.9308  1.1001 -0.7096
 7271SOL     OW33448   0.870   0.536   1.750  0.3918  0.3423 -0.3136
 7271SOL    HW133449   0.864   0.459   1.806  0.4239  0.3723 -0.2688
 7271SOL    HW233450   0.930   0.512   1.680  2.6125  2.0692  1.0293
 7272SOL     OW33451   3.897   1.687   4.965 -0.0221 -0.4961 -0.7447
 7272SOL    HW133452   3.833   1.619   4.943  0.6435 -2.2673  2.8369
 7272SOL    HW233453   3.972   1.627   4.963  0.0471 -0.4495  0.4932
 7273SOL     OW33454   2.007   0.940   2.471 -0.0350 -0.9784  0.1213
 7273SOL    HW133455   2.069   0.987   2.415  1.0678 -1.8512  0.5884
 7273SOL    HW233456   2.051   0.855   2.463  0.4746 -0.4091 -3.2504
 7274SOL     OW33457   4.533   2.555   6.235  0.2359  1.0723 -0.0486
 7274SOL    HW133458   4.563   2.554   6.326 -2.6868  0.8230  0.9061
 7274SOL    HW233459   4.613   2.550   6.182  0.4546 -2.9723  0.6898
 7275SOL     OW33460   3.074   2.288  13.501 -0.1352 -0.5091  0.4382
 7275SOL    HW133461   3.084   2.381  13.523 -0.6515 -0.4275  0.3420
 7275SOL    HW233462   2.987   2.265  13.534 -0.8865  1.0404 -0.4352
 7276SOL     OW33463   1.987   2.730   1.506 -0.1265 -0.1416 -0.5780
 7276SOL    HW133464   2.030   2.726   1.420 -0.5654 -0.5562 -0.7785
 7276SOL    HW233465   1.916   2.667   1.499 -0.8792  0.5517  0.8966
 7277SOL     OW33466   0.347   2.931  10.086 -0.0057 -0.3546 -0.1599
 7277SOL    HW133467   0.402   2.992  10.134 -0.3781  0.2517 -0.5028
 7277SOL    HW233468   0.378   2.941   9.996 -2.5105 -1.2291 -1.1243
 7278SOL     OW33469   2.062   2.285   1.476 -0.2101 -0.0261  0.2105
 7278SOL    HW133470   2.137   2.341   1.455 -1.2811  1.9466  1.5971
 7278SOL    HW233471   2.101   2.198   1.465  0.5630  0.4550 -0.8719
 7279SOL     OW33472   1.539   2.797   8.419 -0.1398 -0.3207  0.3820
 7279SOL    HW133473   1.580   2.812   8.333 -0.3551 -1.8540  0.0188
 7279SOL    HW233474   1.462   2.745   8.394 -0.0326  0.3449 -1.3684
 7280SOL     OW33475   1.163   4.066   3.987  0.2451 -0.0563  0.0654
 7280SOL    HW133476   1.236   4.052   3.926  1.4288  0.6215  1.3231
 7280SOL    HW233477   1.095   4.114   3.940 -0.3866 -0.1303  0.9135
 7281SOL     OW33478   1.579   1.568   7.671  0.5461  0.0820 -0.0488
 7281SOL    HW133479   1.648   1.614   7.719  1.9317 -0.9865 -1.0301
 7281SOL    HW233480   1.537   1.653   7.659 -1.4065 -0.7898  0.5492
 7282SOL     OW33481   2.838   4.052  16.496 -0.0037 -0.2852  0.2923
 7282SOL    HW133482   2.859   4.011  16.580  0.7743 -0.0813  0.1947
 7282SOL    HW233483   2.743   4.044  16.486 -0.0103 -1.1307  1.0314
 7283SOL     OW33484   0.486   3.602   9.055 -0.0749 -0.0527  0.7158
 7283SOL    HW133485   0.541   3.536   9.012 -0.4081 -0.3926  0.8216
 7283SOL    HW233486   0.549   3.630   9.122 -0.0396  0.7137  0.3723
 7284SOL     OW33487   4.534   4.273  17.663  0.3570 -0.3537 -0.1577
 7284SOL    HW133488   4.564   4.346  17.718 -1.7296  1.7173 -1.7574
 7284SOL    HW233489   4.617   4.227  17.650  1.1592  0.9362  0.4331
 7285SOL     OW33490   1.215   1.634   7.208  0.2703 -0.2101 -0.4292
 7285SOL    HW133491   1.199   1.686   7.129 -0.2524 -1.3785 -1.0792
 7285SOL    HW233492   1.240   1.710   7.261 -0.6997 -1.3450  1.6518
 7286SOL     OW33493   3.405   4.403   2.400 -0.0629  0.0415  0.3442
 7286SOL    HW133494   3.331   4.380   2.344 -1.9124  0.5918  2.5542
 7286SOL    HW233495   3.371   4.486   2.433  1.7470  1.8907 -2.4456
 7287SOL     OW33496   1.003   2.355   4.164 -0.0045  0.1995 -0.4532
 7287SOL    HW133497   1.020   2.283   4.225 -0.0454  0.5487 -0.0363
 7287SOL    HW233498   0.966   2.425   4.218  1.9827 -0.1645  1.3698
 7288SOL     OW33499   0.395   2.084   6.723 -0.7360  0.0892  0.3939
 7288SOL    HW133500   0.408   2.010   6.665 -1.9703 -0.7731  1.2142
 7288SOL    HW233501   0.470   2.140   6.703  0.1354 -1.4874 -0.6799
 7289SOL     OW33502   0.541   1.428   9.060 -0.8436 -0.6734 -0.5487
 7289SOL    HW133503   0.537   1.513   9.105  1.6701 -0.9996  0.2923
 7289SOL    HW233504   0.628   1.397   9.087 -0.6555  0.8469  0.6360
 7290SOL     OW33505   2.822   2.055  10.071  0.1940  0.6555  0.0962
 7290SOL    HW133506   2.859   2.080  10.155 -0.4314 -1.5579  1.0359
 7290SOL    HW233507   2.742   2.009  10.097  0.0301  1.2264  0.5869
 7291SOL     OW33508   0.763   1.776   3.170 -0.3270  0.4069 -0.1569
 7291SOL    HW133509   0.819   1.852   3.187  1.8635 -1.5601  1.4336
 7291SOL    HW233510   0.675   1.805   3.191 -0.6583 -1.6042  1.1674
 7292SOL     OW33511   3.002   1.461   2.565 -0.0438  0.1063 -0.8095
 7292SOL    HW133512   3.076   1.448   2.624  0.4874  0.7813 -1.3256
 7292SOL    HW233513   2.968   1.374   2.547  2.2807 -0.6723 -1.4093
 7293SOL     OW33514   4.084   1.060  13.421  0.4622  0.1994 -0.6724
 7293SOL    HW133515   4.109   1.107  13.342 -1.8981  1.0026 -0.9403
 7293SOL    HW233516   3.999   1.027  13.394  0.6574 -1.1766  0.3763
 7294SOL     OW33517   3.411   3.748   4.359  0.0499  0.7449  0.0166
 7294SOL    HW133518   3.501   3.716   4.354 -0.7964 -1.2950 -1.8351
 7294SOL    HW233519   3.402   3.795   4.276  2.7122 -2.1900 -1.9406
 7295SOL     OW33520   0.931   3.133   7.153  0.1353 -0.4527 -0.0557
 7295SOL    HW133521   0.910   3.053   7.200  0.3891 -0.5921 -0.1825
 7295SOL    HW233522   0.973   3.097   7.075 -0.8933 -0.2428 -0.7108
 7296SOL     OW33523   2.519   0.409   3.628 -0.3447  0.6428  0.3198
 7296SOL    HW133524   2.614   0.406   3.639 -0.1301 -1.1222 -1.9359
 7296SOL    HW233525   2.509   0.392   3.534  1.5379 -2.5286  0.6676
 7297SOL     OW33526   3.581   0.743  12.909 -0.0547  0.3611 -0.4647
 7297SOL    HW133527   3.668   0.739  12.950 -1.0184  1.8216  1.7457
 7297SOL    HW233528   3.570   0.653  12.878  2.4162  0.0529 -0.4779
 7298SOL     OW33529   1.200   1.004  16.240  0.3453 -0.2400  0.5715
 7298SOL    HW133530   1.189   1.012  16.335  2.5951  3.4256  0.5370
 7298SOL    HW233531   1.202   1.097  16.217 -1.3045 -0.7273 -1.4702
 7299SOL     OW33532   2.614   1.464   2.036 -0.3862  0.1855  0.3020
 7299SOL    HW133533   2.594   1.496   1.948 -1.3589  0.2154  0.5402
 7299SOL    HW233534   2.535   1.413   2.055  0.1185 -0.2458  1.2261
 7300SOL     OW33535   2.293   0.475   8.296 -0.0277  0.2973 -0.2099
 7300SOL    HW133536   2.380   0.500   8.327  0.4283  0.8710 -1.9242
 7300SOL    HW233537   2.291   0.532   8.219  0.2450 -0.8189 -1.0306
 7301SOL     OW33538   1.490   1.938   6.242 -1.2945  0.1948 -0.5027
 7301SOL    HW133539   1.520   2.017   6.287 -1.0167 -0.4722  0.4738
 7301SOL    HW233540   1.551   1.947   6.169  1.1758 -0.6919  1.4538
 7302SOL     OW33541   1.718   1.140  14.115 -0.1841 -0.1545 -0.1537
 7302SOL    HW133542   1.634   1.119  14.075 -0.6074 -0.0380  0.6940
 7302SOL    HW233543   1.779   1.072  14.087  0.0335  0.9395 -2.4014
 7303SOL     OW33544   3.160   0.102   9.778  0.2953  0.2359 -0.1516
 7303SOL    HW133545   3.143   0.050   9.700 -2.8110  1.0009  0.0054
 7303SOL    HW233546   3.075   0.093   9.822  0.0782  1.3591 -0.3195
 7304SOL     OW33547   2.000   4.407  17.279 -0.4171 -0.5502 -0.0656
 7304SOL    HW133548   2.068   4.358  17.325 -1.0878 -1.9599 -0.5857
 7304SOL    HW233549   1.929   4.409  17.343  1.0771  0.7975  1.5634
 7305SOL     OW33550   1.452   3.387   0.510  0.0737 -0.5132  0.2437
 7305SOL    HW133551   1.471   3.369   0.602 -0.9086 -1.7922  0.1944
 7305SOL    HW233552   1.471   3.481   0.510 -0.8575 -0.3242 -0.4775
 7306SOL     OW33553   0.095   1.918   2.573 -0.3788  0.1037 -0.1997
 7306SOL    HW133554   0.063   1.916   2.483 -0.8928 -1.7394  0.0293
 7306SOL    HW233555   0.190   1.920   2.557 -0.6298  2.6741 -1.2818
 7307SOL     OW33556   2.214   3.189  12.117  0.3304  0.2524  0.0002
 7307SOL    HW133557   2.286   3.174  12.056 -0.5405 -0.5169 -0.8308
 7307SOL    HW233558   2.238   3.281  12.132  2.1742 -0.4472  1.3694
 7308SOL     OW33559   3.238   1.421   6.884  0.1407 -0.2864 -0.3636
 7308SOL    HW133560   3.153   1.454   6.914  0.7441  2.0439 -1.2757
 7308SOL    HW233561   3.307   1.460   6.938  0.5140  1.4676 -2.1287
 7309SOL     OW33562   3.441   0.019   4.460 -0.0733  0.0136 -0.3657
 7309SOL    HW133563   3.358   0.033   4.414 -0.7694  0.8039  1.1459
 7309SOL    HW233564   3.502   0.061   4.399  0.1651 -0.4238 -0.4281
 7310SOL     OW33565   1.363   4.197   2.057 -0.6096  0.5495  0.3573
 7310SOL    HW133566   1.325   4.109   2.058  1.0022 -0.1762 -3.6530
 7310SOL    HW233567   1.435   4.176   2.116  1.3547 -0.7204 -2.4888
 7311SOL     OW33568   1.488   4.248   4.875 -0.5728 -0.0015 -0.1846
 7311SOL    HW133569   1.408   4.214   4.834 -0.8909  1.4097 -0.7377
 7311SOL    HW233570   1.475   4.341   4.857  1.0083  0.0670 -0.9939
 7312SOL     OW33571   1.126   3.471   4.076  0.0795 -0.0321 -0.3012
 7312SOL    HW133572   1.204   3.458   4.022 -0.9375 -1.2316 -1.4810
 7312SOL    HW233573   1.115   3.387   4.120  2.5993 -0.5632 -0.6598
 7313SOL     OW33574   1.691   4.702   8.823  0.2021  0.1429  0.8308
 7313SOL    HW133575   1.601   4.700   8.791  0.3751 -0.5739  0.3973
 7313SOL    HW233576   1.744   4.680   8.747 -1.5608  0.6111 -0.5201
 7314SOL     OW33577   1.220   0.488   2.304  0.3578 -0.1618 -0.0841
 7314SOL    HW133578   1.225   0.583   2.292 -0.3799  0.1113  1.7900
 7314SOL    HW233579   1.143   0.475   2.248  0.6557 -1.1647 -0.2484
 7315SOL     OW33580   2.986   0.707   6.653  0.3563  0.5101  0.2751
 7315SOL    HW133581   2.916   0.642   6.652 -0.8712  1.8667 -0.6862
 7315SOL    HW233582   2.997   0.720   6.559  1.6463 -0.3877  0.2868
 7316SOL     OW33583   2.689   3.632   6.755 -0.1112  0.5887  0.1212
 7316SOL    HW133584   2.726   3.689   6.822  0.2543  0.8533 -0.2977
 7316SOL    HW233585   2.718   3.548   6.791 -2.0710 -0.3344 -0.4901
 7317SOL     OW33586   3.198   1.190   5.317  0.1208 -0.0910 -0.3312
 7317SOL    HW133587   3.290   1.185   5.343  0.2794 -4.4947 -1.6429
 7317SOL    HW233588   3.185   1.114   5.260  0.2021  0.7861 -1.5332
 7318SOL     OW33589   1.287   1.159  12.071 -0.1204  0.1712  0.0826
 7318SOL    HW133590   1.226   1.115  12.012 -2.4949 -0.8553  3.3216
 7318SOL    HW233591   1.365   1.144  12.018 -0.5369  1.7228 -0.9621
 7319SOL     OW33592   0.330   3.506  10.593 -0.3068  0.8443 -0.0480
 7319SOL    HW133593   0.375   3.489  10.510  1.1989 -2.2177  1.3662
 7319SOL    HW233594   0.374   3.583  10.629 -0.4236  1.4950 -1.3054
 7320SOL     OW33595   2.805   1.414   4.380  0.2088 -0.4460  0.2026
 7320SOL    HW133596   2.889   1.452   4.353 -0.7123  0.0110 -2.0349
 7320SOL    HW233597   2.821   1.426   4.474  1.9610 -2.3798  0.1550
 7321SOL     OW33598   2.601   3.861   5.827  0.4088  0.2334  0.0579
 7321SOL    HW133599   2.519   3.900   5.858  1.0369  3.1415 -1.9926
 7321SOL    HW233600   2.649   3.939   5.800 -1.2049  1.2239  0.0621
 7322SOL     OW33601   2.630   3.180   7.116  0.4583 -0.0757 -0.4186
 7322SOL    HW133602   2.551   3.222   7.149  0.8116  0.7905 -0.6904
 7322SOL    HW233603   2.611   3.087   7.131 -2.1906  0.3574 -1.0876
 7323SOL     OW33604   2.511   1.713   2.212  0.2034 -0.2943  0.0773
 7323SOL    HW133605   2.593   1.667   2.195  0.3782  0.3661 -0.9034
 7323SOL    HW233606   2.512   1.714   2.308 -2.2380  0.1286  0.0777
 7324SOL     OW33607   1.319   4.387   3.131  0.4346 -0.3964 -0.2445
 7324SOL    HW133608   1.304   4.481   3.121  0.0463 -0.3957  0.3793
 7324SOL    HW233609   1.262   4.351   3.063  0.9561  0.9744 -1.4171
 7325SOL     OW33610   1.689   0.905   6.026 -0.0438  0.6151 -0.6104
 7325SOL    HW133611   1.639   0.828   6.053 -0.0418  1.7391  2.7029
 7325SOL    HW233612   1.749   0.911   6.100  0.3492 -0.4491 -0.8403
 7326SOL     OW33613   2.922   1.300   8.465 -0.0727  0.0945  0.4727
 7326SOL    HW133614   2.992   1.258   8.414 -0.5156  0.0265 -0.0762
 7326SOL    HW233615   2.852   1.309   8.401  2.3953  3.2268 -1.7925
 7327SOL     OW33616   0.227   0.958   1.135 -1.0629 -0.0812 -0.3526
 7327SOL    HW133617   0.298   1.021   1.122 -2.4992  1.0953 -2.4065
 7327SOL    HW233618   0.158   1.011   1.096 -1.8556 -0.3788  0.6505
 7328SOL     OW33619   1.742   4.293  17.412 -0.2873 -0.2507 -0.5026
 7328SOL    HW133620   1.656   4.327  17.387 -0.6193 -0.8607 -0.1851
 7328SOL    HW233621   1.763   4.248  17.330  1.4084  0.6879 -0.5819
 7329SOL     OW33622   2.861   1.536   9.174 -0.0730 -0.3600 -0.1259
 7329SOL    HW133623   2.776   1.511   9.138  0.0320 -0.7532 -0.0989
 7329SOL    HW233624   2.899   1.581   9.099  1.1227 -1.6213 -0.2837
 7330SOL     OW33625   2.478   0.623   8.038 -0.4694  0.4584  0.5751
 7330SOL    HW133626   2.525   0.604   7.957 -2.5339 -1.0039 -0.2857
 7330SOL    HW233627   2.548   0.623   8.104 -0.1395  2.8398  0.2231
 7331SOL     OW33628   2.570   1.147   5.367 -0.3219 -0.0698  0.5311
 7331SOL    HW133629   2.637   1.078   5.365 -0.5986 -0.2772 -2.3688
 7331SOL    HW233630   2.517   1.121   5.292 -1.3603 -0.6536  1.4674
 7332SOL     OW33631   2.471   4.473  12.272  0.6742 -0.0692  0.1549
 7332SOL    HW133632   2.398   4.423  12.236 -0.1646  1.4888 -0.2637
 7332SOL    HW233633   2.453   4.476  12.366  1.0170 -2.0861  0.3065
 7333SOL     OW33634   1.884   0.413   8.412 -0.2002 -0.2926  0.1695
 7333SOL    HW133635   1.945   0.486   8.406 -0.5623 -0.0372 -0.5026
 7333SOL    HW233636   1.827   0.451   8.479  1.1763  0.8340  0.6984
 7334SOL     OW33637   1.657   3.362  11.614  0.0163  0.6467 -0.9114
 7334SOL    HW133638   1.562   3.362  11.625 -0.0720  2.3644 -1.6601
 7334SOL    HW233639   1.675   3.435  11.674  1.0543  0.2132 -0.6895
 7335SOL     OW33640   0.747   3.440   3.204 -0.0520  0.6552 -0.3988
 7335SOL    HW133641   0.759   3.533   3.184 -2.0594  0.6916 -1.4184
 7335SOL    HW233642   0.781   3.389   3.131  1.0595 -0.2149  0.7130
 7336SOL     OW33643   0.397   0.245   3.809 -0.2571 -0.5057  0.0261
 7336SOL    HW133644   0.426   0.170   3.861 -0.2089 -0.6374 -0.1901
 7336SOL    HW233645   0.455   0.228   3.735 -0.0122 -0.2733  0.1703
 7337SOL     OW33646   2.446   0.601   4.829  0.4689  0.0809 -0.2665
 7337SOL    HW133647   2.382   0.672   4.819  0.4171  0.0559 -0.1115
 7337SOL    HW233648   2.400   0.535   4.777  1.9034 -1.3167  0.2486
 7338SOL     OW33649   3.924   4.110   1.884 -0.1744  0.4844 -0.0125
 7338SOL    HW133650   3.847   4.115   1.828  0.4676 -2.4406 -1.1817
 7338SOL    HW233651   3.971   4.193   1.879 -0.2568  0.5235 -0.1214
 7339SOL     OW33652   0.137   4.693   3.720 -0.1348 -0.2181 -0.2397
 7339SOL    HW133653   0.206   4.629   3.702 -0.2711 -0.3319 -0.3658
 7339SOL    HW233654   0.158   0.016   3.652 -1.1274  1.6097  1.1939
 7340SOL     OW33655   1.583   3.113   3.357 -0.2915  0.1501  0.7452
 7340SOL    HW133656   1.602   3.042   3.419 -0.2358 -0.4323  0.0511
 7340SOL    HW233657   1.522   3.068   3.298  0.6723  2.2981 -1.8596
 7341SOL     OW33658   4.282   3.053   6.154 -0.5189  0.0095  0.2473
 7341SOL    HW133659   4.236   2.968   6.158  0.6657 -0.7613 -2.3350
 7341SOL    HW233660   4.216   3.107   6.197 -2.2298 -0.2052 -2.1344
 7342SOL     OW33661   3.071   2.624   3.205  0.1741 -0.9384  0.1921
 7342SOL    HW133662   3.068   2.685   3.279 -0.3947 -1.4748  0.6102
 7342SOL    HW233663   3.158   2.639   3.167  0.6759 -1.8170  0.9906
 7343SOL     OW33664   1.497   0.857   6.390 -0.4623 -0.1095  0.3592
 7343SOL    HW133665   1.558   0.869   6.463 -0.8402 -0.1233  0.6805
 7343SOL    HW233666   1.429   0.923   6.403  0.1335  0.7257 -0.7923
 7344SOL     OW33667   0.981   1.125   2.867 -0.2432  0.2023  0.3097
 7344SOL    HW133668   0.941   1.081   2.943  0.7774  0.0290  0.7458
 7344SOL    HW233669   1.037   1.052   2.842  0.9630  1.7341 -1.4414
 7345SOL     OW33670   2.590   0.307   6.198  0.1495 -0.5191  0.0344
 7345SOL    HW133671   2.577   0.396   6.164 -0.3326 -0.5025  0.2722
 7345SOL    HW233672   2.505   0.289   6.237 -0.2206  2.1917  0.4898
 7346SOL     OW33673   4.012   4.193   7.552  0.0426  1.0402  0.1975
 7346SOL    HW133674   4.047   4.217   7.466 -1.7321  0.9396 -0.5399
 7346SOL    HW233675   4.075   4.131   7.590  0.9629  2.1186  0.4043
 7347SOL     OW33676   4.046   3.331   8.788  0.1825  0.2224  0.1763
 7347SOL    HW133677   3.986   3.305   8.858 -0.5854 -1.6728 -1.1938
 7347SOL    HW233678   4.012   3.417   8.764  2.7213  1.5601  1.3032
 7348SOL     OW33679   1.840   3.554   8.741 -0.1867 -0.3059  0.1046
 7348SOL    HW133680   1.814   3.645   8.754  2.1346 -0.1085  3.4732
 7348SOL    HW233681   1.764   3.513   8.784 -1.2827  0.2558 -1.3102
 7349SOL     OW33682   2.559   1.880  14.507  0.1909  0.3619  0.3428
 7349SOL    HW133683   2.574   1.788  14.531 -0.0091  0.2797  0.1641
 7349SOL    HW233684   2.559   1.921  14.593  0.1928 -0.1253  0.5804
 7350SOL     OW33685   0.441   0.969   5.566 -1.0896  0.1576  0.4233
 7350SOL    HW133686   0.524   1.018   5.570 -1.1348  0.1612  1.3043
 7350SOL    HW233687   0.441   0.912   5.642 -2.4657  1.9973  1.8071
 7351SOL     OW33688   4.093   4.635   5.831 -0.3830  0.0662 -0.2137
 7351SOL    HW133689   4.064   4.576   5.761  0.2828  0.8340 -1.1396
 7351SOL    HW233690   4.182   4.610   5.855 -1.0392 -0.2097  1.9840
 7352SOL     OW33691   2.188   3.746   7.064  0.0990 -0.2769 -0.1231
 7352SOL    HW133692   2.132   3.762   6.988 -0.5350 -2.1075 -0.0283
 7352SOL    HW233693   2.274   3.787   7.055  0.6401 -1.3415  0.2358
 7353SOL     OW33694   3.928   1.381   6.683 -0.3662  0.3286 -0.2968
 7353SOL    HW133695   3.959   1.331   6.607  1.8048 -1.2442  1.6337
 7353SOL    HW233696   3.834   1.364   6.676  0.0744 -0.8627 -3.5452
 7354SOL     OW33697   3.926   1.295   5.607 -0.1320 -0.1264  0.4991
 7354SOL    HW133698   3.937   1.241   5.686  1.5250 -1.2161 -0.4842
 7354SOL    HW233699   3.980   1.369   5.636 -1.8083  1.8824 -1.5003
 7355SOL     OW33700   1.729   0.237   5.336  0.1276  0.0030 -0.2011
 7355SOL    HW133701   1.667   0.229   5.409  0.6158 -0.4975  0.1598
 7355SOL    HW233702   1.806   0.257   5.390 -0.4406 -0.8178  0.9073
 7356SOL     OW33703   0.335   0.936   1.829  0.0669  0.2321  0.4212
 7356SOL    HW133704   0.378   1.017   1.802  1.2892  0.8192  4.2272
 7356SOL    HW233705   0.243   0.959   1.811 -0.0343 -0.1158  0.4893
 7357SOL     OW33706   3.138   4.479   6.890 -0.0663  0.1688 -0.0842
 7357SOL    HW133707   3.163   4.390   6.865  0.1913  0.4197 -0.7061
 7357SOL    HW233708   3.093   4.471   6.974  0.2992 -0.5992  0.0447
 7358SOL     OW33709   4.528   0.583  13.824  0.6582 -0.2110  0.5386
 7358SOL    HW133710   4.528   0.488  13.838  0.1866 -0.0093  1.8604
 7358SOL    HW233711   4.460   0.597  13.759  0.1400  1.3314  1.4022
 7359SOL     OW33712   2.691   1.621   7.600  0.2329 -0.6674 -0.2945
 7359SOL    HW133713   2.637   1.545   7.581 -1.0831 -0.4108  2.4451
 7359SOL    HW233714   2.646   1.697   7.562  0.5157  0.0367  0.7876
 7360SOL     OW33715   0.255   1.206  15.571 -0.2073 -0.3482 -0.2876
 7360SOL    HW133716   0.274   1.116  15.594 -0.5645  0.3998  3.0398
 7360SOL    HW233717   0.254   1.209  15.475 -3.3085  1.7941 -0.2195
 7361SOL     OW33718   3.615   2.510  15.593 -0.1531  0.4298 -0.2971
 7361SOL    HW133719   3.615   2.515  15.688  0.2309  0.9432 -0.3298
 7361SOL    HW233720   3.608   2.605  15.584  0.0913  0.4058 -0.7159
 7362SOL     OW33721   4.300   0.170  12.580 -0.3989 -0.1113  0.3908
 7362SOL    HW133722   4.291   0.261  12.554  1.9549 -0.6373 -2.1756
 7362SOL    HW233723   4.394   0.154  12.581  0.2084  3.7288  1.8631
 7363SOL     OW33724   1.327   4.216   7.463  0.3800 -0.1200  0.3064
 7363SOL    HW133725   1.357   4.219   7.372  0.7649  1.5498  0.4877
 7363SOL    HW233726   1.408   4.220   7.512  0.9373  2.8425 -0.8258
 7364SOL     OW33727   2.832   4.488   5.479 -0.0300 -0.3678 -0.2688
 7364SOL    HW133728   2.799   4.444   5.401  1.7430  0.6636 -1.6117
 7364SOL    HW233729   2.804   4.436   5.554 -0.7064  0.3262 -0.0487
 7365SOL     OW33730   0.499   1.396  16.815  0.4686 -0.2638 -0.3088
 7365SOL    HW133731   0.532   1.411  16.726 -0.3004 -1.8439 -0.8536
 7365SOL    HW233732   0.524   1.484  16.845 -1.4197 -0.1483  0.9615
 7366SOL     OW33733   0.001   1.094  16.962  0.5876 -0.2418 -0.2885
 7366SOL    HW133734   0.096   1.107  16.965  0.6187 -0.7762  1.1435
 7366SOL    HW233735   4.720   1.082  16.870 -1.9790  2.4860 -0.0638
 7367SOL     OW33736   4.359   1.663   8.089 -0.0720  0.3184 -0.2476
 7367SOL    HW133737   4.394   1.647   8.001  0.1366 -1.1620  0.1056
 7367SOL    HW233738   4.280   1.713   8.071 -0.1951 -1.2988 -4.1218
 7368SOL     OW33739   4.153   3.238  16.878 -0.6705 -0.1845 -0.4251
 7368SOL    HW133740   4.196   3.160  16.842  0.9388  1.0468 -1.1968
 7368SOL    HW233741   4.155   3.219  16.972 -0.1675 -0.1722 -0.4359
 7369SOL     OW33742   2.418   3.819   7.150  1.0154  0.1936 -0.3668
 7369SOL    HW133743   2.402   3.728   7.173  3.0251 -0.0512  0.0315
 7369SOL    HW233744   2.513   3.827   7.148  0.9305  1.4822  0.2931
 7370SOL     OW33745   3.827   3.069  17.457  0.4143  0.3179  0.2824
 7370SOL    HW133746   3.918   3.093  17.436 -0.1897  2.6004  0.2919
 7370SOL    HW233747   3.833   2.974  17.448 -2.3734  0.2342 -0.6833
 7371SOL     OW33748   2.630   3.036   5.768 -0.0631 -0.0512  0.4356
 7371SOL    HW133749   2.646   3.017   5.676  0.2024  0.1139  0.4459
 7371SOL    HW233750   2.650   3.129   5.776 -1.7206  0.3806 -0.4458
 7372SOL     OW33751   0.085   3.381   9.314 -0.0091 -0.6029 -0.1717
 7372SOL    HW133752   0.004   3.378   9.365  0.7257  2.3453  1.1837
 7372SOL    HW233753   0.063   3.439   9.241  0.9632  0.4544  0.3710
 7373SOL     OW33754   4.056   3.000   8.021  0.0086  0.4531  0.2488
 7373SOL    HW133755   3.986   3.042   7.972  0.6050 -0.7869 -1.6354
 7373SOL    HW233756   4.125   3.001   7.955 -1.6487 -2.2798 -1.4799
 7374SOL     OW33757   0.191   0.466  12.709 -0.4757  0.0376 -0.3379
 7374SOL    HW133758   0.121   0.468  12.774  1.2667 -0.8064  1.5644
 7374SOL    HW233759   0.144   0.417  12.641 -0.5247 -1.9651  1.1272
 7375SOL     OW33760   4.553   2.734   6.769 -0.0647  0.5495  0.5784
 7375SOL    HW133761   4.564   2.826   6.795  0.4719  0.6929 -0.1428
 7375SOL    HW233762   4.471   2.715   6.814  2.1906 -0.7714  4.1996
 7376SOL     OW33763   0.077   1.344   9.091 -0.1594 -0.4250  0.2073
 7376SOL    HW133764   0.168   1.313   9.091 -0.1212 -0.3127  0.2751
 7376SOL    HW233765   0.084   1.439   9.081 -3.0596 -0.3339 -0.7954
 7377SOL     OW33766   0.725   3.379   3.878 -0.6084  0.5368 -0.1957
 7377SOL    HW133767   0.761   3.386   3.966 -0.9025 -1.8007  0.1124
 7377SOL    HW233768   0.644   3.428   3.891 -0.7068  0.7064 -1.4511
 7378SOL     OW33769   4.455   4.296   1.740 -0.0620 -0.3095  0.0353
 7378SOL    HW133770   4.467   4.298   1.645  0.1848  0.1014  0.0730
 7378SOL    HW233771   4.454   4.203   1.760 -0.5037  0.0907  1.8747
 7379SOL     OW33772   3.006   1.448   4.141 -0.2081 -0.7402 -0.1631
 7379SOL    HW133773   3.077   1.453   4.077  1.8511  0.1199  2.1789
 7379SOL    HW233774   3.047   1.423   4.224 -0.6767 -0.5743  0.1177
 7380SOL     OW33775   0.833   0.282  14.242 -0.1957 -0.4340  0.6772
 7380SOL    HW133776   0.782   0.356  14.207 -1.8474 -2.0801 -0.3581
 7380SOL    HW233777   0.772   0.212  14.262 -0.8754 -0.3747 -1.2009
 7381SOL     OW33778   3.534   0.315   4.356  0.0778  0.1947  0.0989
 7381SOL    HW133779   3.493   0.298   4.441  3.6870  1.2089  2.0297
 7381SOL    HW233780   3.499   0.247   4.299 -1.3508  1.2727 -0.3193
 7382SOL     OW33781   4.307   1.705   3.453  0.0714  0.1201 -0.5879
 7382SOL    HW133782   4.287   1.741   3.367 -1.3869  0.0908 -0.2613
 7382SOL    HW233783   4.262   1.776   3.497  1.8369  0.8623  0.0223
 7383SOL     OW33784   3.385   1.136   4.293  0.0672 -0.1595 -0.1265
 7383SOL    HW133785   3.303   1.086   4.296  0.1313 -0.1470  1.7825
 7383SOL    HW233786   3.445   1.061   4.297  0.8929  0.5479  0.5453
 7384SOL     OW33787   1.621   3.560  10.864  0.5723  0.5507  0.6393
 7384SOL    HW133788   1.608   3.469  10.835 -1.8184  0.1383  2.9671
 7384SOL    HW233789   1.549   3.606  10.821  0.0879  0.3037  1.1754
 7385SOL     OW33790   2.290   4.725  15.751 -0.4801  0.0039  0.3355
 7385SOL    HW133791   2.341   0.054  15.792 -0.6185  1.3699 -1.7951
 7385SOL    HW233792   2.296   0.004  15.657 -0.7612 -0.4382  0.2252
 7386SOL     OW33793   4.254   4.587   1.329 -0.1330  0.1298  0.7418
 7386SOL    HW133794   4.341   4.627   1.320 -0.7240  1.2980  0.3027
 7386SOL    HW233795   4.251   4.596   1.425  2.3849  1.1260  0.7465
 7387SOL     OW33796   3.570   0.536  11.159  0.0321 -0.0124 -0.2192
 7387SOL    HW133797   3.540   0.626  11.152  0.8341  0.1317 -1.8740
 7387SOL    HW233798   3.486   0.491  11.171  0.2598 -0.2573  0.4729
 7388SOL     OW33799   0.043   2.152   9.925  0.2695 -0.0405  0.3263
 7388SOL    HW133800   0.035   2.093  10.001  1.3614  1.4935  1.6143
 7388SOL    HW233801   4.728   2.225   9.950 -0.7874 -0.6331 -0.3116
 7389SOL     OW33802   2.848   0.714  11.603 -0.0488 -0.0289  0.1625
 7389SOL    HW133803   2.785   0.648  11.630 -1.2364  1.5162  1.1800
 7389SOL    HW233804   2.930   0.665  11.602  1.2843  2.1938 -1.5167
 7390SOL     OW33805   0.633   3.426   7.414  0.6648  0.6303 -0.2188
 7390SOL    HW133806   0.678   3.373   7.481  0.5619 -0.8366 -1.3074
 7390SOL    HW233807   0.638   3.370   7.337 -0.1315  1.3932 -0.8139
 7391SOL     OW33808   3.368   1.710   8.231 -0.2184 -0.6631 -0.5748
 7391SOL    HW133809   3.337   1.640   8.289  0.4030  0.4700  1.1083
 7391SOL    HW233810   3.297   1.774   8.237  1.8170  1.6856 -1.8181
 7392SOL     OW33811   2.713   0.837   0.484  0.0210 -0.0762 -0.5964
 7392SOL    HW133812   2.695   0.922   0.443  1.2668  0.6404  0.3576
 7392SOL    HW233813   2.657   0.779   0.432 -0.8692  1.6010 -1.5083
 7393SOL     OW33814   2.556   2.321  17.629  0.2883 -0.6087  0.3993
 7393SOL    HW133815   2.546   2.250  17.566 -1.7543 -0.7808  0.9306
 7393SOL    HW233816   2.480   2.310  17.686 -1.1333  0.9888 -1.1939
 7394SOL     OW33817   0.714   0.727   2.863  0.0458  0.1385  0.3872
 7394SOL    HW133818   0.633   0.677   2.874  0.4878  0.1869  3.7770
 7394SOL    HW233819   0.760   0.681   2.792  0.4011  1.8728 -0.5224
 7395SOL     OW33820   1.347   3.284   2.679 -0.4005  0.2917  0.0027
 7395SOL    HW133821   1.399   3.249   2.751 -0.0698  3.2499  1.1889
 7395SOL    HW233822   1.399   3.360   2.655  0.0718  0.2247  0.8108
 7396SOL     OW33823   3.917   0.820  14.505  0.1586 -0.4212 -0.0313
 7396SOL    HW133824   3.900   0.846  14.596  1.3752 -0.9095  0.3373
 7396SOL    HW233825   4.002   0.776  14.513  1.7670  2.5561 -0.7021
 7397SOL     OW33826   2.324   4.320   4.703 -0.0134 -0.4768 -1.2864
 7397SOL    HW133827   2.237   4.301   4.738  0.1647 -0.2807 -0.7458
 7397SOL    HW233828   2.363   4.236   4.729 -0.6146 -0.6341 -0.8965
 7398SOL     OW33829   3.408   1.114   8.639 -0.1668  0.1080  0.4826
 7398SOL    HW133830   3.472   1.053   8.602 -1.5660 -1.0877  0.0467
 7398SOL    HW233831   3.426   1.193   8.588 -1.6179 -0.6035 -1.1642
 7399SOL     OW33832   1.417   4.711  14.395  0.4796 -0.3775  0.0615
 7399SOL    HW133833   1.474   4.651  14.347 -0.3880  0.2195 -1.7276
 7399SOL    HW233834   1.426   4.688  14.487 -1.4938 -2.6636 -0.3328
 7400SOL     OW33835   2.242   3.468   8.008 -0.6437 -0.3951 -0.4485
 7400SOL    HW133836   2.194   3.550   8.017  2.5350  1.5771 -1.7616
 7400SOL    HW233837   2.291   3.477   7.927  0.0466  0.7022  0.0921
 7401SOL     OW33838   2.545   1.301   2.432 -0.4868 -0.3737  0.2434
 7401SOL    HW133839   2.551   1.359   2.508 -0.1621  0.0473 -0.1040
 7401SOL    HW233840   2.582   1.354   2.362 -0.7293 -0.0370  0.3663
 7402SOL     OW33841   1.022   2.642   9.962  0.3368  0.2923 -0.1905
 7402SOL    HW133842   1.073   2.584   9.905  0.3825 -0.2118  0.3734
 7402SOL    HW233843   0.937   2.599   9.971  0.4007 -0.2139 -1.9358
 7403SOL     OW33844   2.936   0.008   4.828  0.0902 -0.1953  0.4350
 7403SOL    HW133845   2.919   0.006   4.734 -0.1916 -1.5341  0.5181
 7403SOL    HW233846   2.921   4.659   4.855  0.2593  0.5185  2.9306
 7404SOL     OW33847   0.832   2.631   2.905  0.0728  0.0875 -0.0147
 7404SOL    HW133848   0.815   2.564   2.972  0.5046  0.3301  0.3364
 7404SOL    HW233849   0.873   2.703   2.952 -2.7880  0.7418  1.5043
 7405SOL     OW33850   4.487   1.447  16.309  0.2736 -0.0630  0.1316
 7405SOL    HW133851   4.503   1.369  16.361 -0.0227 -1.7810 -2.3348
 7405SOL    HW233852   4.442   1.406  16.235  2.2420  0.0437 -1.1340
 7406SOL     OW33853   0.199   0.713   7.753 -0.2329  0.1354  0.2168
 7406SOL    HW133854   0.162   0.656   7.685  1.9871  2.2569 -2.8250
 7406SOL    HW233855   0.118   0.732   7.800 -1.0237  1.4419 -1.6490
 7407SOL     OW33856   3.184   2.479   7.498 -0.4137 -0.0733  0.3683
 7407SOL    HW133857   3.133   2.554   7.467  3.1350  1.0091 -2.7352
 7407SOL    HW233858   3.223   2.511   7.580  1.2074 -2.2968  0.4577
 7408SOL     OW33859   2.363   2.764  10.650  0.4353  0.2655 -0.2725
 7408SOL    HW133860   2.453   2.785  10.673  0.6217 -0.4782 -0.3258
 7408SOL    HW233861   2.323   2.847  10.674 -0.3608 -1.4157  4.2112
 7409SOL     OW33862   3.440   0.352   1.577 -0.2303 -0.0909 -0.1608
 7409SOL    HW133863   3.511   0.294   1.550 -0.0050 -0.4108  1.1527
 7409SOL    HW233864   3.403   0.312   1.655  0.0977 -0.4504 -0.1905
 7410SOL     OW33865   3.294   3.599   8.992 -0.3248 -0.0570 -0.2180
 7410SOL    HW133866   3.314   3.603   9.085  2.1321  1.1920 -0.7919
 7410SOL    HW233867   3.297   3.505   8.978 -0.4374 -0.0638 -0.1954
 7411SOL     OW33868   3.175   1.252   8.352 -0.3500 -0.0646 -0.3333
 7411SOL    HW133869   3.270   1.254   8.356 -0.2277 -0.9210 -2.8104
 7411SOL    HW233870   3.165   1.160   8.373 -0.9186  0.2883  0.9336
 7412SOL     OW33871   4.082   3.974   8.343 -0.2449 -0.5924  0.1754
 7412SOL    HW133872   4.150   3.995   8.280  0.1014  1.9977  1.4038
 7412SOL    HW233873   4.101   4.026   8.421 -0.2267 -0.3837  0.0311
 7413SOL     OW33874   2.428   1.728   4.964 -0.4707  0.0997  0.4681
 7413SOL    HW133875   2.387   1.767   4.887  0.9513 -0.5755 -0.6420
 7413SOL    HW233876   2.502   1.678   4.927  0.1148  1.1544  0.2036
 7414SOL     OW33877   1.249   3.986   2.185  0.3264  0.3484  0.0632
 7414SOL    HW133878   1.225   4.069   2.227  0.6758  0.9848 -0.9949
 7414SOL    HW233879   1.333   3.962   2.225 -0.1885 -0.8392  0.4245
 7415SOL     OW33880   3.388   2.250   7.773 -0.4740 -0.0481  0.0973
 7415SOL    HW133881   3.312   2.304   7.793 -0.0705  1.4778 -2.5291
 7415SOL    HW233882   3.392   2.259   7.678  1.7420  1.7366  0.3402
 7416SOL     OW33883   3.700   0.550   5.024  0.0952 -0.5174  0.0679
 7416SOL    HW133884   3.683   0.607   4.948 -1.5613  1.3894  1.8651
 7416SOL    HW233885   3.788   0.578   5.046  0.0405  0.6015 -1.1157
 7417SOL     OW33886   0.926   1.357  12.801 -0.0147 -0.0989 -0.1442
 7417SOL    HW133887   0.865   1.338  12.872 -0.3212  0.9024 -0.1384
 7417SOL    HW233888   1.001   1.397  12.843  0.5794  0.6445 -1.9188
 7418SOL     OW33889   2.406   2.984   5.507  0.2084 -0.5823  0.4548
 7418SOL    HW133890   2.359   2.915   5.554 -0.7572 -1.1489 -1.3153
 7418SOL    HW233891   2.498   2.960   5.518  0.9634  1.0956 -2.1266
 7419SOL     OW33892   4.600   4.104   5.429  0.0345  0.0669  0.3259
 7419SOL    HW133893   4.552   4.021   5.439 -0.3771  0.0911 -1.6102
 7419SOL    HW233894   4.660   4.081   5.359 -2.5583 -1.4052 -1.4295
 7420SOL     OW33895   4.430   0.731   3.521 -0.0060 -0.3079 -0.3321
 7420SOL    HW133896   4.361   0.786   3.484 -0.0222 -0.9760 -1.3061
 7420SOL    HW233897   4.452   0.775   3.603 -2.2915 -2.3973  1.3866
 7421SOL     OW33898   1.306   4.070   8.030 -0.2465  0.6459 -0.0079
 7421SOL    HW133899   1.250   4.136   8.072  1.0864  1.4630  0.4555
 7421SOL    HW233900   1.351   4.120   7.962  1.2189 -1.1830 -0.3735
 7422SOL     OW33901   0.947   3.499   5.550 -0.2723  0.1295 -0.0081
 7422SOL    HW133902   1.008   3.562   5.588  0.7752 -1.1927  0.5112
 7422SOL    HW233903   0.991   3.473   5.469  0.9055  4.0549 -0.6386
 7423SOL     OW33904   0.673   3.134   6.886 -0.2733  0.5095  0.7763
 7423SOL    HW133905   0.612   3.099   6.822  1.2568 -1.4197  0.3595
 7423SOL    HW233906   0.725   3.187   6.826 -1.2229  0.6824  0.1153
 7424SOL     OW33907   2.867   1.800   3.007 -0.0733  0.1380 -0.6071
 7424SOL    HW133908   2.796   1.841   3.056 -1.5556 -1.3879 -1.4793
 7424SOL    HW233909   2.863   1.831   2.916 -0.9254 -2.1331 -1.3428
 7425SOL     OW33910   4.243   4.724  13.088 -0.0021  0.4605  0.4804
 7425SOL    HW133911   4.189   4.682  13.021 -0.8163 -0.2232  1.5690
 7425SOL    HW233912   4.243   4.657  13.156  0.8177 -0.4915 -0.4574
 7426SOL     OW33913   0.739   3.697   9.739 -0.1692  0.2059 -0.1504
 7426SOL    HW133914   0.680   3.758   9.784  1.6463  2.0029 -0.2026
 7426SOL    HW233915   0.726   3.735   9.652  1.1995 -0.4767 -0.6493
 7427SOL     OW33916   3.716   0.662   9.643  0.6204  0.0939 -0.1148
 7427SOL    HW133917   3.728   0.567   9.645  1.0761  0.2106  2.5310
 7427SOL    HW233918   3.621   0.666   9.632  0.6518 -3.3077 -1.4946
 7428SOL     OW33919   2.670   4.629   4.663 -0.3617 -0.3869 -0.2112
 7428SOL    HW133920   2.642   4.715   4.696  2.3065  0.4520 -0.0553
 7428SOL    HW233921   2.613   4.574   4.716  1.4742 -1.8770  0.2470
 7429SOL     OW33922   2.397   3.027   8.229 -0.2803 -0.3922 -0.4850
 7429SOL    HW133923   2.480   3.071   8.210 -1.5359  1.3883 -1.7614
 7429SOL    HW233924   2.356   3.089   8.288 -2.5362 -0.4097 -2.0415
 7430SOL     OW33925   2.212   2.995  14.999 -0.3153 -0.4270 -0.7975
 7430SOL    HW133926   2.118   3.007  14.988 -0.2087  1.6934  0.7339
 7430SOL    HW233927   2.233   3.063  14.935 -0.0391 -2.5340 -2.9395
 7431SOL     OW33928   3.764   3.857   4.155  0.0162  0.1860 -0.2560
 7431SOL    HW133929   3.790   3.829   4.067 -0.4019 -2.1082  0.3325
 7431SOL    HW233930   3.748   3.951   4.148  0.8251  0.2383 -1.3362
 7432SOL     OW33931   4.112   4.132   9.348 -0.1249 -0.5463  0.3353
 7432SOL    HW133932   4.182   4.068   9.363 -0.3164 -0.7927  0.1679
 7432SOL    HW233933   4.047   4.065   9.329  0.6172 -0.6886 -1.7085
 7433SOL     OW33934   3.737   1.211  13.654  0.0018 -0.3275  0.1034
 7433SOL    HW133935   3.767   1.244  13.569 -0.7974  2.0285  0.7509
 7433SOL    HW233936   3.821   1.187  13.692  0.6534 -0.4894 -1.4217
 7434SOL     OW33937   4.355   2.151  14.417 -0.4298 -0.7553  0.1368
 7434SOL    HW133938   4.422   2.182  14.479 -0.4655 -0.4462  0.0238
 7434SOL    HW233939   4.281   2.202  14.449  0.4936  0.6128  0.1210
 7435SOL     OW33940   3.269   3.066  12.270 -0.5566  0.0408  0.3396
 7435SOL    HW133941   3.334   3.059  12.339  0.3726 -1.5869 -0.7095
 7435SOL    HW233942   3.205   3.124  12.311  0.5472  0.8459  0.9351
 7436SOL     OW33943   2.273   1.998   3.762  0.0940 -0.2841 -0.5972
 7436SOL    HW133944   2.299   1.947   3.839 -1.2566 -0.8526 -0.5027
 7436SOL    HW233945   2.353   2.047   3.747  0.6503 -1.2205 -0.7271
 7437SOL     OW33946   3.794   4.162   1.519  0.0401 -0.0587 -0.1664
 7437SOL    HW133947   3.744   4.171   1.438  0.6152 -1.6835 -0.7026
 7437SOL    HW233948   3.847   4.084   1.509  3.9074  2.1812  2.8179
 7438SOL     OW33949   0.125   2.141   9.663  0.1880 -0.1132 -0.1866
 7438SOL    HW133950   0.080   2.210   9.616 -0.3276 -0.7368 -0.6088
 7438SOL    HW233951   0.080   2.149   9.747 -0.4673 -1.0889 -0.4375
 7439SOL     OW33952   3.533   3.515  15.670 -0.4965  0.1869  0.1574
 7439SOL    HW133953   3.587   3.440  15.642  1.8689  2.3068 -0.9134
 7439SOL    HW233954   3.604   3.579  15.678 -0.4966  0.3667 -1.3628
 7440SOL     OW33955   0.028   1.054   2.354 -0.5270  0.3139 -0.0218
 7440SOL    HW133956   0.060   1.034   2.441 -3.0162 -3.2790  0.0987
 7440SOL    HW233957   0.047   0.971   2.309 -1.6006 -0.0902  0.2614
 7441SOL     OW33958   3.910   2.813   7.621 -0.1817  0.1343  0.0586
 7441SOL    HW133959   3.849   2.879   7.656 -0.8471 -1.7870  2.4646
 7441SOL    HW233960   3.987   2.870   7.624 -0.6924  0.8891 -0.9284
 7442SOL     OW33961   2.271   2.247   3.473 -0.4728  0.4171  0.3141
 7442SOL    HW133962   2.212   2.174   3.487  0.6918 -0.5401  0.2253
 7442SOL    HW233963   2.279   2.263   3.379  2.1259 -2.1796  0.0845
 7443SOL     OW33964   2.856   4.123   4.079 -0.2113  0.0410 -0.1695
 7443SOL    HW133965   2.796   4.188   4.042 -3.1553 -0.0678  4.4410
 7443SOL    HW233966   2.903   4.181   4.139 -0.4062 -0.9127  0.9004
 7444SOL     OW33967   3.727   2.273   9.848  0.3038  0.0487 -0.0045
 7444SOL    HW133968   3.698   2.229   9.768 -1.1368 -1.0907  1.1384
 7444SOL    HW233969   3.664   2.244   9.913  0.6228  2.9755  1.6049
 7445SOL     OW33970   2.236   2.944   7.737 -0.2793 -0.1764  0.0909
 7445SOL    HW133971   2.291   2.954   7.815 -0.0841  1.0939 -0.2174
 7445SOL    HW233972   2.185   3.025   7.742 -1.7547 -1.0602 -0.5032
 7446SOL     OW33973   1.478   1.970   8.803  0.0196  0.3555 -0.4408
 7446SOL    HW133974   1.555   1.956   8.748  0.2972  0.0318  0.0351
 7446SOL    HW233975   1.410   1.918   8.760  0.8126 -1.4163  0.4542
 7447SOL     OW33976   1.303   1.038   8.539  0.0864  0.4407  0.4692
 7447SOL    HW133977   1.345   1.062   8.457 -0.1216 -2.7783 -0.5937
 7447SOL    HW233978   1.355   0.961   8.561 -0.0350 -0.0128 -0.8330
 7448SOL     OW33979   1.020   1.411  13.564  0.3397 -0.2606  0.2254
 7448SOL    HW133980   0.943   1.356  13.576 -0.4508  0.9952  0.9326
 7448SOL    HW233981   1.054   1.413  13.653  2.3853 -1.7639 -0.5288
 7449SOL     OW33982   0.622   3.353  16.553 -0.6102  0.0702 -0.2199
 7449SOL    HW133983   0.593   3.395  16.472 -0.6419 -0.6131 -0.5666
 7449SOL    HW233984   0.637   3.267  16.513  1.1918 -0.1614  0.9758
 7450SOL     OW33985   3.066   0.698  16.052  0.1053 -0.2178 -0.5164
 7450SOL    HW133986   3.009   0.774  16.061  1.1506  0.2420  2.1143
 7450SOL    HW233987   3.002   0.635  16.085 -1.3467  2.1487  1.1458
 7451SOL     OW33988   2.513   3.260   0.190 -0.0305  0.4557 -0.1311
 7451SOL    HW133989   2.482   3.335   0.139  0.8772 -0.2874 -1.7905
 7451SOL    HW233990   2.436   3.218   0.227  1.1213 -0.1322  1.5795
 7452SOL     OW33991   0.054   1.345  17.075  0.1555 -0.2619  0.6544
 7452SOL    HW133992   0.147   1.325  17.069 -0.0320 -1.5402  2.0008
 7452SOL    HW233993   0.003   1.266  17.055  1.0255 -0.1166 -2.1497
 7453SOL     OW33994   4.496   0.500   7.855  0.1956 -0.2180  0.0800
 7453SOL    HW133995   4.415   0.487   7.805 -0.9698 -0.8535  2.1152
 7453SOL    HW233996   4.531   0.583   7.823 -0.8633 -0.0932 -0.7825
 7454SOL     OW33997   2.215   3.813  14.507  0.3131 -0.1798  0.0718
 7454SOL    HW133998   2.121   3.820  14.521  0.3008  1.0252 -0.6148
 7454SOL    HW233999   2.244   3.903  14.489  1.1053 -0.3688  0.3971
 7455SOL     OW34000   4.420   0.602   5.446  0.0089 -0.0933  0.3311
 7455SOL    HW134001   4.339   0.574   5.489 -0.7098  2.6362  0.7093
 7455SOL    HW234002   4.408   0.597   5.351 -0.4875 -0.9223  0.4338
 7456SOL     OW34003   4.370   1.829   0.706 -0.2007  0.5435  0.6414
 7456SOL    HW134004   4.360   1.923   0.725 -2.5452  0.3904  0.1016
 7456SOL    HW234005   4.291   1.801   0.660 -1.2607  3.3510  0.7401
 7457SOL     OW34006   1.109   0.097   5.525 -0.3046  0.1073  0.6435
 7457SOL    HW134007   1.187   0.047   5.548  0.7900  1.8336  0.6943
 7457SOL    HW234008   1.139   0.134   5.442 -0.1103  0.1629  0.7395
 7458SOL     OW34009   4.573   3.161   9.014 -0.0126 -0.1365  0.6856
 7458SOL    HW134010   4.480   3.159   8.993  0.5992 -0.1158 -2.0215
 7458SOL    HW234011   4.621   3.110   8.948  0.3865  0.0572  0.8255
 7459SOL     OW34012   4.683   4.233   8.856 -0.2201  0.0079  0.1571
 7459SOL    HW134013   0.023   4.182   8.849 -0.0101  0.2536  0.8508
 7459SOL    HW234014   4.632   4.208   8.779  2.0429 -2.6149 -0.5052
 7460SOL     OW34015   2.719   3.335   9.416 -0.6319 -0.4841 -0.0717
 7460SOL    HW134016   2.752   3.425   9.411  0.5102 -1.0484 -2.6162
 7460SOL    HW234017   2.785   3.285   9.464 -0.7185 -1.2020 -0.6988
 7461SOL     OW34018   1.953   0.998   8.693 -0.6452  0.6697  0.2898
 7461SOL    HW134019   1.962   0.959   8.781 -0.9650  0.8588  0.4078
 7461SOL    HW234020   1.914   0.924   8.645 -2.3565  0.5471  1.8353
 7462SOL     OW34021   4.557   1.976   3.239 -0.5776 -0.1918  0.0250
 7462SOL    HW134022   4.632   1.958   3.183  0.8049 -1.2269  2.2023
 7462SOL    HW234023   4.531   1.887   3.263  1.0853 -0.7344 -0.1956
 7463SOL     OW34024   1.436   0.406   9.960  0.5039  0.4358  0.0947
 7463SOL    HW134025   1.489   0.342   9.912  0.9497  2.6221 -2.3326
 7463SOL    HW234026   1.505   0.440  10.017  0.2756  2.9286 -1.0880
 7464SOL     OW34027   4.395   0.325   5.604 -0.2446 -0.3057  0.0665
 7464SOL    HW134028   4.340   0.372   5.542  1.1633  1.3595  0.0634
 7464SOL    HW234029   4.333   0.290   5.668  0.7946  1.1427  1.8685
 7465SOL     OW34030   1.793   4.143   7.770  0.1569 -0.5844 -0.2034
 7465SOL    HW134031   1.825   4.179   7.853  1.0545  0.0239 -0.8000
 7465SOL    HW234032   1.774   4.054   7.798  0.5175 -1.2648 -2.1193
 7466SOL     OW34033   4.263   0.038   2.473  0.2433  0.4039  0.1986
 7466SOL    HW134034   4.218   0.094   2.411 -1.0512 -1.5947 -0.6769
 7466SOL    HW234035   4.248   0.092   2.551 -2.3633  0.3643 -0.2549
 7467SOL     OW34036   0.055   0.644   8.116  0.1788 -0.4483 -0.5910
 7467SOL    HW134037   0.008   0.627   8.034 -0.9691  0.0900 -0.0516
 7467SOL    HW234038   0.139   0.671   8.079 -0.3023 -1.0625 -2.1417
 7468SOL     OW34039   0.335   0.389   2.379  0.1470 -0.1672  0.3034
 7468SOL    HW134040   0.251   0.387   2.333  0.7581 -0.8879 -0.7896
 7468SOL    HW234041   0.372   0.473   2.354 -3.5265  0.7406 -2.1293
 7469SOL     OW34042   3.162   0.956   9.018  0.3879 -0.0915 -0.4967
 7469SOL    HW134043   3.119   0.870   9.019 -1.9784  1.0842  0.3268
 7469SOL    HW234044   3.244   0.927   9.057 -0.6260 -2.2578  0.0620
 7470SOL     OW34045   4.251   0.960   4.036 -0.1350  0.0271  0.1534
 7470SOL    HW134046   4.169   0.920   4.008  0.5833 -0.9643 -0.5451
 7470SOL    HW234047   4.242   0.948   4.131 -0.5134  1.3439  0.2871
 7471SOL     OW34048   3.875   2.890  16.229 -0.4433  0.0398 -0.2731
 7471SOL    HW134049   3.952   2.937  16.197 -0.1293  0.6002  1.2921
 7471SOL    HW234050   3.806   2.954  16.211 -0.9740 -0.1430  1.1095
 7472SOL     OW34051   2.942   0.054   9.960  0.3775 -0.0134 -0.1436
 7472SOL    HW134052   2.939   4.737  10.037  1.3360  0.2946  0.1278
 7472SOL    HW234053   2.986   0.132   9.994  1.6402 -0.8628  0.1921
 7473SOL     OW34054   1.844   1.224   7.546  0.2708  0.5623  0.0283
 7473SOL    HW134055   1.848   1.212   7.641  2.3749  2.5257  0.1974
 7473SOL    HW234056   1.758   1.265   7.541  0.6941  1.8050  2.8398
 7474SOL     OW34057   2.430   1.372  10.591  0.4044  0.0119  0.1032
 7474SOL    HW134058   2.486   1.444  10.620 -1.6444  2.4484 -2.0370
 7474SOL    HW234059   2.344   1.413  10.591 -0.3423 -1.5818  0.5727
 7475SOL     OW34060   3.310   0.818  12.972 -0.2964 -0.4823  0.7613
 7475SOL    HW134061   3.395   0.856  12.952 -0.9626 -1.2198 -3.6139
 7475SOL    HW234062   3.262   0.893  13.007 -0.1724 -0.5491  1.0696
 7476SOL     OW34063   1.772   0.992   4.988  0.3912  0.6244  0.2770
 7476SOL    HW134064   1.717   1.059   4.948  1.8584  0.8460 -1.3672
 7476SOL    HW234065   1.713   0.918   4.971  0.7006  0.7680 -1.4527
 7477SOL     OW34066   0.895   4.510   7.898  0.0906 -0.2844 -0.9678
 7477SOL    HW134067   0.898   4.592   7.849  0.4631 -0.2078 -0.8212
 7477SOL    HW234068   0.914   4.540   7.987  0.2043 -1.4923 -0.5843
 7478SOL     OW34069   1.313   4.182   6.049 -0.0263  0.2641  0.2405
 7478SOL    HW134070   1.364   4.204   6.127 -3.2602  1.6818  1.9834
 7478SOL    HW234071   1.228   4.166   6.091  1.1987 -0.9774  2.2583
 7479SOL     OW34072   1.998   0.910   7.181 -0.1444  0.5135 -0.0475
 7479SOL    HW134073   1.946   0.946   7.253 -0.5772  1.9404 -1.0653
 7479SOL    HW234074   2.002   0.984   7.119  2.5320 -1.2836 -2.0360
 7480SOL     OW34075   4.144   4.141  16.348  0.2672  0.2574 -0.0794
 7480SOL    HW134076   4.117   4.225  16.387 -0.4129  0.4251 -0.9148
 7480SOL    HW234077   4.059   4.106  16.324  0.2977 -0.2130  0.5007
 7481SOL     OW34078   4.209   2.309   5.174  0.4513  0.0986  0.0118
 7481SOL    HW134079   4.222   2.216   5.194  0.9545  0.4686  1.4398
 7481SOL    HW234080   4.287   2.332   5.123  0.4024  2.8646  1.1979
 7482SOL     OW34081   3.949   4.404   1.829 -0.2041 -0.0924  0.3890
 7482SOL    HW134082   4.041   4.430   1.839  0.0103 -0.6817 -0.0762
 7482SOL    HW234083   3.925   4.436   1.742 -3.5753  0.8071  1.6676
 7483SOL     OW34084   0.090   3.422   3.774 -0.3616 -0.1950 -0.2392
 7483SOL    HW134085   0.023   3.402   3.709  0.1683 -1.3664 -0.4269
 7483SOL    HW234086   0.038   3.469   3.838 -2.1229 -1.1979 -0.9329
 7484SOL     OW34087   1.564   4.044   9.457  0.1616  0.1596 -0.5262
 7484SOL    HW134088   1.520   4.002   9.531 -0.4366 -1.4679 -1.8152
 7484SOL    HW234089   1.502   4.113   9.434 -0.1742  0.3045  0.7932
 7485SOL     OW34090   2.464   1.969   7.067  0.1068  0.3578  0.0688
 7485SOL    HW134091   2.489   2.055   7.101 -1.7726  1.0158 -0.2236
 7485SOL    HW234092   2.387   1.947   7.119  1.7201 -3.7313  0.7577
 7486SOL     OW34093   0.875   0.280  12.126  0.3048 -0.3585 -0.5276
 7486SOL    HW134094   0.897   0.210  12.064 -2.3920 -2.0784  0.4712
 7486SOL    HW234095   0.962   0.316  12.143 -0.1043  1.4334 -2.2201
 7487SOL     OW34096   3.934   1.369   1.390  0.1476 -0.6442 -0.0185
 7487SOL    HW134097   3.965   1.457   1.371 -0.4777 -0.0750  1.6873
 7487SOL    HW234098   3.932   1.377   1.485  3.7341 -0.6213  0.0564
 7488SOL     OW34099   1.546   4.515  10.134  0.5855  0.2165  0.2868
 7488SOL    HW134100   1.457   4.498  10.166  1.3538 -3.0223  0.6987
 7488SOL    HW234101   1.595   4.472  10.204  0.9102 -0.3789 -0.3092
 7489SOL     OW34102   4.385   2.494   2.971 -0.5403  0.0852  0.0376
 7489SOL    HW134103   4.426   2.513   2.886  1.0140 -1.3293  0.4694
 7489SOL    HW234104   4.386   2.582   3.007 -0.4005  0.1714 -0.1771
 7490SOL     OW34105   4.731   4.476   9.254  0.6546  0.1845  0.2500
 7490SOL    HW134106   0.081   4.494   9.278  0.6059 -0.3250  0.8284
 7490SOL    HW234107   4.713   4.402   9.313  0.2354  0.4263  0.4310
 7491SOL     OW34108   0.385   3.804   0.802 -0.1528 -0.2938 -0.6002
 7491SOL    HW134109   0.393   3.888   0.848  3.3916 -2.2906  2.5120
 7491SOL    HW234110   0.423   3.739   0.862 -3.4426 -2.0332 -0.4180
 7492SOL     OW34111   3.758   4.670   7.930  0.5846 -0.3010  0.1712
 7492SOL    HW134112   3.809   4.737   7.884 -0.3208 -1.1506 -2.0646
 7492SOL    HW234113   3.743   4.709   8.016  0.2531  0.8667 -0.4328
 7493SOL     OW34114   0.730   3.374   3.611  0.1873 -0.4885 -0.5058
 7493SOL    HW134115   0.655   3.321   3.584 -0.8066  0.6231  0.0703
 7493SOL    HW234116   0.735   3.347   3.703  2.2400  0.6545 -0.2665
 7494SOL     OW34117   1.568   4.427   2.004 -0.0932 -0.2406  0.1847
 7494SOL    HW134118   1.543   4.453   2.092  0.4868  0.4892  0.1346
 7494SOL    HW234119   1.494   4.371   1.980 -0.6062 -0.3624  2.0207
 7495SOL     OW34120   1.374   4.561   6.919 -0.1684  0.1327  0.1843
 7495SOL    HW134121   1.282   4.567   6.893  0.7262  1.7848 -2.5137
 7495SOL    HW234122   1.405   4.498   6.854 -1.2749 -1.7443  1.4583
 7496SOL     OW34123   1.188   0.786   1.412 -0.1656 -0.0323  0.1322
 7496SOL    HW134124   1.276   0.822   1.429 -0.7782  1.6088 -0.1502
 7496SOL    HW234125   1.142   0.867   1.391 -0.7828 -1.6395 -4.6602
 7497SOL     OW34126   4.533   3.578   8.593  0.7242  0.2120 -0.0596
 7497SOL    HW134127   4.540   3.563   8.687 -0.2650  2.6244  0.3951
 7497SOL    HW234128   4.439   3.577   8.580  0.7932 -2.8046 -0.2003
 7498SOL     OW34129   3.330   1.999   5.149 -0.0835  0.2615 -0.1963
 7498SOL    HW134130   3.240   1.973   5.126 -0.2759  1.2214 -0.5214
 7498SOL    HW234131   3.340   1.969   5.240 -1.1411 -0.0191 -0.1656
 7499SOL     OW34132   3.842   1.873   7.804  0.1205  0.0860  0.3845
 7499SOL    HW134133   3.794   1.916   7.734  3.1182  1.1930 -0.9767
 7499SOL    HW234134   3.853   1.786   7.766 -0.5271  0.1846 -0.0321
 7500SOL     OW34135   1.407   0.577   8.566 -0.4663  0.1075  0.3088
 7500SOL    HW134136   1.473   0.509   8.556 -0.6887  0.0254 -0.6042
 7500SOL    HW234137   1.401   0.620   8.480 -1.8602 -1.3367 -0.3213
 7501SOL     OW34138   0.504   3.474  17.470  0.0335  0.3108  0.9110
 7501SOL    HW134139   0.445   3.528  17.417 -2.0439 -0.1280  2.7950
 7501SOL    HW234140   0.445   3.410  17.509 -0.4021 -0.7231 -1.4489
 7502SOL     OW34141   2.969   0.276   4.822  0.4198  0.5876  0.4882
 7502SOL    HW134142   2.944   0.184   4.828  2.0943  0.0500 -0.5489
 7502SOL    HW234143   3.053   0.269   4.868  1.6450  0.9882 -1.6777
 7503SOL     OW34144   0.046   2.527  14.001 -0.3084  0.1648  0.3427
 7503SOL    HW134145   4.740   2.491  13.926  1.9893 -1.2741 -0.3968
 7503SOL    HW234146   4.719   2.571  14.052  0.1209  0.7208  0.4244
 7504SOL     OW34147   0.960   3.156   4.065  0.0869  0.0249  0.3536
 7504SOL    HW134148   0.889   3.211   4.099  0.3814 -1.0086  2.6408
 7504SOL    HW234149   0.929   3.066   4.075 -0.4908  0.2109  0.2706
 7505SOL     OW34150   3.724   1.117   7.515  0.8065  0.0471  0.1726
 7505SOL    HW134151   3.709   1.136   7.607  2.7995  1.2641  0.2508
 7505SOL    HW234152   3.638   1.142   7.480  0.0597 -0.3986  1.7177
 7506SOL     OW34153   2.168   2.812   8.220  0.2565  0.2096 -0.1984
 7506SOL    HW134154   2.249   2.847   8.258 -1.1847  2.6849  0.5724
 7506SOL    HW234155   2.129   2.889   8.180  0.7208  0.6283  0.1520
 7507SOL     OW34156   0.921   2.616  16.841  0.5776  0.1959  0.4702
 7507SOL    HW134157   0.989   2.596  16.905 -0.0659 -0.9895  0.7834
 7507SOL    HW234158   0.979   2.594  16.768  0.3959  1.2146  0.0205
 7508SOL     OW34159   0.621   0.907  15.570 -0.3326  0.1785 -0.0109
 7508SOL    HW134160   0.559   0.966  15.526  0.6000  2.1728  1.3769
 7508SOL    HW234161   0.691   0.897  15.505 -0.6328  1.0154 -0.4617
 7509SOL     OW34162   2.277   2.849   3.318 -0.1194 -0.0778  0.4181
 7509SOL    HW134163   2.239   2.896   3.244 -1.4380 -1.2947  0.3230
 7509SOL    HW234164   2.344   2.913   3.342  0.9018 -1.4086  1.1394
 7510SOL     OW34165   0.017   0.690   9.549 -0.0629 -0.5515  0.1092
 7510SOL    HW134166   4.674   0.663   9.584 -1.0036  1.2297 -0.7725
 7510SOL    HW234167   4.739   0.780   9.524  0.1569 -0.5252  0.0308
 7511SOL     OW34168   4.349   3.908  15.792  0.1323 -0.1006 -0.1528
 7511SOL    HW134169   4.305   3.913  15.707 -0.2874 -0.3891  0.0508
 7511SOL    HW234170   4.276   3.886  15.850 -0.5234 -1.3372 -1.4341
 7512SOL     OW34171   3.434   0.001   3.541 -0.3829 -0.7353 -0.0653
 7512SOL    HW134172   3.507   4.712   3.487 -0.4261 -0.8019 -0.0864
 7512SOL    HW234173   3.372   0.016   3.470 -0.3492  0.9228  0.2643
 7513SOL     OW34174   0.465   1.351   1.553  0.1823  0.3286 -0.0138
 7513SOL    HW134175   0.480   1.423   1.614 -0.0668 -0.2650  0.7573
 7513SOL    HW234176   0.375   1.364   1.523  0.6144 -1.0222 -1.8453
 7514SOL     OW34177   3.440   3.579   6.647  0.2867 -0.5825  0.0895
 7514SOL    HW134178   3.387   3.532   6.582 -0.7712  2.1923 -1.0463
 7514SOL    HW234179   3.429   3.672   6.627 -0.3487 -0.5570  0.5732
 7515SOL     OW34180   1.217   2.262   3.380  0.0658  0.4212  0.1030
 7515SOL    HW134181   1.161   2.217   3.443  1.6171 -0.9958  0.4851
 7515SOL    HW234182   1.276   2.313   3.435  0.4244 -0.5657  0.6409
 7516SOL     OW34183   1.750   3.020   5.638 -0.3699  0.3394 -0.1125
 7516SOL    HW134184   1.823   3.073   5.668 -0.9392  1.9745 -1.6197
 7516SOL    HW234185   1.748   3.041   5.544  0.5772 -3.3611 -0.9882
 7517SOL     OW34186   1.969   2.896   8.770 -0.3084 -0.0842 -0.4892
 7517SOL    HW134187   1.907   2.846   8.823 -0.1216 -1.6592 -1.7626
 7517SOL    HW234188   1.940   2.898   8.679 -0.4292  0.2725 -0.4442
 7518SOL     OW34189   4.700   4.552   4.753  0.1994 -0.1184 -0.0850
 7518SOL    HW134190   4.687   4.469   4.706  2.5674 -0.6619  0.2414
 7518SOL    HW234191   0.054   4.563   4.749 -0.3099  3.8856 -1.1761
 7519SOL     OW34192   1.520   2.668   3.281  0.4620  0.6695 -0.9223
 7519SOL    HW134193   1.522   2.623   3.197 -0.7296  0.5158 -0.8686
 7519SOL    HW234194   1.607   2.639   3.309 -1.1886 -2.0039  1.4655
 7520SOL     OW34195   2.966   2.974   0.966  0.4158 -0.4661  0.5871
 7520SOL    HW134196   2.957   2.957   0.872  2.6026  2.5944 -0.1765
 7520SOL    HW234197   3.043   3.030   0.976  0.7333 -0.4925 -1.6166
 7521SOL     OW34198   0.275   3.087  13.428 -0.5760  0.5428 -0.3558
 7521SOL    HW134199   0.306   3.130  13.508 -0.3375  1.0216 -0.7021
 7521SOL    HW234200   0.179   3.093  13.429 -0.6709 -0.9134 -2.1976
 7522SOL     OW34201   4.513   2.564   2.735 -0.6136 -0.2431  0.0567
 7522SOL    HW134202   4.499   2.554   2.641 -1.2961 -0.4530  0.1820
 7522SOL    HW234203   4.579   2.632   2.749 -0.8769 -0.0211  0.2016
 7523SOL     OW34204   0.934   2.414  16.392  0.8579 -0.5841 -0.7969
 7523SOL    HW134205   0.886   2.479  16.341 -2.1918 -2.3177 -0.1320
 7523SOL    HW234206   0.875   2.339  16.389  0.9318 -0.6496 -0.6187
 7524SOL     OW34207   3.460   3.093  10.314 -0.0444  0.0159 -0.8301
 7524SOL    HW134208   3.463   3.101  10.409 -2.9608  2.4427 -0.9188
 7524SOL    HW234209   3.398   3.023  10.293 -0.0072 -0.4081  0.5198
 7525SOL     OW34210   3.786   3.306   6.268 -0.2695 -0.2854 -0.1021
 7525SOL    HW134211   3.737   3.286   6.188 -1.4487  4.3744 -0.5524
 7525SOL    HW234212   3.733   3.377   6.305  0.8947  0.6185 -0.1732
 7526SOL     OW34213   0.127   2.974   8.516  0.2697  0.1737  0.1677
 7526SOL    HW134214   0.207   3.010   8.478 -0.1563  1.4034  0.4568
 7526SOL    HW234215   0.076   2.967   8.435  1.1401  0.9764 -0.4519
 7527SOL     OW34216   1.220   0.881   4.090  0.2488  0.0060  0.5984
 7527SOL    HW134217   1.263   0.945   4.146 -0.9811  1.7023 -0.3993
 7527SOL    HW234218   1.199   0.815   4.156 -0.0344  0.3186  0.8179
 7528SOL     OW34219   1.696   4.442   3.363 -0.4354  0.2183 -0.3035
 7528SOL    HW134220   1.628   4.375   3.369  2.2992 -2.6108 -0.9675
 7528SOL    HW234221   1.651   4.522   3.389 -0.5556  0.3287 -0.8552
 7529SOL     OW34222   2.852   4.652   1.923 -0.8413  0.3861 -0.7061
 7529SOL    HW134223   2.760   4.677   1.933 -0.9452 -1.0297  2.0478
 7529SOL    HW234224   2.843   4.573   1.870  1.4916 -2.2960  2.9426
 7530SOL     OW34225   2.890   0.325   4.133 -0.7152  0.4065 -0.0580
 7530SOL    HW134226   2.877   0.241   4.177  3.3837  0.0415  0.4716
 7530SOL    HW234227   2.803   0.365   4.138 -0.9871 -0.2900  0.9424
 7531SOL     OW34228   4.323   1.750   1.930  0.1137  0.3862  0.1963
 7531SOL    HW134229   4.375   1.743   1.850 -0.7214 -0.1763 -0.2949
 7531SOL    HW234230   4.370   1.684   1.981  2.4254  0.4232 -1.8744
 7532SOL     OW34231   2.850   3.735   6.965 -0.4268  0.4676 -0.1730
 7532SOL    HW134232   2.932   3.714   6.921 -0.2813 -2.4845  1.5224
 7532SOL    HW234233   2.871   3.694   7.049  1.1265  1.1251 -0.2443
 7533SOL     OW34234   3.660   3.769   7.517 -1.0427  0.5680  0.1270
 7533SOL    HW134235   3.741   3.800   7.559  0.9169 -2.8279 -1.2247
 7533SOL    HW234236   3.652   3.690   7.570 -3.2116  0.4202 -0.4474
 7534SOL     OW34237   2.757   1.164   5.639 -0.3257  0.1393 -0.0151
 7534SOL    HW134238   2.744   1.257   5.657 -0.2680 -0.1079  1.3452
 7534SOL    HW234239   2.835   1.167   5.584  0.7173  0.2409  1.4503
 7535SOL     OW34240   0.054   2.098   0.938 -0.2574 -0.5184  0.2372
 7535SOL    HW134241   0.083   2.125   1.025  0.1407 -2.6554  0.7703
 7535SOL    HW234242   0.088   2.164   0.878  1.1244 -1.5412 -0.0998
 7536SOL     OW34243   1.003   0.615   1.303  0.4099  0.5920 -0.4203
 7536SOL    HW134244   1.064   0.565   1.250 -0.5076 -1.4760  0.4774
 7536SOL    HW234245   1.066   0.681   1.330 -1.4551  1.1271  2.6548
 7537SOL     OW34246   3.350   1.169   5.572  0.2632 -0.2169 -0.0685
 7537SOL    HW134247   3.413   1.230   5.610 -0.5098  0.8704 -0.5139
 7537SOL    HW234248   3.383   1.150   5.485 -0.8255 -0.2869 -0.4718
 7538SOL     OW34249   2.262   0.524   6.641  0.2022  0.0021 -0.3180
 7538SOL    HW134250   2.223   0.477   6.568  1.1615 -1.8091  0.3356
 7538SOL    HW234251   2.331   0.463   6.668  1.6661  0.1455 -3.7454
 7539SOL     OW34252   3.954   2.163  12.464 -0.5215  0.2962 -0.0833
 7539SOL    HW134253   3.871   2.144  12.508  0.0425 -1.4988  0.2159
 7539SOL    HW234254   3.926   2.159  12.372 -1.0386 -1.9617  0.1536
 7540SOL     OW34255   0.064   0.827   2.169  0.5434  0.1799  0.6926
 7540SOL    HW134256   0.068   0.735   2.195  0.5731 -0.0718 -0.1815
 7540SOL    HW234257   4.711   0.837   2.156  0.7440 -1.3395 -1.9065
 7541SOL     OW34258   0.673   0.495   4.756  0.6098  0.6639 -0.4787
 7541SOL    HW134259   0.607   0.427   4.741  0.0721  1.4016 -1.4944
 7541SOL    HW234260   0.645   0.559   4.690 -2.4576 -0.9554 -0.7706
 7542SOL     OW34261   1.094   0.755  13.927 -0.1893 -0.0845 -0.7275
 7542SOL    HW134262   1.172   0.701  13.914 -0.1581 -0.4944  1.1656
 7542SOL    HW234263   1.142   0.822  13.976 -0.7595  0.6846 -1.2212
 7543SOL     OW34264   3.448   1.911   0.237  0.0025 -0.2140 -0.4458
 7543SOL    HW134265   3.420   2.001   0.251 -2.0010 -0.6963 -1.3589
 7543SOL    HW234266   3.407   1.890   0.153 -0.8909  2.0867 -0.5901
 7544SOL     OW34267   4.346   1.080  12.424  0.2234 -0.0685  0.2963
 7544SOL    HW134268   4.369   0.992  12.397 -0.7015 -0.2618  0.1286
 7544SOL    HW234269   4.413   1.130  12.376 -1.4777 -0.9105 -2.9506
 7545SOL     OW34270   1.978   0.663   7.314  0.0557 -0.1540  0.1103
 7545SOL    HW134271   1.995   0.601   7.244  0.5245  0.7910 -0.6021
 7545SOL    HW234272   1.971   0.747   7.269  2.5615 -0.1175 -0.1926
 7546SOL     OW34273   3.858   0.128   8.093  0.2210 -0.2454  0.2916
 7546SOL    HW134274   3.823   0.217   8.094 -0.0421 -0.3401 -0.5402
 7546SOL    HW234275   3.946   0.151   8.061 -0.1360  3.3236  1.8546
 7547SOL     OW34276   0.680   4.383   5.612 -0.1303  0.3415 -0.2517
 7547SOL    HW134277   0.637   4.361   5.695 -1.5328  2.8651 -0.3000
 7547SOL    HW234278   0.619   4.443   5.569 -0.3768  1.7960  2.0646
 7548SOL     OW34279   1.364   1.256   7.062  1.3508 -0.2084 -0.5591
 7548SOL    HW134280   1.313   1.211   7.129 -0.3402  1.6036 -0.6224
 7548SOL    HW234281   1.331   1.209   6.986 -2.9674 -0.7538  1.6156
 7549SOL     OW34282   0.775   0.927  15.349  0.2048  0.1490 -0.1457
 7549SOL    HW134283   0.749   0.922  15.257 -0.6696 -3.7162  0.3187
 7549SOL    HW234284   0.844   0.861  15.352  0.2219  0.1708 -0.0699
 7550SOL     OW34285   4.533   0.361   1.208 -0.2466 -0.1654  0.8293
 7550SOL    HW134286   4.464   0.307   1.247  0.7677 -1.0322  1.4029
 7550SOL    HW234287   4.616   0.334   1.246  0.6508  0.6705 -0.5477
 7551SOL     OW34288   3.561   2.037   6.206  0.5807 -0.0455 -0.4267
 7551SOL    HW134289   3.528   2.020   6.294  0.0473  1.6627 -0.3056
 7551SOL    HW234290   3.654   2.049   6.220  0.5833 -0.4760 -0.0555
 7552SOL     OW34291   3.009   1.114   6.983 -0.0572  0.3247 -0.0984
 7552SOL    HW134292   3.060   1.167   6.922 -0.4853 -0.8862 -1.4979
 7552SOL    HW234293   2.994   1.037   6.928  2.2533  0.2987 -0.7087
 7553SOL     OW34294   0.382   2.267   2.181 -0.4498  0.0180  0.0853
 7553SOL    HW134295   0.458   2.324   2.190 -1.1045  0.8506  0.2793
 7553SOL    HW234296   0.396   2.232   2.093 -0.4586 -1.6848  0.7454
 7554SOL     OW34297   3.890   2.505   2.431 -0.0499  0.4478  0.3630
 7554SOL    HW134298   3.911   2.472   2.519 -1.0342 -2.1818 -0.4040
 7554SOL    HW234299   3.981   2.529   2.412 -0.0842  0.7697  0.6080
 7555SOL     OW34300   0.697   3.205  13.961  0.4657  0.1413  0.5753
 7555SOL    HW134301   0.721   3.128  14.013 -0.1768  1.1375  2.3592
 7555SOL    HW234302   0.777   3.257  13.950 -0.7977  1.7477 -0.9776
 7556SOL     OW34303   3.160   1.226   9.410  0.0753  0.2893  0.4780
 7556SOL    HW134304   3.179   1.311   9.449  0.2308 -0.2624  1.5857
 7556SOL    HW234305   3.077   1.231   9.362  0.3677  0.2341 -0.0327
 7557SOL     OW34306   0.426   2.051   8.543 -0.3428  0.2191  0.2208
 7557SOL    HW134307   0.433   2.104   8.623  0.3887  0.0227  0.2814
 7557SOL    HW234308   0.517   2.038   8.519 -0.8167 -4.0352  0.7242
 7558SOL     OW34309   1.490   3.011   8.217 -0.2227  0.3809  0.3546
 7558SOL    HW134310   1.395   3.008   8.206 -0.1528 -0.0912 -0.1139
 7558SOL    HW234311   1.515   2.987   8.127 -1.3759 -1.6187  0.5702
 7559SOL     OW34312   3.950   1.098   0.686  0.4549 -0.6213  0.5201
 7559SOL    HW134313   3.961   1.130   0.776 -0.2131  0.9261  0.0540
 7559SOL    HW234314   3.898   1.019   0.695  0.0106 -0.4295 -0.3712
 7560SOL     OW34315   0.905   0.499   7.641 -0.1924  0.1984  0.0200
 7560SOL    HW134316   0.963   0.561   7.685 -0.9528  0.0610  1.2172
 7560SOL    HW234317   0.856   0.559   7.585  1.3560  0.3115 -1.1998
 7561SOL     OW34318   2.503   0.745  13.425 -0.1588 -0.2940 -0.4140
 7561SOL    HW134319   2.416   0.709  13.441  0.2313 -0.9502  0.1980
 7561SOL    HW234320   2.527   0.807  13.494  1.3118 -1.1656 -0.1516
 7562SOL     OW34321   4.041   2.458   5.581  0.1288  0.7438 -0.2771
 7562SOL    HW134322   4.030   2.413   5.497 -0.2487  0.4047 -0.0468
 7562SOL    HW234323   3.960   2.439   5.628 -0.9231  0.1901 -2.3158
 7563SOL     OW34324   1.470   1.292   3.661  0.1946  0.0229 -0.3984
 7563SOL    HW134325   1.434   1.316   3.746 -0.0976 -1.0092 -0.2325
 7563SOL    HW234326   1.560   1.324   3.667  0.4098 -0.5174 -0.6771
 7564SOL     OW34327   0.607   2.787   1.884  0.0389  0.3917 -1.0044
 7564SOL    HW134328   0.576   2.814   1.797 -0.5979  0.1223 -0.8657
 7564SOL    HW234329   0.570   2.698   1.882 -1.0739  0.8966 -3.7364
 7565SOL     OW34330   4.003   0.406  16.981 -0.4285 -0.5233 -0.3016
 7565SOL    HW134331   3.972   0.475  16.922  0.6523  0.4683  0.2788
 7565SOL    HW234332   3.982   0.323  16.939 -0.5190 -1.2862  1.2354
 7566SOL     OW34333   2.258   3.225  11.288  0.1118  0.2287  0.1889
 7566SOL    HW134334   2.348   3.234  11.320  0.9691  0.6612 -2.3346
 7566SOL    HW234335   2.220   3.180  11.363 -3.6359  0.7480 -1.3888
 7567SOL     OW34336   3.238   1.003   5.762 -0.3503  0.2129  0.4552
 7567SOL    HW134337   3.183   0.940   5.716 -0.7568  1.3362 -0.5798
 7567SOL    HW234338   3.261   1.063   5.692  1.9827  0.6613  1.5926
 7568SOL     OW34339   1.885   3.008   4.558  0.2200 -0.4314 -0.4322
 7568SOL    HW134340   1.881   2.994   4.653  0.9557 -1.8298 -0.6016
 7568SOL    HW234341   1.794   2.990   4.533 -0.7986  1.9903  1.5976
 7569SOL     OW34342   3.882   0.335   6.666  0.1307  0.0529  0.2164
 7569SOL    HW134343   3.886   0.346   6.761  1.6558  1.5541 -0.0038
 7569SOL    HW234344   3.811   0.390   6.633  1.3366  1.4422 -0.0755
 7570SOL     OW34345   2.945   3.496   8.158 -0.3387 -0.7507  0.2632
 7570SOL    HW134346   2.859   3.465   8.185 -0.8805 -0.2952 -0.9178
 7570SOL    HW234347   2.965   3.554   8.231 -1.9246  0.7123 -0.4459
 7571SOL     OW34348   4.000   2.505   7.708 -0.3484  0.5269  0.2244
 7571SOL    HW134349   3.982   2.524   7.800 -0.2378 -0.9345  0.5497
 7571SOL    HW234350   3.976   2.414   7.690  0.9798 -0.0431  1.2565
 7572SOL     OW34351   0.060   1.449   4.572  0.2767 -0.1621 -0.1818
 7572SOL    HW134352   0.133   1.505   4.599  1.6390 -1.1871 -1.7070
 7572SOL    HW234353   0.071   1.381   4.639 -0.3872 -0.9208 -0.8466
 7573SOL     OW34354   0.472   1.187   2.035  0.1483  0.4195 -0.2556
 7573SOL    HW134355   0.396   1.168   2.089 -0.0466  0.8089 -0.3913
 7573SOL    HW234356   0.519   1.104   2.044  0.5920  0.5778 -1.1280
 7574SOL     OW34357   1.949   2.664   8.334 -0.0401 -0.4545 -0.2027
 7574SOL    HW134358   2.044   2.669   8.344 -0.3008 -1.0134  2.4555
 7574SOL    HW234359   1.941   2.711   8.251  3.1480 -0.8431 -0.7203
 7575SOL     OW34360   3.904   2.847   6.301  0.1878 -0.3402 -0.1298
 7575SOL    HW134361   3.860   2.926   6.333 -1.1538 -0.4119 -1.7865
 7575SOL    HW234362   3.851   2.776   6.338  0.8346 -0.1355  1.2028
 7576SOL     OW34363   4.292   4.561   7.725  0.4785  0.5948  0.0794
 7576SOL    HW134364   4.196   4.562   7.715  0.4417  0.7341  0.4267
 7576SOL    HW234365   4.309   4.628   7.791  1.7066 -0.0970  0.4635
 7577SOL     OW34366   2.788   3.739  13.421 -0.7194 -0.3543 -0.6121
 7577SOL    HW134367   2.875   3.776  13.412 -0.4176 -0.9305 -0.1009
 7577SOL    HW234368   2.744   3.809  13.468  0.3571  0.1642 -0.3910
 7578SOL     OW34369   3.039   3.416   9.958 -0.2994 -0.3458 -0.3574
 7578SOL    HW134370   2.992   3.354  10.014  0.6859 -2.1517 -1.4992
 7578SOL    HW234371   3.128   3.400   9.991 -0.1009  0.0390 -0.7011
 7579SOL     OW34372   0.143   0.997   6.156 -0.2935 -0.6974 -0.3817
 7579SOL    HW134373   0.082   1.067   6.180  2.3631  1.9141 -1.2847
 7579SOL    HW234374   0.077   0.939   6.118  0.7655 -1.2800 -1.3226
 7580SOL     OW34375   2.288   4.658   7.963  0.3786 -0.1001  0.1587
 7580SOL    HW134376   2.347   4.733   7.956  0.5991 -0.2565  0.3325
 7580SOL    HW234377   2.207   4.687   7.921 -0.2091 -0.0758  1.2924
 7581SOL     OW34378   2.195   2.330  12.250 -0.5132  0.3430 -0.1657
 7581SOL    HW134379   2.182   2.420  12.222 -1.3250  0.4242  0.4629
 7581SOL    HW234380   2.127   2.301  12.311  0.4636 -1.9223 -0.1308
 7582SOL     OW34381   1.674   2.561   9.024  0.2271 -0.2253  0.1091
 7582SOL    HW134382   1.620   2.561   8.945  0.5713  1.7348 -0.1102
 7582SOL    HW234383   1.612   2.519   9.084  1.3884 -1.1066  0.6918
 7583SOL     OW34384   0.361   0.263   2.908 -0.1038  0.1550 -0.2658
 7583SOL    HW134385   0.436   0.217   2.945 -1.4852 -0.8011  1.3321
 7583SOL    HW234386   0.324   0.206   2.840 -0.8639  0.6770 -0.2888
 7584SOL     OW34387   1.091   1.644   6.666  0.1302  0.1188 -0.6745
 7584SOL    HW134388   1.077   1.568   6.722  3.1634 -0.3661 -0.5650
 7584SOL    HW234389   1.187   1.646   6.656 -0.1022  0.6606 -2.7584
 7585SOL     OW34390   1.747   2.293  10.741  0.1953  0.3336  0.5425
 7585SOL    HW134391   1.831   2.276  10.785 -0.7665 -4.3219  0.5281
 7585SOL    HW234392   1.763   2.272  10.649 -0.7469  2.1799 -0.0350
 7586SOL     OW34393   1.099   4.283   5.092 -0.6855 -0.0952 -0.8631
 7586SOL    HW134394   1.046   4.214   5.053 -2.1556  0.3323  0.3651
 7586SOL    HW234395   1.102   4.350   5.024 -0.2323 -1.1431 -1.8795
 7587SOL     OW34396   1.209   0.397  17.519 -0.0668  0.0768 -0.8859
 7587SOL    HW134397   1.114   0.407  17.525 -0.3180 -1.8797 -1.3783
 7587SOL    HW234398   1.249   0.482  17.532 -0.2547  0.5227 -3.1025
 7588SOL     OW34399   1.976   0.126   3.460 -0.1835  0.1422  0.1531
 7588SOL    HW134400   1.912   0.135   3.530 -2.1791 -0.7057 -1.5864
 7588SOL    HW234401   2.042   0.064   3.492 -0.8722  0.8005  2.8412
 7589SOL     OW34402   1.117   1.415  17.340  0.6293  0.9300 -0.5083
 7589SOL    HW134403   1.183   1.453  17.282 -1.3543  2.4500 -1.7366
 7589SOL    HW234404   1.146   1.453  17.424  0.8789 -3.2880  1.2936
 7590SOL     OW34405   0.377   1.436   6.916 -0.3095  0.5552 -0.1197
 7590SOL    HW134406   0.435   1.471   6.984  0.0415 -1.3146  0.5316
 7590SOL    HW234407   0.406   1.345   6.913  1.2713  1.1104 -1.6716
 7591SOL     OW34408   1.184   3.400   9.611 -0.2742 -0.2582  0.0475
 7591SOL    HW134409   1.093   3.429   9.615  0.0830  0.8500  0.2372
 7591SOL    HW234410   1.224   3.430   9.693 -0.5647  0.0431  0.0800
 7592SOL     OW34411   4.151   2.078  14.247  0.1832 -0.0926  0.3829
 7592SOL    HW134412   4.171   1.990  14.213 -0.9783 -0.3151  0.2788
 7592SOL    HW234413   4.232   2.086  14.298  0.4062  1.4451 -0.2063
 7593SOL     OW34414   3.785   3.613   9.258  0.6561  1.0383  0.0606
 7593SOL    HW134415   3.722   3.678   9.289  0.3970  1.2178 -0.8428
 7593SOL    HW234416   3.827   3.653   9.181  0.8465  3.2445  1.3297
 7594SOL     OW34417   2.380   4.175   0.353 -0.1678  0.1717 -0.3965
 7594SOL    HW134418   2.411   4.110   0.291 -2.2229 -0.0182 -1.2550
 7594SOL    HW234419   2.458   4.207   0.397  0.2626 -0.6344 -0.5878
 7595SOL     OW34420   3.851   3.498   2.349 -0.2511  0.0466 -0.3666
 7595SOL    HW134421   3.863   3.572   2.290  1.2049  0.6107  0.6261
 7595SOL    HW234422   3.931   3.506   2.401  0.5498 -1.9925 -1.2904
 7596SOL     OW34423   3.573   4.680   5.119  0.6195 -0.0766  0.4923
 7596SOL    HW134424   3.645   4.682   5.056 -0.2899  0.9800 -0.5048
 7596SOL    HW234425   3.609   4.623   5.187  0.8446 -0.2341  0.2397
 7597SOL     OW34426   0.703   0.229   6.928  0.4025  0.1672 -0.3584
 7597SOL    HW134427   0.725   0.292   6.997  1.6729 -0.1827 -0.4338
 7597SOL    HW234428   0.608   0.224   6.932  0.4744 -1.0676 -0.2446
 7598SOL     OW34429   4.439   3.408  14.283  0.4323 -0.3314 -0.6507
 7598SOL    HW134430   4.421   3.493  14.243  1.0225 -0.2187 -0.6771
 7598SOL    HW234431   4.393   3.351  14.221 -0.8831  0.2407 -0.1921
 7599SOL     OW34432   2.582   3.677   4.900 -0.6001 -0.4097  0.6558
 7599SOL    HW134433   2.638   3.637   4.833  2.4214 -1.4899  3.7922
 7599SOL    HW234434   2.611   3.621   4.972 -0.3587 -0.0727  0.8248
 7600SOL     OW34435   2.303   2.561   3.151 -0.1717 -0.1486 -0.0342
 7600SOL    HW134436   2.372   2.622   3.177 -0.4029 -0.0726  0.4139
 7600SOL    HW234437   2.337   2.473   3.169  0.0695  0.0140  0.3095
 7601SOL     OW34438   0.033   0.161   0.952  0.4324 -0.2724  0.6638
 7601SOL    HW134439   4.690   0.146   0.994  0.4298 -2.4552 -0.1453
 7601SOL    HW234440   0.073   0.074   0.949 -1.9608 -1.3309 -0.1606
 7602SOL     OW34441   3.406   2.267   0.803  0.8597 -0.2728 -0.5678
 7602SOL    HW134442   3.344   2.280   0.874  1.0904  0.5398 -0.5173
 7602SOL    HW234443   3.443   2.355   0.792  1.0320 -0.0454  1.8209
 7603SOL     OW34444   4.048   4.197   5.723 -0.2691  0.1599 -1.0586
 7603SOL    HW134445   4.010   4.235   5.644  2.3823  0.3519 -2.2407
 7603SOL    HW234446   4.003   4.113   5.725  1.6525 -0.7984  1.7090
 7604SOL     OW34447   2.650   3.143   9.885  0.5643 -0.1121 -0.4524
 7604SOL    HW134448   2.574   3.157   9.942  1.9391  0.1414  1.3118
 7604SOL    HW234449   2.614   3.100   9.808 -0.7519 -2.0569  1.2337
 7605SOL     OW34450   4.099   0.896   1.598  0.6773  0.3710 -0.1451
 7605SOL    HW134451   4.058   0.850   1.525  1.9306 -1.8617  0.5473
 7605SOL    HW234452   4.182   0.918   1.555  0.9851  0.3693  0.4417
 7606SOL     OW34453   2.434   1.038   4.359  0.1502  0.6290 -0.6243
 7606SOL    HW134454   2.514   0.988   4.376  0.5857  1.6810  0.4050
 7606SOL    HW234455   2.370   0.970   4.379  0.6389  0.7915  1.5019
 7607SOL     OW34456   3.345   2.164   6.896  0.1197  1.1438  0.0452
 7607SOL    HW134457   3.415   2.182   6.958  0.1042  1.4294 -0.0212
 7607SOL    HW234458   3.310   2.253   6.898  0.7105  1.3490  1.4478
 7608SOL     OW34459   1.329   0.949   3.047  0.3069 -0.4278  0.4480
 7608SOL    HW134460   1.371   0.882   3.101  0.5242 -0.3478  0.3794
 7608SOL    HW234461   1.248   0.952   3.099 -1.6422  1.3304 -2.6768
 7609SOL     OW34462   4.035   3.880   0.628  0.1749 -0.0768  0.9363
 7609SOL    HW134463   3.969   3.928   0.678 -0.3203  1.2288 -1.0068
 7609SOL    HW234464   3.993   3.795   0.617  0.8928 -0.1297 -1.2921
 7610SOL     OW34465   0.989   4.548   8.138  0.1147  0.1025 -0.0539
 7610SOL    HW134466   1.067   4.602   8.125  0.4487  0.1614  2.1527
 7610SOL    HW234467   0.983   4.557   8.233 -1.3543  0.2924 -0.1653
 7611SOL     OW34468   2.717   4.078   4.997  0.1380  0.6197  0.1679
 7611SOL    HW134469   2.630   4.050   5.025  1.2558 -2.1998  0.7679
 7611SOL    HW234470   2.699   4.172   4.990  0.2768  0.6597  0.3441
 7612SOL     OW34471   2.839   1.576   8.834  0.1565  0.1933  0.2115
 7612SOL    HW134472   2.822   1.552   8.743  1.8597  0.5357 -0.1861
 7612SOL    HW234473   2.891   1.501   8.863  0.0446  0.4189  1.0149
 7613SOL     OW34474   2.297   4.079  15.171 -0.1514 -0.1539 -0.0532
 7613SOL    HW134475   2.327   4.023  15.100 -3.4007 -2.9544  0.7699
 7613SOL    HW234476   2.321   4.018  15.241  2.3719  0.2696 -0.5584
 7614SOL     OW34477   3.797   4.193  14.013 -0.8088  0.4821  0.2436
 7614SOL    HW134478   3.892   4.198  14.024 -0.8916 -0.5552  1.4428
 7614SOL    HW234479   3.802   4.196  13.917 -0.8513 -0.8384  0.1926
 7615SOL     OW34480   2.056   3.462  12.912  0.4971  0.3290  0.5419
 7615SOL    HW134481   2.148   3.489  12.922  0.1920  1.2303  0.9925
 7615SOL    HW234482   2.019   3.515  12.983  0.9727 -0.8185  1.6472
 7616SOL     OW34483   1.393   0.570   5.266  0.2579 -0.0798 -0.2200
 7616SOL    HW134484   1.463   0.592   5.328  0.1202 -1.5802  0.4630
 7616SOL    HW234485   1.384   0.652   5.217 -0.0673  0.3301  0.5266
 7617SOL     OW34486   2.626   0.752   6.289  0.7052 -0.0023 -0.5012
 7617SOL    HW134487   2.569   0.693   6.340  0.7041 -0.1109 -0.6285
 7617SOL    HW234488   2.572   0.830   6.279  0.6339 -0.0387 -0.3999
 7618SOL     OW34489   3.518   3.245   6.457  0.0179  0.4221  0.3592
 7618SOL    HW134490   3.506   3.287   6.542  0.1117  3.6301 -1.2174
 7618SOL    HW234491   3.581   3.175   6.477 -1.6169 -0.8540  1.0730
 7619SOL     OW34492   3.903   2.133  14.207 -0.1080 -0.3342 -0.2944
 7619SOL    HW134493   3.995   2.119  14.230 -0.2501 -1.4079 -0.3732
 7619SOL    HW234494   3.919   2.137  14.113  0.8984  3.8370  0.0816
 7620SOL     OW34495   4.359   3.655   6.551 -0.4072  0.1279 -0.1555
 7620SOL    HW134496   4.309   3.604   6.615  0.4322 -0.0906  0.3151
 7620SOL    HW234497   4.347   3.744   6.582 -3.7889 -1.0619  2.0215
 7621SOL     OW34498   4.524   0.430   7.466 -0.4621 -0.7006 -0.4865
 7621SOL    HW134499   4.590   0.377   7.422  0.2199  1.1771 -1.7066
 7621SOL    HW234500   4.584   0.491   7.508 -0.8284 -0.9425  0.3826
 7622SOL     OW34501   3.097   1.896   2.290 -0.1789  0.1604 -0.1380
 7622SOL    HW134502   3.169   1.902   2.353  0.7434 -1.2584 -1.0354
 7622SOL    HW234503   3.026   1.921   2.349 -0.1378  0.9608 -0.4289
 7623SOL     OW34504   0.414   0.768  14.664 -0.2017  0.2314 -0.2865
 7623SOL    HW134505   0.413   0.850  14.615  1.8049 -0.2993 -1.2430
 7623SOL    HW234506   0.497   0.724  14.643  0.3812  0.4145  1.6492
 7624SOL     OW34507   3.834   2.430   5.760  0.4128 -0.3300  0.1087
 7624SOL    HW134508   3.817   2.363   5.826 -0.7257 -1.0883 -0.9721
 7624SOL    HW234509   3.873   2.494   5.821  0.6290  0.8022 -1.2187
 7625SOL     OW34510   4.618   1.192   1.912 -0.3843  0.3171  0.1421
 7625SOL    HW134511   4.534   1.157   1.942 -0.5654  1.5063  1.0372
 7625SOL    HW234512   4.613   1.281   1.949 -0.9028  0.4706 -0.2908
 7626SOL     OW34513   3.360   2.664   5.403  0.0040 -0.0381 -0.7458
 7626SOL    HW134514   3.432   2.659   5.341 -0.0846  1.8450 -1.0120
 7626SOL    HW234515   3.367   2.756   5.430 -1.2031 -0.1913  0.1203
 7627SOL     OW34516   2.943   3.597   7.906 -0.0973  0.2087 -0.4180
 7627SOL    HW134517   2.933   3.504   7.887  0.1723  0.4084 -1.5122
 7627SOL    HW234518   2.952   3.575   7.999  0.2718 -1.0704 -0.7611
 7628SOL     OW34519   4.382   2.138   9.263  0.0333  0.2370  0.3657
 7628SOL    HW134520   4.326   2.113   9.337  0.4310  0.1622  0.6382
 7628SOL    HW234521   4.329   2.213   9.236 -3.1057 -1.4440  1.8011
 7629SOL     OW34522   1.032   1.894   8.225  0.3826 -0.1736 -0.3919
 7629SOL    HW134523   1.110   1.948   8.213  1.3833 -1.5878 -0.1410
 7629SOL    HW234524   0.965   1.958   8.202 -2.1762 -2.0648  1.7895
 7630SOL     OW34525   1.354   3.742   8.576 -0.2729  0.4508  0.4513
 7630SOL    HW134526   1.398   3.679   8.519 -3.4456 -1.7437  0.4163
 7630SOL    HW234527   1.411   3.735   8.652 -2.1279  1.3499  1.9077
 7631SOL     OW34528   0.265   1.187  15.301 -0.3738  0.1229 -0.4435
 7631SOL    HW134529   0.321   1.158  15.229 -1.3825 -2.4243 -0.1895
 7631SOL    HW234530   0.185   1.134  15.296 -0.9918  0.9954  0.1414
 7632SOL     OW34531   2.831   2.797  12.936  0.2619  0.2746  0.3157
 7632SOL    HW134532   2.775   2.785  13.013 -0.5853  2.1917 -0.0016
 7632SOL    HW234533   2.912   2.757  12.967  0.6195  0.7914  0.0383
 7633SOL     OW34534   2.766   2.900   5.955 -0.2787 -0.5570 -0.7238
 7633SOL    HW134535   2.700   2.947   5.904  0.5343  1.8154  0.4132
 7633SOL    HW234536   2.764   2.807   5.931  0.9167 -0.4619 -1.2348
 7634SOL     OW34537   3.344   0.239   1.835  0.0054 -0.2222  0.1099
 7634SOL    HW134538   3.270   0.183   1.812  1.1845 -1.4544 -0.6535
 7634SOL    HW234539   3.403   0.181   1.882  0.4514 -0.5935 -0.9118
 7635SOL     OW34540   3.106   2.875   4.593 -0.2234  0.1674  0.2412
 7635SOL    HW134541   3.131   2.888   4.501  2.3425 -1.9933  0.6280
 7635SOL    HW234542   3.114   2.968   4.614  2.0081  0.0840 -0.2590
 7636SOL     OW34543   0.904   0.632   4.688  0.0269  0.2855  1.2807
 7636SOL    HW134544   0.831   0.600   4.741 -0.8298  0.5812  0.2629
 7636SOL    HW234545   0.914   0.562   4.623 -2.2122  1.7061 -0.5839
 7637SOL     OW34546   2.020   0.650   6.247 -0.1410  0.5394  0.4053
 7637SOL    HW134547   2.050   0.705   6.175  0.2256 -1.0975 -0.6887
 7637SOL    HW234548   2.102   0.603   6.258 -1.3348 -1.3376  1.3286
 7638SOL     OW34549   3.550   0.018   7.078  0.1691  0.6855  0.3358
 7638SOL    HW134550   3.470   0.055   7.116 -0.3454 -0.0802 -0.0005
 7638SOL    HW234551   3.526   0.020   6.986  1.1442 -0.5158  0.0540
 7639SOL     OW34552   2.372   2.702   3.805 -0.0888 -0.2859 -0.0904
 7639SOL    HW134553   2.350   2.619   3.764 -0.4547 -0.5570  0.6570
 7639SOL    HW234554   2.295   2.756   3.787 -0.8077 -0.0398  3.7335
 7640SOL     OW34555   1.320   0.727   4.567  0.5971 -0.3816  0.2732
 7640SOL    HW134556   1.270   0.689   4.640 -1.4154  2.6402  0.4763
 7640SOL    HW234557   1.344   0.809   4.609 -1.8504  1.6652 -2.3117
 7641SOL     OW34558   2.697   3.794   5.493 -0.0447  0.0156 -0.2828
 7641SOL    HW134559   2.686   3.722   5.556  3.8914 -0.0890  0.2969
 7641SOL    HW234560   2.744   3.752   5.422  1.0199  0.5203  0.1212
 7642SOL     OW34561   1.021   1.210   7.008 -0.3521  0.5409 -0.3996
 7642SOL    HW134562   0.935   1.171   6.991  0.3322 -0.9318 -0.4998
 7642SOL    HW234563   1.006   1.243   7.097  0.4238 -0.6580  0.1908
 7643SOL     OW34564   0.161   3.744   4.151  0.0565  0.2257 -0.2099
 7643SOL    HW134565   0.089   3.739   4.214 -0.0777  1.1177 -0.2897
 7643SOL    HW234566   0.227   3.693   4.197  1.0477  0.9927 -0.7623
 7644SOL     OW34567   2.419   3.329   0.516  0.3335 -0.6441 -0.5502
 7644SOL    HW134568   2.512   3.309   0.508 -0.1135 -3.2160  0.4109
 7644SOL    HW234569   2.381   3.302   0.432 -0.4067 -1.1504 -0.0624
 7645SOL     OW34570   3.802   2.354   3.774 -0.7129  0.1348 -0.1313
 7645SOL    HW134571   3.736   2.339   3.706 -0.3698 -0.7236 -0.2777
 7645SOL    HW234572   3.814   2.449   3.780  0.9306 -0.0347 -0.6669
 7646SOL     OW34573   4.339   4.141   4.081  0.6318 -0.3029 -0.6612
 7646SOL    HW134574   4.403   4.183   4.138 -0.0577 -1.4879  0.9980
 7646SOL    HW234575   4.301   4.217   4.037  0.4481 -0.2302 -0.3753
 7647SOL     OW34576   3.893   3.993  12.793  0.0461 -0.3449 -0.1678
 7647SOL    HW134577   3.986   4.012  12.795  0.0947 -0.4550 -1.7294
 7647SOL    HW234578   3.886   3.929  12.864  0.9972  0.4709  0.6464
 7648SOL     OW34579   2.952   1.731   8.064  0.8700  0.5595  0.1102
 7648SOL    HW134580   2.954   1.769   7.976 -0.8315 -1.7831 -0.9220
 7648SOL    HW234581   2.883   1.669   8.043  1.1569 -0.2343  1.5391
 7649SOL     OW34582   2.539   0.356   6.594  0.1014  0.4441 -0.7389
 7649SOL    HW134583   2.453   0.314   6.586 -0.3438  0.8592  1.7443
 7649SOL    HW234584   2.585   0.275   6.614  0.1696  1.2587  2.5388
 7650SOL     OW34585   2.703   0.478  15.656 -0.1394 -0.4346  0.3049
 7650SOL    HW134586   2.769   0.408  15.658 -0.2466 -0.5130  1.0124
 7650SOL    HW234587   2.758   0.549  15.622  1.5059 -1.2727  1.1935
 7651SOL     OW34588   4.213   2.037   5.955 -0.1466 -0.6308  0.3911
 7651SOL    HW134589   4.304   2.010   5.967 -0.1158 -0.0135  1.5914
 7651SOL    HW234590   4.202   2.030   5.860 -0.1060  2.4609  0.1473
 7652SOL     OW34591   2.173   3.306   8.692  0.0285  0.0741 -0.5459
 7652SOL    HW134592   2.195   3.228   8.742  2.4749  1.7598  1.0476
 7652SOL    HW234593   2.221   3.377   8.735  1.5793 -1.6635  0.5896
 7653SOL     OW34594   4.256   3.398   4.860 -0.2140 -0.0038  0.5365
 7653SOL    HW134595   4.221   3.324   4.909  0.9307  0.1544  1.5845
 7653SOL    HW234596   4.181   3.457   4.856  0.4452  0.7464 -1.1237
 7654SOL     OW34597   2.593   1.014   0.250  0.1552 -0.0572 -0.2471
 7654SOL    HW134598   2.672   0.981   0.206 -0.6297 -2.2083 -0.0378
 7654SOL    HW234599   2.575   1.091   0.196 -0.3491 -0.9467 -1.3396
 7655SOL     OW34600   3.400   2.200   9.813  0.6745 -0.0109  0.1730
 7655SOL    HW134601   3.438   2.205   9.726  1.7694  0.0433  0.6542
 7655SOL    HW234602   3.347   2.123   9.793 -1.7307  1.8459 -0.6480
 7656SOL     OW34603   4.146   1.374   0.567 -0.2006  0.0894 -0.3840
 7656SOL    HW134604   4.160   1.286   0.602  0.3449  0.6876  0.9023
 7656SOL    HW234605   4.175   1.435   0.635  1.6461  1.1080 -2.1000
 7657SOL     OW34606   1.908   4.092   8.087 -0.1138  0.0628  0.0788
 7657SOL    HW134607   1.988   4.133   8.054 -0.5234  2.0009  1.5346
 7657SOL    HW234608   1.925   4.104   8.180  0.6920  0.2079 -0.0911
 7658SOL     OW34609   0.547   2.323   6.686 -0.1119  0.0427  0.1532
 7658SOL    HW134610   0.638   2.300   6.671  0.1250  0.3176  1.1713
 7658SOL    HW234611   0.548   2.384   6.760 -0.2602 -0.2431  0.3899
 7659SOL     OW34612   2.481   0.623   5.841 -0.3818 -0.3286 -0.6848
 7659SOL    HW134613   2.428   0.551   5.875  0.9857 -1.6954 -1.4279
 7659SOL    HW234614   2.417   0.647   5.775 -1.5631 -1.1779  0.1543
 7660SOL     OW34615   1.529   2.245  16.674 -0.0455 -0.7194  0.7976
 7660SOL    HW134616   1.459   2.308  16.692 -0.0988  0.0960 -2.1947
 7660SOL    HW234617   1.604   2.304  16.668 -1.3210  0.7215 -1.3550
 7661SOL     OW34618   1.003   3.516   1.587 -0.2262 -0.1907 -0.2190
 7661SOL    HW134619   1.080   3.571   1.571 -0.2936  0.4516  1.6476
 7661SOL    HW234620   1.010   3.455   1.513  0.2334 -1.8248  1.1648
 7662SOL     OW34621   2.258   3.555  10.006  0.3560 -0.2813 -0.1313
 7662SOL    HW134622   2.178   3.578  10.054  0.8148  2.9249 -0.9572
 7662SOL    HW234623   2.226   3.541   9.917  0.3399  0.2057 -0.1993
 7663SOL     OW34624   3.180   2.690   9.853 -0.2075  0.8078 -0.4855
 7663SOL    HW134625   3.207   2.769   9.900 -0.1187  0.5161 -0.0477
 7663SOL    HW234626   3.258   2.646   9.820 -0.1377 -0.1308  0.9408
 7664SOL     OW34627   2.898   1.179   2.619  0.3880  0.5942  0.5841
 7664SOL    HW134628   2.959   1.176   2.546  0.2106  0.3680  0.4449
 7664SOL    HW234629   2.838   1.112   2.587  0.1552  0.0974  2.0582
 7665SOL     OW34630   3.821   2.507   4.619 -0.4647  0.5762  0.0010
 7665SOL    HW134631   3.820   2.523   4.524  4.3544  3.2842  0.3868
 7665SOL    HW234632   3.731   2.479   4.634 -0.5187  1.5867  1.4922
 7666SOL     OW34633   1.951   4.365   4.016  0.4405 -0.3024  0.2528
 7666SOL    HW134634   1.934   4.290   4.074  1.0863 -0.0008  0.8358
 7666SOL    HW234635   2.044   4.386   4.021  0.5275 -0.4409 -0.9099
 7667SOL     OW34636   2.030   3.410   2.270  0.0476 -0.4894 -0.0274
 7667SOL    HW134637   1.991   3.323   2.260  0.5741 -0.6642 -0.5966
 7667SOL    HW234638   2.122   3.384   2.267  0.5398  1.4700 -1.7254
 7668SOL     OW34639   0.830   1.810   7.967 -0.0710 -0.1372 -0.0623
 7668SOL    HW134640   0.827   1.716   7.947 -1.5380 -0.5880  2.2947
 7668SOL    HW234641   0.821   1.845   7.878  1.8540 -1.8758 -0.9404
 7669SOL     OW34642   1.955   3.015  14.916 -0.3326  1.3961  0.0541
 7669SOL    HW134643   1.948   3.075  14.842  1.7349  0.9666 -0.5029
 7669SOL    HW234644   1.872   2.967  14.917 -1.2351  2.9660 -0.1372
 7670SOL     OW34645   3.112   3.628  15.064 -0.0956  0.0123  0.2822
 7670SOL    HW134646   3.150   3.649  15.149 -2.0637 -0.1887  1.2251
 7670SOL    HW234647   3.023   3.659  15.078  0.6796  2.1088  0.5475
 7671SOL     OW34648   3.715   3.572   6.443 -0.2598 -0.2020  0.4430
 7671SOL    HW134649   3.625   3.552   6.414  0.5519 -0.8607 -1.6214
 7671SOL    HW234650   3.710   3.585   6.537 -1.3269 -3.2194  0.8328
 7672SOL     OW34651   1.104   0.046  13.647  0.1667  0.3770 -0.0803
 7672SOL    HW134652   1.143   0.018  13.564  0.8426 -0.7426  0.6067
 7672SOL    HW234653   1.012   0.051  13.622 -0.2713  0.0355  1.4700
 7673SOL     OW34654   4.266   1.246   2.748  0.5120 -0.4594  0.0246
 7673SOL    HW134655   4.193   1.308   2.741  1.2818  0.2625 -1.7318
 7673SOL    HW234656   4.310   1.276   2.828 -2.2081 -1.2452  1.7949
 7674SOL     OW34657   0.420   0.494   5.154 -0.5665 -0.2613  0.5845
 7674SOL    HW134658   0.425   0.587   5.172 -1.2413 -0.4321  1.6294
 7674SOL    HW234659   0.504   0.481   5.111  0.0011  0.9099  1.3430
 7675SOL     OW34660   0.276   1.238  16.952 -0.0911 -0.0858  0.1607
 7675SOL    HW134661   0.333   1.167  16.981  0.2188  0.1051  0.0288
 7675SOL    HW234662   0.327   1.288  16.887 -0.4246  0.4556  0.3146
 7676SOL     OW34663   1.921   4.129   9.286  0.8093 -0.6961  0.0051
 7676SOL    HW134664   1.902   4.173   9.203  1.4681 -0.2633  0.0833
 7676SOL    HW234665   2.014   4.149   9.295  0.6615 -0.9192  1.8876
 7677SOL     OW34666   2.226   0.123   4.440 -0.0226  0.0125  0.3998
 7677SOL    HW134667   2.176   0.197   4.403 -0.5549 -1.3535 -1.6244
 7677SOL    HW234668   2.245   0.149   4.530  0.6550  0.6430  0.0783
 7678SOL     OW34669   1.201   0.398   1.208  0.6141 -0.3904 -0.0686
 7678SOL    HW134670   1.282   0.441   1.232 -0.6511  1.3957  1.0181
 7678SOL    HW234671   1.206   0.315   1.256 -1.1880 -0.6768 -0.3697
 7679SOL     OW34672   0.064   1.148   3.125  0.6282  0.4424  0.9946
 7679SOL    HW134673   0.042   1.094   3.201 -1.2625 -2.7949 -1.8136
 7679SOL    HW234674   0.155   1.120   3.113  0.1623 -1.3318  1.5752
 7680SOL     OW34675   0.837   2.500   1.785  0.1988 -0.2705  0.3880
 7680SOL    HW134676   0.859   2.412   1.814  3.8993  0.2376 -0.9878
 7680SOL    HW234677   0.745   2.476   1.771 -0.0941  1.0197  0.0892
 7681SOL     OW34678   1.017   0.909   5.093  0.3605  0.3286 -0.3236
 7681SOL    HW134679   0.941   0.919   5.150  0.0846 -0.7891 -0.4976
 7681SOL    HW234680   0.969   0.900   5.011  0.2502  2.1485 -0.4662
 7682SOL     OW34681   3.070   4.261   4.966 -0.5844 -0.7346 -0.4567
 7682SOL    HW134682   3.159   4.228   4.950 -0.3380 -0.0794 -0.4652
 7682SOL    HW234683   3.048   4.214   5.047 -0.8881 -0.2293 -0.2416
 7683SOL     OW34684   3.272   3.067   2.975 -0.4387 -0.0947 -0.4408
 7683SOL    HW134685   3.221   3.144   2.952  1.6984  1.7038  0.8569
 7683SOL    HW234686   3.211   2.993   2.973  2.1139 -2.2273 -0.9733
 7684SOL     OW34687   2.196   4.602   2.517  0.0857  0.2360 -0.1293
 7684SOL    HW134688   2.176   4.619   2.425 -1.4963 -0.7894  0.0266
 7684SOL    HW234689   2.187   4.692   2.550  0.3491  0.2574 -0.1216
 7685SOL     OW34690   0.527   1.376   1.294 -0.2355  0.1551 -0.2122
 7685SOL    HW134691   0.601   1.436   1.300 -0.3837  0.0715  2.4887
 7685SOL    HW234692   0.514   1.362   1.388  0.4276  3.2990  0.3636
 7686SOL     OW34693   1.248   2.092  12.718  0.6833 -0.2250  0.0200
 7686SOL    HW134694   1.334   2.072  12.682  1.0853  2.0807 -0.2803
 7686SOL    HW234695   1.270   2.075  12.809  1.9482 -1.5809 -0.5498
 7687SOL     OW34696   3.865   2.303   6.018  0.0541 -0.2117  0.2179
 7687SOL    HW134697   3.789   2.298   6.075 -0.1002  0.1762  0.0476
 7687SOL    HW234698   3.915   2.239   6.068 -1.0854 -0.2801  1.2453
 7688SOL     OW34699   3.016   0.912  10.143 -0.2451  0.1731  0.0650
 7688SOL    HW134700   2.980   0.854  10.076  0.0877  0.5803 -0.4621
 7688SOL    HW234701   3.099   0.927  10.098  0.1413  0.9985  1.0508
 7689SOL     OW34702   0.045   0.642   7.239 -0.1825 -0.2428 -0.0080
 7689SOL    HW134703   4.695   0.670   7.254  1.1679  2.6419  2.5827
 7689SOL    HW234704   0.027   0.548   7.236  2.0289 -0.6425 -0.9474
 7690SOL     OW34705   0.388   3.520   6.267  0.5008  0.5805 -0.1240
 7690SOL    HW134706   0.296   3.495   6.271  0.3547  1.1977  0.3647
 7690SOL    HW234707   0.423   3.439   6.305  1.9942  0.9744 -0.6890
 7691SOL     OW34708   1.055   1.775   3.706  0.1038  0.4398 -0.7300
 7691SOL    HW134709   0.996   1.699   3.706  0.5740  0.0684 -2.5237
 7691SOL    HW234710   1.105   1.755   3.627  0.3851 -1.2263 -0.1336
 7692SOL     OW34711   4.173   4.085   8.574 -0.4166  0.1390  0.5596
 7692SOL    HW134712   4.153   4.178   8.585 -1.0847  0.0892 -0.1746
 7692SOL    HW234713   4.142   4.048   8.656 -1.2865  1.7483  0.9630
 7693SOL     OW34714   2.149   2.370   6.205 -0.3903 -0.0414 -0.1495
 7693SOL    HW134715   2.184   2.456   6.227 -1.1163 -0.7616  3.7240
 7693SOL    HW234716   2.098   2.399   6.129  0.1436 -3.6635 -1.8619
 7694SOL     OW34717   0.158   0.369   1.678  0.2757 -0.0442  0.3304
 7694SOL    HW134718   0.118   0.444   1.632 -1.9637 -1.1396  0.4961
 7694SOL    HW234719   0.250   0.386   1.657  0.7854 -2.5937  0.4850
 7695SOL     OW34720   2.608   1.543   1.770 -0.2817  0.4671 -0.3367
 7695SOL    HW134721   2.528   1.540   1.717  0.3648 -0.7682 -1.2464
 7695SOL    HW234722   2.659   1.610   1.726 -2.2802  0.2782 -2.9789
 7696SOL     OW34723   0.970   3.807   3.795  0.6167  0.0038  0.6780
 7696SOL    HW134724   0.964   3.755   3.875 -0.3670  0.4753  0.9073
 7696SOL    HW234725   1.027   3.758   3.736 -1.9894 -0.9431 -1.0513
 7697SOL     OW34726   2.155   3.386   4.913 -0.5038 -0.4942 -0.6098
 7697SOL    HW134727   2.207   3.330   4.857  4.5216  0.9065  2.6511
 7697SOL    HW234728   2.225   3.433   4.958  0.1791 -0.8939 -1.2779
 7698SOL     OW34729   3.499   4.170   3.167 -0.2765  0.1439 -0.5232
 7698SOL    HW134730   3.474   4.080   3.186  0.3927 -0.2104 -1.3613
 7698SOL    HW234731   3.592   4.165   3.190 -0.5849  1.1141  0.9607
 7699SOL     OW34732   1.526   4.024  17.575 -0.4237  0.2144  0.4279
 7699SOL    HW134733   1.521   4.063  17.488 -2.9646  2.5673  1.6371
 7699SOL    HW234734   1.446   3.973  17.569  0.7204 -1.7267  1.7258
 7700SOL     OW34735   1.650   0.452  11.775  0.1540 -0.0659 -0.0439
 7700SOL    HW134736   1.698   0.382  11.732  1.2696 -0.5807  2.0349
 7700SOL    HW234737   1.603   0.408  11.846 -0.5107 -1.3115 -1.2645
 7701SOL     OW34738   4.260   2.500  17.669 -0.1589  0.4176  0.3380
 7701SOL    HW134739   4.196   2.456  17.724 -0.1914  2.0792  1.6294
 7701SOL    HW234740   4.218   2.586  17.660 -3.6015 -1.6960 -3.6429
 7702SOL     OW34741   3.488   1.344   8.913 -0.2234 -0.1517 -0.0449
 7702SOL    HW134742   3.425   1.397   8.864 -1.6318 -1.8499 -0.0789
 7702SOL    HW234743   3.427   1.291   8.965  2.7656  0.8476  4.4255
 7703SOL     OW34744   2.348   4.477   3.760 -0.2103 -0.0335 -0.0105
 7703SOL    HW134745   2.367   4.410   3.695 -0.0875 -0.0201  0.0109
 7703SOL    HW234746   2.288   4.531   3.708 -0.2685  0.6880  0.7905
 7704SOL     OW34747   2.851   4.253   6.956 -0.4504 -0.2393  0.2874
 7704SOL    HW134748   2.891   4.167   6.946  0.7311  0.0602  2.4592
 7704SOL    HW234749   2.793   4.224   7.027 -1.4046 -0.6618 -0.6738
 7705SOL     OW34750   1.576   1.785   7.249 -0.1778  0.7404 -0.1396
 7705SOL    HW134751   1.538   1.767   7.163  0.1921  0.1892 -0.1877
 7705SOL    HW234752   1.499   1.774   7.305  0.3671  3.5739  1.1583
 7706SOL     OW34753   1.295   3.295   5.414  0.2561 -0.6385  0.3701
 7706SOL    HW134754   1.336   3.367   5.367 -0.3824  0.3588  1.3718
 7706SOL    HW234755   1.284   3.250   5.330 -0.7699  0.2979 -0.0015
 7707SOL     OW34756   4.169   4.731   6.208  0.3352  0.0879 -0.3073
 7707SOL    HW134757   4.226   4.663   6.244  0.4258  0.3029 -0.0507
 7707SOL    HW234758   4.105   4.672   6.167 -0.1053  2.5425 -3.1905
 7708SOL     OW34759   4.439   1.063   9.228 -0.2666  0.3426 -0.5309
 7708SOL    HW134760   4.401   0.997   9.170  1.1920  0.2605 -1.3963
 7708SOL    HW234761   4.530   1.032   9.224  0.1635  1.4661  0.6169
 7709SOL     OW34762   0.795   2.901   4.723  0.3490 -0.7208  0.6022
 7709SOL    HW134763   0.725   2.963   4.741  0.3953 -0.3560 -0.4557
 7709SOL    HW234764   0.754   2.825   4.763 -0.9148  0.5559  1.7324
 7710SOL     OW34765   2.941   1.267   8.140  0.0734  0.3761  0.0618
 7710SOL    HW134766   3.025   1.254   8.184 -1.1117  1.3744  2.5808
 7710SOL    HW234767   2.909   1.179   8.121 -0.7877  1.0895 -1.8059
 7711SOL     OW34768   1.584   4.212   4.447 -0.2748 -0.0134 -0.4463
 7711SOL    HW134769   1.578   4.154   4.372 -0.6855  0.5586 -0.8576
 7711SOL    HW234770   1.569   4.142   4.511 -2.2830 -0.6764 -1.6663
 7712SOL     OW34771   1.855   3.404  16.028  0.1496 -0.2475 -0.2075
 7712SOL    HW134772   1.785   3.459  15.994 -0.0030 -0.3437 -0.0502
 7712SOL    HW234773   1.900   3.371  15.949 -0.2636 -0.5248 -0.3268
 7713SOL     OW34774   1.464   0.230  12.960 -0.5911 -0.5612  0.1738
 7713SOL    HW134775   1.493   0.174  12.887 -1.3264  0.9632 -1.3058
 7713SOL    HW234776   1.506   0.173  13.023  0.9262  0.7897  0.3953
 7714SOL     OW34777   0.711   2.840   1.206 -0.1832  0.0436  0.0688
 7714SOL    HW134778   0.625   2.880   1.196  0.2554  0.8696 -0.3324
 7714SOL    HW234779   0.758   2.872   1.130  1.5239  0.2794  1.2147
 7715SOL     OW34780   3.057   1.406  15.764  0.7568  0.1388 -0.3528
 7715SOL    HW134781   3.043   1.500  15.777  0.0525 -0.1895  1.3441
 7715SOL    HW234782   3.144   1.417  15.726  0.5206  1.0091 -0.6429
 7716SOL     OW34783   3.069   0.467  17.684  0.4123 -0.1347  0.2578
 7716SOL    HW134784   3.132   0.396  17.688 -0.6841 -1.1587 -0.5649
 7716SOL    HW234785   2.994   0.418  17.651 -0.8919  1.6674  0.5118
 7717SOL     OW34786   4.584   0.597   6.117  0.7269 -0.1695 -0.0303
 7717SOL    HW134787   4.564   0.543   6.040  0.3219  0.9417 -0.7101
 7717SOL    HW234788   4.599   0.529   6.183 -1.2826 -0.6888 -0.1235
 7718SOL     OW34789   1.987   4.660   9.716  0.8919 -0.4682 -0.5668
 7718SOL    HW134790   2.060   4.640   9.657 -0.0433 -2.2909 -1.1258
 7718SOL    HW234791   1.924   4.587   9.716  0.6991 -0.3012  0.1748
 7719SOL     OW34792   2.580   2.596   2.630 -0.0167  0.1528 -0.4515
 7719SOL    HW134793   2.588   2.615   2.724  0.0568  0.4769 -0.5211
 7719SOL    HW234794   2.486   2.576   2.630 -0.4296  2.1007 -1.4223
 7720SOL     OW34795   4.111   3.061   8.405 -0.3944 -0.2157 -0.7381
 7720SOL    HW134796   4.080   2.972   8.421  0.8239 -0.8330 -1.8064
 7720SOL    HW234797   4.194   3.058   8.453  0.3741  1.4180 -1.9510
 7721SOL     OW34798   1.178   2.790   9.473 -0.3829  0.3438 -0.0394
 7721SOL    HW134799   1.190   2.697   9.453 -1.5066  0.1039  0.4192
 7721SOL    HW234800   1.178   2.827   9.385 -0.5009 -1.0089 -0.6001
 7722SOL     OW34801   2.808   3.600   1.992  0.1951  0.2573  0.0623
 7722SOL    HW134802   2.722   3.641   2.001 -0.0229 -0.1047 -0.3346
 7722SOL    HW234803   2.780   3.509   1.979  2.5023 -0.5168  0.6401
 7723SOL     OW34804   4.050   4.532   1.157  0.1006  0.1248  0.4074
 7723SOL    HW134805   4.112   4.559   1.225  0.4384  0.8592 -0.1901
 7723SOL    HW234806   4.099   4.458   1.122  0.6105  0.2672  0.8234
 7724SOL     OW34807   4.487   0.521   9.921  0.2638  0.6409 -0.3922
 7724SOL    HW134808   4.517   0.457   9.984 -1.9581  1.2538  1.2838
 7724SOL    HW234809   4.414   0.554   9.974 -1.9886 -1.5290 -2.1613
 7725SOL     OW34810   1.831   4.115   2.755 -0.6740 -0.4071  0.3538
 7725SOL    HW134811   1.824   4.169   2.834 -0.9088 -2.9226  2.0688
 7725SOL    HW234812   1.868   4.180   2.696 -0.9326  0.1929  0.8531
 7726SOL     OW34813   3.405   2.978  11.535  0.4683  0.0658  0.3138
 7726SOL    HW134814   3.355   2.896  11.530  2.4993 -1.2166  0.8618
 7726SOL    HW234815   3.346   3.053  11.533 -0.6927 -0.8404  0.0486
 7727SOL     OW34816   1.353   1.386   3.926 -0.3312  0.8074  0.6674
 7727SOL    HW134817   1.365   1.310   3.983  0.0728 -0.9481 -1.7532
 7727SOL    HW234818   1.416   1.451   3.957  0.7348 -0.3834  1.0355
 7728SOL     OW34819   3.288   1.016  11.031  0.3571 -0.1754  0.2935
 7728SOL    HW134820   3.263   1.051  11.116 -0.1990 -0.0532  0.0767
 7728SOL    HW234821   3.198   1.005  11.001 -0.0058  2.2414  0.5521
 7729SOL     OW34822   3.663   1.313   2.991 -0.1100  0.1063  0.5172
 7729SOL    HW134823   3.663   1.371   2.915 -2.0013 -1.6272 -0.7843
 7729SOL    HW234824   3.650   1.228   2.950  1.4171 -0.3493  0.9576
 7730SOL     OW34825   3.605   2.599   2.050  0.5898  0.1439 -0.0606
 7730SOL    HW134826   3.527   2.652   2.068  1.1666  1.1409 -0.4952
 7730SOL    HW234827   3.656   2.615   2.129 -0.0239 -3.0494  0.9808
 7731SOL     OW34828   1.476   1.700   3.943 -0.4202  0.1039 -0.2628
 7731SOL    HW134829   1.514   1.762   3.880 -0.5723  0.9581  0.4974
 7731SOL    HW234830   1.385   1.725   3.933 -0.8814 -1.5787 -0.3291
 7732SOL     OW34831   0.368   2.170   0.351 -0.2057  0.1767 -0.4209
 7732SOL    HW134832   0.302   2.104   0.327 -0.1933 -0.9420  2.6426
 7732SOL    HW234833   0.447   2.119   0.330 -0.1147  0.0757  0.1700
 7733SOL     OW34834   0.868   2.374   6.733  0.3108  0.3654 -0.0694
 7733SOL    HW134835   0.938   2.345   6.675 -1.6757 -0.0573 -2.2659
 7733SOL    HW234836   0.896   2.324   6.809  2.4371  1.2389 -0.2690
 7734SOL     OW34837   2.706   0.947  13.261  0.5685  0.5142 -0.1001
 7734SOL    HW134838   2.627   0.914  13.219  2.0996 -1.2124 -1.6052
 7734SOL    HW234839   2.766   0.873  13.258  0.4027  0.3277  1.3132
 7735SOL     OW34840   3.548   0.818  15.198 -0.5373  0.1524 -0.1814
 7735SOL    HW134841   3.474   0.851  15.250 -1.0979 -1.5019  0.0747
 7735SOL    HW234842   3.589   0.754  15.256 -1.7664 -0.8207 -0.3603
 7736SOL     OW34843   2.367   4.079   8.896  0.5840 -0.7329  0.3677
 7736SOL    HW134844   2.277   4.105   8.876  0.2083 -2.0752  0.3275
 7736SOL    HW234845   2.413   4.163   8.894 -0.5995 -0.0935 -0.4217
 7737SOL     OW34846   2.162   2.693   4.696 -0.0193  0.3442 -0.4921
 7737SOL    HW134847   2.223   2.620   4.712 -1.4963 -0.6920  0.3739
 7737SOL    HW234848   2.105   2.687   4.772  2.8911  0.7330  1.7330
 7738SOL     OW34849   0.344   2.296   6.491  0.1316  0.2925  0.0314
 7738SOL    HW134850   0.291   2.225   6.528 -3.2659  2.3031 -0.9318
 7738SOL    HW234851   0.406   2.320   6.559  0.3277 -1.6951  0.5427
 7739SOL     OW34852   4.278   2.940   4.199  0.0243  0.2263  0.2048
 7739SOL    HW134853   4.367   2.930   4.233  0.7808  3.8338 -0.7496
 7739SOL    HW234854   4.274   3.021   4.148  2.4177 -0.1077 -0.5185
 7740SOL     OW34855   2.476   3.300   6.480 -0.2966  0.1137 -0.1448
 7740SOL    HW134856   2.557   3.350   6.470 -0.4495  0.4116  0.1325
 7740SOL    HW234857   2.421   3.376   6.494 -1.7069 -1.1395  1.1576
 7741SOL     OW34858   0.531   0.069  13.701  0.0292  0.6739  0.2848
 7741SOL    HW134859   0.437   0.063  13.682 -0.1322 -0.0885  1.3158
 7741SOL    HW234860   0.557   0.157  13.675 -0.1287 -0.0863 -2.3692
 7742SOL     OW34861   4.195   3.641  15.967 -0.1896 -0.3274 -0.0219
 7742SOL    HW134862   4.156   3.604  16.046 -0.2769 -1.3531 -0.5454
 7742SOL    HW234863   4.173   3.732  15.986 -0.4150 -0.1844 -0.9698
 7743SOL     OW34864   3.721   0.666  14.208 -0.4676 -0.7724  0.0215
 7743SOL    HW134865   3.798   0.684  14.153 -0.3192 -1.2234  0.0836
 7743SOL    HW234866   3.650   0.668  14.144  1.6727 -1.1439 -2.3709
 7744SOL     OW34867   0.653   1.809   8.985 -0.4526 -0.5212 -0.1139
 7744SOL    HW134868   0.617   1.758   9.057  0.2908 -0.5528  0.2394
 7744SOL    HW234869   0.572   1.848   8.952 -1.1395 -2.2333 -0.4447
 7745SOL     OW34870   1.813   2.998   9.541  0.6190 -0.0954  0.3003
 7745SOL    HW134871   1.817   3.079   9.490 -0.5168 -0.3709 -0.2260
 7745SOL    HW234872   1.812   2.931   9.472 -0.2054  0.2148  0.0051
 7746SOL     OW34873   2.984   1.556   2.295  0.0939 -0.1711  0.8405
 7746SOL    HW134874   3.017   1.544   2.384 -0.3613 -2.3113  0.7390
 7746SOL    HW234875   3.065   1.562   2.245  1.2864 -0.1425  2.7835
 7747SOL     OW34876   2.134   1.001   9.262  0.6085 -1.0154  0.3854
 7747SOL    HW134877   2.081   1.005   9.341  0.8978  4.1351  0.3617
 7747SOL    HW234878   2.158   0.910   9.243  0.8084 -1.1342  1.2137
 7748SOL     OW34879   0.641   2.865  14.539  0.1745  0.0210 -0.3284
 7748SOL    HW134880   0.728   2.825  14.533  0.5809  0.9162 -0.4375
 7748SOL    HW234881   0.645   2.901  14.628  0.1848  1.1458 -0.7879
 7749SOL     OW34882   0.558   2.063   3.054  0.0989 -0.9224 -0.2901
 7749SOL    HW134883   0.487   2.053   2.991 -1.0704  0.2783  0.8246
 7749SOL    HW234884   0.524   2.064   3.144  0.5101 -2.4596 -0.1325
 7750SOL     OW34885   0.966   1.873   6.750 -0.7896 -0.0368  0.1122
 7750SOL    HW134886   0.994   1.925   6.675  0.1540 -1.7751 -0.7531
 7750SOL    HW234887   1.009   1.789   6.731 -1.8874 -0.1758 -1.8184
 7751SOL     OW34888   4.038   3.740   8.439  0.0907  0.7413 -0.4103
 7751SOL    HW134889   4.047   3.828   8.404  2.0237  0.5534 -0.3903
 7751SOL    HW234890   4.072   3.740   8.528 -2.7062  1.1365  0.6733
 7752SOL     OW34891   2.455   0.048   5.180  0.3924  0.2893  0.2043
 7752SOL    HW134892   2.410   0.133   5.182  1.3265  0.7618  1.2964
 7752SOL    HW234893   2.491   0.037   5.269 -2.0385  0.2248  1.1836
 7753SOL     OW34894   3.256   0.528   6.537 -0.3873  0.6411 -0.4087
 7753SOL    HW134895   3.162   0.539   6.530 -0.3143  1.2183 -0.5507
 7753SOL    HW234896   3.265   0.433   6.541 -3.0956  0.5217  3.1834
 7754SOL     OW34897   4.612   1.526  17.171 -0.0518  0.4640 -0.2367
 7754SOL    HW134898   4.667   1.454  17.141 -1.4172 -0.8609  0.4544
 7754SOL    HW234899   4.524   1.492  17.184  0.4308  0.3748  2.8434
 7755SOL     OW34900   1.149   0.549   8.660 -0.2142 -1.0120 -0.6182
 7755SOL    HW134901   1.236   0.567   8.625  0.5965 -1.9755  0.8962
 7755SOL    HW234902   1.104   0.631   8.639  0.1403 -0.6080  0.1957
 7756SOL     OW34903   2.675   1.122   6.788  0.5141  0.3648 -0.3431
 7756SOL    HW134904   2.626   1.161   6.861  0.7346 -0.2874  0.1575
 7756SOL    HW234905   2.733   1.056   6.828  0.5536 -0.2282 -1.3858
 7757SOL     OW34906   1.264   3.845   7.769 -0.2989 -0.1337  0.3996
 7757SOL    HW134907   1.190   3.832   7.709  0.6613  2.4499 -1.3763
 7757SOL    HW234908   1.249   3.939   7.784  0.3104  0.2249 -1.2190
 7758SOL     OW34909   1.771   2.282   4.468  0.3030  0.2264 -0.0137
 7758SOL    HW134910   1.863   2.309   4.472  0.0763  0.8965  0.6178
 7758SOL    HW234911   1.721   2.341   4.525 -1.1888  0.6112 -1.7116
 7759SOL     OW34912   3.100   2.166   7.903  0.7724  0.0433 -0.3330
 7759SOL    HW134913   3.014   2.192   7.936  0.1222 -1.9340 -0.4917
 7759SOL    HW234914   3.153   2.246   7.906 -0.8265  1.1351 -0.9308
 7760SOL     OW34915   1.536   2.507   2.975 -0.0194  0.3150  0.6809
 7760SOL    HW134916   1.454   2.556   2.979 -0.6796 -0.7926  0.7143
 7760SOL    HW234917   1.516   2.414   2.984  1.1578  0.1185  1.2710
 7761SOL     OW34918   2.459   3.951   2.506 -0.5341  0.6513  0.5506
 7761SOL    HW134919   2.458   3.898   2.587  1.3162  1.3952  1.0634
 7761SOL    HW234920   2.400   3.897   2.454  2.0661 -0.9530 -0.7303
 7762SOL     OW34921   4.737   1.208   2.727  0.1098 -0.5599 -0.2896
 7762SOL    HW134922   0.041   1.129   2.698 -0.6998 -0.2717 -2.3205
 7762SOL    HW234923   4.684   1.187   2.804  0.8411  0.5337  0.5141
 7763SOL     OW34924   4.341   2.075   1.765  0.2505  0.9340 -0.1297
 7763SOL    HW134925   4.377   2.093   1.678  0.7699  0.3663 -0.0322
 7763SOL    HW234926   4.276   2.007   1.751  0.7205  0.6129 -0.7750
 7764SOL     OW34927   0.051   2.183   5.724 -0.2604  0.0780 -0.4455
 7764SOL    HW134928   0.051   2.264   5.674 -2.5809 -0.0634 -0.7015
 7764SOL    HW234929   4.700   2.187   5.753 -0.1603 -1.0666  0.0113
 7765SOL     OW34930   3.392   2.821  15.453 -0.0743 -0.4450  0.1544
 7765SOL    HW134931   3.340   2.820  15.534  0.0922 -1.5524  0.2371
 7765SOL    HW234932   3.477   2.809  15.494 -0.1525 -0.4064  0.3320
 7766SOL     OW34933   4.147   3.309   7.855  1.1589  0.1567 -0.0889
 7766SOL    HW134934   4.174   3.217   7.852  0.9150  0.0469  1.2348
 7766SOL    HW234935   4.179   3.335   7.768 -0.0832 -0.9368 -0.8712
 7767SOL     OW34936   0.522   0.181  11.348 -0.2835  0.3461 -0.0913
 7767SOL    HW134937   0.476   0.165  11.430 -0.5721  2.5643  0.1845
 7767SOL    HW234938   0.481   0.118  11.288  0.3708  0.0185 -0.1888
 7768SOL     OW34939   3.604   0.419   3.901  0.0796  0.0666 -0.6716
 7768SOL    HW134940   3.530   0.428   3.961  0.6742 -0.7733  0.1746
 7768SOL    HW234941   3.623   0.512   3.885 -2.0137  0.2752 -1.8605
 7769SOL     OW34942   0.117   2.117   7.913 -0.2679  0.5097 -0.0410
 7769SOL    HW134943   0.135   2.023   7.900  0.2142  0.8844 -2.1812
 7769SOL    HW234944   0.026   2.104   7.936 -0.5597  1.0635 -0.8714
 7770SOL     OW34945   0.197   0.734  10.144  0.8693 -0.1152  0.0156
 7770SOL    HW134946   0.278   0.778  10.117  0.8124 -0.0679 -0.0801
 7770SOL    HW234947   0.165   0.671  10.080 -1.0969  1.7275 -0.8098
 7771SOL     OW34948   4.516   1.960  15.447 -0.4026  0.5972  0.3563
 7771SOL    HW134949   4.545   1.944  15.537  0.0274 -0.8301 -0.0232
 7771SOL    HW234950   4.488   1.870  15.426 -0.0587  0.8385 -1.1414
 7772SOL     OW34951   1.771   4.279   2.988 -0.0397  0.5624  0.5521
 7772SOL    HW134952   1.839   4.343   2.967  0.6828 -0.4134 -0.0251
 7772SOL    HW234953   1.805   4.243   3.070  1.5121  0.7206 -0.0270
 7773SOL     OW34954   2.395   3.107  13.757  0.7396 -0.0493  0.2931
 7773SOL    HW134955   2.314   3.056  13.754  1.5329 -1.3809  1.3064
 7773SOL    HW234956   2.427   3.074  13.673  2.5495  0.2011  0.8905
 7774SOL     OW34957   3.513   4.103   1.605 -0.1123 -0.3314  0.0269
 7774SOL    HW134958   3.577   4.034   1.586 -1.0789 -1.1260 -0.3586
 7774SOL    HW234959   3.468   4.058   1.677 -1.6201  2.2934  0.7342
 7775SOL     OW34960   0.547   0.921  12.705  0.4151  0.1299 -0.5790
 7775SOL    HW134961   0.558   1.016  12.709  0.2489  0.0659  1.3104
 7775SOL    HW234962   0.629   0.888  12.668  2.4524  2.9529  1.4619
 7776SOL     OW34963   1.583   4.249   9.164  0.2191 -0.3605 -0.2376
 7776SOL    HW134964   1.591   4.301   9.244 -0.4278  1.3058 -1.2450
 7776SOL    HW234965   1.642   4.300   9.108 -0.5037 -0.8875 -1.4712
 7777SOL     OW34966   1.823   3.542   3.773 -0.3706 -0.3453 -0.2282
 7777SOL    HW134967   1.881   3.614   3.749  1.4717 -1.3069  1.4157
 7777SOL    HW234968   1.741   3.582   3.744  0.5654  2.3524  0.8920
 7778SOL     OW34969   1.487   0.061   8.054  0.4626  0.6078  0.0714
 7778SOL    HW134970   1.565   0.111   8.078 -0.5738  2.1066  0.3252
 7778SOL    HW234971   1.492   4.722   8.107  2.2211  0.9182  0.3752
 7779SOL     OW34972   4.071   0.774   4.796  0.4370 -0.0982  0.1872
 7779SOL    HW134973   4.111   0.860   4.784  0.0665 -0.0084 -0.4182
 7779SOL    HW234974   4.133   0.742   4.861 -0.4878 -1.1637  0.5480
 7780SOL     OW34975   0.197   3.976   7.335  0.2581 -0.5512 -0.1161
 7780SOL    HW134976   0.274   3.921   7.328  0.7300 -0.0656  1.2485
 7780SOL    HW234977   0.219   4.034   7.408 -0.9822 -1.6220  1.1129
 7781SOL     OW34978   1.304   0.285   6.401 -0.0358 -0.0997 -0.1023
 7781SOL    HW134979   1.383   0.256   6.355  0.7268 -0.6422  1.5747
 7781SOL    HW234980   1.283   0.357   6.341 -2.7236  1.1989  2.4504
 7782SOL     OW34981   3.196   4.117  16.573  0.0435  0.5035  0.3888
 7782SOL    HW134982   3.255   4.154  16.638 -0.1704 -0.1081  0.9389
 7782SOL    HW234983   3.134   4.188  16.558 -0.1514  0.1240 -0.6060
 7783SOL     OW34984   1.730   3.905   6.809  0.1889 -0.0901  0.4109
 7783SOL    HW134985   1.686   3.970   6.864  1.3293  0.7626  0.3276
 7783SOL    HW234986   1.757   3.964   6.738 -1.4084 -0.8147 -0.7862
 7784SOL     OW34987   0.154   3.180   9.966 -0.3278 -0.2268 -0.3056
 7784SOL    HW134988   0.193   3.182   9.879 -1.1119  1.7483 -0.6183
 7784SOL    HW234989   0.166   3.090   9.994 -0.9308 -0.3695 -0.4897
 7785SOL     OW34990   0.303   3.760   5.400 -0.6234 -0.2819 -0.6948
 7785SOL    HW134991   0.266   3.825   5.461 -1.4974 -0.6307 -0.8565
 7785SOL    HW234992   0.229   3.703   5.381 -1.5459  0.4765  0.6200
 7786SOL     OW34993   1.061   4.532   4.941 -0.2199 -0.1332 -0.2110
 7786SOL    HW134994   1.073   4.627   4.952  0.4487 -0.5529  2.6506
 7786SOL    HW234995   0.968   4.528   4.918 -0.4279  0.1814  0.5932
 7787SOL     OW34996   2.055   1.137  16.394 -0.3318 -0.1678  0.3001
 7787SOL    HW134997   2.074   1.176  16.479 -1.8916  1.0078  0.1043
 7787SOL    HW234998   1.974   1.090  16.411 -1.8823  3.6725  3.3038
 7788SOL     OW34999   3.155   4.157   8.847  0.4766 -0.3019  0.2373
 7788SOL    HW135000   3.152   4.249   8.819  0.3333  0.0407  1.4033
 7788SOL    HW235001   3.076   4.160   8.900  0.7658  2.2667  0.5584
 7789SOL     OW35002   3.125   2.473   2.711  0.2463  0.3111 -0.5244
 7789SOL    HW135003   3.195   2.463   2.775  0.7947 -0.6104 -1.2615
 7789SOL    HW235004   3.057   2.413   2.740 -0.1479  2.2903  2.5374
 7790SOL     OW35005   2.621   1.116   8.445  0.3182 -0.4472 -0.5465
 7790SOL    HW135006   2.529   1.139   8.433  0.6037  0.6555 -0.6240
 7790SOL    HW235007   2.659   1.198   8.412 -0.7925  0.7767  1.1792
 7791SOL     OW35008   0.847   4.606   3.159  0.1036 -0.1698 -0.0493
 7791SOL    HW135009   0.844   4.624   3.065 -1.0444  0.3397  0.0855
 7791SOL    HW235010   0.782   4.669   3.189 -0.9235 -1.2526 -0.0162
 7792SOL     OW35011   4.163   2.983   6.847 -1.0690 -0.4175 -0.1342
 7792SOL    HW135012   4.106   3.060   6.846  1.7997  1.6879 -0.5449
 7792SOL    HW235013   4.154   2.963   6.754  2.0770 -0.0239 -0.5421
 7793SOL     OW35014   4.163   4.169  11.401  0.2487 -0.1811  0.1749
 7793SOL    HW135015   4.226   4.097  11.402  1.2974  0.7103 -2.3102
 7793SOL    HW235016   4.085   4.124  11.367  0.2226 -0.5102  0.6707
 7794SOL     OW35017   3.741   1.777   3.246  0.3393 -0.2956  0.0405
 7794SOL    HW135018   3.647   1.759   3.239  0.2525  0.0550  0.2897
 7794SOL    HW235019   3.758   1.814   3.160 -0.4949  0.2930  0.1252
 7795SOL     OW35020   1.214   3.360   4.639 -0.3923  0.9222  0.0280
 7795SOL    HW135021   1.134   3.310   4.657  1.6200 -2.5206 -0.6515
 7795SOL    HW235022   1.193   3.401   4.555 -1.2483  1.1639  0.3570
 7796SOL     OW35023   4.561   3.092   2.489  0.0144  0.0053  0.1781
 7796SOL    HW135024   4.608   3.075   2.407  1.5265 -0.3940  1.1459
 7796SOL    HW235025   4.537   3.185   2.485  3.3316  0.8986  1.9678
 7797SOL     OW35026   1.201   0.284   2.685  0.2678 -0.4003  0.6367
 7797SOL    HW135027   1.249   0.355   2.642 -2.9474  1.5226  0.1956
 7797SOL    HW235028   1.257   0.212   2.656  2.9110  1.9654 -0.1641
 7798SOL     OW35029   3.473   0.576   7.099  0.3008  0.5076 -0.3370
 7798SOL    HW135030   3.480   0.652   7.041 -2.3224 -0.9706 -2.6402
 7798SOL    HW235031   3.406   0.610   7.158 -0.2764 -0.1323 -0.6202
 7799SOL     OW35032   0.549   0.896   2.647 -0.0742 -0.3621 -0.1761
 7799SOL    HW135033   0.517   0.930   2.564  0.6424  0.5644 -0.0790
 7799SOL    HW235034   0.533   0.802   2.644  0.8616 -0.5138 -0.4423
 7800SOL     OW35035   0.373   3.816   5.667  0.6927 -0.2216 -0.2544
 7800SOL    HW135036   0.442   3.803   5.732 -1.0888 -1.0059  1.4778
 7800SOL    HW235037   0.409   3.762   5.597 -1.3897 -1.9006 -0.0301
 7801SOL     OW35038   4.435   3.039   7.274  0.3006 -0.0028  0.4198
 7801SOL    HW135039   4.482   2.974   7.222 -0.5447  1.1656 -1.8056
 7801SOL    HW235040   4.358   3.062   7.222 -1.0763 -0.7266  2.1860
 7802SOL     OW35041   1.717   3.878   5.765  0.4677  0.0452 -0.0994
 7802SOL    HW135042   1.697   3.911   5.677  0.5102  0.5006  0.0603
 7802SOL    HW235043   1.639   3.904   5.814  0.6004 -0.2401  0.2556
 7803SOL     OW35044   3.787   3.282   3.816  0.0242 -0.0425  0.1974
 7803SOL    HW135045   3.786   3.206   3.875  0.9600 -1.3762 -1.5039
 7803SOL    HW235046   3.711   3.332   3.845  0.6588  2.6486 -2.7991
 7804SOL     OW35047   0.528   1.791   0.114 -0.7553 -0.1218  0.0949
 7804SOL    HW135048   0.447   1.739   0.120 -0.6227 -0.5688 -1.8850
 7804SOL    HW235049   0.552   1.770   0.023 -1.0747  2.5307 -0.6035
 7805SOL     OW35050   2.792   2.620   8.533  0.4473  0.0239  0.0217
 7805SOL    HW135051   2.813   2.528   8.514  0.8488 -0.1946  1.5371
 7805SOL    HW235052   2.806   2.670   8.453 -0.7306 -0.2552 -0.3506
 7806SOL     OW35053   2.815   3.333   4.484  0.4239 -0.1313  0.4290
 7806SOL    HW135054   2.890   3.336   4.424  0.5361 -0.8371  0.5356
 7806SOL    HW235055   2.768   3.405   4.442 -1.5975 -0.3118  2.4093
 7807SOL     OW35056   2.317   3.515   7.289 -1.1000  0.3977  0.6427
 7807SOL    HW135057   2.366   3.444   7.248 -0.6609 -0.0268  1.9327
 7807SOL    HW235058   2.232   3.522   7.245 -1.1128 -2.9489  0.1166
 7808SOL     OW35059   4.609   3.708   1.605  0.2225 -0.2610 -0.0116
 7808SOL    HW135060   4.525   3.719   1.651  0.4709  0.8212  0.1752
 7808SOL    HW235061   4.654   3.649   1.665 -3.4767 -1.1737  1.8662
 7809SOL     OW35062   3.327   0.991   2.672  0.2165  0.0746  0.4255
 7809SOL    HW135063   3.336   0.910   2.622 -0.1436  0.9528 -1.0841
 7809SOL    HW235064   3.276   0.958   2.746 -0.7888 -1.6236 -1.0324
 7810SOL     OW35065   1.784   1.205   2.916  0.0700  0.0257  0.5555
 7810SOL    HW135066   1.715   1.270   2.900  2.5004  2.7013  0.8844
 7810SOL    HW235067   1.768   1.143   2.845 -1.2542  0.0242  0.8635
 7811SOL     OW35068   4.336   0.285   5.274 -0.4503 -0.1539 -0.0236
 7811SOL    HW135069   4.380   0.201   5.259 -0.3184 -0.0976  0.0499
 7811SOL    HW235070   4.254   0.258   5.315 -0.1407 -2.2533 -0.7586
 7812SOL     OW35071   0.246   3.588   1.060  0.4843 -0.0319 -0.4507
 7812SOL    HW135072   0.338   3.585   1.035  0.0249  0.9894 -2.3255
 7812SOL    HW235073   0.250   3.564   1.152  1.1547  0.0485 -0.4655
 7813SOL     OW35074   1.376   2.969  10.633  0.0144  0.0582 -0.2276
 7813SOL    HW135075   1.412   2.929  10.712  3.2729 -1.0775 -2.2807
 7813SOL    HW235076   1.299   2.912  10.634 -0.0373  0.1254 -0.3124
 7814SOL     OW35077   1.121   1.987   6.513 -0.5050  0.0795  0.0361
 7814SOL    HW135078   1.213   1.984   6.539 -1.0293 -0.0112  1.8697
 7814SOL    HW235079   1.115   1.970   6.419 -0.2244  0.0081  0.0317
 7815SOL     OW35080   2.238   1.415   3.961  0.1416 -0.0360  0.3542
 7815SOL    HW135081   2.286   1.493   3.989 -0.5788  0.3326  0.5580
 7815SOL    HW235082   2.294   1.378   3.893 -2.2136 -1.2965 -0.8944
 7816SOL     OW35083   0.721   2.813  11.035 -0.0117 -0.0837 -0.1021
 7816SOL    HW135084   0.626   2.808  11.037  0.0392 -0.2458  2.1125
 7816SOL    HW235085   0.740   2.735  10.983 -0.3729 -1.0861  1.2878
 7817SOL     OW35086   2.474   3.782   3.499  0.3324  0.4654 -0.1516
 7817SOL    HW135087   2.473   3.878   3.493  0.3833  0.4864  0.1746
 7817SOL    HW235088   2.396   3.763   3.551 -0.3028  0.1347 -1.2144
 7818SOL     OW35089   1.890   2.881   8.512 -0.0384  0.8473  0.3159
 7818SOL    HW135090   1.866   2.890   8.419  0.6264 -1.5726 -0.0764
 7818SOL    HW235091   1.872   2.788   8.515 -0.2110  0.7809 -2.3931
 7819SOL     OW35092   1.598   4.599  15.272 -0.2952 -0.6486 -0.4180
 7819SOL    HW135093   1.677   4.557  15.236  1.0654  1.6571 -0.1455
 7819SOL    HW235094   1.606   4.583  15.366  1.3695 -0.1828 -0.4829
 7820SOL     OW35095   1.989   3.737  12.517  0.7410 -0.8632 -0.1187
 7820SOL    HW135096   2.051   3.792  12.470 -0.5028  0.9667  0.3994
 7820SOL    HW235097   2.050   3.700  12.581  1.0822  0.0620  0.0809
 7821SOL     OW35098   2.758   2.773   0.983 -0.2879 -0.6096  0.2072
 7821SOL    HW135099   2.811   2.853   0.975 -0.6473 -0.4942 -1.0426
 7821SOL    HW235100   2.814   2.710   0.939  0.6809  0.0684  0.4617
 7822SOL     OW35101   4.541   2.876   9.384  0.1077  0.0373 -0.1827
 7822SOL    HW135102   4.621   2.917   9.418 -0.8791  1.2598  0.6331
 7822SOL    HW235103   4.565   2.786   9.404 -1.5676  0.0015  1.6086
 7823SOL     OW35104   2.989   1.810  10.640 -0.2484 -0.2080  0.6364
 7823SOL    HW135105   3.038   1.762  10.707 -0.5653  0.6295  1.4680
 7823SOL    HW235106   2.901   1.812  10.678 -0.3599 -2.0479  0.4930
 7824SOL     OW35107   0.641   0.490   3.433  0.5674  0.0330  0.7450
 7824SOL    HW135108   0.650   0.584   3.417 -0.4919 -0.0196 -0.2061
 7824SOL    HW235109   0.718   0.463   3.482  1.7192  0.3688 -0.8743
 7825SOL     OW35110   1.723   1.211   3.230  0.3852  0.0290 -0.5466
 7825SOL    HW135111   1.761   1.233   3.316 -1.8547 -2.0601  0.9607
 7825SOL    HW235112   1.781   1.142   3.198  1.0349  0.7482 -0.9485
 7826SOL     OW35113   1.507   1.793   2.618  0.3469 -0.1855 -0.1808
 7826SOL    HW135114   1.439   1.772   2.682  0.0682  0.2529 -0.3368
 7826SOL    HW235115   1.535   1.705   2.593 -0.0834 -0.5720  0.6731
 7827SOL     OW35116   4.126   0.548   2.460  0.5981  0.0185 -0.4310
 7827SOL    HW135117   4.085   0.576   2.542  4.1263 -0.7207  1.5840
 7827SOL    HW235118   4.059   0.585   2.403  0.7747  0.7865 -0.1422
 7828SOL     OW35119   2.805   3.584   8.893  0.4933  0.5753  0.0980
 7828SOL    HW135120   2.831   3.551   8.979 -1.2330 -1.0933 -0.0307
 7828SOL    HW235121   2.888   3.621   8.863  1.5299  0.6476  3.1104
 7829SOL     OW35122   0.381   4.505   3.949 -0.5995 -0.5386 -0.1510
 7829SOL    HW135123   0.427   4.588   3.937  1.4764 -1.4109  1.8950
 7829SOL    HW235124   0.350   4.494   3.860  2.2087  0.2136 -1.2170
 7830SOL     OW35125   0.957   0.611   7.055  0.5490 -0.1009 -0.1176
 7830SOL    HW135126   0.996   0.524   7.048  0.1042 -0.3261  0.2055
 7830SOL    HW235127   1.025   0.674   7.033 -1.1437  2.2702  1.3871
 7831SOL     OW35128   1.706   4.163  15.703 -0.8566 -0.3600 -0.4689
 7831SOL    HW135129   1.755   4.213  15.768  0.9179 -2.5253 -0.1529
 7831SOL    HW235130   1.615   4.156  15.734 -1.3379 -1.8012 -2.2093
 7832SOL     OW35131   1.849   2.862   3.022 -0.1419 -0.4658  0.1966
 7832SOL    HW135132   1.797   2.906   3.090  0.3255  0.5295 -0.0751
 7832SOL    HW235133   1.928   2.835   3.069  0.7596  2.0826  0.1734
 7833SOL     OW35134   1.868   3.412  10.209  0.9433 -0.7800  0.4874
 7833SOL    HW135135   1.861   3.496  10.164 -0.3915 -0.6348  0.9700
 7833SOL    HW235136   1.887   3.353  10.137  1.2061  0.2336 -0.2754
 7834SOL     OW35137   0.711   0.141   8.171  0.0759  0.1181  0.6065
 7834SOL    HW135138   0.620   0.168   8.182  0.7699  2.2342  1.0594
 7834SOL    HW235139   0.721   0.074   8.239  0.0716 -0.1709  0.3216
 7835SOL     OW35140   2.289   2.133   1.844  1.0825 -0.2989  0.1652
 7835SOL    HW135141   2.347   2.170   1.911  0.5590 -1.9741  1.5414
 7835SOL    HW235142   2.207   2.136   1.894 -0.3783  1.7239 -2.3555
 7836SOL     OW35143   1.597   2.891  16.928  0.4047  0.3482 -0.0022
 7836SOL    HW135144   1.578   2.879  16.835 -0.0567 -0.3998  0.1852
 7836SOL    HW235145   1.582   2.986  16.925 -2.2141 -0.0309  1.2619
 7837SOL     OW35146   1.229   3.147  11.735 -0.2006 -0.2242  0.4100
 7837SOL    HW135147   1.139   3.176  11.723  0.2916  1.7185  1.2638
 7837SOL    HW235148   1.222   3.057  11.705 -0.3837  0.5823 -1.9509
 7838SOL     OW35149   4.523   4.268   5.108 -0.2084  0.0014  0.0776
 7838SOL    HW135150   4.472   4.350   5.105  1.0457  0.8863  2.6687
 7838SOL    HW235151   4.588   4.279   5.177  1.2459  0.7811 -1.4068
 7839SOL     OW35152   4.292   0.857   1.025 -0.3921  0.3596  0.5435
 7839SOL    HW135153   4.340   0.810   0.957  0.1800  0.2039  1.0535
 7839SOL    HW235154   4.313   0.949   1.010  0.4000  0.2032  0.6988
 7840SOL     OW35155   3.730   3.142   2.661  0.2104 -0.0196 -0.7107
 7840SOL    HW135156   3.742   3.155   2.567 -0.4393 -0.3924 -0.8444
 7840SOL    HW235157   3.650   3.195   2.666  1.3612  1.3911  2.6453
 7841SOL     OW35158   1.516   3.440   4.209 -0.1282  0.1741 -0.3589
 7841SOL    HW135159   1.586   3.473   4.154  0.1624  1.5735  0.8189
 7841SOL    HW235160   1.475   3.401   4.132  2.1184 -0.9994 -0.9310
 7842SOL     OW35161   0.717   1.810   6.162  0.0603 -0.0894  0.0194
 7842SOL    HW135162   0.640   1.866   6.170  0.4868  0.5338 -0.1756
 7842SOL    HW235163   0.765   1.840   6.240  1.3310  1.5578 -1.3858
 7843SOL     OW35164   4.707   0.936   7.584  0.5476  0.1373  0.2095
 7843SOL    HW135165   4.737   0.933   7.493 -0.6248 -1.4848 -0.1209
 7843SOL    HW235166   4.735   1.025   7.606  0.0303  0.9665 -2.4430
 7844SOL     OW35167   4.646   2.645  17.163  0.0383  0.3516  0.1846
 7844SOL    HW135168   4.681   2.556  17.171  1.1273  0.9307  1.8081
 7844SOL    HW235169   4.625   2.660  17.071 -0.7498  0.5833  0.4090
 7845SOL     OW35170   0.734   0.885   5.198 -0.1689 -0.2492  0.7711
 7845SOL    HW135171   0.644   0.880   5.164 -0.9766  0.5217  2.8299
 7845SOL    HW235172   0.747   0.979   5.210  1.8576 -0.8730  3.3051
 7846SOL     OW35173   2.719   1.337   0.981 -0.0393  0.1393 -0.7572
 7846SOL    HW135174   2.638   1.303   1.020  0.0952 -1.3206 -1.8012
 7846SOL    HW235175   2.699   1.431   0.977 -0.7007  0.1060  1.4450
 7847SOL     OW35176   4.137   4.490   5.375  0.1423 -0.0337 -0.6309
 7847SOL    HW135177   4.170   4.424   5.314 -2.9250 -2.0246 -0.1457
 7847SOL    HW235178   4.173   4.570   5.336  1.3545 -0.5412 -0.5632
 7848SOL     OW35179   0.063   3.907  14.643  0.0501 -0.2309  0.4035
 7848SOL    HW135180   4.711   3.886  14.653 -0.2056 -0.4747 -2.5504
 7848SOL    HW235181   0.107   3.824  14.661  0.7821 -0.0965 -0.7643
 7849SOL     OW35182   3.395   2.199  16.162 -0.3685 -0.4460  0.3426
 7849SOL    HW135183   3.475   2.248  16.182  0.6049 -1.3967 -1.2435
 7849SOL    HW235184   3.418   2.107  16.176  1.4260 -0.1727 -0.7803
 7850SOL     OW35185   3.086   3.170   5.838 -0.2554  0.2940  0.4529
 7850SOL    HW135186   3.026   3.135   5.772 -1.2663  0.1017  1.4740
 7850SOL    HW235187   3.057   3.261   5.846 -0.5666  0.1691  0.7746
 7851SOL     OW35188   0.854   0.358   2.924 -0.4744 -0.0082  0.1519
 7851SOL    HW135189   0.784   0.342   2.987 -1.3238 -0.2687 -0.8713
 7851SOL    HW235190   0.921   0.397   2.981 -0.1772 -0.3310  0.0209
 7852SOL     OW35191   2.098   1.234   5.544 -0.6286 -0.1630 -0.1719
 7852SOL    HW135192   2.090   1.184   5.463 -0.9856  1.2327 -0.9995
 7852SOL    HW235193   2.187   1.212   5.571 -0.8885 -0.9304  0.0484
 7853SOL     OW35194   0.232   4.152   2.129  0.4580  0.0769 -0.0219
 7853SOL    HW135195   0.168   4.150   2.201  2.7614 -1.7119  2.0113
 7853SOL    HW235196   0.266   4.064   2.145  0.6528  0.1353 -0.1163
 7854SOL     OW35197   3.296   0.274   0.562  0.2336 -0.5551 -0.3070
 7854SOL    HW135198   3.360   0.249   0.629  1.7474  2.1625 -0.7570
 7854SOL    HW235199   3.219   0.284   0.617  0.6543  1.1725 -0.0321
 7855SOL     OW35200   0.994   4.002   2.054 -0.5408 -0.1154 -0.1882
 7855SOL    HW135201   1.086   4.004   2.078 -0.7397  3.2102  0.3463
 7855SOL    HW235202   0.961   3.969   2.138  0.2122 -0.9259 -0.2103
 7856SOL     OW35203   4.244   3.483   3.658 -0.0764  0.1560  1.0637
 7856SOL    HW135204   4.166   3.455   3.707 -0.9686  1.5572  0.4475
 7856SOL    HW235205   4.199   3.561   3.624  0.1088  0.2251  0.9826
 7857SOL     OW35206   0.815   3.731   8.405  0.4543  0.2107  0.1040
 7857SOL    HW135207   0.840   3.655   8.458 -4.4458 -0.0479  2.1143
 7857SOL    HW235208   0.873   3.804   8.428  0.3284  0.0744  0.8513
 7858SOL     OW35209   2.218   3.921   5.440 -0.0845  0.7297  0.2313
 7858SOL    HW135210   2.293   3.925   5.499  1.7612  0.5455 -2.0946
 7858SOL    HW235211   2.223   4.013   5.412  0.8189  0.6626  0.1834
 7859SOL     OW35212   2.300   0.380   5.032 -0.0867  0.0186 -0.2322
 7859SOL    HW135213   2.315   0.450   4.968 -2.2353  0.8955  0.2212
 7859SOL    HW235214   2.273   0.315   4.967 -1.3085  1.2859 -0.9960
 7860SOL     OW35215   3.691   4.165  16.238  0.6061 -0.1082 -0.2186
 7860SOL    HW135216   3.606   4.156  16.195  0.1123 -0.0841  0.7513
 7860SOL    HW235217   3.672   4.240  16.293  0.1237 -0.6827  0.4020
 7861SOL     OW35218   4.130   4.598   3.074 -0.3690 -0.2897 -0.5535
 7861SOL    HW135219   4.055   4.540   3.088  0.2493 -0.7241  0.9962
 7861SOL    HW235220   4.124   4.632   3.163  0.7805 -0.4400 -0.4233
 7862SOL     OW35221   3.158   1.902   7.858 -0.0131 -0.0435  0.0392
 7862SOL    HW135222   3.074   1.865   7.831  0.4705 -1.2826  0.2415
 7862SOL    HW235223   3.137   1.995   7.857 -0.4692 -0.1007  3.0476
 7863SOL     OW35224   0.552   0.902   7.032  0.0140 -0.2214 -0.2659
 7863SOL    HW135225   0.470   0.876   7.075  0.2997  1.0417  1.0491
 7863SOL    HW235226   0.616   0.841   7.070  2.4835  2.1060 -0.6619
 7864SOL     OW35227   3.891   3.595   6.079  0.3762  0.1803  0.0352
 7864SOL    HW135228   3.825   3.662   6.099  0.4670  0.7401 -1.5911
 7864SOL    HW235229   3.859   3.562   5.996  0.9425 -0.2809  0.0057
 7865SOL     OW35230   3.648   0.466  10.925  0.1391  0.5983  0.3984
 7865SOL    HW135231   3.647   0.460  11.021 -0.6776 -1.5188  0.2707
 7865SOL    HW235232   3.695   0.387  10.898 -0.5079  0.4358 -0.2568
 7866SOL     OW35233   1.520   2.646   1.241 -0.1321 -0.0370 -0.0449
 7866SOL    HW135234   1.558   2.654   1.329 -1.4466 -0.5522  0.5850
 7866SOL    HW235235   1.594   2.605   1.196 -0.9431 -0.6917 -0.7833
 7867SOL     OW35236   3.011   3.263   6.303 -0.1794  0.4239 -0.2154
 7867SOL    HW135237   2.972   3.180   6.328 -1.5805  0.9259 -0.7576
 7867SOL    HW235238   2.947   3.322   6.344 -1.2005 -0.8532  0.0423
 7868SOL     OW35239   2.949   3.499   3.070 -0.2030  0.4535 -0.8327
 7868SOL    HW135240   2.970   3.504   2.976  0.8958  0.1008 -0.6169
 7868SOL    HW235241   2.854   3.501   3.064 -0.3264 -0.1672  1.0471
 7869SOL     OW35242   2.833   3.424  11.483  0.3091 -0.6304  0.1030
 7869SOL    HW135243   2.754   3.424  11.539  0.5743  1.1886  0.4799
 7869SOL    HW235244   2.793   3.460  11.404 -0.9054  0.1236  1.0630
 7870SOL     OW35245   3.033   2.973   3.653  0.4646  0.0569  0.6812
 7870SOL    HW135246   2.940   2.971   3.677 -0.2607 -0.2465 -2.1702
 7870SOL    HW235247   3.030   2.930   3.568 -3.3479  0.9592  0.3240
 7871SOL     OW35248   3.264   2.108   3.985  0.2808 -0.2415 -0.7322
 7871SOL    HW135249   3.335   2.128   4.046  1.5997 -1.9764 -1.7142
 7871SOL    HW235250   3.273   2.014   3.971  1.2248 -0.4696  1.4092
 7872SOL     OW35251   3.603   4.505   0.942  0.9976 -0.0420 -0.2096
 7872SOL    HW135252   3.592   4.551   1.025  0.9035  0.0434 -0.2697
 7872SOL    HW235253   3.652   4.426   0.966  1.7045  0.6756  0.7357
 7873SOL     OW35254   3.363   1.108   3.938 -0.2543  0.2190  0.5096
 7873SOL    HW135255   3.394   1.030   3.892 -4.3181  0.7442 -3.1139
 7873SOL    HW235256   3.270   1.104   3.918 -0.2520  1.3271  0.2762
 7874SOL     OW35257   3.814   4.700   4.948 -0.4417  0.2855 -0.9231
 7874SOL    HW135258   3.815   0.048   4.913  1.7311  0.6334  0.0993
 7874SOL    HW235259   3.871   4.711   5.023 -0.1444 -0.4644 -1.0419
 7875SOL     OW35260   2.249   0.516   7.656 -0.5156  0.2846  0.4609
 7875SOL    HW135261   2.180   0.449   7.653 -0.2030 -0.0390  0.4820
 7875SOL    HW235262   2.197   0.588   7.620  0.8354  1.2343  0.3823
 7876SOL     OW35263   2.710   2.847  16.616  0.4001  0.1921  0.1776
 7876SOL    HW135264   2.727   2.941  16.616  0.0988  0.2513  0.7658
 7876SOL    HW235265   2.761   2.832  16.696  0.2823 -1.8884 -0.1405
 7877SOL     OW35266   2.728   3.525   8.521  0.1392  0.1816 -0.2914
 7877SOL    HW135267   2.674   3.448   8.501  0.5190 -0.3125  0.5437
 7877SOL    HW235268   2.818   3.504   8.497  1.6299  3.7874  2.1499
 7878SOL     OW35269   2.098   3.377   3.228  0.2574  0.4091 -0.3421
 7878SOL    HW135270   2.046   3.302   3.257  0.3031 -0.2203 -1.8733
 7878SOL    HW235271   2.126   3.349   3.141 -0.6521  1.9046 -1.1228
 7879SOL     OW35272   0.399   1.618  10.761  0.7203  0.3444  0.1361
 7879SOL    HW135273   0.449   1.686  10.806 -1.0341  1.4366  0.4128
 7879SOL    HW235274   0.418   1.540  10.814  0.0571 -0.9436 -1.5335
 7880SOL     OW35275   3.811   2.447   9.485 -0.8205  0.2576  0.5749
 7880SOL    HW135276   3.863   2.416   9.560 -1.2324  0.8640  1.1134
 7880SOL    HW235277   3.793   2.532   9.526 -2.3211  1.0855 -1.8494
 7881SOL     OW35278   2.187   2.983   4.694 -0.2034 -0.0754 -0.4266
 7881SOL    HW135279   2.171   2.891   4.671  0.5160 -1.0158  2.8107
 7881SOL    HW235280   2.219   3.017   4.611  1.0965 -0.9075 -0.2627
 7882SOL     OW35281   4.730   0.649  13.116  0.1729 -0.2103 -0.3113
 7882SOL    HW135282   0.074   0.606  13.110  1.2329  1.9308 -0.5940
 7882SOL    HW235283   4.712   0.657  13.022 -0.3649  0.1033 -0.1797
 7883SOL     OW35284   3.877   4.506   2.590  0.1731  0.4643 -0.2087
 7883SOL    HW135285   3.893   4.551   2.674 -0.0301  2.0989 -1.0412
 7883SOL    HW235286   3.969   4.484   2.573  0.7619  1.9880  0.9671
 7884SOL     OW35287   2.721   1.527  11.526  0.4246 -0.1797 -0.1077
 7884SOL    HW135288   2.666   1.583  11.581  0.7426 -0.3188  0.3479
 7884SOL    HW235289   2.809   1.561  11.541  0.4441  0.0206 -0.6675
 7885SOL     OW35290   3.292   0.441   2.272 -0.1316 -0.1350  0.0487
 7885SOL    HW135291   3.385   0.444   2.294 -0.3446  0.8179  0.7975
 7885SOL    HW235292   3.275   0.352   2.240 -0.6929  0.1750 -0.5345
 7886SOL     OW35293   4.456   4.019   8.155  0.7052 -0.2578  0.3153
 7886SOL    HW135294   4.529   4.064   8.112  1.7924 -1.7817  0.5442
 7886SOL    HW235295   4.413   3.976   8.081 -1.6208 -1.0866  2.1592
 7887SOL     OW35296   4.567   4.633   8.303 -0.6890  0.0430  0.6092
 7887SOL    HW135297   4.627   4.582   8.358  0.0806 -0.2037 -0.4693
 7887SOL    HW235298   4.574   4.709   8.361  2.1310  1.2978 -1.3645
 7888SOL     OW35299   1.316   1.154   7.570 -0.0566 -0.0366 -0.0786
 7888SOL    HW135300   1.408   1.178   7.576  0.3563 -2.0960  1.6233
 7888SOL    HW235301   1.326   1.066   7.606 -2.9542 -1.2640 -2.2395
 7889SOL     OW35302   1.759   2.990   0.970 -0.4249  0.1979 -0.1671
 7889SOL    HW135303   1.792   2.920   0.915  2.5839  3.0871 -2.0185
 7889SOL    HW235304   1.713   2.936   1.035 -0.3111  0.3289  0.0229
 7890SOL     OW35305   0.404   3.324   0.877 -0.2481  0.1676  0.0837
 7890SOL    HW135306   0.414   3.410   0.919 -3.1928  0.2101  0.7354
 7890SOL    HW235307   0.394   3.358   0.788  3.6935  0.4214 -0.2606
 7891SOL     OW35308   2.811   3.741   8.231 -0.0064  0.2911 -0.1501
 7891SOL    HW135309   2.748   3.799   8.273 -0.9514 -0.4982 -0.4857
 7891SOL    HW235310   2.754   3.667   8.211 -0.3801  0.6027 -0.2318
 7892SOL     OW35311   2.099   0.392   9.054 -0.0043  0.3774 -0.4718
 7892SOL    HW135312   2.026   0.453   9.056  0.8131  1.3028  1.0538
 7892SOL    HW235313   2.148   0.401   8.972  1.0540 -1.4448 -0.0437
 7893SOL     OW35314   3.276   2.064  17.497  0.2807  0.4311 -0.1622
 7893SOL    HW135315   3.365   2.044  17.526 -0.4592  1.7375  3.0231
 7893SOL    HW235316   3.229   1.992  17.539  2.3399 -0.6871  0.1953
 7894SOL     OW35317   0.013   1.613  14.639 -0.2763 -0.0699 -0.1320
 7894SOL    HW135318   4.689   1.678  14.612  1.8913  1.7921 -0.8245
 7894SOL    HW235319   4.725   1.535  14.590 -0.4510 -0.0285 -0.0952
 7895SOL     OW35320   0.742   2.896   9.768  0.4008  0.3229 -0.0895
 7895SOL    HW135321   0.810   2.935   9.823  0.4490 -1.2325  0.9584
 7895SOL    HW235322   0.808   2.885   9.700 -0.9328  0.6483 -1.4242
 7896SOL     OW35323   2.302   3.566   4.136 -0.1717  0.3323 -0.2393
 7896SOL    HW135324   2.336   3.646   4.095  2.0649 -1.8295 -2.5719
 7896SOL    HW235325   2.249   3.602   4.207  0.5742  0.2149  0.3720
 7897SOL     OW35326   2.185   2.977   2.541 -0.3973 -0.3520  0.2503
 7897SOL    HW135327   2.189   2.954   2.634 -1.8664  2.0858  0.9035
 7897SOL    HW235328   2.278   2.991   2.522 -1.1442  4.1514 -0.0048
 7898SOL     OW35329   2.946   3.568   7.609  0.2877 -0.5529 -0.0636
 7898SOL    HW135330   2.891   3.512   7.553  1.9028 -2.9673  0.7730
 7898SOL    HW235331   2.907   3.564   7.696  0.8085  0.0657  0.1972
 7899SOL     OW35332   3.344   4.675   6.834 -0.3907  0.8645 -1.2309
 7899SOL    HW135333   3.412   4.610   6.848 -1.7363  0.1116  1.9053
 7899SOL    HW235334   3.280   4.636   6.894  0.8610  1.3201  0.4051
 7900SOL     OW35335   0.188   2.388   1.734  0.4149 -0.2780  0.6132
 7900SOL    HW135336   0.236   2.468   1.710 -0.2372 -0.2334 -0.5484
 7900SOL    HW235337   0.134   2.417   1.807  0.7402  1.1353  0.3049
 7901SOL     OW35338   3.092   0.442  13.652 -0.5443  0.0158 -0.1466
 7901SOL    HW135339   3.011   0.478  13.689  1.2983  1.9636  1.9369
 7901SOL    HW235340   3.154   0.453  13.724  1.0625  0.1616 -1.5464
 7902SOL     OW35341   2.015   1.454   1.842 -0.0887 -0.1190  0.4659
 7902SOL    HW135342   2.000   1.523   1.777 -1.2977  0.1558  1.0458
 7902SOL    HW235343   2.108   1.440   1.824 -0.2983  1.2780 -1.6612
 7903SOL     OW35344   1.332   3.414   8.011  0.1018  0.6295  0.2701
 7903SOL    HW135345   1.291   3.331   7.988  1.7566 -0.3639  0.8613
 7903SOL    HW235346   1.260   3.470   8.040 -1.5391 -0.7746 -1.1293
 7904SOL     OW35347   2.669   1.034   3.002 -0.1931 -0.3411  0.2636
 7904SOL    HW135348   2.695   1.021   3.093  0.7986  1.9641  0.3186
 7904SOL    HW235349   2.591   0.981   2.987  0.8156 -1.1166 -2.1773
 7905SOL     OW35350   2.543   3.874   8.845 -0.2948  0.2120  0.4671
 7905SOL    HW135351   2.612   3.872   8.911  0.2640 -0.1106 -0.1110
 7905SOL    HW235352   2.496   3.956   8.854  0.6863  0.7491  0.7421
 7906SOL     OW35353   0.349   4.140  17.474 -0.5770 -0.7659 -0.1037
 7906SOL    HW135354   0.388   4.060  17.509  0.5161  0.7527  2.1815
 7906SOL    HW235355   0.270   4.109  17.431 -1.7479  2.6157 -0.3566
 7907SOL     OW35356   3.318   1.261   6.678  0.0888  0.0283  0.3537
 7907SOL    HW135357   3.304   1.324   6.749  1.3546  0.9274 -0.2050
 7907SOL    HW235358   3.231   1.272   6.639  0.8457  0.4152 -1.2653
 7908SOL     OW35359   1.022   3.970   5.320  0.1446  0.7009  0.5770
 7908SOL    HW135360   1.049   4.043   5.376 -2.3425  2.5402 -0.6295
 7908SOL    HW235361   1.114   3.957   5.296 -0.2370  0.8288 -0.9248
 7909SOL     OW35362   1.800   1.547  16.042  0.3480 -0.1444 -0.3297
 7909SOL    HW135363   1.831   1.546  15.952 -0.6394  1.2901 -0.6917
 7909SOL    HW235364   1.847   1.473  16.080  1.8738  0.4455 -1.0780
 7910SOL     OW35365   1.927   4.396   5.477  0.1332 -0.4550  0.2062
 7910SOL    HW135366   1.911   4.388   5.383 -0.2821 -1.0567  0.3302
 7910SOL    HW235367   1.873   4.323   5.509  2.4528 -1.4428  1.8506
 7911SOL     OW35368   0.828   2.503   8.067 -0.0839 -0.3113 -0.8355
 7911SOL    HW135369   0.741   2.518   8.105  1.2108  0.6163  1.7372
 7911SOL    HW235370   0.798   2.445   7.997 -2.3035  0.3361 -0.4510
 7912SOL     OW35371   2.101   1.626   6.583  0.0152  0.5224 -0.8494
 7912SOL    HW135372   2.190   1.591   6.581 -0.9015 -1.9694  2.0681
 7912SOL    HW235373   2.065   1.540   6.602  1.7721 -0.0503 -0.1489
 7913SOL     OW35374   3.772   1.786   1.455  0.5530 -0.1844  0.5952
 7913SOL    HW135375   3.798   1.874   1.485  3.9854  0.1206 -3.2162
 7913SOL    HW235376   3.690   1.799   1.407  0.3763  0.3319  1.0312
 7914SOL     OW35377   1.463   0.978  10.815  0.0334 -0.0140 -0.5533
 7914SOL    HW135378   1.467   0.935  10.900 -0.3431 -3.5271 -2.3138
 7914SOL    HW235379   1.462   0.904  10.754 -1.0147 -1.6178  1.4286
 7915SOL     OW35380   3.954   4.145  15.359  0.4537 -0.3500 -0.6760
 7915SOL    HW135381   4.031   4.201  15.370  0.6890 -0.7797 -0.1484
 7915SOL    HW235382   3.885   4.210  15.368 -1.8209 -2.7791 -0.5038
 7916SOL     OW35383   2.522   2.723   9.108 -0.0983 -0.0390 -0.1301
 7916SOL    HW135384   2.536   2.799   9.053 -0.5595  0.2416  0.1392
 7916SOL    HW235385   2.503   2.664   9.035 -0.7984  0.6370 -0.4956
 7917SOL     OW35386   2.502   3.844   9.303  0.4190 -0.0863 -0.1020
 7917SOL    HW135387   2.503   3.749   9.314 -2.1497 -0.1331 -0.1945
 7917SOL    HW235388   2.415   3.862   9.266  1.0727  0.5868 -1.3079
 7918SOL     OW35389   2.738   3.944   9.049  0.1179 -0.3231 -0.4058
 7918SOL    HW135390   2.658   3.992   9.071 -0.3398 -1.4271  0.3239
 7918SOL    HW235391   2.745   3.891   9.128 -1.3571  2.9076  1.8801
 7919SOL     OW35392   3.035   4.619  14.691 -0.2235  0.4448  0.4375
 7919SOL    HW135393   3.120   4.659  14.678 -1.3511  2.2421 -1.3670
 7919SOL    HW235394   3.053   4.591  14.781  1.1001  1.0311  0.3515
 7920SOL     OW35395   3.615   1.217   7.184 -0.1158  0.1909 -0.7629
 7920SOL    HW135396   3.700   1.179   7.207 -0.1042  1.1977  0.8955
 7920SOL    HW235397   3.556   1.157   7.230 -0.6775  0.3950 -1.2192
 7921SOL     OW35398   1.167   2.776  12.281  0.1011  1.0879  0.3242
 7921SOL    HW135399   1.189   2.833  12.355  0.1282 -0.8122  1.7702
 7921SOL    HW235400   1.243   2.719  12.289 -1.5412 -0.4950  4.3717
 7922SOL     OW35401   2.031   1.618   2.578 -0.0818  0.0454 -0.1900
 7922SOL    HW135402   2.003   1.553   2.643 -2.9095 -0.2655 -1.6898
 7922SOL    HW235403   1.945   1.658   2.564  0.5605  1.2077 -0.8123
 7923SOL     OW35404   1.806   3.894  17.039 -0.4595 -0.1191 -0.5658
 7923SOL    HW135405   1.748   3.854  17.104  0.1072 -1.9167 -1.1572
 7923SOL    HW235406   1.788   3.843  16.960 -1.7530  2.4390 -1.9212
 7924SOL     OW35407   1.662   1.111  17.166  0.4417 -0.1809 -0.2614
 7924SOL    HW135408   1.734   1.172  17.150 -0.1251  1.0548  1.9378
 7924SOL    HW235409   1.587   1.155  17.126  0.9874  0.6775 -0.3619
 7925SOL     OW35410   4.063   1.590   0.017  0.3143  0.5045 -0.0024
 7925SOL    HW135411   4.027   1.610  17.691 -0.1044  0.1455  0.0848
 7925SOL    HW235412   4.031   1.665   0.068 -0.8845  0.2307 -0.3331
 7926SOL     OW35413   4.184   1.870   1.626  0.0247 -0.4899 -0.0991
 7926SOL    HW135414   4.280   1.871   1.634 -0.2307  3.5582  2.2896
 7926SOL    HW235415   4.171   1.776   1.610  0.1891 -0.5443  0.0813
 7927SOL     OW35416   4.205   4.403   1.864 -0.0834  0.1166 -0.5469
 7927SOL    HW135417   4.183   4.348   1.940  1.0763 -2.2850 -1.9811
 7927SOL    HW235418   4.292   4.372   1.841 -0.0842 -2.9829  3.6162
 7928SOL     OW35419   2.788   0.399   0.574  0.0072  0.6501  0.3838
 7928SOL    HW135420   2.747   0.486   0.572 -1.5868 -0.1393 -1.8406
 7928SOL    HW235421   2.723   0.329   0.570  0.4164  0.2775  0.4081
 7929SOL     OW35422   1.817   0.589   2.006 -0.1389 -0.3961 -0.2713
 7929SOL    HW135423   1.811   0.649   1.931 -4.0241  1.4096  1.4668
 7929SOL    HW235424   1.752   0.524   1.979 -0.3578 -0.3568  0.1587
 7930SOL     OW35425   2.922   2.167  15.405 -0.6090  0.1763  0.3915
 7930SOL    HW135426   3.012   2.136  15.414 -0.7947 -0.3473  0.4743
 7930SOL    HW235427   2.917   2.161  15.310  0.6330 -0.6845  0.3852
 7931SOL     OW35428   0.181   3.531   8.686 -0.0966  0.2320 -0.2163
 7931SOL    HW135429   0.226   3.573   8.759 -0.2332 -0.1345  0.0804
 7931SOL    HW235430   0.109   3.594   8.672  0.0053  0.2022 -0.8825
 7932SOL     OW35431   0.076   2.745  11.350 -1.2331 -0.2282  0.0415
 7932SOL    HW135432   0.106   2.655  11.334 -2.3656 -0.4653 -0.7485
 7932SOL    HW235433   0.160   2.789  11.342  0.1862 -3.2204 -1.5402
 7933SOL     OW35434   3.841   0.326  16.356  0.3810 -0.2610  0.2925
 7933SOL    HW135435   3.819   0.419  16.356  1.1878 -0.0792 -2.8300
 7933SOL    HW235436   3.773   0.288  16.412 -0.1464 -1.0483 -0.8798
 7934SOL     OW35437   0.550   2.288  16.833  0.0771  0.3291  0.3682
 7934SOL    HW135438   0.469   2.339  16.820 -0.6576 -0.5195  1.5986
 7934SOL    HW235439   0.616   2.335  16.782  0.6711 -1.5646 -0.5702
 7935SOL     OW35440   1.566   3.233   2.282  0.8661  0.4774  0.5216
 7935SOL    HW135441   1.603   3.173   2.347  2.0529 -2.5199 -2.8960
 7935SOL    HW235442   1.477   3.226   2.317  0.3459  0.0070 -0.9111
 7936SOL     OW35443   0.211   0.457   3.020  0.2700  0.3135  0.3650
 7936SOL    HW135444   0.243   0.367   3.017 -1.3273 -0.1079 -4.7358
 7936SOL    HW235445   0.116   0.445   3.010  0.3849  0.8281 -1.3476
 7937SOL     OW35446   2.764   3.161   6.105 -0.2561 -0.3838  0.2833
 7937SOL    HW135447   2.680   3.154   6.149 -0.4119  0.4137  0.1029
 7937SOL    HW235448   2.812   3.120   6.177  1.4325  2.4812  0.7783
 7938SOL     OW35449   1.315   0.590  13.945  0.1514 -0.3509 -0.4565
 7938SOL    HW135450   1.293   0.508  13.989  0.4787 -0.0948  0.1817
 7938SOL    HW235451   1.388   0.571  13.886 -0.4738 -0.5625 -1.1579
 7939SOL     OW35452   2.719   2.322   8.443 -0.2727 -0.1696 -0.2768
 7939SOL    HW135453   2.727   2.328   8.539  2.5103 -2.5647 -0.3556
 7939SOL    HW235454   2.649   2.383   8.421 -0.6356 -0.5914 -0.2909
 7940SOL     OW35455   1.650   0.173   8.374  0.0677 -0.2452 -0.1516
 7940SOL    HW135456   1.693   0.195   8.292  2.6040  0.3054  1.2919
 7940SOL    HW235457   1.657   0.078   8.373  1.5226 -0.1956  2.7949
 7941SOL     OW35458   4.045   1.866   9.739  0.4384  0.1058 -0.1810
 7941SOL    HW135459   4.134   1.842   9.714  0.7665  0.9330  0.1883
 7941SOL    HW235460   4.038   1.807   9.814 -2.6271  2.5728  1.4506
 7942SOL     OW35461   4.549   2.595   5.819 -0.6149  0.7078  0.5223
 7942SOL    HW135462   4.488   2.535   5.861 -1.5327  0.7096 -0.8151
 7942SOL    HW235463   4.613   2.583   5.889  1.0901 -0.7579 -1.2623
 7943SOL     OW35464   3.160   1.994   6.464 -0.1971 -0.3393 -0.1959
 7943SOL    HW135465   3.097   1.985   6.393  1.3458 -1.3938 -1.4314
 7943SOL    HW235466   3.132   2.080   6.495 -0.0130 -0.1253 -0.6366
 7944SOL     OW35467   0.942   3.174  16.747 -0.2784 -0.0038 -0.0938
 7944SOL    HW135468   0.948   3.078  16.754 -0.7449 -0.1185 -1.3918
 7944SOL    HW235469   0.909   3.176  16.657 -1.0167  0.7413  0.1893
 7945SOL     OW35470   2.949   4.345   2.051 -0.4035 -0.4345 -0.2188
 7945SOL    HW135471   2.956   4.345   1.956 -1.4067  1.0985 -0.3017
 7945SOL    HW235472   3.003   4.271   2.078  0.3443 -0.9497 -3.1491
 7946SOL     OW35473   2.400   0.555  16.964 -0.8722 -0.2850 -0.2290
 7946SOL    HW135474   2.397   0.510  16.880 -0.1877  0.1580 -0.4893
 7946SOL    HW235475   2.459   0.628  16.946  0.0264 -0.5911  1.4549
 7947SOL     OW35476   4.452   2.597  11.602 -0.0950  0.3306 -0.1133
 7947SOL    HW135477   4.367   2.576  11.643  0.0882 -0.7113 -0.2559
 7947SOL    HW235478   4.430   2.659  11.533 -0.5429  0.3670  0.0575
 7948SOL     OW35479   2.554   0.345   9.363  0.0930 -0.3440 -0.0644
 7948SOL    HW135480   2.536   0.253   9.382 -1.1006 -0.6634 -2.7710
 7948SOL    HW235481   2.636   0.345   9.313  0.6332  0.3451  0.8224
 7949SOL     OW35482   3.527   2.783  13.781 -0.1523  0.2559 -0.6217
 7949SOL    HW135483   3.611   2.773  13.826 -1.3949 -0.6561  1.4752
 7949SOL    HW235484   3.475   2.834  13.843 -0.7313 -1.3236  0.2140
 7950SOL     OW35485   0.646   4.391   1.886  0.0210 -0.3989 -0.3359
 7950SOL    HW135486   0.560   4.370   1.923  0.1838  0.1858  0.3885
 7950SOL    HW235487   0.702   4.317   1.910  0.9487  1.0811  2.1423
 7951SOL     OW35488   0.739   0.935   8.909 -0.4315 -0.2119  0.2312
 7951SOL    HW135489   0.736   0.855   8.856 -2.5517 -0.2948  0.4782
 7951SOL    HW235490   0.697   0.996   8.848  1.5251 -0.2836 -1.2305
 7952SOL     OW35491   4.149   1.236  12.290  0.3567  0.5455  0.3609
 7952SOL    HW135492   4.073   1.267  12.340 -1.1733 -0.3580 -1.4273
 7952SOL    HW235493   4.201   1.186  12.354 -0.6127 -0.2452  0.5371
 7953SOL     OW35494   4.299   2.765  16.570 -0.1498 -0.1413  0.1626
 7953SOL    HW135495   4.278   2.779  16.477 -0.3952 -0.7713  0.1260
 7953SOL    HW235496   4.329   2.675  16.560 -0.2934  0.2007 -3.3104
 7954SOL     OW35497   2.231   0.072   1.583  0.4722 -0.4274 -0.8445
 7954SOL    HW135498   2.172   4.740   1.605 -1.0939  1.2244  0.3550
 7954SOL    HW235499   2.319   0.035   1.578  1.1322  1.2701 -1.6070
 7955SOL     OW35500   2.466   4.082   4.124 -0.3204  0.4990 -0.4230
 7955SOL    HW135501   2.534   4.135   4.164 -0.3975  0.3096 -0.0406
 7955SOL    HW235502   2.448   4.142   4.052 -0.5452 -0.0038 -0.7841
 7956SOL     OW35503   3.994   2.592   7.464  0.2124  0.3326  0.1539
 7956SOL    HW135504   3.955   2.674   7.496  1.2453  2.1457 -3.2288
 7956SOL    HW235505   3.993   2.538   7.543 -1.4242 -0.7831 -0.6617
 7957SOL     OW35506   4.213   4.170   3.446 -0.1620 -0.5275  0.3575
 7957SOL    HW135507   4.295   4.217   3.431  0.1298 -1.2565 -0.2613
 7957SOL    HW235508   4.155   4.232   3.491  0.4008  1.5782 -1.8223
 7958SOL     OW35509   2.081   0.387   1.675 -0.0407  0.3225 -0.6328
 7958SOL    HW135510   2.100   0.365   1.767 -0.6876 -1.3057 -0.8756
 7958SOL    HW235511   2.013   0.323   1.653  0.5072 -0.3091 -0.4864
 7959SOL     OW35512   1.186   2.098  16.382  0.0598 -0.7790 -0.0140
 7959SOL    HW135513   1.200   2.004  16.367  1.7791 -0.3451 -1.0411
 7959SOL    HW235514   1.098   2.113  16.348  0.7595 -1.0520 -1.9516
 7960SOL     OW35515   3.101   4.278   4.161 -0.2146 -0.4840  0.4877
 7960SOL    HW135516   3.121   4.355   4.215  0.5128 -0.8425  0.7262
 7960SOL    HW235517   3.121   4.323   4.078  0.0234 -1.5844 -0.0505
 7961SOL     OW35518   1.226   2.966   0.446  0.2409 -0.0219 -0.4988
 7961SOL    HW135519   1.147   2.995   0.492 -0.7588 -0.0441 -2.2041
 7961SOL    HW235520   1.266   3.052   0.432 -1.7475  0.7169 -1.6833
 7962SOL     OW35521   1.696   2.665   5.038 -0.2864  0.2795  0.8973
 7962SOL    HW135522   1.646   2.729   4.988 -0.6082  0.2755  1.2156
 7962SOL    HW235523   1.629   2.603   5.067 -0.2516  0.6054  1.6886
 7963SOL     OW35524   0.141   0.654   3.202 -0.5924 -0.1699  0.0275
 7963SOL    HW135525   0.161   0.665   3.109  1.1209 -0.2174  0.3868
 7963SOL    HW235526   0.220   0.693   3.240 -0.7670 -1.4008  1.6559
 7964SOL     OW35527   3.924   4.215   6.577  0.0155 -0.4889  0.5890
 7964SOL    HW135528   3.873   4.290   6.605  1.0357  0.4689 -0.1217
 7964SOL    HW235529   3.978   4.205   6.656 -1.1400 -2.7368  1.1024
 7965SOL     OW35530   1.300   1.424  15.330 -0.1431  0.0671 -0.1663
 7965SOL    HW135531   1.339   1.430  15.417 -1.5238 -1.5518  0.5490
 7965SOL    HW235532   1.223   1.370  15.343  0.3149 -0.3052  1.0291
 7966SOL     OW35533   2.799   0.408   9.239  0.1680  0.3051 -0.5652
 7966SOL    HW135534   2.762   0.342   9.181  2.3286 -0.7599 -0.7384
 7966SOL    HW235535   2.773   0.483   9.186  0.8743 -0.0804 -1.4635
 7967SOL     OW35536   0.369   3.074   8.431 -0.2901 -0.5967  0.2115
 7967SOL    HW135537   0.396   3.165   8.416  0.3494 -0.5617  1.5663
 7967SOL    HW235538   0.432   3.052   8.500  0.8997  0.2837 -0.6018
 7968SOL     OW35539   0.846   1.953   9.153 -0.7777  0.4034  0.0120
 7968SOL    HW135540   0.844   1.902   9.234  2.3512 -0.3958 -0.3806
 7968SOL    HW235541   0.766   1.925   9.109  0.0011 -0.7324 -0.6925
 7969SOL     OW35542   4.296   3.163   4.033  0.4168 -0.0545  0.0242
 7969SOL    HW135543   4.332   3.185   3.947  0.0544 -0.2896 -0.1894
 7969SOL    HW235544   4.219   3.220   4.029 -0.5760 -1.3027  1.3789
 7970SOL     OW35545   4.074   2.909   5.147  0.4413 -0.1799  0.6974
 7970SOL    HW135546   4.149   2.850   5.149  0.8639  0.3580  0.6731
 7970SOL    HW235547   4.107   2.996   5.166  0.7533  0.1686 -1.4079
 7971SOL     OW35548   3.781   0.576   8.359  0.0930  0.5056 -0.1084
 7971SOL    HW135549   3.808   0.503   8.415 -0.4879 -0.5418 -1.2069
 7971SOL    HW235550   3.844   0.645   8.380  1.9334 -0.8592 -1.1506
 7972SOL     OW35551   1.334   0.691  15.783  0.0525 -0.0702  0.6052
 7972SOL    HW135552   1.291   0.650  15.708  0.3205  0.6744  0.0465
 7972SOL    HW235553   1.259   0.726  15.830  1.1201  1.0269  1.4974
 7973SOL     OW35554   3.853   2.666   4.023  0.9457 -0.0885 -0.1408
 7973SOL    HW135555   3.848   2.571   4.029  3.1999 -0.2928 -1.6376
 7973SOL    HW235556   3.862   2.694   4.114  1.7265 -1.9733  0.3661
 7974SOL     OW35557   3.515   2.329   6.519 -0.1044 -0.4118  0.1470
 7974SOL    HW135558   3.526   2.277   6.598  0.2977  0.5508  0.7273
 7974SOL    HW235559   3.609   2.350   6.516 -0.3342  0.8017  1.6458
 7975SOL     OW35560   2.474   3.044   1.625  0.3796  0.1567  0.7516
 7975SOL    HW135561   2.395   3.083   1.588  0.6342 -1.6642 -1.7818
 7975SOL    HW235562   2.461   2.949   1.622 -0.5307  0.2703  1.2412
 7976SOL     OW35563   2.568   2.602   6.420  0.2256  0.4858 -0.3156
 7976SOL    HW135564   2.569   2.681   6.474 -1.8032 -0.7220  1.4536
 7976SOL    HW235565   2.581   2.642   6.334 -0.9055  2.5952  0.4961
 7977SOL     OW35566   3.278   2.674  17.743 -0.0912 -0.6399  0.6790
 7977SOL    HW135567   3.209   2.699   0.043  1.8203  2.1103  1.7747
 7977SOL    HW235568   3.269   2.742  17.676 -3.0939  1.4060  3.1544
 7978SOL     OW35569   1.308   3.545   4.854  0.4355  0.2050  0.2562
 7978SOL    HW135570   1.298   3.637   4.829  0.2385  0.8608  2.7567
 7978SOL    HW235571   1.254   3.492   4.795  1.5166 -0.8599  0.2131
 7979SOL     OW35572   4.624   2.140   6.278 -0.5033  0.2919 -0.2105
 7979SOL    HW135573   4.548   2.082   6.273 -0.0571 -0.3266  0.1944
 7979SOL    HW235574   4.593   2.220   6.236  1.9390  2.5578  2.3027
 7980SOL     OW35575   0.483   0.057   5.051 -0.2544  0.0383 -0.1124
 7980SOL    HW135576   0.505   0.054   5.144 -0.8424  0.5223  0.0363
 7980SOL    HW235577   0.561   0.110   5.030 -0.6117  0.9197  0.8240
 7981SOL     OW35578   2.133   1.499  16.746  0.9846  0.4484 -0.3360
 7981SOL    HW135579   2.050   1.482  16.791  0.6070  0.6514 -0.9585
 7981SOL    HW235580   2.185   1.542  16.814  0.8654  1.0774 -0.6372
 7982SOL     OW35581   4.621   0.372   6.314  0.4199  0.3222  0.5828
 7982SOL    HW135582   4.687   0.403   6.377  0.9531 -0.6356  0.5013
 7982SOL    HW235583   4.648   0.281   6.299  1.8380  0.5270  1.8382
 7983SOL     OW35584   1.297   1.710   8.221  0.0421 -0.8186 -0.4170
 7983SOL    HW135585   1.206   1.725   8.193  0.7809  2.5955 -0.9538
 7983SOL    HW235586   1.295   1.618   8.247  0.2348 -0.6658  0.1289
 7984SOL     OW35587   2.321   2.821   6.999 -0.1879 -0.4811 -0.3124
 7984SOL    HW135588   2.263   2.820   7.075  0.4459  1.3545  0.2029
 7984SOL    HW235589   2.263   2.802   6.926 -0.2636 -1.7779  0.0953
 7985SOL     OW35590   0.380   0.488   8.771 -0.4634  0.1396 -0.1665
 7985SOL    HW135591   0.305   0.522   8.723 -0.3383  2.9691  1.5772
 7985SOL    HW235592   0.363   0.516   8.861  3.3973 -1.2900  1.0074
 7986SOL     OW35593   4.335   1.769   4.974  0.3912  0.4805  0.0156
 7986SOL    HW135594   4.314   1.777   5.067  0.2459 -2.0250  0.1936
 7986SOL    HW235595   4.346   1.858   4.941  1.3732  0.1258 -0.6135
 7987SOL     OW35596   3.665   3.074  16.239  0.7111  0.2368  0.1125
 7987SOL    HW135597   3.593   3.086  16.301  0.7732 -0.1204  0.2519
 7987SOL    HW235598   3.737   3.100  16.296  0.4418 -0.8332  0.9212
 7988SOL     OW35599   1.354   2.871  14.589 -0.3570 -0.3522  0.0404
 7988SOL    HW135600   1.267   2.846  14.620  0.2057  0.9245  2.6769
 7988SOL    HW235601   1.346   2.885  14.495  0.4341 -1.7062 -0.2473
 7989SOL     OW35602   0.692   4.709   8.408  0.0579  0.0872 -0.1850
 7989SOL    HW135603   0.601   4.683   8.419  0.7305 -1.7174  0.9876
 7989SOL    HW235604   0.742   4.645   8.459  0.2481 -1.3804 -2.2183
 7990SOL     OW35605   2.678   0.485  10.831  0.9470  0.2714  0.3401
 7990SOL    HW135606   2.697   0.499  10.924 -1.4070  0.0680  0.8345
 7990SOL    HW235607   2.691   0.574  10.798  2.4828 -0.0214  0.1375
 7991SOL     OW35608   0.906   0.949  16.316 -0.2132 -0.1718 -0.1211
 7991SOL    HW135609   0.845   0.959  16.243 -0.2157  2.6215  0.2895
 7991SOL    HW235610   0.978   1.005  16.285 -0.4001  0.3066  0.3083
 7992SOL     OW35611   1.420   1.943   8.462  0.4024  0.1398  0.0594
 7992SOL    HW135612   1.370   2.022   8.444  0.8509  0.0712 -1.5069
 7992SOL    HW235613   1.354   1.892   8.508 -0.3112  1.5307  0.5606
 7993SOL     OW35614   2.489   0.883  12.265 -0.3986  0.4828  0.0888
 7993SOL    HW135615   2.397   0.862  12.280 -0.2959  2.9354  4.2043
 7993SOL    HW235616   2.490   0.924  12.179  1.0867 -0.9112 -0.5840
 7994SOL     OW35617   0.074   3.993  12.417 -0.5474  0.0326 -0.7672
 7994SOL    HW135618   0.065   4.012  12.323  0.5904  1.9665 -0.4955
 7994SOL    HW235619   0.145   3.929  12.418 -0.8079 -0.1970  1.8188
 7995SOL     OW35620   1.462   3.358   6.348 -0.2523  0.0072 -0.0568
 7995SOL    HW135621   1.422   3.287   6.298  0.7314 -1.4214  1.2021
 7995SOL    HW235622   1.556   3.339   6.352 -0.3761 -1.1878 -2.8913
 7996SOL     OW35623   2.090   2.891   7.149  0.1276  0.5662  0.2074
 7996SOL    HW135624   2.083   2.940   7.067  2.0046  1.2020  0.4260
 7996SOL    HW235625   2.015   2.832   7.148  0.5052  0.0753  1.0657
 7997SOL     OW35626   4.271   4.145   7.172  0.3957 -0.1325 -0.2220
 7997SOL    HW135627   4.180   4.155   7.202  0.2027  1.4313 -1.3116
 7997SOL    HW235628   4.310   4.216   7.223 -1.4864  0.0591  0.9657
 7998SOL     OW35629   0.525   2.009   4.998  0.2115  0.1734  0.5714
 7998SOL    HW135630   0.533   2.082   5.060  1.0129 -1.0266  1.8753
 7998SOL    HW235631   0.458   2.047   4.940 -1.2356  1.2340  2.9409
 7999SOL     OW35632   1.277   4.477   5.229 -0.0413  0.0880 -0.5088
 7999SOL    HW135633   1.230   4.417   5.171 -0.8446 -0.1540  0.3899
 7999SOL    HW235634   1.199   4.520   5.265  1.5463  1.5207  1.2188
 8000SOL     OW35635   3.338   1.694   7.411 -0.0235  0.1079  0.3961
 8000SOL    HW135636   3.251   1.672   7.446 -0.0107  0.2195  0.4981
 8000SOL    HW235637   3.372   1.721   7.496 -1.0112  0.4683  0.6809
 8001SOL     OW35638   0.703   0.527   5.049 -0.0575  0.1978 -0.1544
 8001SOL    HW135639   0.678   0.556   4.961  0.8605 -0.7521 -0.7245
 8001SOL    HW235640   0.793   0.556   5.066 -0.3244 -1.2801  3.6616
 8002SOL     OW35641   1.305   0.386   3.158 -0.4203  0.1213 -0.1845
 8002SOL    HW135642   1.301   0.304   3.207  0.4815  0.2358  0.0852
 8002SOL    HW235643   1.277   0.451   3.223 -0.8750  0.9452 -1.2080
 8003SOL     OW35644   4.300   0.377   7.664  0.1548 -0.8613  0.1442
 8003SOL    HW135645   4.342   0.385   7.578 -0.8656 -0.2541 -0.2970
 8003SOL    HW235646   4.207   0.396   7.646  0.2743 -0.2831  0.1484
 8004SOL     OW35647   0.920   1.216   8.866 -0.0254 -0.1933  0.0197
 8004SOL    HW135648   0.842   1.197   8.815 -0.7164  0.5520  0.8000
 8004SOL    HW235649   0.996   1.189   8.815  0.5811  1.8191 -0.1548
 8005SOL     OW35650   1.212   1.440   3.470  0.6404 -0.2796 -0.0830
 8005SOL    HW135651   1.137   1.393   3.436  0.7913 -0.6116  0.0426
 8005SOL    HW235652   1.184   1.531   3.463  2.3353  0.4478  2.2955
 8006SOL     OW35653   3.885   4.389   7.088 -0.5496 -0.6364  0.2039
 8006SOL    HW135654   3.897   4.471   7.040 -4.7017  0.6762  1.3876
 8006SOL    HW235655   3.850   4.334   7.018 -0.6120 -0.7511  0.3257
 8007SOL     OW35656   4.433   0.452   3.839  0.6344 -0.0623  0.5941
 8007SOL    HW135657   4.383   0.512   3.783  2.6028  0.3739 -0.7344
 8007SOL    HW235658   4.400   0.488   3.921  1.2417  1.0797  0.3403
 8008SOL     OW35659   4.086   1.644   6.432 -0.6210 -0.5023 -0.1137
 8008SOL    HW135660   3.999   1.643   6.472 -0.2803  2.6499  0.6964
 8008SOL    HW235661   4.065   1.670   6.342 -0.3397 -1.5828 -0.4884
 8009SOL     OW35662   1.278   2.012   2.723 -0.1356  0.3282  0.2364
 8009SOL    HW135663   1.298   2.093   2.676  0.1201  1.0670  1.6180
 8009SOL    HW235664   1.342   2.017   2.793  1.9976 -2.7821 -1.4910
 8010SOL     OW35665   3.344   0.697  10.854 -0.0295 -0.6846  0.6049
 8010SOL    HW135666   3.257   0.663  10.875 -0.0098 -1.6264 -0.8207
 8010SOL    HW235667   3.374   0.713  10.944 -1.7683 -0.0531  1.0734
 8011SOL     OW35668   1.150   3.681   6.533 -0.2927 -0.1328  0.3128
 8011SOL    HW135669   1.093   3.611   6.563 -1.4353  0.0913 -1.3163
 8011SOL    HW235670   1.120   3.753   6.589 -0.0509  1.8816 -2.1092
 8012SOL     OW35671   4.217   4.475   6.753 -0.7357 -0.3958  0.6324
 8012SOL    HW135672   4.265   4.394   6.772 -0.6045 -0.3434  0.5170
 8012SOL    HW235673   4.155   4.456   6.682  2.2265 -0.3950 -1.9194
 8013SOL     OW35674   0.280   4.208   8.714 -0.2592 -0.1790 -0.2056
 8013SOL    HW135675   0.223   4.132   8.726  0.3751 -0.4423  1.1592
 8013SOL    HW235676   0.370   4.178   8.730 -0.6969 -0.9220  0.8207
 8014SOL     OW35677   0.699   4.055  15.499  0.0732 -0.0438 -1.0743
 8014SOL    HW135678   0.620   4.025  15.456  0.2885  0.1667 -1.6146
 8014SOL    HW235679   0.720   4.131  15.444  0.7995 -0.2455 -1.0755
 8015SOL     OW35680   1.713   0.038   6.761  0.5098  0.4613  0.6256
 8015SOL    HW135681   1.726   4.685   6.745  0.6306  0.4036  1.0618
 8015SOL    HW235682   1.668   0.070   6.683  1.6624 -0.9999 -0.6404
 8016SOL     OW35683   0.713   1.340   3.984 -0.3232 -0.0628  0.3790
 8016SOL    HW135684   0.739   1.395   4.057  1.4173  0.7516 -0.8632
 8016SOL    HW235685   0.794   1.294   3.961 -0.0558  1.5492 -1.8467
 8017SOL     OW35686   2.330   1.650  14.750 -0.2286  0.3915  0.3500
 8017SOL    HW135687   2.237   1.669  14.736 -0.0278  0.8355 -0.4294
 8017SOL    HW235688   2.343   1.724  14.809  2.0981 -0.6461  1.1208
 8018SOL     OW35689   2.745   0.999   7.495  0.1594  0.1107  0.0992
 8018SOL    HW135690   2.814   1.002   7.561  0.8662 -1.6057 -0.5753
 8018SOL    HW235691   2.796   0.981   7.416  0.2896  2.4213 -0.3568
 8019SOL     OW35692   0.009   0.193  12.285 -0.0729  0.1502  0.5350
 8019SOL    HW135693   0.041   0.111  12.322  1.9873  0.4926 -0.4728
 8019SOL    HW235694   0.077   0.211  12.219 -2.4744 -1.2707 -2.3234
 8020SOL     OW35695   4.725   1.486   2.102  0.6952  0.1403 -0.0031
 8020SOL    HW135696   0.045   1.504   2.174 -1.4625 -1.5549  2.2397
 8020SOL    HW235697   4.694   1.401   2.133 -3.6491  1.0188 -1.9622
 8021SOL     OW35698   3.124   0.662   5.853  0.2983 -0.0791  0.3386
 8021SOL    HW135699   3.201   0.641   5.906 -0.8544 -0.3489  1.9114
 8021SOL    HW235700   3.135   0.622   5.767 -0.2339  1.4117 -0.4176
 8022SOL     OW35701   0.880   4.555   3.808 -0.0362  0.2933  0.4800
 8022SOL    HW135702   0.843   4.624   3.753 -2.4285 -0.4707  1.1450
 8022SOL    HW235703   0.971   4.584   3.818 -0.4830  2.0076 -0.4285
 8023SOL     OW35704   4.563   3.301   4.064 -0.2966  0.1965 -0.5385
 8023SOL    HW135705   4.532   3.228   4.117 -0.5801  0.8744  0.2269
 8023SOL    HW235706   4.489   3.361   4.070  0.2680  0.6857  1.4685
 8024SOL     OW35707   3.697   4.502   5.655  0.6258 -0.2959 -0.5176
 8024SOL    HW135708   3.694   4.547   5.739  0.4710  0.3056 -0.8457
 8024SOL    HW235709   3.605   4.492   5.629  0.1214 -1.4774  1.6669
 8025SOL     OW35710   1.391   2.302  12.601 -0.3526  0.5958  0.3848
 8025SOL    HW135711   1.329   2.232  12.621 -1.2525  0.7125 -1.9894
 8025SOL    HW235712   1.374   2.304  12.507  0.7870 -0.6918  0.1572
 8026SOL     OW35713   0.345   2.570   8.129 -0.3709  0.1891  0.2279
 8026SOL    HW135714   0.295   2.586   8.209 -0.7668  0.4613 -0.0717
 8026SOL    HW235715   0.275   2.533   8.074  1.6675 -1.1014 -1.4966
 8027SOL     OW35716   1.457   4.348  15.693 -0.0227 -0.2117  0.2761
 8027SOL    HW135717   1.424   4.262  15.718 -0.2264 -0.1278  0.2950
 8027SOL    HW235718   1.434   4.403  15.768  0.4529 -0.8215  0.8692
 8028SOL     OW35719   0.038   4.408  10.500  0.0873 -0.4986  0.3208
 8028SOL    HW135720   4.697   4.436  10.458  0.1925  0.0124  0.4618
 8028SOL    HW235721   0.021   4.318  10.527 -1.9070  0.4504  2.2350
 8029SOL     OW35722   2.726   1.933   7.965  0.1896 -0.2414  0.0994
 8029SOL    HW135723   2.752   1.844   7.989  0.9472 -0.2604 -0.8110
 8029SOL    HW235724   2.676   1.966   8.040  2.6109  0.9364  1.1754
 8030SOL     OW35725   0.807   1.317   1.937 -0.2857 -0.2019  0.3287
 8030SOL    HW135726   0.835   1.264   1.862  1.3600 -0.9337  1.4594
 8030SOL    HW235727   0.883   1.327   1.994  0.4404  1.8899 -1.0012
 8031SOL     OW35728   0.536   2.317   9.294 -0.6084  0.2295 -0.7210
 8031SOL    HW135729   0.583   2.294   9.214 -1.3498 -1.5378 -0.6569
 8031SOL    HW235730   0.525   2.229   9.331  1.2266  0.1076 -0.4629
 8032SOL     OW35731   2.411   0.836   3.319 -0.3114  0.2133  0.2097
 8032SOL    HW135732   2.321   0.860   3.342 -0.0219 -0.3679  1.9625
 8032SOL    HW235733   2.430   0.770   3.385  0.8347  1.8345  1.4887
 8033SOL     OW35734   2.373   0.496   9.566 -0.2251  0.1928  0.2120
 8033SOL    HW135735   2.314   0.513   9.493 -1.5254 -0.1140  1.1856
 8033SOL    HW235736   2.423   0.428   9.521 -0.9921  0.1207 -0.5402
 8034SOL     OW35737   0.814   2.788   8.022  0.5081 -0.0857 -0.7028
 8034SOL    HW135738   0.815   2.692   8.019  0.6736 -0.0852 -0.6673
 8034SOL    HW235739   0.750   2.802   7.953  2.1484  0.3604 -2.1257
 8035SOL     OW35740   3.853   2.691   2.877 -0.1068  0.5621 -0.4987
 8035SOL    HW135741   3.807   2.627   2.824  1.2782 -0.2612 -0.6901
 8035SOL    HW235742   3.939   2.653   2.892 -0.5511  0.3715  1.5613
 8036SOL     OW35743   2.375   3.619   4.754  0.2364 -0.3947  0.4311
 8036SOL    HW135744   2.334   3.561   4.818 -0.7760 -0.9522 -0.7244
 8036SOL    HW235745   2.432   3.662   4.818 -0.5533  0.3171  0.6525
 8037SOL     OW35746   2.025   3.228   4.505 -0.1711  0.4553  0.2415
 8037SOL    HW135747   1.980   3.289   4.564 -1.0733 -2.1942  2.2735
 8037SOL    HW235748   1.980   3.145   4.512  0.6140 -0.1419 -1.6453
 8038SOL     OW35749   1.828   3.820   4.052  0.0254  0.4596  0.2938
 8038SOL    HW135750   1.801   3.855   3.967 -2.4281  0.1893  0.9573
 8038SOL    HW235751   1.921   3.843   4.054  0.2315 -0.4781  2.0013
 8039SOL     OW35752   1.551   1.524  14.915 -0.0828  0.1335 -0.0796
 8039SOL    HW135753   1.640   1.508  14.945  0.1105 -0.8025 -1.1624
 8039SOL    HW235754   1.509   1.537  15.000 -0.1217  0.2695 -0.1195
 8040SOL     OW35755   1.399   1.711   9.787 -0.1686  0.2267  0.0859
 8040SOL    HW135756   1.436   1.751   9.866  1.1048  1.4663 -1.1502
 8040SOL    HW235757   1.328   1.662   9.829 -0.2946  1.5928  1.4834
 8041SOL     OW35758   3.224   3.206   1.761  0.1660 -0.5999 -0.0392
 8041SOL    HW135759   3.233   3.190   1.667  1.5028  1.8065 -0.3178
 8041SOL    HW235760   3.271   3.130   1.798  0.7764 -0.4150 -0.4389
 8042SOL     OW35761   3.146   2.071   8.844 -0.0531  0.0121  0.1142
 8042SOL    HW135762   3.172   2.162   8.829  1.4346 -0.8316 -2.4782
 8042SOL    HW235763   3.230   2.040   8.879 -0.3195  0.0633  0.7907
 8043SOL     OW35764   2.239   0.778   7.799  0.3171  0.4115 -0.3197
 8043SOL    HW135765   2.287   0.798   7.719  0.0898 -1.8920 -1.0127
 8043SOL    HW235766   2.280   0.693   7.813 -1.0635 -0.4490 -1.4087
 8044SOL     OW35767   4.027   0.429   7.661 -0.1835 -0.3139 -0.0120
 8044SOL    HW135768   3.982   0.396   7.583 -0.0723 -1.0776  0.2442
 8044SOL    HW235769   3.948   0.426   7.716  0.0442  3.0745  0.4880
 8045SOL     OW35770   1.451   3.298   7.748 -0.0460 -0.0839 -0.0930
 8045SOL    HW135771   1.497   3.380   7.767  0.7862  0.1341 -3.1004
 8045SOL    HW235772   1.505   3.261   7.678  2.0038 -2.0445  2.5044
 8046SOL     OW35773   3.506   1.634  11.391 -1.1048 -0.7257 -0.2824
 8046SOL    HW135774   3.516   1.723  11.358  0.2440 -0.6690  0.2785
 8046SOL    HW235775   3.563   1.576  11.340 -1.7390 -1.2081 -0.4509
 8047SOL     OW35776   4.715   2.538   5.409 -0.2924 -0.5839  0.0449
 8047SOL    HW135777   0.013   2.624   5.429  1.5432 -1.0318 -1.5886
 8047SOL    HW235778   4.629   2.561   5.444  0.6939  1.8851  0.8452
 8048SOL     OW35779   0.836   4.195   1.947 -0.5644  0.4510  0.4532
 8048SOL    HW135780   0.904   4.133   1.973  0.7129  1.8572  0.4583
 8048SOL    HW235781   0.760   4.138   1.960  0.5036 -0.8648  0.9008
 8049SOL     OW35782   0.869   3.315   3.403  0.4548 -0.0415  0.0286
 8049SOL    HW135783   0.833   3.342   3.487  0.4701  2.3796 -0.7548
 8049SOL    HW235784   0.835   3.366   3.330  1.0397 -1.0478 -0.9663
 8050SOL     OW35785   0.699   3.862   2.219  0.0437 -0.1021  0.2423
 8050SOL    HW135786   0.765   3.911   2.268  0.9056  0.8925 -1.8658
 8050SOL    HW235787   0.620   3.914   2.234 -0.8037 -0.6876 -2.0706
 8051SOL     OW35788   3.906   1.128   7.874 -0.3667  0.2309 -0.9653
 8051SOL    HW135789   3.818   1.101   7.847 -0.3029 -0.5231 -0.4179
 8051SOL    HW235790   3.951   1.081   7.804 -0.3971  2.9315 -2.7860
 8052SOL     OW35791   0.769   3.383   0.912  0.7622  0.1932  0.1414
 8052SOL    HW135792   0.864   3.388   0.901  0.9204 -2.1866  0.5558
 8052SOL    HW235793   0.752   3.404   0.820 -0.4867  1.1149  0.5823
 8053SOL     OW35794   1.077   2.243   6.628  0.1246 -0.0956  0.4543
 8053SOL    HW135795   1.149   2.234   6.691  0.0005 -0.0283  0.6055
 8053SOL    HW235796   1.100   2.184   6.556  1.4191  0.4043  0.4554
 8054SOL     OW35797   3.074   2.205   7.582  0.1908  0.5045 -0.2461
 8054SOL    HW135798   3.013   2.255   7.637 -1.4459  0.7292 -2.2583
 8054SOL    HW235799   3.112   2.286   7.549 -0.3000  1.0045  0.4145
 8055SOL     OW35800   0.851   4.028   5.868  0.0943  0.0532 -0.5713
 8055SOL    HW135801   0.811   3.945   5.893  0.9257 -0.6114 -1.4654
 8055SOL    HW235802   0.793   4.046   5.793 -0.9362 -0.1395  0.1825
 8056SOL     OW35803   3.915   4.036   4.499  0.1326  0.5468 -0.0173
 8056SOL    HW135804   3.928   4.092   4.422  0.2307 -1.6242 -1.5626
 8056SOL    HW235805   3.964   4.084   4.566  2.1081 -1.3522 -0.1241
 8057SOL     OW35806   1.248   2.075   0.307 -0.2916  0.0800 -0.4670
 8057SOL    HW135807   1.237   2.100   0.216  0.6321 -0.8216 -0.8233
 8057SOL    HW235808   1.297   1.994   0.291 -3.0957 -1.5557 -0.8408
 8058SOL     OW35809   1.908   0.627   4.874  0.1813 -0.2307 -0.1925
 8058SOL    HW135810   1.941   0.715   4.856  0.7041 -0.5666 -0.8868
 8058SOL    HW235811   1.842   0.627   4.804  0.6187  3.6129 -0.6284
 8059SOL     OW35812   1.928   2.650   5.180 -0.3154 -0.4058 -0.3931
 8059SOL    HW135813   1.835   2.657   5.157 -1.5430 -1.6870  4.0965
 8059SOL    HW235814   1.935   2.557   5.200 -0.5825 -0.2197  0.6094
 8060SOL     OW35815   3.863   1.955  11.940 -0.3459  0.2653 -0.3641
 8060SOL    HW135816   3.954   1.950  11.914 -0.7461 -0.9281 -1.5355
 8060SOL    HW235817   3.815   1.928  11.862 -2.2582 -1.4940  1.4259
 8061SOL     OW35818   2.243   2.441   3.659  0.0011  0.1392 -0.2700
 8061SOL    HW135819   2.242   2.501   3.585 -0.2960 -0.9252 -1.1205
 8061SOL    HW235820   2.244   2.366   3.600  0.2478 -0.3510  0.3500
 8062SOL     OW35821   1.762   2.463   8.304 -0.2825 -0.9466 -0.0939
 8062SOL    HW135822   1.830   2.530   8.302  0.2025 -1.4372 -0.1411
 8062SOL    HW235823   1.806   2.406   8.368 -0.7178 -0.5100  0.5982
 8063SOL     OW35824   3.561   1.708   5.354  0.2715  0.0775  0.6753
 8063SOL    HW135825   3.619   1.739   5.283 -1.2597  2.1705  0.3490
 8063SOL    HW235826   3.504   1.653   5.300  2.0692 -0.8247 -0.3095
 8064SOL     OW35827   1.412   0.028   9.041 -0.4130 -0.3236  0.1916
 8064SOL    HW135828   1.470   0.031   8.965  1.5690  1.0390  1.7396
 8064SOL    HW235829   1.439   4.691   9.090 -1.7657  1.0936  3.1721
 8065SOL     OW35830   3.457   0.804  11.069  0.4143  0.0113  1.0090
 8065SOL    HW135831   3.410   0.867  11.015 -0.8489  0.2442  2.3649
 8065SOL    HW235832   3.472   0.858  11.147 -0.5839  1.5102  0.1436
 8066SOL     OW35833   2.264   4.307  15.374 -0.4549 -0.0080  0.3837
 8066SOL    HW135834   2.264   4.226  15.322 -1.7480 -0.3956  0.9859
 8066SOL    HW235835   2.240   4.268  15.458  0.9752  0.9232  1.2212
 8067SOL     OW35836   2.815   4.612  10.734 -0.4752  0.3247 -0.1688
 8067SOL    HW135837   2.840   4.695  10.694  2.0438 -1.6659 -2.7781
 8067SOL    HW235838   2.743   4.637  10.791  1.7359 -0.6075  3.0585
 8068SOL     OW35839   3.855   3.494   4.598 -0.1985 -0.4370  0.2546
 8068SOL    HW135840   3.826   3.425   4.538  0.7249  1.4926 -2.3970
 8068SOL    HW235841   3.900   3.440   4.662  0.7799 -2.7067 -2.3213
 8069SOL     OW35842   4.217   3.374   8.367 -0.6385 -0.2941 -0.2044
 8069SOL    HW135843   4.203   3.280   8.371  1.4195 -0.7056 -2.6219
 8069SOL    HW235844   4.282   3.383   8.297 -0.2714  1.4100  0.3430
 8070SOL     OW35845   1.268   4.696   6.289 -0.0018  0.2188  0.0854
 8070SOL    HW135846   1.269   4.653   6.203 -0.5359 -1.8658  1.1076
 8070SOL    HW235847   1.182   4.734   6.305 -0.4809 -1.0616  0.5701
 8071SOL     OW35848   2.218   3.669   5.252  0.2030 -0.2026 -0.1639
 8071SOL    HW135849   2.232   3.744   5.309  0.7264  0.4609 -1.1532
 8071SOL    HW235850   2.168   3.606   5.303 -0.1551  0.0648 -0.1837
 8072SOL     OW35851   2.254   1.159   7.519 -0.3638 -0.4059 -0.0396
 8072SOL    HW135852   2.185   1.095   7.502 -1.1981  0.3611  0.5039
 8072SOL    HW235853   2.276   1.201   7.436 -1.5023 -2.2836 -1.2951
 8073SOL     OW35854   4.670   2.923   0.827 -0.0335  0.7084 -0.1385
 8073SOL    HW135855   4.599   2.945   0.888 -1.8757 -1.8153 -1.3216
 8073SOL    HW235856   4.735   2.990   0.844  1.7525 -0.7641 -1.1548
 8074SOL     OW35857   1.856   2.199  12.992  0.0271 -0.6720 -0.1703
 8074SOL    HW135858   1.834   2.212  12.900 -0.3311 -1.2578 -0.1653
 8074SOL    HW235859   1.950   2.184  12.994  0.1101  0.3425  3.7407
 8075SOL     OW35860   0.159   2.299   8.624 -0.2800  0.2971  0.0275
 8075SOL    HW135861   0.204   2.288   8.540  2.3766 -0.7684  1.6008
 8075SOL    HW235862   0.078   2.350   8.615 -0.1283  0.5876  0.2929
 8076SOL     OW35863   2.303   3.287   5.873 -0.4272  0.4487 -0.0005
 8076SOL    HW135864   2.310   3.196   5.846 -1.0635  0.5052 -0.3461
 8076SOL    HW235865   2.389   3.302   5.912 -0.3374 -1.0187  0.3443
 8077SOL     OW35866   0.960   4.483   1.387 -0.0226  0.0690  0.2699
 8077SOL    HW135867   0.921   4.395   1.380  0.5893 -0.0961 -1.1614
 8077SOL    HW235868   0.886   4.543   1.382 -0.0599  0.0289  0.3372
 8078SOL     OW35869   0.615   3.602   8.110  0.0567 -0.6057  0.9014
 8078SOL    HW135870   0.578   3.678   8.156  2.2932 -1.0391  3.4078
 8078SOL    HW235871   0.547   3.579   8.047 -0.1628 -0.3999  1.0622
 8079SOL     OW35872   2.836   0.667   4.324  0.1139  0.0723 -0.0563
 8079SOL    HW135873   2.863   0.625   4.243  2.3454  0.7051  0.3596
 8079SOL    HW235874   2.913   0.661   4.380  0.7817  3.5551 -0.6469
 8080SOL     OW35875   4.024   3.693  16.862  0.0123 -0.0250 -0.1210
 8080SOL    HW135876   4.001   3.757  16.929 -0.1361 -2.3911  2.1027
 8080SOL    HW235877   3.961   3.720  16.795 -0.9691  0.3122  0.9394
 8081SOL     OW35878   2.284   2.000   4.890  0.2808 -0.1625  1.0934
 8081SOL    HW135879   2.197   2.038   4.901  0.5739  1.6380 -2.8286
 8081SOL    HW235880   2.288   1.965   4.979  2.0100  0.6707  1.3601
 8082SOL     OW35881   4.494   2.575   4.247  0.4410 -0.3388 -0.4433
 8082SOL    HW135882   4.435   2.507   4.277 -1.1729 -0.1564 -3.2745
 8082SOL    HW235883   4.581   2.547   4.275  0.1006  1.1798  2.2058
 8083SOL     OW35884   0.076   1.631   8.620  0.1465  0.3672 -0.9798
 8083SOL    HW135885   0.053   1.539   8.611  1.6590 -0.0012 -1.1799
 8083SOL    HW235886   4.738   1.665   8.661  0.0545 -1.8442  0.6656
 8084SOL     OW35887   2.894   1.224   9.664  0.1216 -0.1451  0.1441
 8084SOL    HW135888   2.893   1.217   9.759 -1.0163  2.6824  0.3306
 8084SOL    HW235889   2.870   1.316   9.651 -2.4136 -0.4274  2.9675
 8085SOL     OW35890   3.494   1.231   6.497 -0.1315  0.3283 -0.4057
 8085SOL    HW135891   3.455   1.249   6.411 -2.4131  0.2107  0.6041
 8085SOL    HW235892   3.414   1.247   6.548  1.0620  1.4949  1.0994
 8086SOL     OW35893   0.818   2.125   9.660  0.0792  0.0501 -0.3790
 8086SOL    HW135894   0.871   2.089   9.730  1.4942  1.6914 -0.6226
 8086SOL    HW235895   0.727   2.112   9.687  1.3237 -1.5364  2.9602
 8087SOL     OW35896   3.874   0.945   8.520 -0.1570  0.4682 -0.1316
 8087SOL    HW135897   3.854   1.037   8.536 -0.2135  0.5298 -0.5738
 8087SOL    HW235898   3.826   0.911   8.596  1.5857  0.4130  0.9538
 8088SOL     OW35899   2.605   3.929  16.164  0.2391 -0.2932 -0.5716
 8088SOL    HW135900   2.663   3.979  16.107 -0.9955 -0.0860 -1.6327
 8088SOL    HW235901   2.643   3.841  16.156 -0.1295 -0.4958 -0.1393
 8089SOL     OW35902   1.872   4.449  11.632  0.6742  0.1119 -0.0548
 8089SOL    HW135903   1.859   4.372  11.575  2.8162 -2.5270  3.0004
 8089SOL    HW235904   1.839   4.518  11.574  0.0352 -0.8619 -0.8581
 8090SOL     OW35905   2.337   3.550   5.034 -0.7142 -0.1252  0.3064
 8090SOL    HW135906   2.427   3.560   5.065 -0.9238 -2.2681  1.5983
 8090SOL    HW235907   2.290   3.596   5.104 -2.1844 -2.1327  0.6256
 8091SOL     OW35908   2.802   0.459  10.015  0.5396 -0.3494 -0.2751
 8091SOL    HW135909   2.862   0.404  10.064  0.5517  0.1322  0.2520
 8091SOL    HW235910   2.861   0.468   9.940 -0.7460  0.2612 -1.2257
 8092SOL     OW35911   0.674   4.545   2.693 -0.0773 -0.8869 -0.5130
 8092SOL    HW135912   0.673   4.571   2.601  0.4321  0.2813 -0.1970
 8092SOL    HW235913   0.677   4.450   2.697  1.6906 -0.8801 -1.4202
 8093SOL     OW35914   4.350   4.572   5.953  0.1934  0.4894  0.1363
 8093SOL    HW135915   4.377   4.502   5.893 -0.1768  1.1367 -0.7822
 8093SOL    HW235916   4.407   4.558   6.029  0.7357  0.3689 -0.2937
 8094SOL     OW35917   4.714   0.346  15.420 -0.1172  0.8429 -0.2525
 8094SOL    HW135918   4.696   0.290  15.496  0.6150  0.8744 -0.0519
 8094SOL    HW235919   4.645   0.411  15.431  0.6941  1.8370 -1.0220
 8095SOL     OW35920   0.532   4.543   5.472  0.3403 -0.0165 -0.2139
 8095SOL    HW135921   0.564   4.623   5.432  0.6003 -0.4350 -0.8591
 8095SOL    HW235922   0.468   4.517   5.405  0.2923 -0.4088 -0.0189
 8096SOL     OW35923   2.042   0.482  16.978 -0.2884  0.3066  0.4941
 8096SOL    HW135924   1.993   0.406  17.008  0.3486 -1.1746 -2.2299
 8096SOL    HW235925   2.097   0.493  17.055  1.5093  1.9390 -0.9976
 8097SOL     OW35926   0.969   2.955   8.135  0.0700 -0.1471 -0.0102
 8097SOL    HW135927   0.959   2.914   8.221 -2.0029 -0.5870 -0.4436
 8097SOL    HW235928   0.920   2.893   8.081  3.1028 -0.9154 -1.8821
 8098SOL     OW35929   1.086   1.708   2.506 -0.2547 -0.1761  0.5705
 8098SOL    HW135930   1.054   1.747   2.424  2.7411  0.3609 -0.3417
 8098SOL    HW235931   1.021   1.640   2.524  1.8215 -1.9103  1.5756
 8099SOL     OW35932   2.177   2.478   1.904  0.0700  0.0584 -0.3537
 8099SOL    HW135933   2.198   2.534   1.979 -4.4207  0.5502  0.5253
 8099SOL    HW235934   2.135   2.542   1.847 -0.3911 -0.5750 -0.7335
 8100SOL     OW35935   3.099   3.362  11.528  0.0670  0.3816  0.2453
 8100SOL    HW135936   3.126   3.451  11.549 -2.0942  1.7710 -2.8890
 8100SOL    HW235937   3.006   3.379  11.516 -0.0854 -0.6700 -0.0993
 8101SOL     OW35938   0.334   0.642   6.002 -0.7802 -0.1920 -0.0372
 8101SOL    HW135939   0.375   0.568   5.957  0.9808  1.1206 -0.5421
 8101SOL    HW235940   0.338   0.620   6.095 -2.5974  0.3469  0.1715
 8102SOL     OW35941   0.403   1.395   1.856  0.3669  0.2648  0.2681
 8102SOL    HW135942   0.316   1.364   1.832 -0.0702  1.0886  0.7760
 8102SOL    HW235943   0.432   1.326   1.915  1.3888  2.2932  2.1555
 8103SOL     OW35944   2.005   0.697  10.206  0.1934 -0.2638  0.4381
 8103SOL    HW135945   2.007   0.601  10.213  4.0385 -0.2351 -0.3816
 8103SOL    HW235946   1.947   0.701  10.282 -1.3549 -0.6222 -0.7250
 8104SOL     OW35947   2.553   3.990  16.454  0.1174 -0.9018 -0.1727
 8104SOL    HW135948   2.576   3.982  16.361 -1.2707 -0.0051 -0.5998
 8104SOL    HW235949   2.460   3.971  16.463 -0.2029 -0.3989 -2.2671
 8105SOL     OW35950   0.705   3.320   7.654 -0.4885 -0.4185  0.0105
 8105SOL    HW135951   0.752   3.241   7.681 -0.8346  0.1178  2.2098
 8105SOL    HW235952   0.758   3.381   7.705 -0.0507  1.4920 -2.7410
 8106SOL     OW35953   2.509   2.232   8.956 -0.3632  0.1161 -0.1240
 8106SOL    HW135954   2.518   2.255   9.048 -2.4885  1.7849 -0.3258
 8106SOL    HW235955   2.510   2.137   8.966 -0.7676  0.0728 -0.4699
 8107SOL     OW35956   1.962   3.804  11.080 -0.2405  0.2202 -0.2524
 8107SOL    HW135957   1.963   3.894  11.047  2.5382  0.5778  0.7476
 8107SOL    HW235958   2.039   3.801  11.137 -0.1715 -0.0473 -0.3585
 8108SOL     OW35959   1.866   4.518   4.926 -0.5789  0.4464  0.8979
 8108SOL    HW135960   1.786   4.571   4.932 -0.9181 -0.1552  1.7903
 8108SOL    HW235961   1.879   4.512   4.832 -0.5868 -1.4517  1.0075
 8109SOL     OW35962   4.290   2.257   7.926 -0.2920 -0.1085  0.5540
 8109SOL    HW135963   4.310   2.179   7.978  0.0472 -1.1842 -1.2214
 8109SOL    HW235964   4.366   2.264   7.868 -1.8682  1.2767 -1.3283
 8110SOL     OW35965   3.391   3.951   3.301  0.3047 -0.1291  0.0043
 8110SOL    HW135966   3.297   3.957   3.287  0.1909 -0.2144  0.7750
 8110SOL    HW235967   3.417   3.868   3.262 -0.9113 -1.5320  2.2181
 8111SOL     OW35968   2.903   0.850   7.825  0.1237  0.9216 -0.0763
 8111SOL    HW135969   2.920   0.813   7.738  0.5090 -2.0013  1.2388
 8111SOL    HW235970   2.871   0.937   7.802 -1.2529  1.0050  2.1548
 8112SOL     OW35971   3.288   1.848   3.065  0.1897  0.3092 -0.1843
 8112SOL    HW135972   3.247   1.769   3.029  3.2321  0.3674 -3.7943
 8112SOL    HW235973   3.334   1.879   2.988 -2.0272  0.1882 -1.5517
 8113SOL     OW35974   1.594   3.518   6.037 -0.2501 -0.1418  0.0310
 8113SOL    HW135975   1.516   3.570   6.018 -1.8533 -2.1753  1.1237
 8113SOL    HW235976   1.595   3.446   5.974  1.2295 -0.7140  0.6944
 8114SOL     OW35977   0.524   0.908   2.066 -0.0392 -0.4864  0.3662
 8114SOL    HW135978   0.450   0.857   2.097  0.2728 -1.1745 -0.0190
 8114SOL    HW235979   0.532   0.862   1.982 -2.4062  0.9194 -0.6278
 8115SOL     OW35980   0.498   3.602   0.913  0.0398 -0.2805  0.2341
 8115SOL    HW135981   0.521   3.571   0.825  1.2871  0.0466  0.4526
 8115SOL    HW235982   0.580   3.636   0.949 -1.4514  4.8025 -1.1239
 8116SOL     OW35983   2.773   1.861   2.725 -0.3250  0.6316  0.1576
 8116SOL    HW135984   2.757   1.786   2.668 -2.6159 -0.5335  2.3279
 8116SOL    HW235985   2.689   1.869   2.771 -0.2424  0.1857  0.3869
 8117SOL     OW35986   0.641   0.532   8.027  0.2596 -0.1239  0.2068
 8117SOL    HW135987   0.630   0.464   7.960  1.1586 -0.8623  0.8189
 8117SOL    HW235988   0.692   0.597   7.979  1.8149 -1.7214 -0.2720
 8118SOL     OW35989   4.112   2.762   8.856  0.5355 -0.7126  0.4832
 8118SOL    HW135990   4.074   2.721   8.933 -0.0648 -0.9389  0.0683
 8118SOL    HW235991   4.176   2.815   8.902 -0.6801  1.5098 -0.3851
 8119SOL     OW35992   1.265   4.564   6.061  0.2871 -0.3497  0.0467
 8119SOL    HW135993   1.338   4.539   6.003 -0.5428  0.2861 -1.2764
 8119SOL    HW235994   1.201   4.594   5.997  1.1228 -0.8455 -1.0282
 8120SOL     OW35995   4.727   4.052   3.704 -0.1463 -0.0615  0.1760
 8120SOL    HW135996   4.715   4.107   3.781  2.7286  1.4399 -0.4524
 8120SOL    HW235997   0.082   4.052   3.698 -0.1763  1.4581 -0.3132
 8121SOL     OW35998   4.455   2.269   2.382 -0.0642 -0.4342 -0.3918
 8121SOL    HW135999   4.364   2.242   2.378  0.1067 -1.1606  0.5897
 8121SOL    HW236000   4.494   2.185   2.407 -3.4871 -1.4809  1.3726
 8122SOL     OW36001   1.147   3.559   2.957 -0.3645  0.3415 -0.7426
 8122SOL    HW136002   1.121   3.539   3.047  0.7657 -2.0309 -0.9448
 8122SOL    HW236003   1.230   3.511   2.954 -0.4063  0.2285 -0.0519
 8123SOL     OW36004   2.731   3.113   8.523 -0.2377 -0.3226  0.1243
 8123SOL    HW136005   2.704   3.176   8.590 -0.1126  0.4100 -0.5161
 8123SOL    HW236006   2.730   3.166   8.444  0.6528  0.5513  0.6907
 8124SOL     OW36007   2.017   4.417  15.669  0.5507  0.3801  0.2327
 8124SOL    HW136008   2.007   4.513  15.664  0.6481  0.3772 -0.0551
 8124SOL    HW236009   1.959   4.387  15.738 -3.3597  2.4684 -2.1411
 8125SOL     OW36010   1.813   3.512   0.117  0.1523 -0.1268 -0.0783
 8125SOL    HW136011   1.753   3.444   0.147 -1.5179  1.4202  0.0765
 8125SOL    HW236012   1.761   3.541   0.042 -1.2828 -2.9840 -0.2174
 8126SOL     OW36013   1.741   4.096  17.230 -0.5225  0.2792  0.3899
 8126SOL    HW136014   1.755   4.080  17.137  2.1845 -0.1206  0.8859
 8126SOL    HW236015   1.726   4.008  17.263 -2.0252  0.5885  0.5700
 8127SOL     OW36016   4.209   2.008   5.657  0.0952 -0.1021 -0.1047
 8127SOL    HW136017   4.199   1.913   5.661 -2.7410  0.3080  2.1717
 8127SOL    HW236018   4.304   2.006   5.644  0.3885 -0.5823  2.1612
 8128SOL     OW36019   1.419   4.080  15.083  0.2536 -0.8404 -0.4012
 8128SOL    HW136020   1.442   3.991  15.056  0.4362 -1.7242  2.6767
 8128SOL    HW236021   1.465   4.088  15.166 -3.0199  2.7437  1.0700
 8129SOL     OW36022   2.589   0.637  10.017  0.2855  0.4558 -0.0595
 8129SOL    HW136023   2.655   0.572   9.992  1.3701  1.0828  1.2365
 8129SOL    HW236024   2.533   0.648   9.940 -2.2616 -1.1716  1.5288
 8130SOL     OW36025   3.382   2.016   4.402  0.2313 -0.3419 -0.5044
 8130SOL    HW136026   3.410   2.074   4.332  2.2100 -0.6454  0.0378
 8130SOL    HW236027   3.462   1.972   4.430 -0.9256 -2.2453 -0.1864
 8131SOL     OW36028   1.645   4.462   8.986 -0.2415 -0.3187 -0.0478
 8131SOL    HW136029   1.580   4.482   9.053 -1.8264  1.1000 -1.9945
 8131SOL    HW236030   1.667   4.551   8.958  0.6966 -0.2298  0.9760
 8132SOL     OW36031   0.092   0.193   4.323  0.0352  0.0196 -0.7056
 8132SOL    HW136032   0.112   0.223   4.234  1.1921  1.3542  0.0070
 8132SOL    HW236033   0.041   0.261   4.367  2.5298  1.5174 -0.1261
 8133SOL     OW36034   3.855   0.241   4.909  0.0403  0.0070 -0.7221
 8133SOL    HW136035   3.772   0.274   4.875  0.1850  0.3806 -0.7116
 8133SOL    HW236036   3.919   0.292   4.860  0.8390 -1.3384 -1.0866
 8134SOL     OW36037   4.335   3.219   3.737 -0.0870 -0.0863 -0.1704
 8134SOL    HW136038   4.308   3.307   3.712 -1.5714 -0.9489 -1.6160
 8134SOL    HW236039   4.400   3.197   3.670  0.9499  0.4994  0.6338
 8135SOL     OW36040   0.154   3.750   0.517 -0.2443  0.2039 -0.3287
 8135SOL    HW136041   0.084   3.814   0.529  0.2395  0.1507  2.7353
 8135SOL    HW236042   0.123   3.674   0.566 -0.0011  1.4902  1.8220
 8136SOL     OW36043   4.296   3.446   9.011 -0.7238  0.0325  0.3411
 8136SOL    HW136044   4.260   3.533   8.991 -0.9636 -0.0893  0.2526
 8136SOL    HW236045   4.331   3.448   9.100  3.1511  1.0592 -1.1814
 8137SOL     OW36046   1.728   0.479   7.202  0.6761  0.0094 -0.0728
 8137SOL    HW136047   1.728   0.548   7.267 -1.8288  0.4110 -0.4887
 8137SOL    HW236048   1.639   0.474   7.167  0.5732 -0.0354  0.1991
 8138SOL     OW36049   2.233   2.021   5.192  0.1113  0.5527 -0.0380
 8138SOL    HW136050   2.256   2.068   5.272 -2.7518  2.7107 -0.4694
 8138SOL    HW236051   2.218   1.936   5.234  0.0810  0.8586  0.5706
 8139SOL     OW36052   1.387   0.580   6.483  0.1262 -0.6910 -0.0968
 8139SOL    HW136053   1.391   0.672   6.458 -0.0509 -1.7265 -3.9007
 8139SOL    HW236054   1.356   0.539   6.403 -3.2284  1.3999  0.1563
 8140SOL     OW36055   4.233   0.404   9.738 -0.6953 -0.1490  0.2526
 8140SOL    HW136056   4.250   0.489   9.698  0.2017 -0.3583  0.2026
 8140SOL    HW236057   4.236   0.364   9.652 -0.0619  1.7886 -0.6178
 8141SOL     OW36058   4.355   0.307   1.682 -0.2400 -0.2481  0.2192
 8141SOL    HW136059   4.325   0.283   1.594 -1.3071  2.1770 -0.0608
 8141SOL    HW236060   4.449   0.301   1.662  0.5238  0.5512  3.6537
 8142SOL     OW36061   1.900   1.671  16.392  0.5557 -0.5495  0.2697
 8142SOL    HW136062   1.843   1.602  16.425 -0.6397 -0.0865 -0.8058
 8142SOL    HW236063   1.843   1.715  16.329 -0.3447 -0.9884  0.7814
 8143SOL     OW36064   3.095   0.786   8.033  0.0019 -0.3041  0.7221
 8143SOL    HW136065   3.175   0.837   8.022 -1.1375  1.7701  1.8874
 8143SOL    HW236066   3.045   0.803   7.954  0.2709 -0.3693  0.5391
 8144SOL     OW36067   2.933   1.600   5.357 -0.2069 -0.4956  0.3537
 8144SOL    HW136068   2.849   1.554   5.361 -0.2944 -0.3133  0.6595
 8144SOL    HW236069   2.975   1.561   5.281 -0.6036 -1.1091  0.4418
 8145SOL     OW36070   2.534   2.482   1.017  0.2770  0.6518 -0.0666
 8145SOL    HW136071   2.473   2.433   0.961 -0.6288 -0.1756  1.6492
 8145SOL    HW236072   2.507   2.574   1.011  2.8478  1.4558  0.6836
 8146SOL     OW36073   3.570   1.943   2.393 -0.4102  0.0543 -0.3000
 8146SOL    HW136074   3.492   1.996   2.406  0.0635  0.3323  1.4654
 8146SOL    HW236075   3.612   1.965   2.310 -2.2867 -0.4696 -1.3726
 8147SOL     OW36076   4.510   3.255   0.593  0.2373 -0.3763  0.5814
 8147SOL    HW136077   4.548   3.172   0.568  1.3305  0.5546 -0.8619
 8147SOL    HW236078   4.554   3.312   0.530  1.7701  0.2828  2.2474
 8148SOL     OW36079   1.691   1.751   7.839  0.0662  0.1288 -0.3852
 8148SOL    HW136080   1.642   1.830   7.813  1.0338  0.8536 -0.0205
 8148SOL    HW236081   1.721   1.785   7.923 -1.4043  0.6204 -0.0583
 8149SOL     OW36082   3.890   3.357   5.197  0.6651  0.0406  0.8751
 8149SOL    HW136083   3.952   3.390   5.262  0.4271  0.7436  0.7483
 8149SOL    HW236084   3.908   3.265   5.182 -0.6808 -0.4323  2.2505
 8150SOL     OW36085   2.420   2.486  17.419 -0.3138 -0.5126 -0.3119
 8150SOL    HW136086   2.449   2.415  17.477  1.6588  0.0821 -0.5757
 8150SOL    HW236087   2.328   2.499  17.443 -0.2980 -0.5032 -0.2570
 8151SOL     OW36088   3.191   4.282   1.545  0.2252 -0.9554 -0.1160
 8151SOL    HW136089   3.245   4.265   1.468 -0.9908  1.8847 -1.5819
 8151SOL    HW236090   3.170   4.189   1.559 -1.1098 -0.5103  0.8668
 8152SOL     OW36091   1.587   1.870   5.970 -0.0439  0.4639 -0.0962
 8152SOL    HW136092   1.509   1.869   5.915  0.5353  0.3009 -0.9178
 8152SOL    HW236093   1.637   1.830   5.899  0.7252  1.4354 -0.1040
 8153SOL     OW36094   1.525   1.622   4.658  0.8934  0.0113 -0.0036
 8153SOL    HW136095   1.489   1.534   4.644 -1.1268  0.3113  3.3108
 8153SOL    HW236096   1.469   1.656   4.728 -2.6418  0.0286 -2.8729
 8154SOL     OW36097   3.394   2.437  11.550  0.4715 -0.2309 -0.3169
 8154SOL    HW136098   3.336   2.376  11.504 -0.7512  0.3199  0.5070
 8154SOL    HW236099   3.454   2.466  11.481  0.0301 -2.0558 -1.4824
 8155SOL     OW36100   1.406   0.205   7.260  0.1641 -0.0757  0.3658
 8155SOL    HW136101   1.450   0.143   7.201 -1.3606 -0.3096 -0.5243
 8155SOL    HW236102   1.315   0.187   7.237  0.2920  0.4516 -0.5708
 8156SOL     OW36103   3.179   4.634   8.317 -0.0099 -0.0777 -0.1599
 8156SOL    HW136104   3.123   4.564   8.349  1.0466  0.0874  2.0003
 8156SOL    HW236105   3.126   4.713   8.313  1.5400  0.8148 -3.7557
 8157SOL     OW36106   1.362   1.863   5.814  0.3067  0.3624 -0.5663
 8157SOL    HW136107   1.327   1.778   5.842  1.7252  0.3314  1.1353
 8157SOL    HW236108   1.320   1.881   5.730 -0.6936  1.4673  0.1741
 8158SOL     OW36109   1.278   2.004   4.461 -0.0535  0.2111  0.3584
 8158SOL    HW136110   1.340   2.063   4.503  0.4847  0.4448 -0.7546
 8158SOL    HW236111   1.239   1.961   4.537  1.7519 -0.8779  0.6667
 8159SOL     OW36112   0.692   0.246   4.990 -0.3432  0.3104 -0.1985
 8159SOL    HW136113   0.685   0.340   5.002 -1.0319  0.4693 -1.7641
 8159SOL    HW236114   0.757   0.257   4.921  1.2854  0.1319  1.3286
 8160SOL     OW36115   3.779   0.530   8.813 -0.8222  0.4614 -0.2551
 8160SOL    HW136116   3.692   0.551   8.846 -0.6821 -0.1741  0.5077
 8160SOL    HW236117   3.829   0.609   8.831 -0.7267  0.1698  0.7316
 8161SOL     OW36118   2.075   1.277   4.889 -0.3939  0.1790 -0.1104
 8161SOL    HW136119   2.151   1.324   4.853  1.3423 -0.8275  2.1732
 8161SOL    HW236120   2.070   1.204   4.828 -0.6084  0.4116 -0.3695
 8162SOL     OW36121   0.145   0.899   2.833  0.5407  0.1860 -0.2196
 8162SOL    HW136122   0.178   0.980   2.872 -1.0442  0.6795  0.1094
 8162SOL    HW236123   0.197   0.839   2.886  0.8327  1.3229  0.7694
 8163SOL     OW36124   0.889   1.502  13.890  0.4638 -0.6893  0.4598
 8163SOL    HW136125   0.965   1.559  13.907 -0.1007  0.4947 -0.9870
 8163SOL    HW236126   0.893   1.452  13.971  0.8160  2.1819  2.2504
 8164SOL     OW36127   2.704   2.919   1.910 -0.3942  0.0826  0.3141
 8164SOL    HW136128   2.671   2.836   1.875 -1.2119  0.8684 -0.7426
 8164SOL    HW236129   2.719   2.891   2.001  1.5132 -0.3066 -0.1140
 8165SOL     OW36130   1.296   0.151   5.086  0.0276  0.4088  0.4706
 8165SOL    HW136131   1.270   0.232   5.130 -2.6784 -0.1182 -0.1716
 8165SOL    HW236132   1.328   0.104   5.163  1.1756  0.6884  0.1682
 8166SOL     OW36133   1.859   2.155   1.212  0.2266  0.0836  0.4359
 8166SOL    HW136134   1.865   2.111   1.297  1.9003 -1.4923 -0.4954
 8166SOL    HW236135   1.789   2.219   1.226 -0.2218 -0.1625 -0.7018
 8167SOL     OW36136   1.600   0.473   7.604 -0.2016  0.3566 -0.5301
 8167SOL    HW136137   1.609   0.419   7.682  1.3964  1.6429  0.1793
 8167SOL    HW236138   1.568   0.404   7.546 -3.1705 -0.5670  2.2420
 8168SOL     OW36139   3.054   2.753   7.477  0.7473 -0.2637 -0.0587
 8168SOL    HW136140   3.083   2.777   7.565  0.8854 -1.7906  0.3106
 8168SOL    HW236141   3.010   2.832   7.446 -0.5038 -1.2784 -0.8877
 8169SOL     OW36142   0.747   2.045   6.802 -0.8021  1.2010 -0.2940
 8169SOL    HW136143   0.759   2.081   6.714  0.7422  0.8952 -0.2013
 8169SOL    HW236144   0.803   1.968   6.800 -2.1374  0.2351 -0.8455
 8170SOL     OW36145   3.773   0.180   6.312  0.7273  0.3668  0.2490
 8170SOL    HW136146   3.777   0.089   6.283 -2.2953 -0.3774  2.1290
 8170SOL    HW236147   3.709   0.175   6.383 -0.2833  0.5121 -0.6437
 8171SOL     OW36148   4.189   2.317   9.193  0.3345 -0.1018  0.0996
 8171SOL    HW136149   4.126   2.360   9.251  0.0162  0.6191 -0.7781
 8171SOL    HW236150   4.145   2.337   9.109  0.5550  0.3826  0.1017
 8172SOL     OW36151   2.423   2.927   3.988  0.5970 -0.1084  0.1279
 8172SOL    HW136152   2.336   2.935   4.028 -0.9486 -0.2350 -3.2161
 8172SOL    HW236153   2.419   2.852   3.928  1.0801 -0.2975  0.3380
 8173SOL     OW36154   4.725   2.924   6.244  0.1762 -0.0345 -0.7247
 8173SOL    HW136155   4.720   3.020   6.245 -1.4033 -0.1298  1.2587
 8173SOL    HW236156   0.074   2.915   6.274 -0.7791 -0.9301  1.8395
 8174SOL     OW36157   0.312   2.573   4.210  0.4014 -0.4684  0.2346
 8174SOL    HW136158   0.299   2.585   4.305 -1.0614  2.4863 -0.3172
 8174SOL    HW236159   0.346   2.484   4.207  0.3703 -0.3857 -2.1951
 8175SOL     OW36160   3.105   4.655  10.509 -0.5350  0.7021 -0.0692
 8175SOL    HW136161   3.182   4.704  10.535  0.0945 -0.5858  0.4665
 8175SOL    HW236162   3.085   4.585  10.571  0.3384  1.6715  1.2772
 8176SOL     OW36163   0.621   0.999   9.914 -0.2159 -0.3196 -0.3001
 8176SOL    HW136164   0.665   1.084   9.909  0.9728 -0.9288 -0.3270
 8176SOL    HW236165   0.694   0.946   9.945 -0.2390 -0.3166 -0.2418
 8177SOL     OW36166   1.783   3.891   7.947 -0.4307 -0.0391  0.3051
 8177SOL    HW136167   1.715   3.877   8.013 -0.2805 -1.0208  0.2489
 8177SOL    HW236168   1.844   3.954   7.986 -0.2403 -0.3326  0.4780
 8178SOL     OW36169   3.788   3.657   3.251  0.1855 -0.1967 -0.3278
 8178SOL    HW136170   3.725   3.628   3.185 -0.6880  0.0845  0.3893
 8178SOL    HW236171   3.782   3.591   3.320  2.1651  1.3641  1.3457
 8179SOL     OW36172   1.734   4.288   2.482  0.0149 -0.4295 -0.2890
 8179SOL    HW136173   1.792   4.347   2.530 -0.5352 -0.7591  0.7770
 8179SOL    HW236174   1.775   4.263   2.399  1.8751 -0.0125  0.4994
 8180SOL     OW36175   2.073   1.266   6.311  0.1038 -0.2625  0.2463
 8180SOL    HW136176   2.119   1.310   6.240 -1.9209  0.5717 -0.5297
 8180SOL    HW236177   2.108   1.295   6.395 -0.1894  0.1560  0.2242
 8181SOL     OW36178   2.705   2.221   5.357 -0.4060 -0.0917  0.5325
 8181SOL    HW136179   2.780   2.240   5.302 -0.5094  1.6181  0.9779
 8181SOL    HW236180   2.749   2.175   5.429 -1.4766 -2.3145 -0.2286
 8182SOL     OW36181   1.448   3.494  12.358 -0.1853  0.6803  0.5866
 8182SOL    HW136182   1.409   3.434  12.296  0.8390 -1.1069  1.6583
 8182SOL    HW236183   1.396   3.491  12.438  0.7119 -1.1449  1.1052
 8183SOL     OW36184   0.533   2.001  16.935 -0.0794 -0.9065  0.4213
 8183SOL    HW136185   0.466   2.068  16.945  0.0360 -0.7974  0.4657
 8183SOL    HW236186   0.469   1.930  16.926 -0.5608 -0.3671 -0.3270
 8184SOL     OW36187   1.311   0.410  12.803  0.3527  0.1059  0.4909
 8184SOL    HW136188   1.369   0.339  12.830  0.9406  1.0623  1.7428
 8184SOL    HW236189   1.262   0.362  12.736 -0.9680  1.3027  0.5794
 8185SOL     OW36190   4.214   0.013   6.661  0.1033 -0.1612 -0.2958
 8185SOL    HW136191   4.243   4.664   6.679  3.4947  0.7712 -1.1449
 8185SOL    HW236192   4.191   0.054   6.745  1.0414  1.0315 -0.6300
 8186SOL     OW36193   0.746   3.320   9.636 -0.1767  0.3420 -0.4039
 8186SOL    HW136194   0.731   3.287   9.547 -0.5273  0.8183 -0.5201
 8186SOL    HW236195   0.669   3.277   9.673  0.7060 -1.1674 -0.3413
 8187SOL     OW36196   4.318   0.591  13.636  0.4742  0.7695 -0.4738
 8187SOL    HW136197   4.305   0.500  13.610  2.8937  1.1028 -2.8177
 8187SOL    HW236198   4.307   0.638  13.554 -1.6918  0.7367 -0.1976
 8188SOL     OW36199   2.426   0.697   3.577 -0.5643  0.4272  0.0327
 8188SOL    HW136200   2.409   0.606   3.554 -2.4490  0.3570  1.7768
 8188SOL    HW236201   2.366   0.716   3.649 -2.1332 -1.5941 -0.7494
 8189SOL     OW36202   4.422   2.528   8.269 -1.0410  0.2988  0.5292
 8189SOL    HW136203   4.328   2.540   8.280 -0.8841  0.0373  2.0579
 8189SOL    HW236204   4.456   2.568   8.349 -0.6429  0.5794  0.2228
 8190SOL     OW36205   3.168   2.527  15.699  0.3185 -0.4173 -0.5228
 8190SOL    HW136206   3.128   2.506  15.614  1.1320 -1.3530 -0.6791
 8190SOL    HW236207   3.113   2.605  15.713  1.4071 -0.0725  1.6710
 8191SOL     OW36208   0.328   3.433   3.166 -0.3296  0.1944 -0.3715
 8191SOL    HW136209   0.331   3.528   3.180 -1.5535  0.3148 -0.8907
 8191SOL    HW236210   0.263   3.394   3.224  1.2774 -0.6616  0.8441
 8192SOL     OW36211   2.154   1.182   1.318  0.2510  0.3399 -0.0914
 8192SOL    HW136212   2.219   1.197   1.250  1.0986  0.4180  0.7333
 8192SOL    HW236213   2.075   1.168   1.266  1.2545  1.3449 -1.8760
 8193SOL     OW36214   1.836   0.147   7.824 -0.6135 -0.1409 -0.4851
 8193SOL    HW136215   1.762   0.205   7.843 -0.0547  1.3299 -2.6901
 8193SOL    HW236216   1.799   0.099   7.750 -2.8955 -0.6060  0.9547
 8194SOL     OW36217   3.794   4.552   7.507 -0.5671 -0.0458 -0.4309
 8194SOL    HW136218   3.811   4.628   7.452 -0.5249  1.0898  1.1738
 8194SOL    HW236219   3.702   4.534   7.488  0.0951 -0.4500 -3.2767
 8195SOL     OW36220   2.308   3.743   0.041  0.2174  0.1352  0.2776
 8195SOL    HW136221   2.222   3.731   0.081  0.1626  2.0123  0.7317
 8195SOL    HW236222   2.338   3.655   0.022  2.1773  0.7278  0.6470
 8196SOL     OW36223   3.778   2.308   6.469 -0.4887 -0.6120  0.3395
 8196SOL    HW136224   3.803   2.216   6.475  0.0932 -0.3933  1.4431
 8196SOL    HW236225   3.856   2.364   6.468 -0.0117 -1.2988  0.0381
 8197SOL     OW36226   3.109   3.446   7.379 -0.3239 -0.0109  0.0492
 8197SOL    HW136227   3.046   3.494   7.433 -1.9808 -3.1669  0.9043
 8197SOL    HW236228   3.079   3.461   7.290 -2.7803  0.1956  0.9189
 8198SOL     OW36229   4.609   0.058   2.924 -0.4141 -0.1611  0.0023
 8198SOL    HW136230   4.560   0.140   2.928 -0.4152 -0.0649 -2.0976
 8198SOL    HW236231   4.568   0.016   2.848  0.8623 -1.2159 -0.1007
 8199SOL     OW36232   1.458   2.530   7.636 -0.0678  0.1158  0.5897
 8199SOL    HW136233   1.516   2.599   7.667  0.7567 -0.9494  1.4170
 8199SOL    HW236234   1.505   2.449   7.655 -0.1604 -0.0238  0.2212
 8200SOL     OW36235   1.442   3.511   8.442 -0.3518  0.2405  0.2378
 8200SOL    HW136236   1.489   3.473   8.368 -0.7376  2.5743 -1.2032
 8200SOL    HW236237   1.420   3.428   8.486 -0.0267 -0.0287 -0.1055
 8201SOL     OW36238   0.606   2.938   3.769 -0.8399 -0.3551 -0.2337
 8201SOL    HW136239   0.574   3.023   3.799 -0.6312 -0.0143 -0.9764
 8201SOL    HW236240   0.592   2.941   3.674 -2.7865  0.4559  0.0782
 8202SOL     OW36241   0.664   1.729   5.765 -0.0928  0.2718 -0.2049
 8202SOL    HW136242   0.724   1.716   5.691 -0.4797 -0.0728 -0.4588
 8202SOL    HW236243   0.634   1.640   5.782 -0.0795 -0.1593 -2.4164
 8203SOL     OW36244   1.662   0.367   7.855  0.5199 -0.4821 -0.0024
 8203SOL    HW136245   1.711   0.441   7.891 -1.4343  1.1695 -0.7305
 8203SOL    HW236246   1.587   0.371   7.915 -0.0133 -1.0189 -0.6309
 8204SOL     OW36247   3.765   2.734  11.983 -0.0564 -0.0638 -0.5748
 8204SOL    HW136248   3.772   2.783  11.901  2.5355 -1.1430 -1.0023
 8204SOL    HW236249   3.695   2.783  12.025 -0.5460 -0.7768 -0.5616
 8205SOL     OW36250   4.337   2.899   8.703 -0.3405 -0.1345 -0.2083
 8205SOL    HW136251   4.342   2.823   8.644 -4.4717  0.6214 -1.5260
 8205SOL    HW236252   4.244   2.892   8.723 -0.9516 -0.1159 -3.0806
 8206SOL     OW36253   1.818   4.676   8.559  0.2275 -0.5943 -0.3760
 8206SOL    HW136254   1.841   4.641   8.473 -0.8952 -2.8005  0.2367
 8206SOL    HW236255   1.866   0.018   8.551 -0.6963  0.1670  1.7371
 8207SOL     OW36256   1.584   0.308   4.141  0.3546  0.4667 -0.0794
 8207SOL    HW136257   1.529   0.261   4.204  0.4703  0.5894  0.1152
 8207SOL    HW236258   1.550   0.283   4.056 -0.6890 -1.4215  0.8971
 8208SOL     OW36259   1.652   3.847  17.293 -0.1018  0.0115 -0.0361
 8208SOL    HW136260   1.685   3.791  17.363 -2.9243 -1.6122 -0.0181
 8208SOL    HW236261   1.556   3.846  17.294 -0.1165 -0.7711 -1.4197
 8209SOL     OW36262   3.662   3.528   2.998 -0.1868 -0.2651  0.0276
 8209SOL    HW136263   3.663   3.624   2.996 -0.2603 -0.2547  0.8549
 8209SOL    HW236264   3.751   3.505   3.024 -0.1444  2.3224  2.1793
 8210SOL     OW36265   4.617   2.168   4.874 -0.0463 -0.4711 -0.4263
 8210SOL    HW136266   4.706   2.165   4.907 -0.3790 -2.6781  0.2795
 8210SOL    HW236267   4.633   2.187   4.781  1.4463  2.3225  0.3957
 8211SOL     OW36268   0.277   1.485   5.862 -0.6124  0.2248 -0.0923
 8211SOL    HW136269   0.332   1.514   5.935  1.1398 -0.6305 -1.0965
 8211SOL    HW236270   0.229   1.564   5.837 -2.9734 -1.2215 -0.1506
 8212SOL     OW36271   3.918   3.454   7.809 -0.5065  0.3420  0.0636
 8212SOL    HW136272   3.957   3.530   7.852  1.3831 -0.0349 -0.9649
 8212SOL    HW236273   3.994   3.396   7.808  1.2338  2.6131 -0.9779
 8213SOL     OW36274   2.690   0.914  10.028 -0.0960 -0.2341  0.3204
 8213SOL    HW136275   2.631   0.855  10.073  0.6258 -2.0288 -1.0715
 8213SOL    HW236276   2.637   0.993  10.035 -0.4126 -0.5053  0.9266
 8214SOL     OW36277   0.119   0.883   2.559 -0.3243  0.1984 -0.3079
 8214SOL    HW136278   0.121   0.792   2.529 -1.5268 -0.5172  1.7843
 8214SOL    HW236279   0.146   0.866   2.649  0.3065  2.2313 -0.1028
 8215SOL     OW36280   3.599   2.222   3.479  0.0606  0.1204 -0.1672
 8215SOL    HW136281   3.640   2.144   3.517 -1.0820 -0.5847 -0.3653
 8215SOL    HW236282   3.509   2.202   3.507 -0.1797  1.1667 -0.1984
 8216SOL     OW36283   2.216   0.653   0.749 -0.3107 -0.4575 -0.2977
 8216SOL    HW136284   2.308   0.632   0.766 -1.3913 -3.1551  2.1573
 8216SOL    HW236285   2.206   0.613   0.663 -0.9766  0.1485 -0.5016
 8217SOL     OW36286   1.593   1.146   1.428  0.1476  0.3080  0.3137
 8217SOL    HW136287   1.541   1.070   1.403 -0.3350  0.7197  0.0596
 8217SOL    HW236288   1.664   1.141   1.363  1.2018  0.1053  1.4967
 8218SOL     OW36289   1.419   0.648  12.779 -0.1573 -0.0438 -0.0348
 8218SOL    HW136290   1.390   0.557  12.791  1.5566 -0.5972 -0.0536
 8218SOL    HW236291   1.504   0.650  12.825  0.3245  3.8449 -1.0971
 8219SOL     OW36292   2.642   2.412   2.273  0.5830  0.2330  0.4752
 8219SOL    HW136293   2.646   2.363   2.356 -3.4863  0.4565  0.8075
 8219SOL    HW236294   2.705   2.359   2.226 -2.3065 -1.2567 -1.7043
 8220SOL     OW36295   0.274   4.457  10.719 -0.2693 -0.4503  0.3273
 8220SOL    HW136296   0.258   4.534  10.774  0.8783 -0.1134  0.1906
 8220SOL    HW236297   0.203   4.470  10.656 -2.1956 -0.4746  2.4880
 8221SOL     OW36298   2.463   0.776   2.411  0.6909  0.3221  0.0412
 8221SOL    HW136299   2.507   0.736   2.336  0.0596  0.3631 -0.3544
 8221SOL    HW236300   2.488   0.868   2.402 -0.8530  0.9197  1.8862
 8222SOL     OW36301   4.560   4.513   6.619 -0.5326 -0.5308 -0.1641
 8222SOL    HW136302   4.617   4.445   6.584 -0.3993  0.4337 -1.8591
 8222SOL    HW236303   4.476   4.476   6.594 -0.2825 -1.7457  0.7823
 8223SOL     OW36304   3.076   0.804  12.015 -0.1114 -0.0485  0.4293
 8223SOL    HW136305   3.097   0.886  12.061 -0.8972 -0.1191  0.9126
 8223SOL    HW236306   3.062   0.741  12.085 -1.4605  2.9068  2.8174
 8224SOL     OW36307   4.150   0.295   7.246  0.1308  0.0311  0.3234
 8224SOL    HW136308   4.236   0.324   7.216 -0.1934  0.4508 -0.2009
 8224SOL    HW236309   4.168   0.201   7.250  1.7351  0.4162  1.9574
 8225SOL     OW36310   3.596   3.668  12.366 -0.3417 -0.0843  0.2106
 8225SOL    HW136311   3.655   3.712  12.427 -1.7303  0.5681  1.0781
 8225SOL    HW236312   3.550   3.741  12.326 -1.8624 -0.8105  0.6506
 8226SOL     OW36313   4.364   0.787  12.384 -0.1486  0.0172 -0.3259
 8226SOL    HW136314   4.428   0.760  12.318 -0.2631  0.3442 -0.5668
 8226SOL    HW236315   4.282   0.797  12.337 -0.3061  3.8245  0.7330
 8227SOL     OW36316   2.286   2.663  10.033 -0.2105 -0.2254  0.4504
 8227SOL    HW136317   2.208   2.673  10.087 -0.6725  1.6554 -0.5779
 8227SOL    HW236318   2.333   2.589  10.072 -1.2472 -0.0623  1.9740
 8228SOL     OW36319   2.423   2.701   2.864 -0.0799  0.1718  0.0034
 8228SOL    HW136320   2.443   2.613   2.895  1.5464  1.0283  1.4448
 8228SOL    HW236321   2.424   2.743   2.950  1.3639  1.0981 -0.4656
 8229SOL     OW36322   0.739   4.081   3.006 -0.0700  0.3911  0.3090
 8229SOL    HW136323   0.659   4.092   2.956  1.2759  0.2912 -1.8703
 8229SOL    HW236324   0.757   4.167   3.045 -0.1826  0.8002 -0.5311
 8230SOL     OW36325   4.488   2.588   5.004 -0.5655  0.5944 -0.0322
 8230SOL    HW136326   4.454   2.598   4.915  0.5571 -3.4954 -0.8704
 8230SOL    HW236327   4.465   2.498   5.026 -1.4105  0.6276 -0.7812
 8231SOL     OW36328   3.094   1.975  17.682  0.2246 -0.6397  0.1255
 8231SOL    HW136329   3.089   2.053  17.737 -1.5047 -0.9747  0.4333
 8231SOL    HW236330   3.002   1.949  17.677  0.4979 -1.8821  1.4984
 8232SOL     OW36331   1.484   3.192  14.417  0.2784 -0.2970 -0.3528
 8232SOL    HW136332   1.543   3.211  14.343  0.3701  1.4197  0.1498
 8232SOL    HW236333   1.457   3.282  14.436  1.7221  0.3567 -1.3584
 8233SOL     OW36334   3.378   4.374   1.821 -0.3568 -0.4638  0.2458
 8233SOL    HW136335   3.407   4.289   1.789 -1.3367 -0.7839  0.2008
 8233SOL    HW236336   3.308   4.395   1.759  0.6795  1.2875 -0.3405
 8234SOL     OW36337   3.621   0.833  16.838  0.2573  0.0278  0.0154
 8234SOL    HW136338   3.536   0.861  16.873  1.2915 -0.4683  2.9443
 8234SOL    HW236339   3.599   0.753  16.789 -0.9942  1.0393 -1.0898
 8235SOL     OW36340   4.720   0.046   9.660 -0.0418 -0.5504  0.2470
 8235SOL    HW136341   4.670   0.015   9.584  0.6382 -1.6496  0.2568
 8235SOL    HW236342   4.659   0.120   9.668 -0.4048 -0.4765 -3.0983
 8236SOL     OW36343   3.569   4.283   4.825 -0.0475  0.1111  0.3474
 8236SOL    HW136344   3.627   4.358   4.824 -1.9095  1.5771  1.8803
 8236SOL    HW236345   3.617   4.220   4.878 -0.9972 -0.8078  0.1232
 8237SOL     OW36346   1.805   1.090   4.646  0.6273  0.4320  0.0038
 8237SOL    HW136347   1.822   1.065   4.555 -0.3544 -1.1824  0.2735
 8237SOL    HW236348   1.892   1.097   4.684  0.5697 -1.6135  0.5148
 8238SOL     OW36349   0.066   0.194   7.527 -0.1567 -0.1325 -0.4073
 8238SOL    HW136350   0.059   0.213   7.621  0.3981 -2.0268  0.0079
 8238SOL    HW236351   0.105   0.276   7.497 -1.0224  1.1779  2.0384
 8239SOL     OW36352   3.978   0.317  11.426  0.4577 -0.4088  0.1546
 8239SOL    HW136353   3.903   0.335  11.370 -2.2874 -3.4613  2.8292
 8239SOL    HW236354   4.022   0.401  11.412  2.7060 -1.3922  1.2711
 8240SOL     OW36355   3.837   4.466  10.239 -0.0504 -0.0556  0.6797
 8240SOL    HW136356   3.813   4.556  10.260 -3.8911 -0.7855 -0.5510
 8240SOL    HW236357   3.754   4.418  10.250  0.8074 -2.3831 -3.0135
 8241SOL     OW36358   0.657   0.311  13.645 -0.4138  0.2306  0.1150
 8241SOL    HW136359   0.739   0.339  13.605 -0.8763  2.4394  0.6815
 8241SOL    HW236360   0.672   0.326  13.739 -1.2014 -0.8069  0.4045
 8242SOL     OW36361   4.413   4.155   0.976  0.4179 -0.0953  0.2118
 8242SOL    HW136362   4.457   4.100   0.911 -2.0757 -2.7312  0.7841
 8242SOL    HW236363   4.322   4.148   0.946  0.3972 -0.1176  0.2807
 8243SOL     OW36364   4.580   4.377  11.574  0.3278  0.1611  1.1698
 8243SOL    HW136365   4.646   4.408  11.636  0.7695  0.1992  0.6812
 8243SOL    HW236366   4.626   4.399  11.493 -0.7841  0.8858  0.7266
 8244SOL     OW36367   4.655   3.267  17.543  0.0685  0.5616 -0.5972
 8244SOL    HW136368   4.697   3.186  17.515 -0.8991 -0.1478 -0.0177
 8244SOL    HW236369   4.567   3.255  17.507 -1.5463  2.9513  2.4888
 8245SOL     OW36370   4.424   4.246   6.695  0.5936  0.0165  0.1717
 8245SOL    HW136371   4.470   4.165   6.718 -0.7546 -0.0180  2.7971
 8245SOL    HW236372   4.403   4.219   6.605 -2.1713  3.2465 -0.1721
 8246SOL     OW36373   2.066   2.471  16.332 -0.7294 -0.2547  0.3517
 8246SOL    HW136374   2.148   2.422  16.333 -1.2129 -1.1006 -0.7921
 8246SOL    HW236375   2.100   2.560  16.335  1.6162 -1.1475 -0.0268
 8247SOL     OW36376   0.796   0.926  12.169 -0.3048  0.1215 -0.3604
 8247SOL    HW136377   0.860   0.876  12.119 -0.6649  0.7839 -1.4995
 8247SOL    HW236378   0.768   0.858  12.230  0.2616  1.3093  1.2345
 8248SOL     OW36379   0.547   2.106   7.893  0.4636 -0.9979 -0.4712
 8248SOL    HW136380   0.552   2.011   7.907 -0.8368 -0.7842  1.3687
 8248SOL    HW236381   0.478   2.100   7.827 -0.3366 -0.3402  0.3111
 8249SOL     OW36382   4.253   1.553  15.467 -0.2574 -0.2191  0.0756
 8249SOL    HW136383   4.265   1.576  15.559  0.2888  1.2667 -0.3847
 8249SOL    HW236384   4.304   1.623  15.426 -3.8203  2.5427  0.3635
 8250SOL     OW36385   3.747   2.250   5.379  0.2682 -0.5201 -0.0954
 8250SOL    HW136386   3.692   2.309   5.432  2.6510 -0.1833  1.9744
 8250SOL    HW236387   3.818   2.309   5.355 -0.1226  0.6635  1.6789
 8251SOL     OW36388   0.734   3.655   6.463  0.2088 -0.5119 -0.0171
 8251SOL    HW136389   0.724   3.738   6.417 -2.0094 -0.7179  0.0760
 8251SOL    HW236390   0.662   3.648   6.527 -1.6177 -2.8047 -2.3010
 8252SOL     OW36391   4.251   2.611   7.744  0.4526 -0.2451 -0.4012
 8252SOL    HW136392   4.302   2.601   7.664 -1.0756  1.1020 -1.5629
 8252SOL    HW236393   4.174   2.556   7.729 -0.3713  1.0220 -0.8293
 8253SOL     OW36394   0.135   2.436   7.245  0.0034  0.3204  0.0195
 8253SOL    HW136395   0.085   2.362   7.278  1.1362 -1.6375 -2.6211
 8253SOL    HW236396   0.079   2.511   7.265  2.1522  1.9383 -0.0032
 8254SOL     OW36397   0.015   4.192   5.649  0.3001  0.0780 -0.2485
 8254SOL    HW136398   4.705   4.164   5.573  2.0264 -0.8167 -1.0898
 8254SOL    HW236399   0.100   4.171   5.609  0.0838 -0.4704 -0.4144
 8255SOL     OW36400   0.783   4.139   3.651 -0.6804  0.3416 -0.3172
 8255SOL    HW136401   0.761   4.078   3.581 -0.9046  0.4637 -0.3523
 8255SOL    HW236402   0.749   4.217   3.607  1.4595  1.6941  0.4207
 8256SOL     OW36403   4.388   1.534   9.354  0.3434  0.1353 -0.3065
 8256SOL    HW136404   4.473   1.570   9.381 -1.0014  1.3179  2.3039
 8256SOL    HW236405   4.368   1.469   9.422  0.5235 -1.7899 -2.0810
 8257SOL     OW36406   2.762   0.439   3.193 -0.1933 -0.2576 -0.0887
 8257SOL    HW136407   2.778   0.368   3.130 -0.0177  1.1016 -1.5683
 8257SOL    HW236408   2.732   0.399   3.275  1.1216 -2.7330 -0.8021
 8258SOL     OW36409   3.613   3.846   8.422  0.2546 -0.3119 -0.0331
 8258SOL    HW136410   3.685   3.904   8.397  0.1845 -0.9799 -1.8082
 8258SOL    HW236411   3.547   3.913   8.439  0.9374  0.1969  0.6023
 8259SOL     OW36412   1.120   1.027   4.480  0.1442  0.3757  0.9197
 8259SOL    HW136413   1.108   1.068   4.566  0.2960  1.6362  0.3428
 8259SOL    HW236414   1.082   0.940   4.494 -0.0316  0.4939  1.1904
 8260SOL     OW36415   2.953   2.022  13.687 -0.2815 -0.3751  0.4586
 8260SOL    HW136416   2.878   2.078  13.665  1.0631  0.7747 -1.1631
 8260SOL    HW236417   2.992   2.091  13.741 -1.5823  0.8511 -0.1801
 8261SOL     OW36418   3.154   4.009   1.564  0.3955  0.5579 -0.3710
 8261SOL    HW136419   3.161   4.009   1.659 -1.3362  0.2162 -0.2506
 8261SOL    HW236420   3.205   3.931   1.541 -1.2265 -1.0716  1.5336
 8262SOL     OW36421   0.608   2.894   9.361 -0.3789  1.0104 -0.0718
 8262SOL    HW136422   0.625   2.803   9.336  0.8874  1.6123 -1.3721
 8262SOL    HW236423   0.697   2.930   9.356 -0.0233 -0.1162 -1.9644
 8263SOL     OW36424   1.796   1.584   4.133 -0.5060  0.4622  0.2169
 8263SOL    HW136425   1.803   1.679   4.136 -0.8157  0.5208 -1.0699
 8263SOL    HW236426   1.828   1.565   4.045 -0.1663  1.4133  0.1391
 8264SOL     OW36427   1.493   0.498   4.522  0.4155  0.2353 -0.0456
 8264SOL    HW136428   1.430   0.436   4.486  0.9330 -0.7068  0.6872
 8264SOL    HW236429   1.438   0.570   4.553  2.1313  0.2117  3.0877
 8265SOL     OW36430   3.117   2.623   3.888 -0.2184 -0.5482 -0.3408
 8265SOL    HW136431   3.035   2.651   3.848 -1.9577 -2.6298  1.7877
 8265SOL    HW236432   3.170   2.603   3.810  1.4172 -2.1631  1.1992
 8266SOL     OW36433   1.650   1.730   6.388 -0.5573  0.8929  0.2716
 8266SOL    HW136434   1.599   1.795   6.339  0.8700  1.8108 -0.0076
 8266SOL    HW236435   1.714   1.788   6.429 -0.9110  0.6957  1.0830
 8267SOL     OW36436   4.572   2.429  13.770  0.1154  0.1373  0.0498
 8267SOL    HW136437   4.482   2.462  13.777  0.0041 -0.0386 -0.5969
 8267SOL    HW236438   4.545   2.338  13.784  1.5903 -0.3675 -0.4407
 8268SOL     OW36439   0.790   3.426   2.120 -0.0161 -0.0978 -0.6541
 8268SOL    HW136440   0.818   3.426   2.212 -0.4365 -0.4457 -0.5258
 8268SOL    HW236441   0.766   3.516   2.097 -0.1786  0.3766  1.3072
 8269SOL     OW36442   1.043   4.110   7.287  0.0196 -0.1768 -0.2070
 8269SOL    HW136443   1.106   4.174   7.254 -0.0753  0.1454  0.2505
 8269SOL    HW236444   0.986   4.167   7.337  0.7567 -1.8153  2.4761
 8270SOL     OW36445   0.714   2.932   7.078  0.3626  0.1976  0.2383
 8270SOL    HW136446   0.693   3.013   7.031  2.4238 -0.0237 -1.0910
 8270SOL    HW236447   0.630   2.889   7.092 -0.2757  0.7749 -1.7241
 8271SOL     OW36448   0.056   0.709  17.178  0.0414 -0.0038  0.0445
 8271SOL    HW136449   0.025   0.730  17.266 -2.8252 -1.2560 -0.6741
 8271SOL    HW236450   0.020   0.623  17.155  0.8207 -0.5283  0.7652
 8272SOL     OW36451   2.603   2.559  10.709 -0.7443  0.0941  0.4485
 8272SOL    HW136452   2.635   2.594  10.626  0.5765 -0.3524  0.7685
 8272SOL    HW236453   2.615   2.629  10.773 -0.0074 -0.5017  0.9650
 8273SOL     OW36454   2.485   3.622  11.587 -0.9181 -0.3490 -0.0979
 8273SOL    HW136455   2.559   3.668  11.627 -2.6736 -0.2505  3.0306
 8273SOL    HW236456   2.507   3.531  11.609 -1.7323 -0.9047 -1.5238
 8274SOL     OW36457   2.317   2.062   7.693 -0.3507 -0.1541 -0.0573
 8274SOL    HW136458   2.409   2.037   7.702 -0.5167 -0.2692  1.3443
 8274SOL    HW236459   2.269   2.000   7.748 -2.1058  1.3988  0.1534
 8275SOL     OW36460   0.003   0.339   5.993  0.4158  0.3283  0.1228
 8275SOL    HW136461   0.016   0.259   6.045 -0.3512  0.8135  1.0782
 8275SOL    HW236462   0.078   0.331   5.935 -0.1230  0.2740 -0.5702
 8276SOL     OW36463   3.867   1.936   4.836  0.0428  0.2379  0.0896
 8276SOL    HW136464   3.902   1.872   4.899 -0.5023  0.5310  0.6918
 8276SOL    HW236465   3.774   1.941   4.857  0.1458 -0.8699  0.8352
 8277SOL     OW36466   0.973   4.493  11.293  0.3481 -0.4914 -0.3506
 8277SOL    HW136467   0.968   4.512  11.387  2.3659 -0.0207 -0.3427
 8277SOL    HW236468   1.043   4.549  11.258  1.0128 -0.8206  0.4524
 8278SOL     OW36469   1.478   3.127  14.680  0.0469  0.9555  0.2517
 8278SOL    HW136470   1.501   3.165  14.595  1.0532 -0.3809 -0.0666
 8278SOL    HW236471   1.440   3.050  14.638 -0.4900  2.0005 -1.2055
 8279SOL     OW36472   2.828   0.317  16.639 -0.6301  0.2424  0.4799
 8279SOL    HW136473   2.802   0.370  16.714 -1.7989  0.6386 -0.2115
 8279SOL    HW236474   2.826   0.232  16.683 -0.4084 -0.4857 -0.9187
 8280SOL     OW36475   0.425   4.580   0.393 -0.4243 -0.1169  0.0349
 8280SOL    HW136476   0.491   4.649   0.383 -1.3929  0.5377 -1.6439
 8280SOL    HW236477   0.373   4.616   0.465 -0.8555  0.1986 -0.4372
 8281SOL     OW36478   0.574   3.857   9.186 -0.1234 -0.0707  0.0966
 8281SOL    HW136479   0.513   3.901   9.245  2.1251  2.1969  0.7046
 8281SOL    HW236480   0.652   3.839   9.238  0.7095 -0.1318 -1.1675
 8282SOL     OW36481   3.451   0.692   9.493 -0.1077  0.3105  0.4698
 8282SOL    HW136482   3.364   0.732   9.484  0.5918  1.7479  0.1311
 8282SOL    HW236483   3.503   0.738   9.427  0.6502 -1.2468 -0.0074
 8283SOL     OW36484   0.442   0.084   1.492 -0.4109 -1.2741 -0.0377
 8283SOL    HW136485   0.446   0.048   1.404 -1.4354 -0.0177 -0.6025
 8283SOL    HW236486   0.451   0.009   1.551  1.0178 -0.3246  0.9876
 8284SOL     OW36487   2.364   2.911   6.162 -0.0277  0.2425  0.0401
 8284SOL    HW136488   2.348   2.927   6.069 -1.1541 -2.2576 -0.1965
 8284SOL    HW236489   2.298   2.969   6.200 -1.5043 -0.6888 -1.0978
 8285SOL     OW36490   4.030   1.306   8.272 -0.0307  0.0598 -0.2262
 8285SOL    HW136491   4.041   1.340   8.361  0.7077 -0.2224 -0.2106
 8285SOL    HW236492   3.961   1.367   8.247 -1.1517 -0.7925  0.7579
 8286SOL     OW36493   3.927   3.962   7.350 -0.2145  0.3487 -0.5868
 8286SOL    HW136494   3.982   3.918   7.285 -1.7786 -1.4773 -0.6969
 8286SOL    HW236495   3.969   3.929   7.429 -2.5623 -0.2829  0.4152
 8287SOL     OW36496   2.285   2.920   1.979 -0.0769 -0.0528 -0.4941
 8287SOL    HW136497   2.356   2.982   1.961 -0.8098  0.8884 -0.1279
 8287SOL    HW236498   2.240   2.948   1.900 -2.8332 -3.0536  0.0266
 8288SOL     OW36499   0.996   3.872   7.591  0.0504 -0.0623 -0.0020
 8288SOL    HW136500   0.908   3.907   7.603 -0.1965 -2.0103  4.1685
 8288SOL    HW236501   1.047   3.954   7.588 -0.9945  0.5468 -0.9688
 8289SOL     OW36502   3.583   2.006   8.303 -0.2216  0.0776  0.4631
 8289SOL    HW136503   3.491   2.032   8.294  0.0948  1.0236 -0.0745
 8289SOL    HW236504   3.620   2.016   8.215 -2.2875 -0.3613 -0.4706
 8290SOL     OW36505   3.743   3.195  11.968  0.3922  0.1073 -0.0857
 8290SOL    HW136506   3.663   3.171  11.922  0.0319  0.2395  0.4667
 8290SOL    HW236507   3.798   3.190  11.890 -1.5302  1.5238 -1.5367
 8291SOL     OW36508   0.880   2.667  12.999 -0.3870 -0.1515 -0.2885
 8291SOL    HW136509   0.905   2.745  12.950 -1.5375  1.0991  1.1073
 8291SOL    HW236510   0.957   2.613  12.983 -0.0628  0.4877 -0.9395
 8292SOL     OW36511   2.493   1.783   7.509 -0.8189  0.5004 -0.1186
 8292SOL    HW136512   2.422   1.736   7.552  0.5169 -0.2813  1.2324
 8292SOL    HW236513   2.443   1.860   7.483 -2.1480 -0.3243  0.0161
 8293SOL     OW36514   2.804   2.641   3.159 -0.4383  0.3295 -0.0044
 8293SOL    HW136515   2.815   2.661   3.066 -1.8805 -3.2874 -0.9345
 8293SOL    HW236516   2.895   2.651   3.188 -0.1044 -1.8958 -0.3242
 8294SOL     OW36517   2.417   2.882   9.962  0.1040  0.3056 -0.3230
 8294SOL    HW136518   2.384   2.815  10.021  0.8805  0.4976  0.3222
 8294SOL    HW236519   2.505   2.848   9.942 -0.0553  0.0540 -0.6090
 8295SOL     OW36520   2.197   2.595   3.443  0.2600  0.5893  0.0804
 8295SOL    HW136521   2.257   2.536   3.397 -3.0514 -0.3739 -2.9851
 8295SOL    HW236522   2.222   2.677   3.401 -0.3357  1.7334  1.9186
 8296SOL     OW36523   3.262   1.835   3.953 -0.1684  0.1142  0.0623
 8296SOL    HW136524   3.324   1.785   3.900  0.4269  0.7026  0.2034
 8296SOL    HW236525   3.231   1.769   4.014 -1.9286  1.3353  0.4841
 8297SOL     OW36526   3.036   4.247   2.837 -0.3441 -0.5681 -0.3762
 8297SOL    HW136527   3.064   4.269   2.748  1.6142 -0.7420  0.2110
 8297SOL    HW236528   3.048   4.152   2.837 -2.2953 -0.8113  1.4790
 8298SOL     OW36529   2.454   1.063   8.765 -0.1693 -0.1454  0.1608
 8298SOL    HW136530   2.415   1.134   8.714 -0.7215  0.2581  1.1274
 8298SOL    HW236531   2.381   1.008   8.794 -0.1249  0.1251  0.7948
 8299SOL     OW36532   4.529   4.551   1.398  0.1654 -0.0885 -0.5400
 8299SOL    HW136533   4.475   4.478   1.428 -0.9207  2.1552  2.8076
 8299SOL    HW236534   4.603   4.511   1.352  0.7852  2.6769 -1.9105
 8300SOL     OW36535   4.661   4.495   2.774 -0.3080  0.5427 -0.0769
 8300SOL    HW136536   4.732   4.551   2.743 -0.0633  0.7877  0.9480
 8300SOL    HW236537   4.588   4.555   2.760  0.6517  1.6695 -0.1744
 8301SOL     OW36538   3.529   2.234   8.657 -0.0939  0.1485  0.1081
 8301SOL    HW136539   3.461   2.277   8.606 -0.0790 -0.2148 -0.2201
 8301SOL    HW236540   3.476   2.181   8.717  0.6529  0.1549  0.7889
 8302SOL     OW36541   0.359   2.433   6.070 -0.3614  0.1231 -0.5070
 8302SOL    HW136542   0.338   2.358   6.014 -0.6669 -0.5927  0.5653
 8302SOL    HW236543   0.296   2.496   6.035 -1.9514 -1.4279 -0.3988
 8303SOL     OW36544   1.569   2.127   6.403 -0.3521  0.7312 -0.1465
 8303SOL    HW136545   1.658   2.109   6.431 -1.0395 -2.4695 -0.0554
 8303SOL    HW236546   1.555   2.222   6.412  1.0879  1.0674 -1.4711
 8304SOL     OW36547   3.363   3.754   5.555  0.3368  0.2626 -0.8141
 8304SOL    HW136548   3.438   3.773   5.498 -0.5526  2.8154 -1.0975
 8304SOL    HW236549   3.376   3.659   5.548  0.1558  0.1031  1.1192
 8305SOL     OW36550   3.323   1.996   3.399  0.1939 -0.2875 -0.1494
 8305SOL    HW136551   3.377   1.935   3.450 -0.4612  0.1934  1.1075
 8305SOL    HW236552   3.244   1.992   3.454 -0.6974  0.7527 -1.3642
 8306SOL     OW36553   0.010   4.053   2.630 -0.6279 -0.3261  0.2769
 8306SOL    HW136554   4.703   4.112   2.688 -0.0877 -0.7969  1.1869
 8306SOL    HW236555   0.017   3.975   2.684 -1.5507  0.3604  1.3871
 8307SOL     OW36556   3.968   0.176   3.192 -0.2014 -0.1789  0.0817
 8307SOL    HW136557   3.923   0.165   3.276  0.1410 -2.8722 -0.0829
 8307SOL    HW236558   3.954   0.271   3.182 -1.7326 -0.3732  0.3147
 8308SOL     OW36559   1.893   0.191   1.643  0.0166 -0.4599  0.3812
 8308SOL    HW136560   1.818   0.233   1.601  0.6128  1.3190  1.0922
 8308SOL    HW236561   1.932   0.143   1.569 -1.0948 -0.2887 -0.3083
 8309SOL     OW36562   3.912   0.087   5.641 -0.5372  0.1160 -0.7158
 8309SOL    HW136563   3.981   0.029   5.673 -0.3934 -0.3168 -1.8236
 8309SOL    HW236564   3.911   0.144   5.718 -4.3656  0.7226 -1.2372
 8310SOL     OW36565   3.467   4.555  16.868  0.6665 -0.2807  0.1317
 8310SOL    HW136566   3.497   4.615  16.937  0.7611 -0.8216  0.5585
 8310SOL    HW236567   3.385   4.526  16.907 -0.6481  1.1308 -1.6134
 8311SOL     OW36568   3.025   2.088   4.431 -0.0418  0.2721 -0.1832
 8311SOL    HW136569   2.931   2.107   4.438 -0.2340 -0.3462 -1.1418
 8311SOL    HW236570   3.060   2.175   4.410  2.5087 -1.0145 -1.2197
 8312SOL     OW36571   0.603   2.113   3.594  0.2974  0.2201 -0.4074
 8312SOL    HW136572   0.512   2.084   3.593  0.5559 -0.5775 -0.9555
 8312SOL    HW236573   0.599   2.195   3.644  1.5594 -1.7016  2.8344
 8313SOL     OW36574   1.101   0.663   7.942  0.0278  0.0828  0.4176
 8313SOL    HW136575   1.161   0.691   7.872 -0.1775  1.6622  0.8848
 8313SOL    HW236576   1.105   0.568   7.932 -1.6149  0.0260  0.3596
 8314SOL     OW36577   3.632   3.205   9.732 -0.1644  0.0085 -0.1551
 8314SOL    HW136578   3.722   3.235   9.742 -0.2757 -0.0682  1.0468
 8314SOL    HW236579   3.631   3.215   9.637 -2.1510  0.8649 -0.0427
 8315SOL     OW36580   3.942   3.445   3.048 -0.0136  0.2152 -0.4919
 8315SOL    HW136581   3.970   3.354   3.037  1.3969  0.3458  1.9490
 8315SOL    HW236582   4.023   3.497   3.045 -0.2395  0.5197 -1.2827
 8316SOL     OW36583   2.505   0.024   6.001 -0.4907 -0.0812  0.1170
 8316SOL    HW136584   2.559   4.709   6.056  1.8463  1.0853 -1.0192
 8316SOL    HW236585   2.493   4.708   5.925 -1.5875 -0.1263  0.3259
 8317SOL     OW36586   4.358   0.293   6.299  0.0347 -0.5571  0.3706
 8317SOL    HW136587   4.434   0.351   6.291 -0.6038  0.0074 -1.5504
 8317SOL    HW236588   4.336   0.306   6.391  0.6669 -1.6225  0.6720
 8318SOL     OW36589   0.789   3.202   6.439 -0.0193 -0.0404  0.0793
 8318SOL    HW136590   0.881   3.211   6.412 -0.9151 -1.8496 -3.5744
 8318SOL    HW236591   0.796   3.180   6.532  0.9041 -2.8440 -0.6619
 8319SOL     OW36592   4.703   1.788   4.279  0.1783 -0.1373 -0.2036
 8319SOL    HW136593   0.056   1.775   4.268  0.0712 -0.6196 -0.5498
 8319SOL    HW236594   4.682   1.728   4.350  0.8658  1.0797  1.0065
 8320SOL     OW36595   0.461   2.163   8.915  0.3494 -0.1654  0.0015
 8320SOL    HW136596   0.521   2.202   8.979  0.9329  0.2409 -0.8040
 8320SOL    HW236597   0.524   2.116   8.861 -0.4870 -0.7957 -0.4471
 8321SOL     OW36598   3.495   2.313  15.432 -0.1142 -0.0809 -0.2901
 8321SOL    HW136599   3.416   2.300  15.485  1.9669 -0.5716  2.7488
 8321SOL    HW236600   3.530   2.393  15.472  1.9895 -0.9744 -0.3217
 8322SOL     OW36601   0.560   3.591   6.659 -0.7620 -0.2315 -0.7707
 8322SOL    HW136602   0.491   3.530   6.633 -1.7891  0.7278 -0.2848
 8322SOL    HW236603   0.570   3.573   6.753 -0.7959 -1.5359 -1.0194
 8323SOL     OW36604   2.122   0.073   5.222 -0.1406 -0.1585  0.1325
 8323SOL    HW136605   2.045   0.105   5.175  2.0907  1.3643 -2.5303
 8323SOL    HW236606   2.182   0.148   5.227 -1.6828  1.2977 -3.2719
 8324SOL     OW36607   3.875   4.062   6.342 -0.2641 -0.4592 -0.0126
 8324SOL    HW136608   3.894   4.132   6.279  0.9159 -0.9478 -0.2063
 8324SOL    HW236609   3.894   4.115   6.419  2.3898 -0.4367 -0.6752
 8325SOL     OW36610   2.364   1.681  16.384  0.5005  0.2806  0.0122
 8325SOL    HW136611   2.437   1.728  16.426  3.7147 -4.1912 -0.5690
 8325SOL    HW236612   2.409   1.633  16.314  1.4566 -1.3584  1.7567
 8326SOL     OW36613   1.784   2.785   8.935  0.1763 -0.7176  0.5121
 8326SOL    HW136614   1.789   2.846   9.009 -0.4287 -0.9922  0.7754
 8326SOL    HW236615   1.742   2.714   8.983  3.9487 -3.2160  0.1106
 8327SOL     OW36616   0.258   3.869   3.466 -0.0128 -0.9009 -0.4701
 8327SOL    HW136617   0.328   3.877   3.531 -1.1808 -0.2892  0.7326
 8327SOL    HW236618   0.210   3.790   3.489 -0.2842 -0.5916  0.0303
 8328SOL     OW36619   0.587   2.256   4.711  0.3756 -0.4135  0.5178
 8328SOL    HW136620   0.506   2.270   4.760 -0.6290 -1.9388 -0.7129
 8328SOL    HW236621   0.561   2.210   4.631  3.1576 -0.9286 -0.0870
 8329SOL     OW36622   2.916   2.353   3.928  0.3861  0.1068 -0.1050
 8329SOL    HW136623   2.858   2.419   3.966  0.4580  1.1205 -1.7635
 8329SOL    HW236624   2.893   2.286   3.992  1.7690 -1.0243 -0.7778
 8330SOL     OW36625   1.126   0.989   0.323  0.3487 -0.1719 -0.3044
 8330SOL    HW136626   1.133   1.024   0.412  0.2896 -1.5282  0.2423
 8330SOL    HW236627   1.118   0.894   0.333 -0.4841 -0.2470 -1.6267
 8331SOL     OW36628   0.075   4.415   7.549 -0.0721  0.0077  0.7698
 8331SOL    HW136629   4.734   4.388   7.508  0.3694  0.5875 -0.5038
 8331SOL    HW236630   0.130   4.443   7.476  0.1713 -0.1978  0.8738
 8332SOL     OW36631   0.758   3.271   5.116 -0.5602 -0.3660  0.4650
 8332SOL    HW136632   0.720   3.349   5.157 -2.8550 -0.9589 -0.5278
 8332SOL    HW236633   0.828   3.255   5.179 -0.6369 -0.1106  0.6192
 8333SOL     OW36634   0.238   2.516   2.344  0.2215  0.4962  0.0783
 8333SOL    HW136635   0.194   2.448   2.396 -2.9392  1.2674 -1.6127
 8333SOL    HW236636   0.302   2.459   2.301 -0.9283 -0.4413 -0.3981
 8334SOL     OW36637   0.556   0.250  10.240 -0.2718  0.2346  0.2694
 8334SOL    HW136638   0.471   0.229  10.203 -0.6072  0.4926  0.8927
 8334SOL    HW236639   0.605   0.168  10.227  0.0267  0.4675 -0.0684
 8335SOL     OW36640   2.610   4.306   9.922  0.0739  0.3889 -0.1204
 8335SOL    HW136641   2.616   4.368   9.850 -1.3150 -0.2629 -0.8040
 8335SOL    HW236642   2.524   4.266   9.907  0.9704 -1.6147  0.0746
 8336SOL     OW36643   1.551   0.939   4.632 -0.6104 -0.7601  0.0470
 8336SOL    HW136644   1.583   0.927   4.542  0.3189  1.8083  0.0297
 8336SOL    HW236645   1.630   0.958   4.683 -2.0422  1.8817  1.2857
 8337SOL     OW36646   2.044   1.706   3.828 -0.3253 -0.3796 -0.4115
 8337SOL    HW136647   1.953   1.737   3.833  0.8333  3.2694 -1.6049
 8337SOL    HW236648   2.082   1.747   3.905 -1.1596  0.2619 -0.3287
 8338SOL     OW36649   0.014   1.808   9.853 -0.3302  0.3612 -0.4050
 8338SOL    HW136650   0.008   1.782   9.945  0.6938  0.9680 -0.1747
 8338SOL    HW236651   4.690   1.762   9.799  0.2275 -2.6538  1.5005
 8339SOL     OW36652   3.809   0.581  10.028  0.3386 -0.3376  0.0805
 8339SOL    HW136653   3.764   0.516   9.974 -0.3766  1.4596 -1.4826
 8339SOL    HW236654   3.803   0.656   9.970  0.4860 -0.3121  0.0979
 8340SOL     OW36655   3.231   1.826   8.997  0.0294  0.3669  0.0220
 8340SOL    HW136656   3.195   1.759   9.054  2.6719 -0.9547  0.1588
 8340SOL    HW236657   3.194   1.797   8.914  0.2059 -1.8134  0.7077
 8341SOL     OW36658   4.279   0.768   1.946 -0.4876 -0.4761  0.0115
 8341SOL    HW136659   4.191   0.798   1.925 -0.4633 -0.0860  0.4449
 8341SOL    HW236660   4.285   0.699   1.881 -1.6564 -0.0237 -0.5757
 8342SOL     OW36661   2.978   2.614   7.234  0.0755 -0.2552 -0.1653
 8342SOL    HW136662   2.953   2.566   7.314  1.5894  0.8280  0.9579
 8342SOL    HW236663   2.908   2.679   7.230 -0.4319 -0.8185 -0.3635
 8343SOL     OW36664   1.579   0.382   3.727  0.3607  0.2200  0.4202
 8343SOL    HW136665   1.608   0.453   3.784 -0.1930  0.8327 -0.0673
 8343SOL    HW236666   1.662   0.355   3.686  0.3265  0.2109  0.3568
 8344SOL     OW36667   1.735   0.390   6.880 -0.2401  0.3080 -0.6189
 8344SOL    HW136668   1.695   0.469   6.915 -0.3614  0.3208 -0.7841
 8344SOL    HW236669   1.811   0.377   6.937 -2.4369  2.0330  2.6575
 8345SOL     OW36670   4.679   1.613  11.684  0.6617  0.3693  0.4377
 8345SOL    HW136671   4.647   1.591  11.596 -1.6050  0.2963  1.2801
 8345SOL    HW236672   0.006   1.673  11.654  1.1600 -0.4288 -0.0194
 8346SOL     OW36673   0.400   1.464   4.321  0.1687 -0.1429  0.7451
 8346SOL    HW136674   0.429   1.410   4.248  1.1740 -3.6439  3.7380
 8346SOL    HW236675   0.478   1.512   4.348  1.5714 -1.7318 -0.5173
 8347SOL     OW36676   1.871   0.318  15.113 -0.4452  0.2095 -0.3808
 8347SOL    HW136677   1.802   0.372  15.074 -0.9094 -1.7914 -2.3480
 8347SOL    HW236678   1.957   0.334  15.075  0.4480  0.3971  1.7311
 8348SOL     OW36679   4.625   2.130   9.388  0.2380  0.1733 -0.0933
 8348SOL    HW136680   4.545   2.150   9.340  0.2661  2.7248  0.9501
 8348SOL    HW236681   4.605   2.042   9.421  0.7287  0.3871  0.7820
 8349SOL     OW36682   3.181   4.527   1.660 -0.0507 -0.7297 -0.0135
 8349SOL    HW136683   3.097   4.510   1.704 -0.9387  0.3421 -1.2909
 8349SOL    HW236684   3.190   4.447   1.608  2.1317  0.6548 -1.7411
 8350SOL     OW36685   3.210   1.119   1.998 -0.2033  0.0070  0.6533
 8350SOL    HW136686   3.174   1.193   1.948  1.7825  0.3195 -0.3298
 8350SOL    HW236687   3.132   1.064   2.009  0.2749 -1.4687 -3.4186
 8351SOL     OW36688   3.396   2.259  14.886  0.4451 -0.4165  0.1992
 8351SOL    HW136689   3.486   2.244  14.858  0.3564  0.3754 -0.5193
 8351SOL    HW236690   3.379   2.338  14.835  0.8436 -0.6617 -0.3017
 8352SOL     OW36691   3.163   1.962   4.855 -0.1754  0.3482 -0.2277
 8352SOL    HW136692   3.193   1.882   4.812 -1.6907  0.0503 -0.7304
 8352SOL    HW236693   3.191   2.035   4.799  1.1890  0.8161  1.0810
 8353SOL     OW36694   0.874   3.022   5.006 -0.3226  0.1522  0.0685
 8353SOL    HW136695   0.892   3.116   5.010 -2.4247  0.4364  2.4877
 8353SOL    HW236696   0.779   3.019   5.005 -0.3156 -0.8298  1.6343
 8354SOL     OW36697   2.444   3.495   0.027 -0.6807  0.1023 -0.0637
 8354SOL    HW136698   2.486   3.456  17.711 -0.5454  1.1907 -0.5410
 8354SOL    HW236699   2.525   3.534   0.060 -0.5557  0.0628 -0.3231
 8355SOL     OW36700   1.608   2.263   9.492 -0.1949  0.3985 -0.0607
 8355SOL    HW136701   1.703   2.271   9.490 -0.2752  0.6853 -2.9072
 8355SOL    HW236702   1.586   2.284   9.401  1.6278 -1.4896 -0.9456
 8356SOL     OW36703   0.353   3.294  17.613  0.2547  0.3767  0.2797
 8356SOL    HW136704   0.365   3.199  17.608  0.2021  0.3938 -0.2368
 8356SOL    HW236705   0.340   3.297  17.708  0.4185  0.6986  0.2900
 8357SOL     OW36706   2.246   1.709   2.909 -0.2962 -0.3121  0.3153
 8357SOL    HW136707   2.279   1.634   2.959 -0.2934 -0.5470 -0.0348
 8357SOL    HW236708   2.245   1.766   2.985 -2.5866  1.0279 -0.7279
 8358SOL     OW36709   0.396   2.242   7.447 -0.4093  0.3081 -0.7082
 8358SOL    HW136710   0.306   2.272   7.451 -0.3915  0.0006  2.1768
 8358SOL    HW236711   0.391   2.174   7.380 -3.7543 -1.5337  1.4553
 8359SOL     OW36712   3.404   0.684   1.189 -0.2379  0.0990  0.1183
 8359SOL    HW136713   3.377   0.603   1.145  0.0650  0.8102 -1.3539
 8359SOL    HW236714   3.415   0.742   1.113  3.8597 -0.0805  0.5981
 8360SOL     OW36715   3.155   3.376   7.758 -0.2213 -0.1348  0.7148
 8360SOL    HW136716   3.192   3.390   7.845 -0.2607 -1.8876  1.0103
 8360SOL    HW236717   3.175   3.455   7.708 -1.0363  0.8969  2.0086
 8361SOL     OW36718   2.757   0.904   4.687 -0.3983  0.6242 -0.3586
 8361SOL    HW136719   2.739   0.906   4.593  0.4930  1.6297 -0.4998
 8361SOL    HW236720   2.816   0.977   4.703  0.4015 -0.0567 -0.1546
 8362SOL     OW36721   2.765   3.337   6.809 -0.2378  0.1063 -0.6721
 8362SOL    HW136722   2.711   3.260   6.828  3.0948 -1.9816  0.3131
 8362SOL    HW236723   2.810   3.343   6.894 -2.1422 -2.2600  0.5091
 8363SOL     OW36724   2.426   1.535   5.296  0.0481  0.0261  0.5698
 8363SOL    HW136725   2.405   1.454   5.250 -0.8250  0.5248  0.0840
 8363SOL    HW236726   2.502   1.572   5.252  0.1279 -0.3105  0.4276
 8364SOL     OW36727   2.729   2.709   8.203 -0.3894 -0.2046 -0.7218
 8364SOL    HW136728   2.821   2.733   8.193 -0.8043  1.7330  0.0992
 8364SOL    HW236729   2.733   2.616   8.179 -1.3128 -1.1864  2.8201
 8365SOL     OW36730   3.643   4.239   0.954 -0.0254  0.7564  0.0014
 8365SOL    HW136731   3.607   4.241   0.865  0.4471  3.0392 -0.1335
 8365SOL    HW236732   3.571   4.219   1.014  0.3930 -0.9812 -0.0788
 8366SOL     OW36733   3.957   3.402   5.704 -1.0009 -0.0249  0.1077
 8366SOL    HW136734   3.890   3.395   5.771 -1.4037 -1.9269 -0.4919
 8366SOL    HW236735   3.967   3.307   5.693  1.7031  0.1467  1.1940
 8367SOL     OW36736   4.337   0.955   3.211  0.4927  0.2246 -0.3710
 8367SOL    HW136737   4.371   1.044   3.215  1.4383 -0.1331 -0.4390
 8367SOL    HW236738   4.269   0.956   3.279 -0.9208 -2.2552 -1.7395
 8368SOL     OW36739   2.578   1.422   1.397 -0.3740 -0.0958  0.1693
 8368SOL    HW136740   2.631   1.480   1.342 -1.3032  1.1348  0.5661
 8368SOL    HW236741   2.557   1.475   1.474 -1.5071  0.2350 -0.3734
 8369SOL     OW36742   2.267   2.637   5.940 -0.2724 -0.1942 -0.0611
 8369SOL    HW136743   2.282   2.543   5.952 -3.0041 -0.4917  0.9222
 8369SOL    HW236744   2.348   2.673   5.904  0.8510 -2.1196  0.5368
 8370SOL     OW36745   0.615   0.792   4.077 -0.2053  0.5815 -0.0283
 8370SOL    HW136746   0.550   0.722   4.067  2.0580 -1.2157 -2.0485
 8370SOL    HW236747   0.574   0.844   4.007  1.1686  1.7925  0.0821
 8371SOL     OW36748   1.250   3.711   2.126 -0.7481 -0.2360  0.2095
 8371SOL    HW136749   1.249   3.807   2.128 -0.0527 -0.2668  1.9097
 8371SOL    HW236750   1.345   3.702   2.131 -0.5758  2.0528  1.3795
 8372SOL     OW36751   2.891   1.773   2.137 -0.3817  0.3819 -0.1062
 8372SOL    HW136752   2.903   1.693   2.188  0.7620  0.2612 -0.5565
 8372SOL    HW236753   2.965   1.822   2.174  1.6682  0.0022 -3.6820
 8373SOL     OW36754   3.053   2.378   3.274 -0.2380  0.3733  0.8900
 8373SOL    HW136755   3.078   2.468   3.256  1.5862 -0.3832 -0.3498
 8373SOL    HW236756   3.138   2.341   3.300  0.0891  1.0342  0.7711
 8374SOL     OW36757   4.358   3.954  16.270  0.5979 -0.0408  0.4287
 8374SOL    HW136758   4.311   3.871  16.276 -1.4978  1.2970  3.0048
 8374SOL    HW236759   4.350   3.983  16.361  0.5173 -0.8465  0.6793
 8375SOL     OW36760   2.823   2.475   8.068  0.1402  0.2123 -0.3982
 8375SOL    HW136761   2.801   2.402   8.126  3.8719 -0.4388  0.1839
 8375SOL    HW236762   2.815   2.443   7.978  0.9110  0.0358 -0.4094
 8376SOL     OW36763   2.993   4.413   8.301 -0.2638  0.1104  1.1673
 8376SOL    HW136764   2.960   4.323   8.295  1.2703 -0.2586 -1.9997
 8376SOL    HW236765   2.979   4.452   8.215 -4.4473 -3.8043  0.0753
 8377SOL     OW36766   1.097   2.201   5.546  0.2324  0.5944  0.5587
 8377SOL    HW136767   1.141   2.240   5.471 -0.4693 -0.0292 -0.1781
 8377SOL    HW236768   1.111   2.106   5.536  1.2697  0.6762  1.2695
 8378SOL     OW36769   3.629   1.464   5.615 -0.1856  0.4245  0.0209
 8378SOL    HW136770   3.696   1.519   5.655  1.3399 -0.5311 -1.1855
 8378SOL    HW236771   3.553   1.483   5.669 -0.8590  0.9253 -1.1025
 8379SOL     OW36772   1.844   2.627   2.868 -0.0933  0.3175  0.1579
 8379SOL    HW136773   1.903   2.568   2.916 -0.8811 -0.3777  0.2897
 8379SOL    HW236774   1.836   2.697   2.933  2.3364  1.0757 -0.3455
 8380SOL     OW36775   1.465   0.122   4.304 -0.2086  0.8774  0.0142
 8380SOL    HW136776   1.409   0.045   4.292  0.8507 -0.0664  1.1400
 8380SOL    HW236777   1.438   0.155   4.390 -1.4737 -0.7107  0.2349
 8381SOL     OW36778   1.063   2.891  14.187  0.1983  0.2153 -0.1899
 8381SOL    HW136779   1.000   2.956  14.218  0.6961  0.3291  0.6018
 8381SOL    HW236780   1.132   2.912  14.251  0.3621 -0.7373 -0.0452
 8382SOL     OW36781   2.668   1.380   9.549 -0.5378 -0.3030 -0.7336
 8382SOL    HW136782   2.683   1.302   9.496  0.6845 -0.6288  0.0958
 8382SOL    HW236783   2.574   1.367   9.564  0.1704 -2.3983  1.8546
 8383SOL     OW36784   1.885   2.648  14.814  0.4993  0.0046 -0.1506
 8383SOL    HW136785   1.831   2.718  14.851  0.7288  1.2091 -2.1378
 8383SOL    HW236786   1.838   2.633  14.732 -3.2484  0.2456  1.9672
 8384SOL     OW36787   3.983   0.364   8.839  0.4012 -0.5057 -0.3508
 8384SOL    HW136788   4.044   0.384   8.769  3.5884 -1.0755  2.2450
 8384SOL    HW236789   3.925   0.440   8.837  1.1792  0.0773 -0.6838
 8385SOL     OW36790   1.969   3.907   1.379  0.0477 -0.4353 -0.0678
 8385SOL    HW136791   1.927   3.938   1.460  1.6787  0.3563  0.4874
 8385SOL    HW236792   2.036   3.856   1.425  0.3490  0.3681  0.4013
 8386SOL     OW36793   0.841   0.290   7.479 -0.4110  0.4376 -0.0381
 8386SOL    HW136794   0.753   0.297   7.516 -0.6024  1.3810 -0.6906
 8386SOL    HW236795   0.890   0.358   7.525  0.2418 -0.3518  0.4471
 8387SOL     OW36796   1.919   0.225  15.423 -0.2590  0.3045 -0.3516
 8387SOL    HW136797   1.913   0.206  15.329 -1.4447 -0.3546 -0.1413
 8387SOL    HW236798   2.005   0.191  15.449  0.0700  0.8861 -0.6781
 8388SOL     OW36799   4.671   2.690  16.856  0.5708  0.0391  0.0662
 8388SOL    HW136800   4.630   2.728  16.779 -0.4827 -2.2694 -0.5151
 8388SOL    HW236801   0.020   2.724  16.860  0.8979 -0.6816 -1.0937
 8389SOL     OW36802   2.228   2.389   2.228  0.2430 -0.4690 -1.0231
 8389SOL    HW136803   2.163   2.444   2.272 -0.0446 -1.1082 -0.6349
 8389SOL    HW236804   2.288   2.456   2.197  0.2343  1.5632  3.3349
 8390SOL     OW36805   0.212   4.654   4.746 -0.3308 -0.5436 -0.4780
 8390SOL    HW136806   0.251   0.001   4.747  0.9281 -1.1001 -1.3896
 8390SOL    HW236807   0.205   4.634   4.652  2.7069  0.0459 -0.8272
 8391SOL     OW36808   1.330   2.750   3.872  0.1433  0.3913 -0.1418
 8391SOL    HW136809   1.294   2.817   3.930 -1.1204 -0.3718 -0.0474
 8391SOL    HW236810   1.424   2.761   3.882 -0.1178  1.5180  1.1318
 8392SOL     OW36811   0.901   3.210  16.235 -0.4637  0.3269  0.0765
 8392SOL    HW136812   0.938   3.277  16.177 -1.4107  1.2166  0.4927
 8392SOL    HW236813   0.808   3.230  16.225 -0.6571 -1.4411 -1.7685
 8393SOL     OW36814   3.639   3.661   2.364 -0.7536 -0.3639 -0.1328
 8393SOL    HW136815   3.710   3.598   2.376  2.5398  3.2425 -0.8614
 8393SOL    HW236816   3.665   3.726   2.428  1.1529 -1.5560  0.2849
 8394SOL     OW36817   0.704   3.224   9.401 -0.3727 -0.5504  0.3866
 8394SOL    HW136818   0.672   3.253   9.316  0.4180  0.0920  0.3021
 8394SOL    HW236819   0.760   3.151   9.374 -0.1806 -0.2546 -0.0188
 8395SOL     OW36820   3.857   2.319   1.066  0.6338 -0.6400  0.6045
 8395SOL    HW136821   3.877   2.384   0.998  1.2759 -1.0069  0.4369
 8395SOL    HW236822   3.793   2.268   1.016  0.3905  1.8943 -1.7149
 8396SOL     OW36823   4.272   2.016  13.926 -0.4633 -0.1918  0.6201
 8396SOL    HW136824   4.252   1.953  13.995 -0.9184  0.0001  0.6598
 8396SOL    HW236825   4.274   1.960  13.848 -0.0960  1.1474 -0.3406
 8397SOL     OW36826   2.308   3.236   3.548 -0.4663 -0.2604 -0.5003
 8397SOL    HW136827   2.218   3.222   3.519 -0.2326 -1.3803 -0.6726
 8397SOL    HW236828   2.294   3.305   3.613  1.4180  0.3326 -0.7215
 8398SOL     OW36829   1.402   1.046   4.936 -0.2996  0.7159  0.0526
 8398SOL    HW136830   1.478   1.102   4.919 -0.0066 -0.1213 -1.4628
 8398SOL    HW236831   1.339   1.117   4.924 -0.0832  0.7698 -0.7573
 8399SOL     OW36832   0.779   1.325   3.188 -0.1991  0.3104 -0.3567
 8399SOL    HW136833   0.827   1.394   3.143  0.5211 -1.0974 -1.7393
 8399SOL    HW236834   0.709   1.378   3.227 -0.1344  0.0893  0.0560
 8400SOL     OW36835   3.383   1.302   5.085 -0.1080  0.2964  0.0720
 8400SOL    HW136836   3.299   1.257   5.086  0.5419 -0.9713 -0.7622
 8400SOL    HW236837   3.451   1.234   5.087 -2.1898 -1.7440  0.5045
 8401SOL     OW36838   4.498   0.908   4.069  0.0622  0.0433  0.3469
 8401SOL    HW136839   4.550   0.987   4.087 -0.4695  0.0541  1.8143
 8401SOL    HW236840   4.410   0.943   4.057 -0.1198 -1.4771 -2.7076
 8402SOL     OW36841   1.419   3.544   3.784 -0.2694  0.6941  0.0189
 8402SOL    HW136842   1.430   3.540   3.689 -1.2291 -1.2754 -0.0004
 8402SOL    HW236843   1.476   3.620   3.799 -1.5073  1.1719  2.2815
 8403SOL     OW36844   4.397   0.094  12.258 -0.5992  0.0083 -0.2024
 8403SOL    HW136845   4.303   0.082  12.249 -0.4966 -0.2456 -0.9877
 8403SOL    HW236846   4.420   0.049  12.176  0.2689  0.0472  0.0205
 8404SOL     OW36847   1.864   4.141   9.606 -0.0714  0.0764 -0.4777
 8404SOL    HW136848   1.921   4.145   9.529  0.8393 -0.5197  0.1623
 8404SOL    HW236849   1.781   4.151   9.559  0.5238  3.9867 -0.7225
 8405SOL     OW36850   0.370   0.737   3.505  0.3978  0.0018 -0.1396
 8405SOL    HW136851   0.276   0.724   3.499  0.0100  1.7857  1.9189
 8405SOL    HW236852   0.369   0.756   3.599  1.2324  1.7044 -0.4831
 8406SOL     OW36853   0.231   3.087   7.540  0.0675  0.6810  0.2066
 8406SOL    HW136854   0.292   3.161   7.547  0.5314  0.3114 -0.0193
 8406SOL    HW236855   0.283   3.016   7.576  1.6729  1.7290 -0.0390
 8407SOL     OW36856   4.524   3.320   9.245 -0.4513 -0.5030 -0.2320
 8407SOL    HW136857   4.575   3.276   9.177 -1.5313 -1.5033 -0.3978
 8407SOL    HW236858   4.543   3.262   9.319  1.5848 -0.7708 -0.9482
 8408SOL     OW36859   1.776   2.969   9.128  0.0813  0.2031  0.1429
 8408SOL    HW136860   1.730   3.028   9.188 -0.8582  0.2179 -0.5953
 8408SOL    HW236861   1.790   3.033   9.059 -0.2314 -0.7637 -0.8112
 8409SOL     OW36862   1.848   2.792   6.800 -0.5352 -0.5765 -0.1367
 8409SOL    HW136863   1.862   2.785   6.706  2.1419  0.2615  0.1977
 8409SOL    HW236864   1.757   2.822   6.811 -0.3260 -0.2286  0.7313
 8410SOL     OW36865   1.755   2.266   4.847 -0.1786 -0.4387 -0.2184
 8410SOL    HW136866   1.718   2.183   4.816 -1.0638 -0.1192 -0.0229
 8410SOL    HW236867   1.706   2.333   4.799  1.1363 -0.0260 -0.9771
 8411SOL     OW36868   3.015   2.666   7.914  0.2660  0.7410 -0.3919
 8411SOL    HW136869   2.955   2.610   7.963  0.0199  0.0986 -1.4128
 8411SOL    HW236870   3.075   2.690   7.984 -0.3591 -0.4505  0.5551
 8412SOL     OW36871   3.160   2.393  15.433 -0.5077  0.8694  0.1403
 8412SOL    HW136872   3.206   2.442  15.364 -0.5659 -0.1406 -0.6165
 8412SOL    HW236873   3.155   2.304  15.399 -0.6848  0.0320  2.4030
 8413SOL     OW36874   1.108   2.721   3.199 -0.5112  0.5191  0.8128
 8413SOL    HW136875   1.048   2.781   3.154 -1.8327  0.2285  2.1844
 8413SOL    HW236876   1.074   2.727   3.288 -2.8664  1.8756 -0.1800
 8414SOL     OW36877   0.575   2.048   9.839  0.0339  0.8218  0.6047
 8414SOL    HW136878   0.554   2.029   9.931  3.1067  1.6107  1.4807
 8414SOL    HW236879   0.546   2.139   9.848  0.3932  1.1273 -1.2841
 8415SOL     OW36880   4.673   4.300   6.781  0.1864  0.1602 -0.5725
 8415SOL    HW136881   4.693   4.254   6.699  1.7339  0.2853 -0.2634
 8415SOL    HW236882   4.578   4.307   6.786  0.1394 -1.0027  0.2414
 8416SOL     OW36883   2.490   2.821  11.112 -0.3691  0.1390  0.2493
 8416SOL    HW136884   2.579   2.794  11.135 -0.6299 -1.1793 -0.2529
 8416SOL    HW236885   2.444   2.737  11.119  2.1660 -1.0850  2.4012
 8417SOL     OW36886   0.817   1.166  12.086  0.0208  0.0950  0.3478
 8417SOL    HW136887   0.727   1.146  12.058 -0.0624  2.0042 -0.7672
 8417SOL    HW236888   0.823   1.088  12.142  1.6243  0.1328  0.2090
 8418SOL     OW36889   4.250   3.479   8.620 -0.3009  0.5522 -0.1829
 8418SOL    HW136890   4.230   3.455   8.529  1.5741 -0.7051 -0.2790
 8418SOL    HW236891   4.263   3.394   8.661 -2.2361  0.3489 -0.0119
 8419SOL     OW36892   0.017   3.359   5.685 -0.3328  0.2264 -0.0174
 8419SOL    HW136893   4.688   3.372   5.749  0.7094  1.6239  0.8216
 8419SOL    HW236894   0.042   3.270   5.711 -1.7029 -0.2712 -0.4078
 8420SOL     OW36895   1.849   4.586   6.351 -0.4574 -0.5544  0.6775
 8420SOL    HW136896   1.768   4.603   6.302 -0.8169 -2.3389  0.6797
 8420SOL    HW236897   1.917   4.584   6.284 -2.2364 -0.0606 -1.1473
 8421SOL     OW36898   2.241   0.135   2.582 -0.5858 -0.0545  0.0879
 8421SOL    HW136899   2.227   0.198   2.653  2.2655 -0.4358  1.0141
 8421SOL    HW236900   2.253   0.192   2.506  2.8397  0.2012  0.8136
 8422SOL     OW36901   0.393   1.576   3.171 -0.0230 -0.2296  0.5372
 8422SOL    HW136902   0.297   1.571   3.173 -0.1652  2.0405 -0.1896
 8422SOL    HW236903   0.424   1.502   3.223  1.2395 -1.4433 -1.9485
 8423SOL     OW36904   0.514   1.983   6.208  0.5120 -0.2611  0.7706
 8423SOL    HW136905   0.522   2.073   6.240 -1.0947  0.6373 -1.3332
 8423SOL    HW236906   0.428   1.975   6.168  1.1215 -2.1752 -0.1569
 8424SOL     OW36907   1.524   4.324   5.517 -0.3930  0.0016 -0.0267
 8424SOL    HW136908   1.545   4.281   5.600 -0.1438 -0.5056 -0.3525
 8424SOL    HW236909   1.456   4.265   5.485  0.0518 -1.7753  2.2860
 8425SOL     OW36910   3.648   0.378  15.566  0.1971  0.1164 -0.3152
 8425SOL    HW136911   3.717   0.315  15.586  0.6910  0.2224 -1.6262
 8425SOL    HW236912   3.571   0.332  15.598  1.1493 -0.6821  0.7911
 8426SOL     OW36913   3.412   4.410  10.919 -0.5653 -0.1162 -0.0008
 8426SOL    HW136914   3.444   4.327  10.884  1.7450  0.4049  0.8684
 8426SOL    HW236915   3.496   4.451  10.938 -1.8342  2.3503  0.3310
 8427SOL     OW36916   0.266   1.815   8.640 -0.0808  0.2684  0.1603
 8427SOL    HW136917   0.199   1.882   8.624 -0.7700 -0.2780  0.7729
 8427SOL    HW236918   0.207   1.740   8.641 -0.6375  0.7046 -0.4348
 8428SOL     OW36919   4.187   4.245   2.075 -0.4820 -0.8369 -0.2289
 8428SOL    HW136920   4.113   4.238   2.135 -0.0381 -0.5338  0.3534
 8428SOL    HW236921   4.177   4.158   2.037 -2.9147  0.0832 -1.6565
 8429SOL     OW36922   3.898   0.209   1.533  0.2972  0.4659 -0.7301
 8429SOL    HW136923   3.927   0.225   1.623  1.6326  0.2234 -1.1243
 8429SOL    HW236924   3.809   0.244   1.541  0.8817  2.0180 -1.0827
 8430SOL     OW36925   2.907   0.824   7.342  0.5604 -0.5751  0.1534
 8430SOL    HW136926   2.941   0.775   7.268  3.4826  0.5633  0.7277
 8430SOL    HW236927   2.816   0.820   7.311  0.1889 -0.0208  1.1630
 8431SOL     OW36928   1.591   1.304   8.436  1.3192  0.3020 -0.2101
 8431SOL    HW136929   1.626   1.309   8.526 -0.7209  1.0229  0.5326
 8431SOL    HW236930   1.666   1.332   8.385  1.2703  1.8231  0.5607
 8432SOL     OW36931   1.909   1.828   1.420  0.5105  0.8910 -0.7694
 8432SOL    HW136932   1.881   1.915   1.448 -0.7557  0.9206 -2.1160
 8432SOL    HW236933   2.004   1.840   1.407  0.3679  0.5733 -2.0969
 8433SOL     OW36934   0.821   2.267   8.511  0.2944  0.3605  0.1239
 8433SOL    HW136935   0.731   2.299   8.507  0.0794 -0.3463 -0.5911
 8433SOL    HW236936   0.815   2.185   8.462 -1.0192  0.8316 -0.4966
 8434SOL     OW36937   2.950   1.977   1.825 -0.1885  0.7708 -0.4193
 8434SOL    HW136938   3.025   1.937   1.868 -0.2930  0.9037 -0.1111
 8434SOL    HW236939   2.877   1.965   1.886 -1.6478  2.1765 -1.9128
 8435SOL     OW36940   2.016   0.296   4.632 -0.1924  0.1351 -0.0976
 8435SOL    HW136941   1.930   0.254   4.635 -0.6025  0.9385 -0.7149
 8435SOL    HW236942   2.027   0.322   4.541 -3.5728 -3.1092 -1.4271
 8436SOL     OW36943   3.847   0.081   7.008 -0.0915  0.0773  0.3515
 8436SOL    HW136944   3.779   0.016   6.990  0.5576 -0.4476 -0.2314
 8436SOL    HW236945   3.819   0.148   6.946 -2.2074 -1.0138  0.1285
 8437SOL     OW36946   4.427   4.003   3.167 -0.1729  0.0592 -0.0090
 8437SOL    HW136947   4.510   4.041   3.195  0.7709 -0.8314 -1.5954
 8437SOL    HW236948   4.400   3.969   3.252 -2.5974 -1.1473 -1.2571
 8438SOL     OW36949   0.940   0.969  15.613  0.2005  0.2011  0.5032
 8438SOL    HW136950   0.991   0.902  15.567  1.0398  1.3362 -0.2083
 8438SOL    HW236951   0.904   1.014  15.536 -1.1328 -1.2527  0.2478
 8439SOL     OW36952   0.203   3.958   4.001 -0.7868 -0.0533 -0.1725
 8439SOL    HW136953   0.260   4.000   4.066 -1.0523  1.2089 -0.7568
 8439SOL    HW236954   0.187   3.876   4.049  0.0326 -0.5988 -0.8394
 8440SOL     OW36955   2.768   1.265   7.843  1.0278 -0.6781  0.4682
 8440SOL    HW136956   2.687   1.308   7.815  1.8244  0.7248  0.3500
 8440SOL    HW236957   2.781   1.299   7.932 -0.8816  1.6759 -0.1617
 8441SOL     OW36958   0.859   2.683   5.411 -1.0952 -0.2248  0.1824
 8441SOL    HW136959   0.871   2.699   5.504  0.9369  1.7460 -0.4085
 8441SOL    HW236960   0.916   2.752   5.376 -1.8196  0.5140  0.4743
 8442SOL     OW36961   2.496   2.212   5.189  0.5376  0.2482 -0.6374
 8442SOL    HW136962   2.580   2.220   5.234 -0.0162 -0.2643  0.4776
 8442SOL    HW236963   2.476   2.120   5.206 -1.5932  1.1736  1.8185
 8443SOL     OW36964   2.178   4.586   9.477 -0.3576 -0.2000 -0.0937
 8443SOL    HW136965   2.261   4.631   9.493 -1.3613  0.9039  2.0691
 8443SOL    HW236966   2.214   4.523   9.415  1.2327  1.1227 -0.5342
 8444SOL     OW36967   0.712   1.177   4.380 -0.0288 -0.4270  0.5856
 8444SOL    HW136968   0.803   1.168   4.352 -0.4352 -0.0399 -0.8718
 8444SOL    HW236969   0.718   1.224   4.463  1.3186  1.9449 -0.8216
 8445SOL     OW36970   3.463   2.879   8.093 -0.1022  0.4299  0.2852
 8445SOL    HW136971   3.478   2.790   8.061 -0.8235  0.0797  0.9211
 8445SOL    HW236972   3.547   2.885   8.139 -0.3876  0.4465  0.7973
 8446SOL     OW36973   4.696   2.284   7.046  0.8092 -0.1054 -0.2386
 8446SOL    HW136974   4.658   2.372   7.048 -1.1202 -0.9380 -0.0083
 8446SOL    HW236975   4.668   2.256   7.133  2.9023  1.0100  0.7803
 8447SOL     OW36976   4.015   3.064   8.777  0.2128  0.2393 -0.2712
 8447SOL    HW136977   4.041   3.149   8.742  1.4083  0.7775  1.9071
 8447SOL    HW236978   4.037   3.077   8.870 -1.5483  0.7828  0.0678
 8448SOL     OW36979   4.027   3.864  16.513 -0.0604  0.5481  0.1623
 8448SOL    HW136980   4.001   3.912  16.434  0.6350 -0.4593 -0.6778
 8448SOL    HW236981   3.949   3.840  16.562 -0.9140  1.8584 -0.5546
 8449SOL     OW36982   3.893   3.099  12.207 -0.9344 -0.3721 -0.1979
 8449SOL    HW136983   3.843   3.125  12.129 -1.8742 -3.0775 -0.4970
 8449SOL    HW236984   3.821   3.068  12.263 -1.0408  0.7046  0.2745
 8450SOL     OW36985   3.358   1.428   1.988 -0.1529 -0.0289 -0.4505
 8450SOL    HW136986   3.420   1.364   2.024  0.5233  1.5330  1.1295
 8450SOL    HW236987   3.296   1.368   1.945 -1.2480  2.2214 -2.0088
 8451SOL     OW36988   1.712   3.927  15.549  0.1999  0.0856 -0.3323
 8451SOL    HW136989   1.737   4.015  15.577  0.4003  0.3715 -1.4308
 8451SOL    HW236990   1.716   3.878  15.631  2.1868  3.6226  1.6929
 8452SOL     OW36991   1.239   1.708   2.732  0.2953 -0.1345  0.4897
 8452SOL    HW136992   1.180   1.699   2.657  1.3046 -2.4424 -0.0009
 8452SOL    HW236993   1.248   1.803   2.725  1.6830 -0.2139  1.2503
 8453SOL     OW36994   0.360   3.507   7.773  0.0287 -0.3936  0.4825
 8453SOL    HW136995   0.355   3.529   7.866 -0.2185  0.5125  0.2559
 8453SOL    HW236996   0.271   3.515   7.740  0.3686  2.1116  0.1135
 8454SOL     OW36997   2.817   1.168   9.059  0.1156 -0.5559  0.0765
 8454SOL    HW136998   2.758   1.199   9.127  1.1917 -2.0022  1.6601
 8454SOL    HW236999   2.749   1.142   8.997  1.6974 -0.3431 -1.7462
 8455SOL     OW37000   2.751   4.288   4.543 -0.0712 -0.3815 -0.4534
 8455SOL    HW137001   2.677   4.228   4.555  2.5389 -3.4031  0.8592
 8455SOL    HW237002   2.816   4.245   4.600 -0.4264  2.6256  2.2124
 8456SOL     OW37003   0.361   2.796   5.895  0.2646 -0.0050  0.2390
 8456SOL    HW137004   0.454   2.813   5.878 -0.2878  2.2709 -0.5357
 8456SOL    HW237005   0.341   2.732   5.826 -0.2362 -0.5125  0.8597
 8457SOL     OW37006   4.423   3.773   2.358  0.1805  0.4507  0.4337
 8457SOL    HW137007   4.420   3.868   2.355 -1.2771  0.3673 -0.8018
 8457SOL    HW237008   4.430   3.764   2.453  0.8252 -0.0982  0.3374
 8458SOL     OW37009   1.205   3.368  14.356 -0.5083  0.2505 -0.3529
 8458SOL    HW137010   1.221   3.337  14.267 -0.6144  1.0824 -0.6683
 8458SOL    HW237011   1.148   3.296  14.381  0.5230 -0.2261  0.5991
 8459SOL     OW37012   4.614   0.091   2.395 -0.2438 -0.3654  0.1081
 8459SOL    HW137013   4.632   0.139   2.314 -0.0357 -2.8563 -1.3238
 8459SOL    HW237014   4.553   0.029   2.356 -0.8998  0.0794  0.4402
 8460SOL     OW37015   2.372   0.931   4.975 -0.7304  0.3159  0.5828
 8460SOL    HW137016   2.458   0.891   4.986 -1.0354 -0.8438 -1.2218
 8460SOL    HW237017   2.376   0.973   4.889  2.2045  1.7669  1.4364
 8461SOL     OW37018   4.332   3.500  14.687 -0.8447  0.2068 -0.0762
 8461SOL    HW137019   4.268   3.566  14.659 -0.0992  0.4687 -1.1538
 8461SOL    HW237020   4.282   3.453  14.754 -1.6952  1.8035  0.4073
 8462SOL     OW37021   2.807   4.591   1.154  0.2332  0.0555  0.2963
 8462SOL    HW137022   2.881   4.534   1.174 -0.8876 -0.5788  2.5560
 8462SOL    HW237023   2.814   4.609   1.060 -0.7469 -1.9565 -0.1621
 8463SOL     OW37024   2.805   0.103  17.614 -0.0293 -0.0883  0.4609
 8463SOL    HW137025   2.839   0.018  17.644  0.1040 -0.8888 -1.9468
 8463SOL    HW237026   2.791   0.148  17.698  1.1436 -1.1350  1.2184
 8464SOL     OW37027   4.322   3.207   8.881  0.3307 -0.0398  0.1616
 8464SOL    HW137028   4.256   3.148   8.917  1.3090 -0.2261  1.6412
 8464SOL    HW237029   4.295   3.287   8.928  0.7697  1.1634 -1.6230
 8465SOL     OW37030   4.316   1.544  17.637  0.0202 -0.7294 -0.6644
 8465SOL    HW137031   4.228   1.507  17.643 -0.6732  1.1765  1.4659
 8465SOL    HW237032   4.296   1.638  17.642  2.0521 -0.1254 -4.0636
 8466SOL     OW37033   0.631   2.693   2.745  0.5880  0.1969 -0.3311
 8466SOL    HW137034   0.668   2.628   2.684  1.5151  2.3795 -2.0945
 8466SOL    HW237035   0.704   2.678   2.806 -1.6153 -1.3414  1.9199
 8467SOL     OW37036   4.113   2.708   3.740 -0.4944  0.3013 -0.0192
 8467SOL    HW137037   4.156   2.792   3.723  1.9530 -1.2866 -1.6785
 8467SOL    HW237038   4.179   2.653   3.697  0.6034  0.7039  1.1426
 8468SOL     OW37039   1.740   3.653  17.488 -0.0551  0.2665  0.1000
 8468SOL    HW137040   1.704   3.597  17.419  1.3392 -1.1089  0.4999
 8468SOL    HW237041   1.679   3.630  17.558  1.2842 -0.4116  1.0365
 8469SOL     OW37042   0.222   1.010   8.164 -0.1746  0.5230  0.2236
 8469SOL    HW137043   0.214   1.104   8.152 -1.1282  0.5690  1.2263
 8469SOL    HW237044   0.158   0.983   8.230  0.1637  0.8567  0.6847
 8470SOL     OW37045   3.639   3.183   6.772 -0.4764  0.8058 -0.2062
 8470SOL    HW137046   3.715   3.173   6.715 -0.8961 -2.3789 -0.1991
 8470SOL    HW237047   3.660   3.144   6.856  2.0812  0.9238 -0.7975
 8471SOL     OW37048   2.157   4.138  17.441  0.0465  0.0495  0.0636
 8471SOL    HW137049   2.191   4.227  17.438 -0.3290  0.2239  1.0220
 8471SOL    HW237050   2.174   4.111  17.351  2.2559  1.4779  0.0600
 8472SOL     OW37051   0.484   0.020  13.965  0.5970 -0.3013  0.0363
 8472SOL    HW137052   0.513   0.017  13.874  1.2574 -0.8542  0.2719
 8472SOL    HW237053   0.517   4.677  13.996  1.7848 -1.0496 -3.2215
 8473SOL     OW37054   4.522   3.990   6.002 -0.1472  0.9432 -0.1765
 8473SOL    HW137055   4.561   4.033   5.926 -1.0079 -0.8874 -1.6621
 8473SOL    HW237056   4.599   3.947   6.039 -1.0577  0.1188  0.7488
 8474SOL     OW37057   3.946   0.132   5.935 -0.7262  0.1540  0.1685
 8474SOL    HW137058   4.016   0.111   5.873 -0.8875  0.8215 -0.2421
 8474SOL    HW237059   3.991   0.150   6.017  0.1388 -0.3370 -0.1994
 8475SOL     OW37060   3.096   2.594   4.593 -0.0748 -0.0262  0.0822
 8475SOL    HW137061   3.113   2.688   4.598  0.1109 -0.0886  0.6213
 8475SOL    HW237062   3.012   2.590   4.548  0.4931 -1.3130 -0.8785
 8476SOL     OW37063   1.568   1.546   4.293  0.0180  0.4912  0.0456
 8476SOL    HW137064   1.621   1.535   4.372 -1.3219 -2.5937  0.4762
 8476SOL    HW237065   1.630   1.574   4.225  1.6467 -1.4297  0.7505
 8477SOL     OW37066   3.227   2.333  15.968 -0.2206 -0.4462  0.3526
 8477SOL    HW137067   3.260   2.279  16.040  1.7226  0.3524  0.0653
 8477SOL    HW237068   3.298   2.397  15.971 -1.7197  1.1261  1.8617
 8478SOL     OW37069   3.456   4.668   6.108 -0.2591 -0.1797  0.5289
 8478SOL    HW137070   3.420   4.620   6.182  1.4923 -0.9855  0.8726
 8478SOL    HW237071   3.442   0.017   6.138 -2.1521  0.7332 -3.0472
 8479SOL     OW37072   0.770   2.338   5.964 -0.3053  0.0872  0.4414
 8479SOL    HW137073   0.756   2.252   6.005 -0.7258  0.0221  0.1623
 8479SOL    HW237074   0.821   2.313   5.887 -2.0647 -1.2812 -0.2888
 8480SOL     OW37075   2.561   3.313   5.915 -0.4997  0.5184  0.5890
 8480SOL    HW137076   2.560   3.227   5.956  0.3906 -0.2749 -1.0478
 8480SOL    HW237077   2.636   3.357   5.956  0.7639  0.4096 -1.5740
 8481SOL     OW37078   1.175   3.678   5.573  0.2222 -0.3184  0.3210
 8481SOL    HW137079   1.122   3.747   5.613  0.4908 -0.1319  0.3522
 8481SOL    HW237080   1.264   3.681   5.608  0.8443 -2.0398 -1.1002
 8482SOL     OW37081   4.397   2.766   1.275  0.3364  0.0102 -1.0331
 8482SOL    HW137082   4.482   2.742   1.238  0.4479  0.6965 -1.2264
 8482SOL    HW237083   4.397   2.861   1.265 -0.2920  0.1820  0.5787
 8483SOL     OW37084   4.575   1.100   3.505  0.0263  0.3257  0.3017
 8483SOL    HW137085   4.526   1.165   3.556  1.1284  1.0281  0.4555
 8483SOL    HW237086   4.624   1.054   3.573  2.4659  0.9769 -1.0505
 8484SOL     OW37087   1.085   0.525  13.606  0.0032 -0.3119 -0.0947
 8484SOL    HW137088   1.117   0.530  13.696  0.8868  0.0853 -0.4242
 8484SOL    HW237089   1.115   0.612  13.578  0.2215 -0.2129  0.4451
 8485SOL     OW37090   3.614   0.341  12.072 -0.0237 -0.5525  0.3389
 8485SOL    HW137091   3.601   0.373  12.161  3.2890  1.8317 -0.0080
 8485SOL    HW237092   3.554   0.398  12.022  0.9760 -0.6658 -0.9994
 8486SOL     OW37093   3.096   4.533  14.947  0.2265 -0.7448  0.4647
 8486SOL    HW137094   3.144   4.480  15.010  1.4638  0.8425  0.8519
 8486SOL    HW237095   3.019   4.566  14.994  0.3996  0.9919 -0.4834
 8487SOL     OW37096   2.582   2.835  10.820 -0.1907 -0.0494 -0.8188
 8487SOL    HW137097   2.671   2.865  10.836  0.5675 -1.1761 -3.0408
 8487SOL    HW237098   2.551   2.856  10.908 -0.2025 -3.3882 -0.0345
 8488SOL     OW37099   1.977   3.793   6.880  0.2808  0.6130 -0.2766
 8488SOL    HW137100   1.892   3.836   6.876 -0.6353 -1.1506  0.2710
 8488SOL    HW237101   1.946   3.704   6.871 -1.7749  1.2171  0.8456
 8489SOL     OW37102   2.709   2.392   3.279 -0.1928  0.0525  0.2561
 8489SOL    HW137103   2.776   2.441   3.231 -1.4862  1.6960  0.1154
 8489SOL    HW237104   2.759   2.316   3.308 -2.9736 -1.5649  0.8126
 8490SOL     OW37105   4.096   2.445   5.994  0.1252 -0.2441  0.1346
 8490SOL    HW137106   4.039   2.372   6.018 -0.2926  0.2334  0.6059
 8490SOL    HW237107   4.031   2.513   5.976 -0.1353 -0.7443 -0.8070
 8491SOL     OW37108   1.902   3.291   8.714 -0.2920  0.3065  0.0634
 8491SOL    HW137109   1.998   3.295   8.715 -0.2748  0.0447 -0.6345
 8491SOL    HW237110   1.876   3.383   8.711  1.1052  0.6960  0.0514
 8492SOL     OW37111   3.939   2.143   4.360  0.1864 -0.4166  0.4050
 8492SOL    HW137112   3.965   2.106   4.444 -1.0398 -1.8845  0.1361
 8492SOL    HW237113   3.966   2.235   4.368  1.8517 -0.9854  1.2495
 8493SOL     OW37114   2.477   4.072   8.518  0.1909 -0.3891  0.2753
 8493SOL    HW137115   2.448   4.117   8.438 -1.9579  0.3207  1.4590
 8493SOL    HW237116   2.496   4.152   8.567  0.0366 -1.6187  2.3094
 8494SOL     OW37117   1.091   4.509   4.240  0.6779 -0.2998 -0.2620
 8494SOL    HW137118   1.077   4.415   4.230  2.4179 -0.4791 -0.9029
 8494SOL    HW237119   1.136   4.508   4.324  1.1294  0.4986 -0.4939
 8495SOL     OW37120   1.309   0.384   4.791 -0.5685 -0.2359  0.1558
 8495SOL    HW137121   1.290   0.478   4.784 -1.1763 -0.3157  0.6963
 8495SOL    HW237122   1.226   0.358   4.832 -0.7003  1.1463  0.7517
 8496SOL     OW37123   3.054   1.644   8.287 -0.1043 -0.3795  0.0700
 8496SOL    HW137124   3.019   1.670   8.202 -2.2749  1.5379  1.5412
 8496SOL    HW237125   2.973   1.616   8.330 -0.1951  1.7736  1.3012
 8497SOL     OW37126   0.955   1.348  14.090  0.3542  0.2701  0.8041
 8497SOL    HW137127   1.029   1.384  14.140  1.4857  0.7336 -1.1908
 8497SOL    HW237128   0.912   1.292  14.154 -0.0735  0.7934  0.9748
 8498SOL     OW37129   2.558   2.744   6.184  0.1712 -0.3428  0.8585
 8498SOL    HW137130   2.479   2.791   6.159  0.0128 -0.9977  0.1117
 8498SOL    HW237131   2.602   2.759   6.100  1.9494 -4.1793  1.1101
 8499SOL     OW37132   3.643   3.383   1.763 -0.0917 -0.4382 -0.2889
 8499SOL    HW137133   3.681   3.378   1.850 -0.6862  0.0478 -0.0063
 8499SOL    HW237134   3.704   3.439   1.716  1.0587 -0.3031  1.3780
 8500SOL     OW37135   3.678   0.162   6.007 -0.0858  0.4069  0.3096
 8500SOL    HW137136   3.661   0.210   6.088  0.5030  3.0387 -1.1493
 8500SOL    HW237137   3.772   0.160   5.988 -0.0079 -2.3524  0.9229
 8501SOL     OW37138   0.487   2.946   9.843 -0.0181  0.0321 -0.6663
 8501SOL    HW137139   0.473   2.963   9.750  1.4337  3.0039 -0.3509
 8501SOL    HW237140   0.575   2.908   9.834 -0.9886 -2.6435  1.2553
 8502SOL     OW37141   0.655   2.419   4.410 -0.4988  0.1788  0.4097
 8502SOL    HW137142   0.644   2.343   4.352 -1.5739  1.7923 -1.4924
 8502SOL    HW237143   0.726   2.377   4.459 -0.5209  0.3570  0.5954
 8503SOL     OW37144   3.761   4.252  13.737  0.2857 -0.0572  0.2745
 8503SOL    HW137145   3.801   4.186  13.681 -0.7554 -0.4290 -0.0289
 8503SOL    HW237146   3.752   4.326  13.677 -2.7004 -0.3350  0.3563
 8504SOL     OW37147   1.779   4.517   6.743 -0.2449 -0.0710  0.1734
 8504SOL    HW137148   1.810   4.468   6.819 -2.3617 -0.0033  1.0711
 8504SOL    HW237149   1.771   4.452   6.672 -0.3357  1.4449 -1.2034
 8505SOL     OW37150   3.006   0.266   9.067 -0.5754 -0.0002  0.0319
 8505SOL    HW137151   2.978   0.357   9.078  1.2840  0.5538  0.1273
 8505SOL    HW237152   2.928   0.231   9.022  1.7803 -4.2348 -0.7709
 8506SOL     OW37153   1.637   0.178   2.056 -0.2189 -1.1252  0.1793
 8506SOL    HW137154   1.635   0.245   1.988  0.6877 -1.4417 -0.1556
 8506SOL    HW237155   1.572   0.216   2.115 -0.1681  1.6105 -1.4914
 8507SOL     OW37156   1.544   2.168   5.423 -0.3363  0.2727  0.4914
 8507SOL    HW137157   1.639   2.176   5.435 -0.3381  0.3971  0.4228
 8507SOL    HW237158   1.520   2.211   5.505 -0.0109  0.1582  0.6452
 8508SOL     OW37159   2.861   3.299   7.834 -0.4792 -0.2010 -0.6738
 8508SOL    HW137160   2.864   3.207   7.858 -1.6607  0.7620  3.1644
 8508SOL    HW237161   2.938   3.317   7.779 -0.4403 -2.0562 -1.2303
 8509SOL     OW37162   0.857   3.034   4.368  0.0660  0.6885  0.4841
 8509SOL    HW137163   0.781   3.004   4.418 -1.7683 -0.3894 -2.9869
 8509SOL    HW237164   0.834   3.011   4.278 -0.8438  0.6822  0.7140
 8510SOL     OW37165   1.815   4.405  14.859 -0.0056  0.0731  0.2006
 8510SOL    HW137166   1.856   4.486  14.829 -0.5723 -0.5238 -2.1445
 8510SOL    HW237167   1.877   4.333  14.850 -0.0303 -0.0526  1.0538
 8511SOL     OW37168   4.707   0.540   3.826  0.5482  0.4937  0.0116
 8511SOL    HW137169   0.035   0.481   3.795  2.0987  1.9568  0.6942
 8511SOL    HW237170   4.628   0.489   3.809  0.3376  1.3985 -1.6711
 8512SOL     OW37171   1.634   0.474  12.982  0.0759 -0.4648 -0.5139
 8512SOL    HW137172   1.702   0.484  12.915  0.0643  1.3272 -0.2432
 8512SOL    HW237173   1.588   0.392  12.962 -1.6892  0.3363  0.3193
 8513SOL     OW37174   1.329   3.303  12.201  0.3289  0.1577  0.1089
 8513SOL    HW137175   1.333   3.302  12.106 -2.8960  0.1116 -0.0147
 8513SOL    HW237176   1.347   3.212  12.225  0.2306  0.8178  2.7700
 8514SOL     OW37177   1.961   2.692  13.361  0.0009 -0.6039  0.2761
 8514SOL    HW137178   1.993   2.640  13.288 -0.6763 -0.0114 -0.4487
 8514SOL    HW237179   1.957   2.776  13.315 -0.8098 -1.3353 -0.9963
 8515SOL     OW37180   4.646   1.621   9.419  0.4859 -0.3646 -0.6080
 8515SOL    HW137181   4.652   1.633   9.324 -1.3173  1.3999 -0.4849
 8515SOL    HW237182   4.726   1.573   9.443  0.2099 -1.1530 -1.2607
 8516SOL     OW37183   1.143   4.159  15.087 -1.0140  0.0950  0.4255
 8516SOL    HW137184   1.185   4.073  15.087  2.6216  1.8624  2.4726
 8516SOL    HW237185   1.216   4.213  15.056 -1.3706  0.5508  0.3784
 8517SOL     OW37186   4.464   3.065   5.669  0.3912 -0.3272 -0.7043
 8517SOL    HW137187   4.519   3.084   5.592  0.3471  0.0042 -0.6523
 8517SOL    HW237188   4.504   2.980   5.690  1.4949  0.3897  0.0968
 8518SOL     OW37189   3.918   1.317   7.609 -0.3942  0.1577  0.8563
 8518SOL    HW137190   3.839   1.292   7.562  0.4052  0.0274 -0.4485
 8518SOL    HW237191   3.905   1.411   7.626  0.1766 -0.0073  2.2440
 8519SOL     OW37192   2.021   2.043  14.487 -0.0033  0.1755 -0.2755
 8519SOL    HW137193   2.080   1.972  14.462  2.2157  1.7501  0.4166
 8519SOL    HW237194   1.977   2.079  14.410 -2.3020  1.8945  1.8366
 8520SOL     OW37195   0.313   2.258   8.391  0.4185  0.1420  0.4678
 8520SOL    HW137196   0.312   2.245   8.297  0.8365 -1.0640  0.6362
 8520SOL    HW237197   0.357   2.178   8.421  0.9683  0.7295  1.2504
 8521SOL     OW37198   1.084   0.376   7.846 -0.1774  0.1751 -0.1708
 8521SOL    HW137199   1.151   0.312   7.872  0.5077  1.0736  0.2831
 8521SOL    HW237200   0.999   0.338   7.867 -0.1775  0.6789  0.7505
 8522SOL     OW37201   4.033   1.389  12.494 -0.1024  0.1508 -0.1245
 8522SOL    HW137202   4.115   1.431  12.469 -0.3548 -0.3765 -1.8619
 8522SOL    HW237203   3.968   1.427  12.434 -1.7045 -2.7251 -0.2390
 8523SOL     OW37204   2.144   0.701   2.452  0.2798  0.6819 -0.0554
 8523SOL    HW137205   2.182   0.675   2.368  0.3584  1.3611 -0.2246
 8523SOL    HW237206   2.220   0.699   2.510  0.4814 -0.5841 -0.3617
 8524SOL     OW37207   3.068   3.205   2.579 -0.4120  0.4333 -0.2024
 8524SOL    HW137208   3.042   3.271   2.515  0.1244  1.9047  1.0983
 8524SOL    HW237209   3.162   3.204   2.558 -0.2686  0.8884  0.4144
 8525SOL     OW37210   4.054   2.170   2.622  0.0755  0.2112  0.1521
 8525SOL    HW137211   4.091   2.191   2.536 -4.2452 -1.9561 -2.2262
 8525SOL    HW237212   4.122   2.207   2.679  0.2156 -0.9570  0.7373
 8526SOL     OW37213   3.547   0.669   4.392  0.0210  0.4444  0.4654
 8526SOL    HW137214   3.590   0.616   4.324 -1.5871 -0.4568  0.1500
 8526SOL    HW237215   3.460   0.628   4.389  0.6959 -1.0259  1.1248
 8527SOL     OW37216   0.147   4.525   0.272 -0.6334  0.1058 -0.4085
 8527SOL    HW137217   0.130   4.537   0.365  0.2381 -0.2788 -0.1990
 8527SOL    HW237218   0.242   4.538   0.266 -0.5938  0.4673  1.0889
 8528SOL     OW37219   1.566   3.286   8.589 -0.1697 -0.6299 -0.0637
 8528SOL    HW137220   1.634   3.287   8.521 -0.8671 -1.3713 -0.7658
 8528SOL    HW237221   1.566   3.194   8.617 -1.8889 -0.4286  0.5569
 8529SOL     OW37222   2.196   0.016   7.235 -0.3264  0.3715 -0.7881
 8529SOL    HW137223   2.288   4.738   7.213 -0.3593 -0.5719 -0.1154
 8529SOL    HW237224   2.166   4.675   7.276  1.1341  1.9356  3.4329
 8530SOL     OW37225   1.851   0.406   4.097 -0.6497 -0.0275  0.3903
 8530SOL    HW137226   1.769   0.369   4.128  0.1013 -1.7480  0.2837
 8530SOL    HW237227   1.878   0.350   4.025 -2.2625 -1.0225  0.5497
 8531SOL     OW37228   3.557   0.978   8.439 -0.3115  0.4411  0.0509
 8531SOL    HW137229   3.538   0.886   8.421  1.1563  0.1031  0.1955
 8531SOL    HW237230   3.640   0.968   8.487 -0.5316 -2.1201 -0.0689
 8532SOL     OW37231   0.221   3.124   0.910  0.1569  0.5592  0.0009
 8532SOL    HW137232   0.299   3.180   0.905  0.5244  0.1723  1.4409
 8532SOL    HW237233   0.154   3.183   0.875  1.3565  1.8486 -0.1091
 8533SOL     OW37234   0.781   3.951  11.021  0.4064  0.2709 -0.3996
 8533SOL    HW137235   0.820   4.016  10.963  2.7268  0.4751  1.3754
 8533SOL    HW237236   0.842   3.953  11.095  0.2320 -0.1428 -0.2471
 8534SOL     OW37237   0.405   2.842   8.808  0.0649 -0.7389 -0.2579
 8534SOL    HW137238   0.345   2.909   8.776  1.7166 -0.1161 -2.0737
 8534SOL    HW237239   0.375   2.844   8.898 -1.0935 -2.1354 -0.6057
 8535SOL     OW37240   3.351   1.644   2.553 -0.0116  0.3676 -0.1766
 8535SOL    HW137241   3.432   1.603   2.519  0.8169  2.3082 -0.5592
 8535SOL    HW237242   3.294   1.573   2.583 -0.4553  0.7956 -0.0269
 8536SOL     OW37243   4.656   1.421   6.470  0.0288 -0.2376  0.1514
 8536SOL    HW137244   4.619   1.333   6.467  0.9372 -0.7046  2.3715
 8536SOL    HW237245   4.708   1.415   6.390  2.0176  1.1361  1.3395
 8537SOL     OW37246   3.445   0.106   3.037  0.3017 -0.0285  0.1364
 8537SOL    HW137247   3.484   0.072   3.117 -0.0691  0.7738  0.6582
 8537SOL    HW237248   3.476   0.044   2.971 -0.3764  0.6126 -0.7798
 8538SOL     OW37249   3.647   1.927   0.724  0.0443 -0.0173  0.1277
 8538SOL    HW137250   3.560   1.927   0.763  0.5207  2.1825  1.2053
 8538SOL    HW237251   3.684   1.848   0.763 -3.4061 -1.2214  0.9547
 8539SOL     OW37252   1.091   4.704   5.893  0.1428 -0.4160  0.3652
 8539SOL    HW137253   1.014   0.007   5.859 -0.5250 -0.9183  1.2277
 8539SOL    HW237254   1.130   0.040   5.935 -0.0264 -0.8859  1.3928
 8540SOL     OW37255   3.365   1.226   6.234  0.0191  0.5827  0.4416
 8540SOL    HW137256   3.309   1.148   6.236  1.2311 -0.2959  0.2507
 8540SOL    HW237257   3.317   1.265   6.161  1.2434 -0.6793 -1.0394
 8541SOL     OW37258   1.622   1.023   1.954 -0.0910 -0.0863  0.6193
 8541SOL    HW137259   1.698   1.031   2.012  0.9848 -1.4730 -0.6076
 8541SOL    HW237260   1.570   1.096   1.987  1.0168  1.1872 -0.4988
 8542SOL     OW37261   0.703   0.091  11.674  0.5286 -0.3226 -0.3120
 8542SOL    HW137262   0.615   0.105  11.639 -0.7746 -0.9781  2.6342
 8542SOL    HW237263   0.736   0.180  11.683  0.6960 -0.6265  2.1551
 8543SOL     OW37264   0.959   2.846   8.406  0.3324  0.3683 -0.0811
 8543SOL    HW137265   1.000   2.894   8.478  1.3584  1.7395 -1.5818
 8543SOL    HW237266   0.886   2.796   8.443  0.7002  0.3989  0.6811
 8544SOL     OW37267   4.509   3.111   8.397 -0.0626  0.5756  0.4559
 8544SOL    HW137268   4.482   3.141   8.483  0.6605 -0.1421  0.9275
 8544SOL    HW237269   4.433   3.132   8.342 -0.5217 -0.9182  0.5262
 8545SOL     OW37270   0.484   3.445  10.002 -0.1894  0.4982  0.3677
 8545SOL    HW137271   0.567   3.414  10.039 -0.2976  0.9006  0.9442
 8545SOL    HW237272   0.460   3.362   9.961  0.1011  1.3484 -1.4796
 8546SOL     OW37273   2.068   3.259  10.635  0.2043 -0.1973 -0.5987
 8546SOL    HW137274   2.008   3.269  10.560  1.1073  0.2746 -1.2495
 8546SOL    HW237275   2.151   3.268  10.589  0.8114  0.4715  0.6617
 8547SOL     OW37276   2.218   4.411   5.584  0.3360 -0.1020 -0.2045
 8547SOL    HW137277   2.129   4.410   5.549  0.2308  0.4288  0.0515
 8547SOL    HW237278   2.246   4.491   5.540 -0.4663 -0.2138 -0.9293
 8548SOL     OW37279   1.676   4.711   4.990 -0.0895  0.0776 -0.6127
 8548SOL    HW137280   1.638   4.680   5.073 -0.9700  0.2570 -0.9476
 8548SOL    HW237281   1.603   0.020   4.953 -0.7278 -1.0072 -0.8295
 8549SOL     OW37282   1.824   4.595   0.266  0.0565 -0.1392 -0.1317
 8549SOL    HW137283   1.819   4.501   0.249  0.3710 -0.1023 -0.4248
 8549SOL    HW237284   1.730   4.608   0.265 -0.0477 -0.9021 -0.5362
 8550SOL     OW37285   3.997   3.324  11.056 -0.2004 -0.3598 -0.0839
 8550SOL    HW137286   4.088   3.331  11.027 -0.5805  0.5746 -1.0230
 8550SOL    HW237287   3.988   3.404  11.108  2.3979  0.4399 -0.8403
 8551SOL     OW37288   0.419   1.927   8.099 -0.0758 -0.0063  0.5996
 8551SOL    HW137289   0.478   2.001   8.114  0.5886 -1.0848  3.3238
 8551SOL    HW237290   0.379   1.924   8.186  0.8543  1.4090  1.0763
 8552SOL     OW37291   0.460   0.721   4.939 -0.0833  0.4880 -0.0006
 8552SOL    HW137292   0.469   0.789   5.006 -0.3963  0.0108  0.5279
 8552SOL    HW237293   0.498   0.756   4.858 -3.3460  0.8300 -1.3751
 8553SOL     OW37294   2.707   4.046   6.648  0.0481  0.1978 -0.1600
 8553SOL    HW137295   2.675   4.004   6.728 -2.9849  1.0608 -0.9042
 8553SOL    HW237296   2.695   3.969   6.593 -1.5723 -0.7600  1.5232
 8554SOL     OW37297   2.205   0.739   9.209  0.2084 -0.3084 -0.3367
 8554SOL    HW137298   2.161   0.745   9.294  1.3351 -2.6628  0.4088
 8554SOL    HW237299   2.229   0.647   9.214  1.4797  0.0004 -0.7513
 8555SOL     OW37300   4.446   2.917   8.009  0.1459  0.6239 -0.1701
 8555SOL    HW137301   4.399   2.833   8.010  0.6115  0.3590 -0.7955
 8555SOL    HW237302   4.503   2.908   8.086  1.2011 -0.9668 -1.1225
 8556SOL     OW37303   2.785   3.172   0.202  0.2003 -0.0349 -0.1481
 8556SOL    HW137304   2.810   3.255   0.242  0.4227 -1.4060  2.5878
 8556SOL    HW237305   2.695   3.194   0.179 -0.2116  0.0459  1.4874
 8557SOL     OW37306   1.793   2.337   5.644  0.3378 -0.2350 -0.6260
 8557SOL    HW137307   1.787   2.359   5.551 -3.3075 -0.7100 -0.5162
 8557SOL    HW237308   1.887   2.338   5.661 -0.2414  0.8827  2.3787
 8558SOL     OW37309   3.550   1.775   4.861 -0.1064  0.0942 -0.5565
 8558SOL    HW137310   3.577   1.688   4.832 -0.9049 -0.2523 -0.2675
 8558SOL    HW237311   3.456   1.763   4.846 -0.6129  0.8889  2.1564
 8559SOL     OW37312   4.427   2.520   2.490  0.1464  0.9041 -0.6372
 8559SOL    HW137313   4.411   2.426   2.484  0.0883  0.9010 -0.4330
 8559SOL    HW237314   4.399   2.544   2.401 -1.6381 -0.7549 -0.5226
 8560SOL     OW37315   3.536   4.327   8.065 -0.1421 -0.8586 -0.4318
 8560SOL    HW137316   3.468   4.374   8.113  0.0631 -0.5530 -0.4359
 8560SOL    HW237317   3.608   4.363   8.117  0.1041  0.9976 -2.0366
 8561SOL     OW37318   4.703   2.272   3.965  0.4070  0.0020 -0.1735
 8561SOL    HW137319   4.680   2.297   3.875  1.1239  2.2232  0.2464
 8561SOL    HW237320   4.690   2.357   4.008  0.8489  0.6334 -1.2924
 8562SOL     OW37321   2.947   4.237   7.646 -0.0259  0.0960  0.0946
 8562SOL    HW137322   3.031   4.276   7.622 -0.1312  0.0200 -0.4059
 8562SOL    HW237323   2.908   4.321   7.670 -2.0082 -0.6370 -0.5334
 8563SOL     OW37324   1.865   3.472   6.598 -0.0856  0.2610  0.3277
 8563SOL    HW137325   1.811   3.516   6.532  2.5514  1.9072 -0.7354
 8563SOL    HW237326   1.940   3.456   6.541 -0.2407 -1.6862  0.6604
 8564SOL     OW37327   2.803   1.917   6.487 -0.2862  0.4595 -0.7074
 8564SOL    HW137328   2.745   1.926   6.412  0.5107  0.3262 -1.3387
 8564SOL    HW237329   2.773   1.990   6.542  1.2395  2.5403 -2.6746
 8565SOL     OW37330   1.491   4.549   2.667  0.2110  0.2021  0.1831
 8565SOL    HW137331   1.538   4.614   2.720 -1.0693  0.6344  0.7734
 8565SOL    HW237332   1.402   4.567   2.695 -0.6605  1.5824 -3.4261
 8566SOL     OW37333   0.120   1.450   2.326  0.2312  0.3827 -0.0060
 8566SOL    HW137334   0.132   1.406   2.410 -0.6986 -0.8668 -0.5260
 8566SOL    HW237335   0.152   1.540   2.336  1.9060 -0.0284 -1.5173
 8567SOL     OW37336   2.516   1.884   2.557 -0.1291 -0.4006  0.2058
 8567SOL    HW137337   2.447   1.844   2.611  0.6069  1.2389  2.3607
 8567SOL    HW237338   2.600   1.857   2.594  0.2991  0.9526  0.1983
 8568SOL     OW37339   0.327   1.846   4.476  0.3042  0.2099  0.3133
 8568SOL    HW137340   0.324   1.799   4.560  1.5339 -0.3815  0.0294
 8568SOL    HW237341   0.399   1.800   4.432 -0.1394 -0.5112  0.3378
 8569SOL     OW37342   1.241   1.075   9.950 -0.1822  0.2600 -0.1238
 8569SOL    HW137343   1.276   0.995   9.911  1.6819  0.2186  1.5989
 8569SOL    HW237344   1.152   1.056   9.919 -1.4580  3.1189  1.8364
 8570SOL     OW37345   1.809   2.772   0.534 -0.0887 -0.3818 -0.0187
 8570SOL    HW137346   1.727   2.730   0.510  0.0400  1.3666 -3.4393
 8570SOL    HW237347   1.854   2.771   0.449  0.5920  1.0403  0.3255
 8571SOL     OW37348   0.593   0.134   3.664 -0.0298  0.4992 -0.6450
 8571SOL    HW137349   0.684   0.134   3.634  0.7949 -1.0117  1.8352
 8571SOL    HW237350   0.558   0.056   3.621  0.2430 -0.2089  0.3965
 8572SOL     OW37351   4.718   1.678   5.963  0.2010 -0.1959  0.2156
 8572SOL    HW137352   4.717   1.681   6.059  0.4041 -0.8109  0.2381
 8572SOL    HW237353   0.048   1.737   5.939 -0.4389 -0.3205 -1.9581
 8573SOL     OW37354   2.740   0.951   2.536  0.2397  0.2784 -0.6416
 8573SOL    HW137355   2.767   0.885   2.472  2.1019  0.9595 -0.5406
 8573SOL    HW237356   2.731   0.899   2.616 -0.9309  0.7300 -0.4812
 8574SOL     OW37357   2.059   3.737  14.838  0.2291 -0.0425  0.4105
 8574SOL    HW137358   2.139   3.787  14.821  0.0888 -0.4813 -1.4812
 8574SOL    HW237359   2.089   3.671  14.901 -0.4997  0.4111  1.2292
 8575SOL     OW37360   1.912   1.497  10.055 -0.2915  0.1818 -0.1575
 8575SOL    HW137361   1.847   1.567  10.060 -0.0786  0.4606 -1.4811
 8575SOL    HW237362   1.900   1.455  10.141  0.9880 -0.6641 -0.3873
 8576SOL     OW37363   2.586   2.776   7.940  0.2072 -0.0670 -0.2168
 8576SOL    HW137364   2.625   2.757   8.026 -1.0339  0.0937  0.3774
 8576SOL    HW237365   2.493   2.776   7.964  0.7589  1.0166  1.9707
 8577SOL     OW37366   4.128   0.101   9.258 -0.1992 -0.7517 -0.5502
 8577SOL    HW137367   4.122   0.113   9.163  0.5972 -1.9072 -0.7478
 8577SOL    HW237368   4.211   0.148   9.267 -0.1885 -1.1551  1.4236
 8578SOL     OW37369   0.940   3.771   6.185  0.1761  0.2850  0.1200
 8578SOL    HW137370   0.870   3.812   6.135 -0.3722 -0.6242  0.1350
 8578SOL    HW237371   0.943   3.822   6.266  1.3168  1.3093 -0.5712
 8579SOL     OW37372   2.051   0.895   8.067 -0.5904 -0.0801 -0.5566
 8579SOL    HW137373   2.035   0.963   8.132  0.4129 -0.4551  0.0769
 8579SOL    HW237374   2.142   0.871   8.086  0.1708 -0.3945 -4.5799
 8580SOL     OW37375   0.223   1.219   9.371  0.4520  0.0752 -0.1934
 8580SOL    HW137376   0.242   1.205   9.278 -0.8743  0.0042 -0.4490
 8580SOL    HW237377   0.295   1.165   9.406 -1.8254 -1.8698  1.4975
 8581SOL     OW37378   4.472   4.491   4.398  0.3952  0.0357  0.2362
 8581SOL    HW137379   4.499   4.551   4.328 -0.4007  1.0719  0.8292
 8581SOL    HW237380   4.387   4.529   4.417 -0.3354 -0.9702 -0.9832
 8582SOL     OW37381   1.260   1.497   2.931  0.7652  0.0285  0.1903
 8582SOL    HW137382   1.260   1.573   2.873 -0.9196  0.1690  0.3763
 8582SOL    HW237383   1.294   1.535   3.012  0.7385 -2.1889  1.2412
 8583SOL     OW37384   2.816   0.579   8.706  0.2615 -0.3385 -0.4451
 8583SOL    HW137385   2.740   0.627   8.739 -1.0008 -0.8621 -2.6589
 8583SOL    HW237386   2.840   0.621   8.624  0.8233 -0.7812 -0.5052
 8584SOL     OW37387   3.956   3.516  14.657  0.1031  0.0344 -0.2980
 8584SOL    HW137388   3.978   3.581  14.724 -1.4353  0.6000 -0.3371
 8584SOL    HW237389   4.026   3.525  14.593  1.6334 -3.1622  0.9128
 8585SOL     OW37390   0.544   3.186   3.506 -0.0694  0.0649  0.0760
 8585SOL    HW137391   0.558   3.092   3.508 -2.0817 -0.2594 -1.6101
 8585SOL    HW237392   0.506   3.196   3.419  0.9465 -0.8596 -0.4683
 8586SOL     OW37393   1.067   1.835   7.004 -0.1464 -0.0159  0.1855
 8586SOL    HW137394   1.154   1.863   6.976 -0.4116  2.3135  1.7634
 8586SOL    HW237395   1.026   1.839   6.917  0.8578 -2.8906 -0.4159
 8587SOL     OW37396   4.231   1.106   5.557 -0.8089 -0.0052  0.1047
 8587SOL    HW137397   4.272   1.056   5.627  0.0245  0.3237 -0.1464
 8587SOL    HW237398   4.140   1.109   5.587 -1.6548  1.0188 -2.5446
 8588SOL     OW37399   4.372   3.853   3.386  0.4140  0.4692 -0.2008
 8588SOL    HW137400   4.403   3.893   3.467  0.2093  0.7883 -0.2799
 8588SOL    HW237401   4.430   3.777   3.380 -0.6996 -0.4814  0.7411
 8589SOL     OW37402   3.518   4.326   4.029 -0.0876  0.3076  0.0301
 8589SOL    HW137403   3.462   4.270   3.975 -1.1719 -0.3264  1.7964
 8589SOL    HW237404   3.582   4.367   3.971 -1.5488  0.9840 -1.1108
 8590SOL     OW37405   2.763   3.514   7.350 -0.0407 -0.0552 -0.5234
 8590SOL    HW137406   2.694   3.574   7.380 -1.3360 -1.1834 -1.2647
 8590SOL    HW237407   2.761   3.436   7.405  0.3232  1.4900  1.6625
 8591SOL     OW37408   4.637   4.495  12.805  0.5774  0.8565  0.4529
 8591SOL    HW137409   4.672   4.495  12.894  1.9693  1.4168 -0.0913
 8591SOL    HW237410   4.571   4.426  12.809  0.5598  0.9076  0.9872
 8592SOL     OW37411   1.405   2.070   7.103 -0.0973  0.2635  0.0524
 8592SOL    HW137412   1.362   2.029   7.178  0.5391  0.0138  0.2798
 8592SOL    HW237413   1.381   2.163   7.107 -0.2951  0.2500 -0.7312
 8593SOL     OW37414   4.517   2.968  14.817  0.0238  0.2507  0.4366
 8593SOL    HW137415   4.605   2.999  14.794  0.8348  0.9581  4.3651
 8593SOL    HW237416   4.490   3.038  14.877  1.1568 -0.0071  1.2565
 8594SOL     OW37417   2.733   1.238  11.138  0.2678  0.3250  0.8005
 8594SOL    HW137418   2.719   1.232  11.232  0.0560 -0.5827  0.7032
 8594SOL    HW237419   2.653   1.287  11.117  1.6336  2.2914  0.1585
 8595SOL     OW37420   3.444   1.216   8.388  0.1268 -0.3094  0.7855
 8595SOL    HW137421   3.465   1.126   8.366  1.0526  0.4186 -1.3472
 8595SOL    HW237422   3.514   1.270   8.352  1.9943 -1.9380  2.0245
 8596SOL     OW37423   4.056   0.037  10.664 -0.2650  0.4441  0.1586
 8596SOL    HW137424   4.109   0.117  10.661 -0.0292  0.3442  2.1419
 8596SOL    HW237425   4.087   4.741  10.582 -1.5973 -0.7502  0.1917
 8597SOL     OW37426   2.825   4.092  16.054 -0.0632 -0.1068 -0.2835
 8597SOL    HW137427   2.901   4.102  16.111 -0.6815 -2.0265  0.8680
 8597SOL    HW237428   2.789   4.181  16.056 -0.4809 -0.2587 -1.0610
 8598SOL     OW37429   2.673   3.821  10.600  0.0005  0.4009  0.3880
 8598SOL    HW137430   2.625   3.862  10.672  0.7782  0.3369  0.9423
 8598SOL    HW237431   2.610   3.838  10.530 -0.5613 -1.3007  0.4872
 8599SOL     OW37432   1.227   0.324   4.464 -0.1776 -0.0954 -0.4423
 8599SOL    HW137433   1.272   0.243   4.488 -2.2227 -0.9623  0.4725
 8599SOL    HW237434   1.199   0.307   4.374 -0.2171  0.9657 -0.6311
 8600SOL     OW37435   2.176   4.620   4.334 -0.2990  0.0067  0.2241
 8600SOL    HW137436   2.194   4.709   4.366  1.9800 -0.7426  1.0281
 8600SOL    HW237437   2.106   4.635   4.270  0.0307 -0.0439 -0.1452
 8601SOL     OW37438   3.832   2.793  17.410 -0.2848  0.6357 -0.2308
 8601SOL    HW137439   3.802   2.799  17.319 -1.5716 -0.4457  0.1265
 8601SOL    HW237440   3.756   2.748  17.447 -1.8301  3.5658  0.0943
 8602SOL     OW37441   1.071   3.037   3.185 -0.0112  0.4706  0.1883
 8602SOL    HW137442   1.050   3.060   3.276 -0.9867 -1.1215  0.3647
 8602SOL    HW237443   1.136   3.103   3.161  0.5974  0.6108  2.2024
 8603SOL     OW37444   0.445   1.880   6.552  0.2801 -1.1116 -0.3541
 8603SOL    HW137445   0.460   1.796   6.596  0.9127 -1.3815 -1.0883
 8603SOL    HW237446   0.428   1.860   6.460 -2.1729  1.0294 -0.3821
 8604SOL     OW37447   0.927   3.532   6.651 -0.2276  0.6962  0.6802
 8604SOL    HW137448   0.853   3.581   6.614 -0.0078  0.2741 -0.3052
 8604SOL    HW237449   0.945   3.591   6.724  0.5744 -2.1228  2.7221
 8605SOL     OW37450   1.094   4.571   6.839 -0.1310 -0.0303  0.0613
 8605SOL    HW137451   1.032   4.618   6.896  0.9471  2.1864 -0.5734
 8605SOL    HW237452   1.068   4.480   6.850 -3.1952  0.7593 -0.6010
 8606SOL     OW37453   1.691   2.433  11.595  0.3450 -0.2955 -0.0412
 8606SOL    HW137454   1.770   2.488  11.589  0.1279  0.2943  2.7189
 8606SOL    HW237455   1.629   2.501  11.569  0.2205 -0.9224 -1.3577
 8607SOL     OW37456   1.536   1.506   2.584  0.2651 -0.3218 -0.7510
 8607SOL    HW137457   1.554   1.416   2.556  3.7146  0.1274  0.0842
 8607SOL    HW237458   1.440   1.515   2.589  0.3639  0.4186 -0.2009
 8608SOL     OW37459   2.870   2.077   9.810  0.1885  0.1390 -0.1050
 8608SOL    HW137460   2.837   2.098   9.897 -2.8175  1.8080 -1.6569
 8608SOL    HW237461   2.963   2.064   9.830 -0.2332  1.1501  2.4406
 8609SOL     OW37462   3.708   1.490   4.982 -1.1617  0.5346  0.1861
 8609SOL    HW137463   3.701   1.395   4.997 -1.5070  0.5936  0.4073
 8609SOL    HW237464   3.643   1.514   5.049 -1.9969  1.2285 -0.8798
 8610SOL     OW37465   0.532   1.357   3.308  0.1807  0.2211  0.2316
 8610SOL    HW137466   0.518   1.266   3.284 -0.8735 -0.2049  2.5044
 8610SOL    HW237467   0.510   1.354   3.401 -0.6968  0.9245  0.0491
 8611SOL     OW37468   3.911   2.621  15.967  0.4650 -0.3033 -0.2293
 8611SOL    HW137469   3.969   2.641  15.893 -0.2825  0.3842 -0.6387
 8611SOL    HW237470   3.979   2.627  16.034 -0.3386  1.1693  0.4686
 8612SOL     OW37471   2.371   4.201   9.855  0.1358  0.3880 -0.1813
 8612SOL    HW137472   2.347   4.131   9.915 -0.1863  0.2784 -0.4435
 8612SOL    HW237473   2.342   4.188   9.765 -1.4472 -1.5022  0.6144
 8613SOL     OW37474   0.965   2.300   9.458 -0.0192 -0.5484 -0.0793
 8613SOL    HW137475   0.914   2.237   9.509 -1.3104  1.4667  1.1614
 8613SOL    HW237476   1.048   2.305   9.505  1.1625  0.2081 -2.2449
 8614SOL     OW37477   0.368   2.089   2.818  0.3447  0.1019  0.0448
 8614SOL    HW137478   0.331   2.015   2.771  0.4448  1.4446 -2.1314
 8614SOL    HW237479   0.427   2.127   2.753  1.4357  0.1974  1.0951
 8615SOL     OW37480   2.428   2.577   4.717 -0.2568 -0.1164 -0.2206
 8615SOL    HW137481   2.513   2.538   4.736 -0.8574 -1.8842 -1.1336
 8615SOL    HW237482   2.417   2.647   4.782  3.2131  0.7198 -0.5078
 8616SOL     OW37483   0.505   0.004   6.610 -0.3616 -0.9253 -0.5262
 8616SOL    HW137484   0.442   0.045   6.550  0.7604  0.3136 -0.8467
 8616SOL    HW237485   0.533   0.068   6.675  1.8473 -2.3653 -0.0515
 8617SOL     OW37486   1.333   3.052  17.484  0.3150 -0.3509 -0.8485
 8617SOL    HW137487   1.260   3.074  17.543  3.0097 -0.4928  2.5230
 8617SOL    HW237488   1.353   2.965  17.517  2.1632  0.5037  0.2376
 8618SOL     OW37489   1.010   1.736   2.920 -0.1380  0.2418  0.6297
 8618SOL    HW137490   1.042   1.718   2.831 -2.2582 -0.1954 -0.0409
 8618SOL    HW237491   0.923   1.775   2.908 -0.5066 -1.1200 -1.2513
 8619SOL     OW37492   2.944   3.332   8.447 -0.3028 -0.2713 -0.2115
 8619SOL    HW137493   2.981   3.268   8.507 -0.8813 -1.1880 -0.8199
 8619SOL    HW237494   3.024   3.379   8.424 -1.7534  1.6810 -1.2770
 8620SOL     OW37495   1.720   1.124  16.768 -0.3079  0.2465 -0.6374
 8620SOL    HW137496   1.729   1.182  16.843 -1.7818  1.1525 -1.1455
 8620SOL    HW237497   1.685   1.045  16.808 -1.7636  1.2129  0.0081
 8621SOL     OW37498   0.517   3.012   3.152  0.1764 -0.0814 -0.6670
 8621SOL    HW137499   0.592   2.978   3.200  0.9903 -0.4049 -2.1785
 8621SOL    HW237500   0.526   3.106   3.167 -0.0025 -0.0074 -1.0191
 8622SOL     OW37501   3.284   2.944   9.255  0.1079 -0.0654  0.3926
 8622SOL    HW137502   3.281   2.865   9.199 -0.5491 -0.2759  0.7225
 8622SOL    HW237503   3.301   3.008   9.186  0.7063 -0.9914 -0.3286
 8623SOL     OW37504   0.602   0.755  10.163 -0.3552  0.1008  0.6477
 8623SOL    HW137505   0.525   0.793  10.120 -0.6681 -1.4856 -0.1835
 8623SOL    HW237506   0.564   0.681  10.211  3.6924 -1.2655  1.7163
 8624SOL     OW37507   3.452   1.947   6.445  0.6182 -0.5801  0.2657
 8624SOL    HW137508   3.359   1.959   6.426  0.8270 -1.2694 -1.1801
 8624SOL    HW237509   3.464   2.014   6.513 -1.9142 -0.3058  0.4618
 8625SOL     OW37510   1.170   4.079  14.428 -0.0506  0.4665  0.4069
 8625SOL    HW137511   1.157   4.059  14.335 -1.8295  2.2544  0.2463
 8625SOL    HW237512   1.241   4.019  14.449 -0.3652 -0.5850 -1.4928
 8626SOL     OW37513   2.749   0.060   9.730 -0.7531 -0.2456 -0.5967
 8626SOL    HW137514   2.743   0.145   9.686 -0.9828  0.5156  0.8917
 8626SOL    HW237515   2.768   0.084   9.821 -0.5553  2.5949 -1.3825
 8627SOL     OW37516   2.283   0.841   4.458  0.4220  0.3988 -0.1788
 8627SOL    HW137517   2.273   0.833   4.553  1.4596 -1.7336 -0.2426
 8627SOL    HW237518   2.328   0.762   4.428 -2.5938 -1.2534 -0.3888
 8628SOL     OW37519   2.700   1.428   5.743  0.0096  0.0074 -0.1915
 8628SOL    HW137520   2.640   1.444   5.816 -0.1875  1.5532 -0.6808
 8628SOL    HW237521   2.638   1.455   5.674  0.0825  0.6578 -0.0058
 8629SOL     OW37522   3.832   2.792  11.727  0.0079 -0.2575  0.3014
 8629SOL    HW137523   3.805   2.806  11.636 -1.7872 -0.1103  0.8653
 8629SOL    HW237524   3.870   2.876  11.749 -2.3013  1.0028 -0.5412
 8630SOL     OW37525   2.084   3.737   2.055 -0.0167  0.5045 -0.3348
 8630SOL    HW137526   2.144   3.670   2.089  0.6381  0.3623 -1.7758
 8630SOL    HW237527   2.076   3.695   1.970 -0.4788  1.1295 -0.5978
 8631SOL     OW37528   3.845   1.498   3.316 -0.1769 -0.4198 -0.4040
 8631SOL    HW137529   3.831   1.592   3.303 -2.1218 -0.8120 -1.1402
 8631SOL    HW237530   3.908   1.483   3.246 -0.7035 -1.7291 -0.6031
 8632SOL     OW37531   2.523   3.525   9.647 -0.0566 -0.3994  0.0564
 8632SOL    HW137532   2.455   3.462   9.671  1.1809 -1.1988  1.4456
 8632SOL    HW237533   2.481   3.609   9.669 -1.2114 -1.0046  0.1837
 8633SOL     OW37534   3.814   2.159   3.032 -0.3898 -0.5323 -0.8838
 8633SOL    HW137535   3.731   2.192   3.068  1.0984  0.8260  1.3264
 8633SOL    HW237536   3.803   2.181   2.940 -0.0392  1.8426 -0.3614
 8634SOL     OW37537   1.052   3.221   2.869 -0.2319  0.4112  0.4965
 8634SOL    HW137538   1.114   3.193   2.937 -0.0520 -0.5818 -0.0783
 8634SOL    HW237539   1.116   3.241   2.801  0.1545 -1.1713  0.3901
 8635SOL     OW37540   1.639   3.062  10.243  0.3801 -0.3178  0.8882
 8635SOL    HW137541   1.612   2.978  10.205  0.8325  0.2857 -0.7235
 8635SOL    HW237542   1.591   3.128  10.194 -0.6483 -0.1721  2.1011
 8636SOL     OW37543   1.291   3.668  10.258 -0.1112  0.0165  0.2940
 8636SOL    HW137544   1.333   3.715  10.330 -1.3382  2.1742 -0.4045
 8636SOL    HW237545   1.284   3.580  10.296 -0.6433 -0.2984 -0.5488
 8637SOL     OW37546   1.003   1.006   6.463 -0.3317  0.1802  0.1115
 8637SOL    HW137547   1.027   1.096   6.483  0.9906 -0.2042  0.2825
 8637SOL    HW237548   0.909   1.001   6.480 -0.0984  0.7088  1.4663
 8638SOL     OW37549   3.563   1.931   8.638  0.2285  0.7449  0.1784
 8638SOL    HW137550   3.558   1.836   8.632  0.4538  0.6714  1.0049
 8638SOL    HW237551   3.512   1.968   8.567 -0.0834 -0.3314 -0.1526
 8639SOL     OW37552   1.935   1.244   5.772  0.1136 -0.2658 -0.8261
 8639SOL    HW137553   1.969   1.257   5.684  2.0847 -1.0547 -0.1777
 8639SOL    HW237554   2.006   1.268   5.831  0.0301  0.0443 -0.8537
 8640SOL     OW37555   0.121   3.488   6.293  0.0471 -0.5937  0.3350
 8640SOL    HW137556   0.060   3.558   6.316 -1.8405 -1.4902 -1.9574
 8640SOL    HW237557   0.066   3.447   6.227  0.0327  0.5738 -0.3861
 8641SOL     OW37558   3.239   1.336   8.053 -0.1437  0.6230  0.4818
 8641SOL    HW137559   3.226   1.419   8.006  1.4142  2.0905  2.6093
 8641SOL    HW237560   3.194   1.361   8.133 -1.6969  1.2811 -0.5881
 8642SOL     OW37561   1.982   3.626   5.035  0.1744 -0.6764 -0.1339
 8642SOL    HW137562   2.013   3.538   5.055 -0.4331 -0.8896 -0.1450
 8642SOL    HW237563   2.060   3.673   5.003  1.2846 -2.3912  0.0929
 8643SOL     OW37564   2.720   3.764   3.013  0.0535  0.5150  0.5837
 8643SOL    HW137565   2.723   3.796   3.103  0.4820  2.0823  0.0242
 8643SOL    HW237566   2.695   3.672   3.024  2.7159 -0.2738  0.0135
 8644SOL     OW37567   2.001   1.313   5.157 -0.0650  0.8330  0.0457
 8644SOL    HW137568   2.038   1.239   5.206 -1.5584  0.9710  1.3608
 8644SOL    HW237569   2.049   1.308   5.074  0.3210  1.0858  0.2557
 8645SOL     OW37570   3.764   2.245   8.498  0.5130 -0.5948 -0.2218
 8645SOL    HW137571   3.817   2.183   8.548  0.4600  1.7575  2.7392
 8645SOL    HW237572   3.679   2.241   8.543 -0.0730 -1.1946 -1.3660
 8646SOL     OW37573   2.588   1.927   3.734  0.0088  0.1461 -0.5015
 8646SOL    HW137574   2.551   1.949   3.820  0.1158  1.4316 -0.7811
 8646SOL    HW237575   2.569   2.012   3.693 -0.4287  0.6180  0.6822
 8647SOL     OW37576   3.955   0.235   2.565 -0.5527 -0.1053  0.0442
 8647SOL    HW137577   3.966   0.329   2.551 -1.3296 -0.0776 -0.3832
 8647SOL    HW237578   4.039   0.214   2.606 -0.1424  0.3785 -0.5460
 8648SOL     OW37579   4.419   2.910   6.547 -0.0867 -0.1417  0.3394
 8648SOL    HW137580   4.374   2.873   6.623 -0.4927  1.6249  0.9527
 8648SOL    HW237581   4.341   2.944   6.503  1.5098  0.1711 -2.2131
 8649SOL     OW37582   3.013   4.124   7.904 -0.1475  0.4677 -0.4340
 8649SOL    HW137583   2.987   4.150   7.816 -0.0773 -0.5947 -0.7716
 8649SOL    HW237584   3.002   4.029   7.899 -2.3329  0.6287  1.2710
 8650SOL     OW37585   1.605   4.004   7.441  0.6001 -0.5556 -0.6110
 8650SOL    HW137586   1.617   4.046   7.356  0.6306  2.1145  0.7341
 8650SOL    HW237587   1.568   4.075   7.492  1.1564  0.6202 -1.8572
 8651SOL     OW37588   4.730   4.432   8.381  0.2932 -0.1418  0.0098
 8651SOL    HW137589   0.072   4.433   8.428  0.9939 -1.1760 -1.1717
 8651SOL    HW237590   4.691   4.349   8.409 -0.2317  0.1370  0.1059
 8652SOL     OW37591   0.085   0.682   9.157 -0.0346 -0.6610 -0.2562
 8652SOL    HW137592   0.166   0.651   9.116 -0.2548  0.3140 -1.4409
 8652SOL    HW237593   0.064   0.619   9.226  1.2283 -0.4674  0.3017
 8653SOL     OW37594   2.494   3.229  16.942 -0.0354 -0.2578  0.0036
 8653SOL    HW137595   2.424   3.186  16.892 -0.9563  0.6246  0.5453
 8653SOL    HW237596   2.544   3.279  16.878  1.5160 -1.2223  0.4482
 8654SOL     OW37597   2.218   2.713  17.107  0.1652  0.1805 -0.6116
 8654SOL    HW137598   2.147   2.685  17.048  0.1987 -1.2874  0.0443
 8654SOL    HW237599   2.280   2.644  17.085  0.2868  0.9352 -2.6449
 8655SOL     OW37600   4.436   3.166  14.994  0.2227 -0.3673  0.0854
 8655SOL    HW137601   4.522   3.195  15.025  1.9497 -3.1260 -2.1387
 8655SOL    HW237602   4.376   3.241  14.993  0.3961 -0.2399 -3.0138
 8656SOL     OW37603   4.066   3.002  15.540  0.2573  0.0129  0.2917
 8656SOL    HW137604   4.042   2.916  15.505  1.5137 -0.7640  1.3204
 8656SOL    HW237605   4.159   2.991  15.562  0.3553  1.3345  0.5435
 8657SOL     OW37606   0.001   2.651   9.386 -0.1175 -0.2669 -0.0925
 8657SOL    HW137607   0.081   2.703   9.386 -0.0013 -0.4429 -0.4396
 8657SOL    HW237608   0.018   2.589   9.457  1.0580 -1.3729 -1.3603
 8658SOL     OW37609   3.008   1.160  15.656 -0.0098 -0.7193  0.5894
 8658SOL    HW137610   3.078   1.173  15.593 -2.1313 -0.2233 -1.6810
 8658SOL    HW237611   3.004   1.248  15.694  0.1344 -0.8053  0.8022
 8659SOL     OW37612   0.482   3.221   9.836  0.0244  0.5837  0.7078
 8659SOL    HW137613   0.391   3.226   9.805  0.2817 -0.9625 -0.3264
 8659SOL    HW237614   0.491   3.126   9.844 -0.2410  0.4638 -0.4077
 8660SOL     OW37615   3.645   1.180   5.613  0.7877 -0.6690 -0.3484
 8660SOL    HW137616   3.667   1.271   5.630 -1.6048  0.0537 -1.2452
 8660SOL    HW237617   3.691   1.151   5.692 -1.3451  2.4536  2.0406
 8661SOL     OW37618   0.887   4.241  11.288 -0.0897  0.1896 -0.3075
 8661SOL    HW137619   0.933   4.217  11.207 -1.1527 -2.0030 -0.2678
 8661SOL    HW237620   0.929   4.326  11.304  0.3123  0.1359 -1.0411
 8662SOL     OW37621   2.367   3.588  14.497  0.3473  0.4506  0.1829
 8662SOL    HW137622   2.307   3.558  14.430  0.5581 -0.0504  0.2153
 8662SOL    HW237623   2.325   3.671  14.519 -1.5769 -0.6863  0.8079
 8663SOL     OW37624   1.905   0.092   4.455  0.4480 -0.3487  0.1870
 8663SOL    HW137625   1.899   0.156   4.384  0.9047 -1.4509 -0.8556
 8663SOL    HW237626   1.817   0.054   4.449  0.1575  0.3207  0.1479
 8664SOL     OW37627   0.194   3.311  17.331  0.1453 -0.1468  0.3356
 8664SOL    HW137628   0.172   3.330  17.423 -0.4576 -0.7578  0.3189
 8664SOL    HW237629   0.240   3.392  17.311  0.6758 -0.4374  0.3857
 8665SOL     OW37630   0.421   2.367   5.750 -0.1726  0.2752 -0.1367
 8665SOL    HW137631   0.407   2.288   5.801  0.7795  1.1965  1.5624
 8665SOL    HW237632   0.511   2.365   5.717  0.7558 -0.9000  2.4683
 8666SOL     OW37633   1.338   3.004   8.709 -0.5620 -0.4380  0.4277
 8666SOL    HW137634   1.330   3.064   8.635 -1.7699 -0.6376  0.3942
 8666SOL    HW237635   1.296   2.931   8.666 -0.0304 -1.7033  2.0463
 8667SOL     OW37636   2.216   1.258   4.222  0.2808  0.6161 -0.3772
 8667SOL    HW137637   2.198   1.312   4.145  0.7225 -0.0736 -0.9649
 8667SOL    HW237638   2.249   1.184   4.170  0.1570 -1.2026  2.0980
 8668SOL     OW37639   2.061   1.442   7.979 -0.0578  0.1399 -0.1200
 8668SOL    HW137640   1.966   1.431   7.985 -0.1165  0.2076 -0.9100
 8668SOL    HW237641   2.070   1.432   7.884  0.1911  2.5504 -0.3363
 8669SOL     OW37642   0.541   3.126   7.899 -0.0615 -0.7764  0.2256
 8669SOL    HW137643   0.633   3.133   7.924  0.2564  1.4454 -1.6044
 8669SOL    HW237644   0.540   3.035   7.869  3.4691 -0.7852  0.1871
 8670SOL     OW37645   1.444   2.123   7.970  0.6825  0.1062 -0.5301
 8670SOL    HW137646   1.392   2.202   7.953 -0.3948 -0.2565  1.0825
 8670SOL    HW237647   1.388   2.080   8.035  0.9783  1.0063  0.3167
 8671SOL     OW37648   4.166   1.012   6.063  0.1193  0.0414 -0.0573
 8671SOL    HW137649   4.099   0.947   6.041  1.4684 -0.6153 -2.2514
 8671SOL    HW237650   4.136   1.087   6.012  2.1066 -1.2859 -3.2034
 8672SOL     OW37651   1.700   0.651   4.666  0.4962 -0.2339  0.2889
 8672SOL    HW137652   1.650   0.585   4.618 -2.4581  1.3523  1.1362
 8672SOL    HW237653   1.749   0.693   4.595 -0.7061 -1.9093 -1.5359
 8673SOL     OW37654   4.206   1.225   4.298  0.2340  0.3202 -0.3366
 8673SOL    HW137655   4.234   1.230   4.390  1.3397  0.3026 -0.6628
 8673SOL    HW237656   4.290   1.218   4.252  1.6493  2.7241  1.8766
 8674SOL     OW37657   4.694   0.796   6.438 -0.0315 -0.4407  0.8057
 8674SOL    HW137658   4.625   0.795   6.504  0.3691 -1.9346  1.1944
 8674SOL    HW237659   4.641   0.810   6.360  1.2834 -2.4000 -0.4382
 8675SOL     OW37660   3.569   3.253   9.392 -0.0074  0.4997 -0.0106
 8675SOL    HW137661   3.598   3.336   9.429 -1.1148  0.2427  1.4663
 8675SOL    HW237662   3.481   3.249   9.431 -0.9613 -1.9933 -2.3954
 8676SOL     OW37663   2.251   0.754   4.716  0.3538  0.4689 -0.5755
 8676SOL    HW137664   2.170   0.796   4.747 -0.1305 -1.1419  0.3245
 8676SOL    HW237665   2.217   0.673   4.677  1.8310 -0.8790  0.9618
 8677SOL     OW37666   3.145   3.101   9.709 -0.4921  0.5949 -0.0334
 8677SOL    HW137667   3.145   3.070   9.619 -2.0289 -1.2113  0.5863
 8677SOL    HW237668   3.055   3.122   9.735 -0.4488  1.8800 -0.9667
 8678SOL     OW37669   1.966   2.373   7.993 -0.9428  0.3352 -0.5015
 8678SOL    HW137670   1.874   2.358   8.016 -1.3827  4.1251  0.1652
 8678SOL    HW237671   2.019   2.310   8.043 -2.3338 -3.2551 -3.5727
 8679SOL     OW37672   3.278   4.466   0.694  0.1168  0.3410  0.1671
 8679SOL    HW137673   3.295   4.461   0.788  1.2924  0.2697 -0.0526
 8679SOL    HW237674   3.363   4.505   0.673  0.7510 -0.8363  0.5493
 8680SOL     OW37675   2.291   3.888  16.470 -0.1016  0.7800  0.1233
 8680SOL    HW137676   2.293   3.816  16.532 -1.9527  0.8423  0.2646
 8680SOL    HW237677   2.229   3.858  16.403  1.7743 -0.6822 -0.9615
 8681SOL     OW37678   2.511   1.614   6.350 -0.1856  0.4258  0.5574
 8681SOL    HW137679   2.526   1.547   6.417 -1.0016 -0.7413 -0.4195
 8681SOL    HW237680   2.561   1.689   6.383  0.5144  0.5820 -0.8858
 8682SOL     OW37681   3.824   0.960  16.466  0.3887  0.6952  0.2599
 8682SOL    HW137682   3.887   0.965  16.394 -0.0453 -2.4147 -0.3195
 8682SOL    HW237683   3.784   1.047  16.458  2.0246  1.4136 -0.0775
 8683SOL     OW37684   0.668   0.302  17.225  0.3936  0.6465 -0.4397
 8683SOL    HW137685   0.583   0.330  17.257 -0.5074 -0.9122 -1.4466
 8683SOL    HW237686   0.720   0.359  17.281  0.9208 -0.1347 -0.1258
 8684SOL     OW37687   4.194   4.160   6.029 -0.4111 -0.2270 -0.9400
 8684SOL    HW137688   4.217   4.073   5.997  1.6936 -0.0197  0.0118
 8684SOL    HW237689   4.250   4.209   5.968 -0.4539 -0.1325 -0.9046
 8685SOL     OW37690   3.969   0.843   6.018  0.0685 -0.2124 -0.4937
 8685SOL    HW137691   3.889   0.895   6.017 -0.0572 -0.4258 -2.6324
 8685SOL    HW237692   3.941   0.761   5.977  1.4358  0.0377 -1.9664
 8686SOL     OW37693   1.686   3.793   1.007  0.5831 -0.2251  0.3068
 8686SOL    HW137694   1.702   3.887   1.017 -0.1016 -0.0803  0.0368
 8686SOL    HW237695   1.724   3.762   1.089 -1.1356 -1.8905  0.4823
 8687SOL     OW37696   3.733   3.044   7.658 -0.4229  0.7407 -0.0942
 8687SOL    HW137697   3.777   3.079   7.736  1.2341 -1.4678 -0.0350
 8687SOL    HW237698   3.641   3.051   7.682 -0.4687 -1.7184  0.4920
 8688SOL     OW37699   3.671   1.621  11.617  0.5458  0.3879 -0.2222
 8688SOL    HW137700   3.608   1.593  11.550 -0.1247  0.5135  0.3546
 8688SOL    HW237701   3.747   1.567  11.595 -1.0807 -0.9714 -2.5938
 8689SOL     OW37702   0.492   1.613   8.627 -0.0505  0.6616  0.6296
 8689SOL    HW137703   0.439   1.559   8.685 -0.0537 -0.8503 -0.7705
 8689SOL    HW237704   0.448   1.698   8.639 -3.9341 -1.4892  1.6387
 8690SOL     OW37705   3.234   0.853   3.462 -0.3331  0.6031 -0.5215
 8690SOL    HW137706   3.267   0.764   3.455 -2.7085 -0.3969  1.2753
 8690SOL    HW237707   3.140   0.839   3.460 -0.3100  0.7617 -2.5847
 8691SOL     OW37708   0.583   1.658   9.199 -0.2872 -0.2512  0.2056
 8691SOL    HW137709   0.496   1.638   9.234 -0.3698 -0.5803 -0.1896
 8691SOL    HW237710   0.637   1.636   9.275 -2.8614  1.3202  2.4700
 8692SOL     OW37711   1.212   2.362  11.940  0.2799  0.1874  0.1149
 8692SOL    HW137712   1.235   2.288  11.997 -1.8902  0.1323  0.9259
 8692SOL    HW237713   1.194   2.430  12.004 -2.0201  0.3847 -0.7409
 8693SOL     OW37714   4.603   3.034   3.899  0.6768  0.2159  0.3855
 8693SOL    HW137715   4.519   3.012   3.858  0.6445 -0.1461  0.6416
 8693SOL    HW237716   4.583   3.126   3.917 -1.5247 -0.2096  0.0441
 8694SOL     OW37717   1.566   1.722  17.292 -0.4588 -0.1797  0.8237
 8694SOL    HW137718   1.568   1.647  17.231 -2.9522  1.0925 -0.8109
 8694SOL    HW237719   1.603   1.779  17.225 -2.1917 -1.0642 -0.8938
 8695SOL     OW37720   4.653   3.723   4.872  0.3439  0.3051 -0.2330
 8695SOL    HW137721   4.606   3.740   4.790  1.3671 -0.6863 -1.0219
 8695SOL    HW237722   4.582   3.668   4.907 -1.1001  1.5384 -1.2346
 8696SOL     OW37723   0.279   2.525   6.737  0.2096  0.8423 -0.3539
 8696SOL    HW137724   0.207   2.509   6.675 -0.5819  2.2039  0.2200
 8696SOL    HW237725   0.247   2.479   6.814 -0.0143 -0.1038 -1.0070
 8697SOL     OW37726   0.523   0.579   9.863  0.4484  0.0323 -0.6393
 8697SOL    HW137727   0.564   0.621   9.787  1.4705 -0.5729 -0.4253
 8697SOL    HW237728   0.487   0.651   9.915  2.1917  0.4917 -0.0733
 8698SOL     OW37729   2.622   3.031  11.430 -0.5631  0.0448 -0.0631
 8698SOL    HW137730   2.681   3.004  11.500 -0.4895 -0.2306 -0.2316
 8698SOL    HW237731   2.630   2.955  11.372  2.5980  1.2879 -1.2655
 8699SOL     OW37732   3.996   1.415  15.478  0.2139 -0.1236 -0.0583
 8699SOL    HW137733   4.089   1.440  15.485 -0.3348  2.0171 -0.3479
 8699SOL    HW237734   4.011   1.324  15.455 -0.2326 -0.5299  1.2396
 8700SOL     OW37735   2.745   4.199   9.419  0.5006  0.1271 -0.1656
 8700SOL    HW137736   2.700   4.275   9.458 -0.4795 -1.6407  2.1477
 8700SOL    HW237737   2.765   4.152   9.500 -0.0273 -2.3204 -1.4486
 8701SOL     OW37738   3.103   3.686   5.412 -0.2666  0.0957 -0.4481
 8701SOL    HW137739   3.118   3.600   5.372  0.7668 -1.0209  2.3806
 8701SOL    HW237740   3.163   3.671   5.485 -0.1164 -0.9282 -0.7892
 8702SOL     OW37741   4.069   2.733   5.468 -0.2433 -0.6278 -0.4747
 8702SOL    HW137742   4.041   2.653   5.511  0.1703 -0.3880  0.2332
 8702SOL    HW237743   4.152   2.699   5.433  0.2723  1.0668 -0.9458
 8703SOL     OW37744   1.593   1.764   6.749 -0.5370  0.1625 -0.2936
 8703SOL    HW137745   1.586   1.859   6.736  0.0395  0.5803  2.4873
 8703SOL    HW237746   1.685   1.757   6.774 -0.4972  1.5509 -0.0470
 8704SOL     OW37747   0.610   2.030   4.425  0.6471  0.2423 -0.1427
 8704SOL    HW137748   0.626   2.011   4.332 -0.8361 -0.3488 -0.2757
 8704SOL    HW237749   0.666   1.960   4.459 -0.9484 -1.4961 -1.0704
 8705SOL     OW37750   4.216   0.706   4.190  0.5173 -0.5830 -0.1613
 8705SOL    HW137751   4.227   0.764   4.265  0.3326 -1.3024  0.4176
 8705SOL    HW237752   4.149   0.648   4.226 -0.1155  0.4371  0.2937
 8706SOL     OW37753   2.594   0.584   7.566 -0.0962 -0.0516  0.5671
 8706SOL    HW137754   2.537   0.507   7.571 -0.1235 -0.1462 -1.2652
 8706SOL    HW237755   2.640   0.560   7.486 -1.1941 -0.6549  0.1100
 8707SOL     OW37756   2.566   3.585  15.051  0.5105 -0.9467 -0.2694
 8707SOL    HW137757   2.516   3.504  15.042 -0.7381 -0.4183  1.8968
 8707SOL    HW237758   2.593   3.603  14.961  0.7129 -0.5787 -0.1359
 8708SOL     OW37759   0.237   3.025   5.943 -0.1389 -0.4314 -0.4476
 8708SOL    HW137760   0.255   3.028   6.037 -0.2528  2.2490 -0.5103
 8708SOL    HW237761   0.285   2.946   5.917 -1.3187 -1.5128  0.6716
 8709SOL     OW37762   1.535   4.678   2.910  0.0265 -0.4714 -0.0600
 8709SOL    HW137763   1.619   4.683   2.956 -0.8515  1.3407  1.3799
 8709SOL    HW237764   1.469   4.693   2.978 -0.0679  0.4158 -0.3498
 8710SOL     OW37765   3.607   4.371   6.341  0.1884  0.9826 -0.4626
 8710SOL    HW137766   3.640   4.365   6.252  1.9107  1.1711  0.1770
 8710SOL    HW237767   3.593   4.464   6.355 -1.5284  0.7679 -0.7564
 8711SOL     OW37768   3.235   1.632   5.928 -0.2014 -1.2157 -0.0739
 8711SOL    HW137769   3.202   1.679   5.852 -1.4371 -3.0291 -0.6582
 8711SOL    HW237770   3.161   1.635   5.988 -0.6644  1.1283 -0.7461
 8712SOL     OW37771   4.460   3.302   1.407 -0.0594 -0.7089 -0.2767
 8712SOL    HW137772   4.536   3.322   1.461 -1.6997  1.5174  1.2225
 8712SOL    HW237773   4.416   3.385   1.388 -0.1713 -0.8049 -0.4409
 8713SOL     OW37774   4.692   4.423  15.781  0.2018 -0.1997 -0.0343
 8713SOL    HW137775   4.612   4.474  15.768 -1.2572 -2.3123  0.7034
 8713SOL    HW237776   4.664   4.334  15.759  1.1047 -0.2405 -1.0126
 8714SOL     OW37777   0.644   4.551   6.919  0.5159  0.4660 -0.3492
 8714SOL    HW137778   0.611   4.486   6.857  4.0809 -3.3354  1.6748
 8714SOL    HW237779   0.697   4.483   6.961 -1.4427  0.4359  2.0847
 8715SOL     OW37780   0.542   3.744   6.199  0.3607  0.1082 -0.2386
 8715SOL    HW137781   0.455   3.766   6.166  0.6198  0.9193 -0.3932
 8715SOL    HW237782   0.534   3.649   6.194  2.5685 -0.0829 -0.0777
 8716SOL     OW37783   0.141   3.995   4.732  0.0469 -0.0939 -0.3713
 8716SOL    HW137784   0.198   4.069   4.750 -0.7454  0.2236  0.8661
 8716SOL    HW237785   0.058   4.006   4.779  0.2520 -3.1456  0.6699
 8717SOL     OW37786   4.336   1.955   2.150 -0.1609  0.0992  0.5080
 8717SOL    HW137787   4.351   1.896   2.076  2.0391  0.2588  0.8347
 8717SOL    HW237788   4.302   2.030   2.102  1.3909  0.7140  0.3961
 8718SOL     OW37789   4.554   3.656   1.878 -0.4347 -0.3140 -0.3344
 8718SOL    HW137790   4.628   3.616   1.924  0.1757 -0.5068 -1.4656
 8718SOL    HW237791   4.532   3.727   1.938  3.6278 -0.7225  1.6382
 8719SOL     OW37792   1.733   0.199   8.120 -0.3008  0.0051 -0.0276
 8719SOL    HW137793   1.807   0.161   8.072 -0.3853  1.2822 -1.1713
 8719SOL    HW237794   1.751   0.293   8.117 -1.0118  0.0386 -2.9664
 8720SOL     OW37795   1.089   1.996   8.760 -0.3199 -0.0922  0.3599
 8720SOL    HW137796   1.096   1.963   8.850  0.4005 -1.9151 -0.3582
 8720SOL    HW237797   1.065   2.088   8.772  0.7427  0.4347 -1.7039
 8721SOL     OW37798   0.513   0.884   9.647 -0.0053 -0.3995 -0.4771
 8721SOL    HW137799   0.568   0.815   9.610 -0.2111 -1.5994  1.4924
 8721SOL    HW237800   0.562   0.916   9.722  0.6865 -0.0318 -1.0805
 8722SOL     OW37801   3.222   4.284  16.083  0.1475 -0.2221 -0.1445
 8722SOL    HW137802   3.225   4.254  15.993  1.0960  1.0838 -0.5535
 8722SOL    HW237803   3.136   4.325  16.074  0.1576 -0.2440 -0.3409
 8723SOL     OW37804   0.596   3.067  15.749 -0.6388  0.6860 -0.3684
 8723SOL    HW137805   0.522   3.127  15.736 -0.9189  0.6701  1.1983
 8723SOL    HW237806   0.630   3.057  15.660  1.0823  1.1000  0.2515
 8724SOL     OW37807   4.591   0.203   5.441 -0.0798 -0.2169 -0.4836
 8724SOL    HW137808   4.504   0.223   5.475  0.3648 -0.1374  0.6202
 8724SOL    HW237809   4.571   0.120   5.398 -0.4318 -0.1728 -0.4083
 8725SOL     OW37810   1.221   3.414   7.443 -0.2993  0.4821  0.0413
 8725SOL    HW137811   1.224   3.459   7.528  0.4978 -0.9723  0.7905
 8725SOL    HW237812   1.189   3.483   7.386 -1.0021 -1.2778 -1.6791
 8726SOL     OW37813   2.053   2.232   1.967  0.3245  0.2018  0.2695
 8726SOL    HW137814   2.083   2.300   1.907  0.9707  2.2241  2.8722
 8726SOL    HW237815   2.082   2.260   2.054  2.3391 -1.1621  0.0350
 8727SOL     OW37816   3.552   2.280   3.010 -0.3614 -0.3801 -0.0575
 8727SOL    HW137817   3.502   2.236   3.079 -2.6464 -0.6814 -1.9001
 8727SOL    HW237818   3.593   2.350   3.062 -1.0956 -0.5525  0.7562
 8728SOL     OW37819   3.323   3.579  12.815 -0.4990  0.0746 -0.3584
 8728SOL    HW137820   3.287   3.634  12.745 -2.4201  1.0945  1.3802
 8728SOL    HW237821   3.310   3.494  12.775 -0.8251  0.0727 -0.2492
 8729SOL     OW37822   1.000   3.789  14.594  0.5823  0.0614  0.3096
 8729SOL    HW137823   1.020   3.709  14.643 -2.3754 -0.4176  0.7335
 8729SOL    HW237824   0.935   3.757  14.531  1.2467 -0.7167  0.0311
 8730SOL     OW37825   4.245   2.194   3.560 -0.0222 -0.6257  0.4884
 8730SOL    HW137826   4.163   2.212   3.608  0.0838  1.3423 -0.0489
 8730SOL    HW237827   4.208   2.197   3.472  2.3574  0.2288 -0.4761
 8731SOL     OW37828   2.059   3.337   3.733 -1.1246  0.3730 -0.7120
 8731SOL    HW137829   2.019   3.385   3.805 -0.7830 -1.9270  1.0246
 8731SOL    HW237830   2.068   3.398   3.660  0.5300 -1.4005 -1.9925
 8732SOL     OW37831   4.463   2.241   0.019  0.3734 -0.0921 -0.1590
 8732SOL    HW137832   4.548   2.199   0.024 -0.3219 -1.1920  2.2056
 8732SOL    HW237833   4.486   2.334   0.031 -1.6734  0.5040 -0.7331
 8733SOL     OW37834   1.763   4.710   7.047  0.9884  0.0052  0.4398
 8733SOL    HW137835   1.675   4.713   7.085  0.7992  0.0537  0.0032
 8733SOL    HW237836   1.753   0.018   6.965 -2.4385 -3.3625 -1.1139
 8734SOL     OW37837   0.107   2.839   9.966  0.1788  0.1026 -0.4397
 8734SOL    HW137838   0.071   2.761  10.008 -0.1642 -0.0061 -0.9315
 8734SOL    HW237839   0.187   2.844  10.017 -1.2522 -2.7093  2.0722
 8735SOL     OW37840   1.821   2.688  13.644  0.4220 -0.4327  0.8339
 8735SOL    HW137841   1.844   2.630  13.572 -0.3517 -0.0026  0.2334
 8735SOL    HW237842   1.743   2.729  13.606  2.5849  0.2891 -2.8689
 8736SOL     OW37843   2.274   0.171   6.052 -0.2006  0.3372  0.2708
 8736SOL    HW137844   2.195   0.127   6.021  0.1200 -0.2639  0.2967
 8736SOL    HW237845   2.346   0.114   6.027  0.1380  1.3001 -0.9302
 8737SOL     OW37846   3.651   2.705   0.785 -0.3874 -0.4977 -0.0105
 8737SOL    HW137847   3.653   2.704   0.881 -0.6827  1.6719  0.0265
 8737SOL    HW237848   3.706   2.781   0.766 -0.3510 -0.3734  0.5957
 8738SOL     OW37849   2.633   3.839   6.490  0.2000  0.2477  0.4002
 8738SOL    HW137850   2.667   3.755   6.521  1.7425  0.5810 -0.3965
 8738SOL    HW237851   2.623   3.824   6.397  1.1363  0.8263  0.1998
 8739SOL     OW37852   0.292   0.118  12.040  0.3271  0.3670  0.8556
 8739SOL    HW137853   0.340   0.050  11.994 -2.5388  0.0514 -1.6804
 8739SOL    HW237854   0.203   0.084  12.045  1.5522 -2.7377  1.0627
 8740SOL     OW37855   4.739   3.745   1.378  0.1082 -0.7374  0.2611
 8740SOL    HW137856   4.691   3.725   1.458 -0.3025  0.9648  0.4321
 8740SOL    HW237857   0.080   3.707   1.411 -0.0974  1.3371  3.1215
 8741SOL     OW37858   0.128   1.704   3.474  0.3074 -0.0688 -0.1777
 8741SOL    HW137859   0.036   1.731   3.472  0.9824  2.2051 -0.8173
 8741SOL    HW237860   0.141   1.661   3.390 -1.8798 -1.3026  0.1113
 8742SOL     OW37861   2.412   3.149  10.017 -0.0394  0.4097  0.1022
 8742SOL    HW137862   2.424   3.057   9.993 -0.0981  0.3298  0.3777
 8742SOL    HW237863   2.342   3.137  10.081  0.8301 -2.4572  0.5346
 8743SOL     OW37864   2.043   0.060   5.750 -0.1038 -0.4622  0.3735
 8743SOL    HW137865   2.121   0.114   5.759 -2.1984  2.5001  0.6821
 8743SOL    HW237866   2.070   0.023   5.666  0.6519  1.3744 -0.1865
 8744SOL     OW37867   4.604   3.073  13.151 -0.5475 -0.6545  0.4251
 8744SOL    HW137868   4.523   3.023  13.164  0.8608 -2.4321  2.1411
 8744SOL    HW237869   4.655   3.010  13.101  0.6655 -0.6418  1.6857
 8745SOL     OW37870   1.816   0.793  16.670 -0.4070 -0.4564 -0.2757
 8745SOL    HW137871   1.721   0.795  16.686 -0.4381  0.7581 -0.5689
 8745SOL    HW237872   1.844   0.716  16.720 -1.4991  0.2700  1.4647
 8746SOL     OW37873   4.715   1.859   2.258 -0.1346  0.6562  0.4433
 8746SOL    HW137874   4.656   1.799   2.303 -0.9282  0.8982 -0.2800
 8746SOL    HW237875   4.652   1.930   2.250 -1.6714 -0.7249  0.4529
 8747SOL     OW37876   3.792   1.751   0.889  0.0449 -0.2410  0.4497
 8747SOL    HW137877   3.782   1.662   0.922  1.2224 -0.6600 -0.3072
 8747SOL    HW237878   3.870   1.743   0.834 -1.3499 -0.4241 -1.5387
 8748SOL     OW37879   3.316   1.130   4.756 -0.1586  0.4223  0.2987
 8748SOL    HW137880   3.366   1.120   4.837 -1.4172 -2.0608  0.7681
 8748SOL    HW237881   3.282   1.041   4.744  0.5776  0.1664  0.1650
 8749SOL     OW37882   2.503   2.282   3.149  0.8205 -0.1540  0.2318
 8749SOL    HW137883   2.581   2.320   3.189  0.5344 -0.8968  1.5100
 8749SOL    HW237884   2.542   2.201   3.116  1.4589 -0.3467  1.4685
 8750SOL     OW37885   3.129   2.561  11.373 -0.0444 -0.0057  0.1804
 8750SOL    HW137886   3.171   2.563  11.287  1.2317  0.9413  0.8102
 8750SOL    HW237887   3.130   2.468  11.396 -0.7282 -0.4510 -1.6176
 8751SOL     OW37888   4.148   0.122   6.883  0.3614  0.2459 -0.1647
 8751SOL    HW137889   4.233   0.153   6.913 -0.0693  1.2043  0.0658
 8751SOL    HW237890   4.087   0.179   6.929 -1.0122 -0.9753 -0.4621
 8752SOL     OW37891   2.921   4.019   2.266 -0.0317 -0.1834  0.0043
 8752SOL    HW137892   2.910   4.045   2.357  0.8129 -0.4141  0.1797
 8752SOL    HW237893   2.838   4.048   2.228 -0.1873 -0.7814 -0.1091
 8753SOL     OW37894   2.757   2.189   4.554 -0.1499  0.4188  0.6605
 8753SOL    HW137895   2.818   2.194   4.627 -0.4977 -0.2070  0.9929
 8753SOL    HW237896   2.681   2.143   4.591 -0.1872  0.2315  0.3529
 8754SOL     OW37897   4.506   1.223  12.261 -0.2003  0.6465 -0.2156
 8754SOL    HW137898   4.591   1.226  12.219  0.5590 -0.0164  1.2711
 8754SOL    HW237899   4.453   1.296  12.229  1.8132  1.0446 -2.6535
 8755SOL     OW37900   1.129   1.465   5.388 -0.6369 -0.4102 -0.1263
 8755SOL    HW137901   1.107   1.558   5.389  1.6681  0.1599 -1.0868
 8755SOL    HW237902   1.213   1.462   5.342 -0.9908 -1.7634 -0.6853
 8756SOL     OW37903   3.686   3.392   5.569 -0.4182  0.2466  0.8616
 8756SOL    HW137904   3.767   3.381   5.619  0.8948  1.6933 -0.9506
 8756SOL    HW237905   3.724   3.382   5.482  2.4084 -0.2279  2.1340
 8757SOL     OW37906   3.194   4.249   7.554 -0.0318  0.7396 -0.1217
 8757SOL    HW137907   3.285   4.220   7.553 -0.1929  0.3003 -1.8210
 8757SOL    HW237908   3.210   4.327   7.500 -0.3998  0.8417 -0.0855
 8758SOL     OW37909   2.858   3.993   2.803 -0.4602  0.7113 -0.5068
 8758SOL    HW137910   2.808   4.043   2.738 -0.9276  1.5396  0.4986
 8758SOL    HW237911   2.892   3.924   2.745  2.2657  1.2160  0.5051
 8759SOL     OW37912   3.623   0.093   8.724  0.3035  0.1989  0.2935
 8759SOL    HW137913   3.653   0.168   8.672  1.1059  1.3762  2.4358
 8759SOL    HW237914   3.701   0.040   8.708 -0.1017 -0.0027 -1.0216
 8760SOL     OW37915   0.723   1.402   8.039  0.0802 -0.1025 -0.5658
 8760SOL    HW137916   0.638   1.381   8.000 -0.2969 -0.8067  0.6321
 8760SOL    HW237917   0.763   1.315   8.038 -0.9957 -0.5830 -1.7640
 8761SOL     OW37918   0.850   3.179   8.010  0.5039 -0.0925  0.4816
 8761SOL    HW137919   0.802   3.231   8.074  1.3830 -0.7321  1.6540
 8761SOL    HW237920   0.884   3.114   8.071  0.0420 -0.3934  0.4201
 8762SOL     OW37921   0.337   2.603   6.338  0.5275 -0.1073 -0.0513
 8762SOL    HW137922   0.412   2.604   6.279  0.2539  0.4431 -0.3852
 8762SOL    HW237923   0.378   2.597   6.425 -0.1507  2.0878  0.4187
 8763SOL     OW37924   0.270   3.235   4.696 -0.6060 -0.6347  0.2459
 8763SOL    HW137925   0.269   3.140   4.685  0.0656 -0.2859 -3.0156
 8763SOL    HW237926   0.346   3.255   4.641  0.5650  2.6161  3.0012
 8764SOL     OW37927   3.502   2.272   1.212 -0.3979  0.1416  0.0575
 8764SOL    HW137928   3.508   2.182   1.245  1.7915 -0.4875 -2.0225
 8764SOL    HW237929   3.552   2.266   1.130  0.2992 -1.5231  0.5890
 8765SOL     OW37930   1.753   0.534   6.295 -0.2341 -0.3067 -0.2536
 8765SOL    HW137931   1.822   0.586   6.338 -0.6374 -0.8357  1.0253
 8765SOL    HW237932   1.700   0.494   6.364 -0.5557  1.4195  0.5039
 8766SOL     OW37933   2.640   1.397   4.167  0.3024 -0.0476  0.2992
 8766SOL    HW137934   2.557   1.384   4.213 -0.2593  0.7676 -0.4674
 8766SOL    HW237935   2.692   1.420   4.244  1.4834 -0.5739 -0.3497
 8767SOL     OW37936   4.632   3.875   5.668  0.3417 -0.1178 -0.0374
 8767SOL    HW137937   4.633   3.780   5.662 -2.5733  0.0788 -3.8057
 8767SOL    HW237938   4.727   3.886   5.673  0.5536 -3.0478  2.4612
 8768SOL     OW37939   2.349   4.350   5.899  0.2611  0.0601 -0.3970
 8768SOL    HW137940   2.363   4.286   5.969  0.2086 -0.0606 -0.4985
 8768SOL    HW237941   2.260   4.375   5.926  0.0009 -0.9668 -0.3118
 8769SOL     OW37942   0.068   4.286  16.949 -0.1724  0.7996  0.4096
 8769SOL    HW137943   4.733   4.226  16.952 -0.2952  0.8702 -1.2966
 8769SOL    HW237944   0.097   4.283  17.040 -3.5680  0.7783  1.4904
 8770SOL     OW37945   2.514   2.007   5.820  0.0447 -0.2299  0.2112
 8770SOL    HW137946   2.477   1.945   5.757 -2.4184  2.1971 -0.7426
 8770SOL    HW237947   2.434   2.053   5.844  1.3237  2.5694 -0.8655
 8771SOL     OW37948   2.161   4.553  12.152  0.1836 -0.3569 -0.7194
 8771SOL    HW137949   2.213   4.473  12.144  0.3805 -0.3521  0.4506
 8771SOL    HW237950   2.082   4.529  12.104 -0.8673 -3.0455  2.3328
 8772SOL     OW37951   2.571   2.885  11.952 -0.2440 -0.1615  0.1482
 8772SOL    HW137952   2.618   2.820  11.899 -0.5354 -0.7796  0.6527
 8772SOL    HW237953   2.615   2.874  12.037  0.2878 -1.1361 -0.2569
 8773SOL     OW37954   3.056   3.106   6.704 -0.1439  0.4418  0.0949
 8773SOL    HW137955   3.131   3.051   6.726 -0.2942  1.3624  2.9596
 8773SOL    HW237956   3.010   3.050   6.641 -2.5873  0.7617  1.5918
 8774SOL     OW37957   1.020   2.323   1.523  0.3080 -0.2173 -0.2947
 8774SOL    HW137958   0.955   2.381   1.482  0.0943  0.0248  0.3750
 8774SOL    HW237959   0.984   2.244   1.483  2.4438 -0.9637 -0.6832
 8775SOL     OW37960   0.172   2.385   6.274  0.0925 -0.4904  0.5740
 8775SOL    HW137961   0.231   2.458   6.253 -0.3957 -0.2642 -0.0101
 8775SOL    HW237962   0.204   2.373   6.364  0.3319 -0.1470  0.5372
 8776SOL     OW37963   0.067   4.536   6.826 -0.0409  0.5383 -0.4586
 8776SOL    HW137964   0.128   4.554   6.756  2.8332  0.5020  2.0350
 8776SOL    HW237965   0.027   4.453   6.798 -1.0099  1.0186 -0.5100
 8777SOL     OW37966   2.019   2.380   4.502  0.1626  0.2068 -0.1191
 8777SOL    HW137967   2.029   2.364   4.596  1.4246 -1.7554 -0.5974
 8777SOL    HW237968   2.096   2.338   4.464 -0.1192 -0.2390 -0.2070
 8778SOL     OW37969   0.032   2.377   3.702  0.0256 -0.6862 -0.2107
 8778SOL    HW137970   0.064   2.383   3.612  2.6981  0.6686  0.8466
 8778SOL    HW237971   0.115   2.348   3.739 -0.1525  1.5048  1.9014
 8779SOL     OW37972   3.995   0.714   7.580 -0.5876  0.2932  0.2305
 8779SOL    HW137973   4.010   0.687   7.490 -1.1170  1.1812 -0.1212
 8779SOL    HW237974   4.015   0.634   7.629  1.1856 -0.2815 -1.4540
 8780SOL     OW37975   4.071   4.045  12.555  0.2836 -0.1439 -0.2040
 8780SOL    HW137976   4.143   3.983  12.567 -0.1032 -0.3509  1.0689
 8780SOL    HW237977   4.092   4.115  12.618  1.1182  0.2705 -0.9332
 8781SOL     OW37978   0.266   0.301   9.774 -0.5835  0.6811  0.0956
 8781SOL    HW137979   0.182   0.348   9.783 -1.5959 -0.8828 -1.2187
 8781SOL    HW237980   0.307   0.327   9.857  0.1337  0.8233 -0.3026
 8782SOL     OW37981   3.594   3.123  14.096  0.4316  0.4842 -0.6551
 8782SOL    HW137982   3.601   3.209  14.055 -1.0730  0.4476 -1.0272
 8782SOL    HW237983   3.615   3.149  14.186  1.5046  2.5770 -1.5385
 8783SOL     OW37984   4.125   3.414   2.709 -0.4837  0.2261  0.0036
 8783SOL    HW137985   4.121   3.452   2.796  0.3908  1.1102 -0.3479
 8783SOL    HW237986   4.083   3.329   2.723 -2.1268  1.0354 -0.0310
 8784SOL     OW37987   0.666   0.092   7.714  0.0088 -0.3622  0.6246
 8784SOL    HW137988   0.591   0.049   7.754 -1.8386  2.0923 -0.1888
 8784SOL    HW237989   0.636   0.115   7.627  1.3217  0.2151  0.3154
 8785SOL     OW37990   4.492   0.550  13.294  0.4030 -0.2684 -0.0611
 8785SOL    HW137991   4.446   0.475  13.257  0.0137 -1.4347  2.8094
 8785SOL    HW237992   4.569   0.561  13.239  1.2641 -1.1567  0.9788
 8786SOL     OW37993   1.124   2.749   7.585 -0.0683  0.9249  0.7160
 8786SOL    HW137994   1.197   2.743   7.645  1.5406 -0.5807 -1.3993
 8786SOL    HW237995   1.095   2.658   7.596 -0.4884  0.9992  0.2749
 8787SOL     OW37996   1.052   4.589   8.749 -0.1573 -0.5129 -0.2818
 8787SOL    HW137997   1.057   4.628   8.836 -0.4462 -0.6887 -0.1843
 8787SOL    HW237998   1.027   4.502   8.782 -1.8855  0.5610  1.2520
 8788SOL     OW37999   3.410   0.011   8.966  0.1181  0.0866 -0.0062
 8788SOL    HW138000   3.494   0.057   8.964  0.0837  0.2206  1.4859
 8788SOL    HW238001   3.423   4.686   8.899 -0.1487  0.7937 -0.7570
 8789SOL     OW38002   3.453   1.916  17.003 -0.2333  0.1566 -0.6710
 8789SOL    HW138003   3.407   1.932  16.921 -1.9837 -0.2774  0.2334
 8789SOL    HW238004   3.383   1.911  17.068  0.9807 -2.6148  0.4197
 8790SOL     OW38005   0.863   1.920   1.785  0.3737  0.1524 -0.1262
 8790SOL    HW138006   0.784   1.887   1.826  0.2409  0.2120 -0.3304
 8790SOL    HW238007   0.919   1.937   1.860  0.7055 -0.8627 -0.1488
 8791SOL     OW38008   1.660   0.870   3.559 -0.6539  0.0574 -0.0124
 8791SOL    HW138009   1.680   0.809   3.629 -0.1298  0.2199 -0.0262
 8791SOL    HW238010   1.565   0.864   3.548 -0.6630 -0.2282  0.2307
 8792SOL     OW38011   1.429   0.584   3.000 -0.2237 -0.0151 -0.2996
 8792SOL    HW138012   1.381   0.506   3.030  1.6440 -1.4096 -0.9281
 8792SOL    HW238013   1.407   0.648   3.067  0.3430 -0.6083  0.4628
 8793SOL     OW38014   3.102   0.667   5.266 -0.0683  0.3360 -0.0951
 8793SOL    HW138015   3.178   0.610   5.250 -0.0739 -0.1055  1.5063
 8793SOL    HW238016   3.068   0.612   5.336  0.4869  0.6716  0.4411
 8794SOL     OW38017   1.061   0.083   4.955 -0.5860 -0.4232  0.0756
 8794SOL    HW138018   1.035   0.175   4.965 -0.4239 -0.4619  0.8285
 8794SOL    HW238019   1.136   0.087   5.014 -1.0165  2.1293  0.4514
 8795SOL     OW38020   4.652   4.738   2.019 -0.1912  0.3068 -0.0097
 8795SOL    HW138021   4.668   4.653   1.979 -1.5574  0.0808 -0.0651
 8795SOL    HW238022   4.585   4.714   2.083  0.8197 -0.8382  0.6202
 8796SOL     OW38023   0.147   3.962   5.803  0.1844  0.0553 -0.0573
 8796SOL    HW138024   0.229   3.942   5.758  0.2213 -2.0048  0.9480
 8796SOL    HW238025   0.158   4.054   5.829 -5.3922  1.6567 -3.3223
 8797SOL     OW38026   0.953   3.578  12.124 -0.2608  0.4938  0.1828
 8797SOL    HW138027   0.952   3.657  12.179 -0.2030 -0.0767  1.0087
 8797SOL    HW238028   1.031   3.530  12.149 -0.9423 -0.2984  0.7922
 8798SOL     OW38029   4.416   1.286  13.210  0.3079 -0.2692 -0.2146
 8798SOL    HW138030   4.489   1.288  13.148  1.7654  1.4229  1.5604
 8798SOL    HW238031   4.426   1.378  13.235 -3.6422 -0.8434  3.5359
 8799SOL     OW38032   3.083   1.031   9.570 -0.0694  0.4999  0.0938
 8799SOL    HW138033   3.095   1.102   9.507  1.0575  0.7255  0.5625
 8799SOL    HW238034   3.010   1.071   9.618 -0.6851 -0.6112  0.0786
 8800SOL     OW38035   4.308   4.517   0.093 -0.3403  0.0536  0.2753
 8800SOL    HW138036   4.330   4.586   0.030 -1.3318 -2.4500 -2.7645
 8800SOL    HW238037   4.271   4.579   0.156 -2.2331 -0.4636 -0.3355
 8801SOL     OW38038   0.369   1.954   2.540  0.5493  0.5704  0.0592
 8801SOL    HW138039   0.454   1.998   2.540 -0.8835  3.3381  0.6194
 8801SOL    HW238040   0.377   1.898   2.617 -1.0601 -1.8031 -1.5208
 8802SOL     OW38041   3.795   1.376   7.975  0.0716  0.3484  0.1044
 8802SOL    HW138042   3.840   1.316   7.916  2.7153  2.4652 -0.0296
 8802SOL    HW238043   3.863   1.443   7.986 -0.4779  1.0285 -0.6079
 8803SOL     OW38044   0.271   0.686   4.361 -0.3607 -0.1334 -0.4612
 8803SOL    HW138045   0.219   0.652   4.434  1.1295  0.2009  0.7616
 8803SOL    HW238046   0.315   0.604   4.339 -2.3323 -0.9799 -1.3002
 8804SOL     OW38047   2.288   1.982   7.439 -0.3889 -0.0700 -0.0213
 8804SOL    HW138048   2.293   2.063   7.388 -1.9003 -0.0946 -0.1948
 8804SOL    HW238049   2.284   2.026   7.524  2.4191  1.3840 -0.6344
 8805SOL     OW38050   1.654   3.742   8.148 -0.0995  0.3005  0.7513
 8805SOL    HW138051   1.573   3.696   8.130  0.9364 -1.9871  1.8979
 8805SOL    HW238052   1.613   3.828   8.142  0.2036  0.6238  3.2126
 8806SOL     OW38053   0.763   4.269   6.633 -0.2468 -0.0171 -0.5819
 8806SOL    HW138054   0.803   4.356   6.626 -0.3221  0.0220 -0.5286
 8806SOL    HW238055   0.715   4.278   6.716  1.3161  0.3420  0.2823
 8807SOL     OW38056   2.175   3.089   6.413 -0.1781 -0.3580 -0.0392
 8807SOL    HW138057   2.087   3.124   6.428 -0.7220 -1.5324 -0.5146
 8807SOL    HW238058   2.197   3.133   6.331  0.2087  0.2381  0.3782
 8808SOL     OW38059   1.959   3.405   9.529 -0.2184 -0.0623 -0.2596
 8808SOL    HW138060   2.028   3.385   9.465  1.9332  2.2750  1.3331
 8808SOL    HW238061   1.882   3.360   9.495  0.8238 -1.1736 -1.1601
 8809SOL     OW38062   4.072   1.131   3.232  0.5037 -0.0712  0.4246
 8809SOL    HW138063   4.067   1.150   3.326  0.8301  3.8715 -0.3524
 8809SOL    HW238064   4.044   1.217   3.199 -2.9700 -0.2999  2.8487
 8810SOL     OW38065   1.932   0.282   5.533  0.5726 -0.3010 -0.5739
 8810SOL    HW138066   2.017   0.254   5.566  0.4729  0.1378  0.0401
 8810SOL    HW238067   1.876   0.234   5.594  1.1645 -1.1253 -0.6839
 8811SOL     OW38068   0.010   0.478   3.477 -0.6445  0.1524 -0.3537
 8811SOL    HW138069   4.719   0.462   3.388 -2.2267 -0.0200  0.2497
 8811SOL    HW238070   4.717   0.399   3.519 -1.0926 -0.0407 -1.0834
 8812SOL     OW38071   4.554   1.477  11.997  0.0164  0.0431  0.5250
 8812SOL    HW138072   4.569   1.572  11.998  1.1077 -0.1437  2.3545
 8812SOL    HW238073   4.512   1.466  12.083  0.6243  0.6177  0.8947
 8813SOL     OW38074   3.368   3.529   4.603 -0.0228 -0.1797  0.3769
 8813SOL    HW138075   3.382   3.570   4.518  0.3035 -2.4547 -0.6619
 8813SOL    HW238076   3.289   3.572   4.635 -1.0933 -0.6775 -1.6493
 8814SOL     OW38077   4.690   4.383   4.550 -0.2884  0.4082  0.1273
 8814SOL    HW138078   4.658   4.293   4.564  1.4129 -0.4992 -1.8583
 8814SOL    HW238079   4.624   4.425   4.495 -0.6266  1.7694  1.5540
 8815SOL     OW38080   2.877   3.217   9.720 -0.7100 -0.4061 -0.5146
 8815SOL    HW138081   2.834   3.301   9.708  0.1606  0.0562 -0.4069
 8815SOL    HW238082   2.848   3.193   9.808  3.6978 -0.7833  0.8212
 8816SOL     OW38083   1.740   1.714   5.535  0.2595 -0.1408 -0.1000
 8816SOL    HW138084   1.757   1.628   5.497 -0.6478  0.1606 -1.1843
 8816SOL    HW238085   1.770   1.716   5.626 -0.4453  0.2943  0.1278
 8817SOL     OW38086   2.393   4.597  10.899  0.0738 -0.0177  0.7010
 8817SOL    HW138087   2.386   4.588  10.994 -2.0910  3.2121  0.8413
 8817SOL    HW238088   2.478   4.643  10.894 -0.0683  0.2518  0.7605
 8818SOL     OW38089   0.603   0.796   6.238 -0.0218  0.0531 -0.2782
 8818SOL    HW138090   0.524   0.839   6.271  1.0127 -0.8927  3.3786
 8818SOL    HW238091   0.638   0.863   6.180 -3.6286  2.2070  0.0010
 8819SOL     OW38092   0.901   4.547  11.891  0.2656  0.4910 -0.3616
 8819SOL    HW138093   0.872   4.470  11.842  1.0046 -0.7190  1.0994
 8819SOL    HW238094   0.978   4.558  11.835 -0.5732  0.9508 -1.4193
 8820SOL     OW38095   4.464   4.160  15.588 -0.0090  0.4095 -0.1138
 8820SOL    HW138096   4.399   4.107  15.635  0.2058 -1.2432 -1.6927
 8820SOL    HW238097   4.543   4.165  15.642 -0.2347  1.9030  0.0737
 8821SOL     OW38098   3.663   2.232   2.216 -0.4747 -0.1619 -0.0793
 8821SOL    HW138099   3.727   2.165   2.238  1.9691  0.7082 -4.4487
 8821SOL    HW238100   3.707   2.296   2.159 -0.5025  0.2164  0.3242
 8822SOL     OW38101   0.729   0.822   3.667 -0.4964 -0.4138 -0.1529
 8822SOL    HW138102   0.810   0.789   3.707 -0.2832  0.9913  0.5940
 8822SOL    HW238103   0.692   0.878   3.735 -1.3081  0.4086 -1.2891
 8823SOL     OW38104   1.391   2.351  16.158  0.2436  0.1496  0.5202
 8823SOL    HW138105   1.371   2.422  16.097  0.4898 -1.2283 -1.1514
 8823SOL    HW238106   1.310   2.356  16.210  0.7432  1.5036  1.1669
 8824SOL     OW38107   2.694   2.045   3.471 -0.3604  0.0782 -0.1689
 8824SOL    HW138108   2.744   1.980   3.521 -2.8589 -1.9738 -0.3829
 8824SOL    HW238109   2.754   2.119   3.479  1.7472 -1.6194 -0.1405
 8825SOL     OW38110   1.980   4.130  14.893 -0.4559  0.1245  0.3572
 8825SOL    HW138111   1.937   4.084  14.965 -1.6919 -0.4784 -0.7949
 8825SOL    HW238112   2.044   4.184  14.941  0.4659 -1.8759  1.3697
 8826SOL     OW38113   1.230   2.532   1.475 -0.2292  0.3142  0.2611
 8826SOL    HW138114   1.160   2.479   1.513  0.9489 -0.6435  1.1088
 8826SOL    HW238115   1.242   2.592   1.549  0.3928  0.6837 -0.1452
 8827SOL     OW38116   0.973   3.970   9.673 -0.1310 -0.4080  0.1736
 8827SOL    HW138117   0.986   3.900   9.608  0.0004  1.2312 -1.5709
 8827SOL    HW238118   0.984   3.925   9.757  0.3213  0.7193  0.7119
 8828SOL     OW38119   0.429   1.048  15.102  0.2335  0.3033  0.2997
 8828SOL    HW138120   0.506   1.070  15.049 -0.8170  1.4288 -0.7379
 8828SOL    HW238121   0.457   0.970  15.149  0.6630  1.5567  2.1298
 8829SOL     OW38122   3.215   0.320   8.308  0.2724  0.1069  0.0506
 8829SOL    HW138123   3.199   0.352   8.219 -0.3800  0.8737  0.4453
 8829SOL    HW238124   3.163   0.240   8.301 -0.0966  0.1606  2.1330
 8830SOL     OW38125   2.000   2.308  12.777 -0.2260 -0.3943 -0.2545
 8830SOL    HW138126   1.983   2.218  12.751  2.5994 -1.4922  1.7154
 8830SOL    HW238127   1.973   2.359  12.700  0.8558  0.5431 -0.0114
 8831SOL     OW38128   2.836   0.629   9.709 -0.4495 -0.4433  0.2237
 8831SOL    HW138129   2.755   0.671   9.738  0.0973  0.7841 -0.0304
 8831SOL    HW238130   2.805   0.602   9.623 -1.3185  0.4291  0.2543
 8832SOL     OW38131   4.474   3.595   9.828 -0.2191  0.3322 -0.2228
 8832SOL    HW138132   4.425   3.676   9.843 -2.5621 -1.3065  1.0812
 8832SOL    HW238133   4.413   3.535   9.871  0.6391 -1.3849 -1.4118
 8833SOL     OW38134   3.537   0.089  11.337  0.5448 -0.4804 -0.1636
 8833SOL    HW138135   3.566   0.029  11.405  1.2934  2.7484  2.3465
 8833SOL    HW238136   3.516   0.175  11.374  3.2375  0.4632 -0.8644
 8834SOL     OW38137   2.404   1.450   9.314 -0.0382 -0.2499  0.0057
 8834SOL    HW138138   2.380   1.396   9.390 -2.0921 -0.2734 -0.6708
 8834SOL    HW238139   2.327   1.507   9.315 -0.3548 -0.6853  1.1383
 8835SOL     OW38140   3.142   3.803   5.017  0.4663 -0.0138  0.3848
 8835SOL    HW138141   3.205   3.810   4.945  1.0161 -1.9059  0.6818
 8835SOL    HW238142   3.187   3.788   5.101 -1.5426  1.0925  1.6504
 8836SOL     OW38143   3.046   2.604  16.307  0.1364 -0.3700  0.5321
 8836SOL    HW138144   3.055   2.677  16.368  2.3233 -1.6067  1.7169
 8836SOL    HW238145   3.137   2.577  16.292  0.5585 -0.2093  2.7330
 8837SOL     OW38146   2.849   3.326   7.076 -0.2344  0.4202  0.4300
 8837SOL    HW138147   2.918   3.260   7.073 -0.1607  0.5636 -0.8435
 8837SOL    HW238148   2.783   3.270   7.117  0.8225 -0.4008  1.0265
 8838SOL     OW38149   0.141   3.462   7.536 -0.1849 -0.5091  0.0819
 8838SOL    HW138150   0.175   3.405   7.605 -0.5164 -0.3733  0.3599
 8838SOL    HW238151   0.218   3.462   7.479 -0.6489  0.0294 -0.5395
 8839SOL     OW38152   0.838   3.305   4.419  0.2277  0.0635  0.3494
 8839SOL    HW138153   0.818   3.328   4.509 -1.1866 -0.3298  0.1371
 8839SOL    HW238154   0.864   3.213   4.426 -1.4981 -0.5769 -1.7141
 8840SOL     OW38155   0.837   0.153   3.349  0.3676 -0.4635  0.2922
 8840SOL    HW138156   0.851   0.239   3.310 -0.4577  0.3853  1.9041
 8840SOL    HW238157   0.764   0.123   3.294 -1.7545  3.4827  0.9918
 8841SOL     OW38158   1.103   1.735   6.096  1.2485  0.0744  0.4275
 8841SOL    HW138159   1.088   1.729   6.001  3.3448 -1.8523  0.2127
 8841SOL    HW238160   1.098   1.642   6.119 -0.3126  0.0987  0.1688
 8842SOL     OW38161   1.801   4.263  16.214  0.4968  0.1194  0.2594
 8842SOL    HW138162   1.814   4.345  16.165 -0.6529 -0.2877 -0.7513
 8842SOL    HW238163   1.708   4.258  16.236  0.5391  0.4224  0.5170
 8843SOL     OW38164   0.000   3.524   9.115 -0.2386 -0.2590  0.1661
 8843SOL    HW138165   4.658   3.557   9.079 -0.0293 -1.2056 -1.1959
 8843SOL    HW238166   0.027   3.467   9.043 -1.3938 -1.6264  0.8243
 8844SOL     OW38167   3.807   4.625   9.611 -0.0186 -0.9142  0.1656
 8844SOL    HW138168   3.842   4.660   9.529  1.5449  0.0794  1.2544
 8844SOL    HW238169   3.744   4.692   9.635  0.8196 -0.5027  1.2132
 8845SOL     OW38170   4.363   2.961   9.199  0.1872 -0.0543  0.8909
 8845SOL    HW138171   4.438   2.925   9.152 -2.4703 -1.5182 -2.2160
 8845SOL    HW238172   4.401   2.946   9.286  0.0081 -0.9295  0.8245
 8846SOL     OW38173   0.296   2.163  12.125 -0.1458 -0.4531 -0.1275
 8846SOL    HW138174   0.335   2.217  12.057  1.0696  0.5768  1.3943
 8846SOL    HW238175   0.215   2.146  12.076 -1.2915 -1.9368  2.2289
 8847SOL     OW38176   0.943   0.177   8.791  0.3528  0.4576  0.3259
 8847SOL    HW138177   0.885   0.183   8.716  1.4642 -1.7688 -0.7196
 8847SOL    HW238178   0.899   0.104   8.835  0.6875 -0.9702 -1.7193
 8848SOL     OW38179   2.215   4.603   0.544  0.3690  0.4469 -0.1809
 8848SOL    HW138180   2.133   4.557   0.564  0.8003 -0.0082  0.5755
 8848SOL    HW238181   2.184   4.679   0.593  0.6477  1.9845 -2.4366
 8849SOL     OW38182   4.390   0.803   4.878 -0.2580  0.4312 -0.2225
 8849SOL    HW138183   4.446   0.829   4.952 -0.5718 -2.1735  0.9351
 8849SOL    HW238184   4.417   0.711   4.885 -0.2451  0.2824 -2.3047
 8850SOL     OW38185   2.025   1.365   6.574  0.3135 -0.1007  0.1632
 8850SOL    HW138186   2.097   1.303   6.585 -0.8455 -1.0004  2.6556
 8850SOL    HW238187   1.973   1.349   6.653  1.3252 -0.1775  0.8100
 8851SOL     OW38188   0.018   1.728   1.978 -0.8052  0.7059  0.4643
 8851SOL    HW138189   4.722   1.654   2.025 -2.5394  0.6939 -0.9491
 8851SOL    HW238190   0.061   1.773   2.051  0.7483  0.3409 -0.2269
 8852SOL     OW38191   2.576   2.660   2.181  0.3209 -0.2519  0.2482
 8852SOL    HW138192   2.604   2.569   2.183  1.0438 -0.0272  0.0667
 8852SOL    HW238193   2.481   2.651   2.166  0.2513  1.5020 -0.3375
 8853SOL     OW38194   2.051   1.123   8.258 -0.5036  0.0223  0.1889
 8853SOL    HW138195   2.117   1.161   8.201 -0.2313  0.1062  0.5563
 8853SOL    HW238196   2.022   1.196   8.314  1.8655  0.0827  1.3290
 8854SOL     OW38197   2.410   1.841   4.470  0.1457  0.4000  0.0133
 8854SOL    HW138198   2.495   1.803   4.445 -0.1186  0.1433 -0.4893
 8854SOL    HW238199   2.409   1.797   4.555  1.0389  0.0906 -0.1365
 8855SOL     OW38200   1.448   2.890   2.962  0.2700 -0.1450  0.7064
 8855SOL    HW138201   1.531   2.895   2.916 -0.4514 -1.3800 -0.7449
 8855SOL    HW238202   1.386   2.925   2.898  0.2435  0.7769  1.2324
 8856SOL     OW38203   0.780   1.833   1.463 -0.1024 -0.1639  0.4570
 8856SOL    HW138204   0.692   1.869   1.474 -0.5233 -1.3516  1.0576
 8856SOL    HW238205   0.828   1.892   1.521 -1.1461  0.9839  0.1440
 8857SOL     OW38206   1.621   4.614   7.858  0.0683  0.4401  0.1090
 8857SOL    HW138207   1.559   4.677   7.897 -1.3764 -1.8969  1.5896
 8857SOL    HW238208   1.571   4.578   7.785  1.0903  0.8290 -0.7755
 8858SOL     OW38209   4.689   4.423   3.578 -0.1600 -0.7425 -0.0167
 8858SOL    HW138210   4.685   4.516   3.552 -1.0978 -0.6097  0.6040
 8858SOL    HW238211   4.685   4.438   3.673  1.7730  1.0599 -0.2032
 8859SOL     OW38212   3.457   1.203   7.435 -0.2285 -0.1811 -0.5996
 8859SOL    HW138213   3.398   1.160   7.373 -2.8114  0.4563  1.4043
 8859SOL    HW238214   3.405   1.281   7.454  2.0573  0.7765  1.6413
 8860SOL     OW38215   1.531   0.119  15.223 -0.0124 -0.3535  0.1280
 8860SOL    HW138216   1.526   0.024  15.215 -0.2447 -0.3790  0.5326
 8860SOL    HW238217   1.620   0.143  15.198 -0.5207  0.7280 -0.6080
 8861SOL     OW38218   2.170   2.519   9.188  0.7089 -0.2022  0.3433
 8861SOL    HW138219   2.215   2.456   9.132  0.6125  0.3448 -0.3546
 8861SOL    HW238220   2.088   2.524   9.138  2.0851 -1.4704 -2.0367
 8862SOL     OW38221   0.907   1.641   7.311 -0.3714 -0.0089  0.4751
 8862SOL    HW138222   0.930   1.601   7.395 -1.2666 -0.5013  0.4776
 8862SOL    HW238223   0.990   1.629   7.264 -1.7269  2.0508 -2.4378
 8863SOL     OW38224   2.667   1.528   3.109  0.8851 -0.6479  0.1833
 8863SOL    HW138225   2.756   1.561   3.095  0.9545 -0.3291  1.4367
 8863SOL    HW238226   2.619   1.601   3.070  1.1958 -0.9681 -0.8223
 8864SOL     OW38227   0.648   3.556   9.270  0.7899 -0.3417 -0.3182
 8864SOL    HW138228   0.717   3.621   9.281  1.1852 -1.2025  2.2247
 8864SOL    HW238229   0.604   3.562   9.355 -2.6869 -0.0475 -2.1137
 8865SOL     OW38230   1.401   1.196   4.115  0.3686  0.0614  0.1346
 8865SOL    HW138231   1.386   1.179   4.208  0.0020 -0.0520  0.0555
 8865SOL    HW238232   1.495   1.179   4.110  0.3451  0.3000 -1.2675
 8866SOL     OW38233   3.813   3.236   3.267 -0.1609  0.8280  0.6317
 8866SOL    HW138234   3.745   3.226   3.202 -0.0124 -0.0673  0.6087
 8866SOL    HW238235   3.883   3.275   3.215  0.0077  0.6667  0.7341
 8867SOL     OW38236   4.135   0.627   8.662  0.3314  0.3747 -0.0425
 8867SOL    HW138237   4.137   0.704   8.719 -0.2913  0.4373 -0.1032
 8867SOL    HW238238   4.124   0.650   8.570  1.2037 -1.6129 -0.6411
 8868SOL     OW38239   3.544   3.221  12.505 -1.2136 -0.2043 -0.2476
 8868SOL    HW138240   3.538   3.128  12.524  0.7767 -0.6263 -1.6201
 8868SOL    HW238241   3.558   3.212  12.410 -0.8276  1.9665 -0.4082
 8869SOL     OW38242   4.024   3.018   3.991 -0.6720 -0.1746 -0.0709
 8869SOL    HW138243   4.048   2.993   3.901  1.8257  2.2604 -0.0713
 8869SOL    HW238244   4.082   2.961   4.041  1.6354  1.2352 -1.1321
 8870SOL     OW38245   1.380   2.229  12.325 -0.2327 -0.7161 -0.2096
 8870SOL    HW138246   1.347   2.209  12.237  1.1802 -0.7426 -0.7251
 8870SOL    HW238247   1.405   2.139  12.345  1.4801 -0.0900  0.4200
 8871SOL     OW38248   4.398   2.400   1.982  0.0131  0.3756  0.0312
 8871SOL    HW138249   4.463   2.415   2.051 -1.1880  0.0124  1.2350
 8871SOL    HW238250   4.364   2.487   1.964 -0.3813  0.1418 -0.3442
 8872SOL     OW38251   4.254   1.382   8.122 -0.1543 -0.3573 -0.7137
 8872SOL    HW138252   4.193   1.352   8.190  0.9356 -1.3729 -0.1725
 8872SOL    HW238253   4.272   1.475   8.129 -0.8872 -0.2089 -0.8802
 8873SOL     OW38254   1.176   1.050   3.750  0.1144 -0.4421  0.1494
 8873SOL    HW138255   1.180   1.129   3.805  0.3973 -1.1154  1.0873
 8873SOL    HW238256   1.229   1.075   3.675 -1.0407  0.4157 -0.3923
 8874SOL     OW38257   0.451   4.600   7.738  0.0466  0.1364 -0.1170
 8874SOL    HW138258   0.383   4.613   7.803 -0.8587  2.5330 -1.5283
 8874SOL    HW238259   0.494   4.534   7.792 -1.2490  0.4861  1.3273
 8875SOL     OW38260   3.793   2.737   1.874  0.2734 -0.6982  0.4895
 8875SOL    HW138261   3.717   2.704   1.922 -0.1234  1.1588  1.1308
 8875SOL    HW238262   3.835   2.663   1.829 -0.2778 -0.1190 -0.9893
 8876SOL     OW38263   0.990   2.971  16.200 -0.1711  0.0885 -0.2385
 8876SOL    HW138264   1.030   2.964  16.113 -2.0575 -2.8034 -0.8733
 8876SOL    HW238265   0.963   3.063  16.198  1.6982  0.6290 -1.1145
 8877SOL     OW38266   1.108   4.100   4.464 -0.0377 -0.1029 -0.3330
 8877SOL    HW138267   1.141   4.026   4.413 -1.3203 -2.7414  2.7150
 8877SOL    HW238268   1.038   4.136   4.410 -0.7748  0.9150  1.2971
 8878SOL     OW38269   4.516   1.043   1.254  0.2357  0.1545 -0.3420
 8878SOL    HW138270   4.497   1.072   1.165 -1.8808  0.6719  0.2739
 8878SOL    HW238271   4.604   1.078   1.269  0.9806 -2.4959  1.5738
 8879SOL     OW38272   4.705   3.779   7.718  0.1323 -0.3411 -0.0223
 8879SOL    HW138273   4.692   3.690   7.750  0.8771  0.1748  1.7702
 8879SOL    HW238274   4.634   3.796   7.657 -0.7758 -1.0804  0.8400
 8880SOL     OW38275   2.152   2.151  14.741 -0.0696  0.4043 -0.5375
 8880SOL    HW138276   2.241   2.122  14.723 -1.0091 -1.6417 -1.9732
 8880SOL    HW238277   2.101   2.136  14.661 -2.7748 -1.3251  1.4850
 8881SOL     OW38278   4.647   4.699   7.508 -0.1496  0.2979 -0.3690
 8881SOL    HW138279   4.690   4.627   7.462 -0.3375 -0.5083  0.7190
 8881SOL    HW238280   4.712   0.026   7.525  1.6152 -0.8978 -2.4668
 8882SOL     OW38281   1.660   2.230  12.520 -0.0231 -0.2143 -0.0547
 8882SOL    HW138282   1.676   2.135  12.520  3.2793  0.3481  0.1380
 8882SOL    HW238283   1.577   2.242  12.566 -0.1341 -1.5342  0.0938
 8883SOL     OW38284   1.403   0.821   3.491 -0.2999  0.1368  0.2839
 8883SOL    HW138285   1.381   0.914   3.494 -1.4791 -0.0898 -1.5593
 8883SOL    HW238286   1.382   0.783   3.577  0.7463  0.2629  0.5955
 8884SOL     OW38287   2.032   3.809  15.559 -0.5865  0.4884  0.8427
 8884SOL    HW138288   2.021   3.882  15.620 -0.8590 -0.2254  1.6441
 8884SOL    HW238289   2.026   3.862  15.479 -2.0456  0.7308  1.1165
 8885SOL     OW38290   3.623   4.328   3.680 -0.1848 -0.0336 -0.2223
 8885SOL    HW138291   3.589   4.402   3.629  0.8758  1.3352  1.0447
 8885SOL    HW238292   3.582   4.252   3.640 -1.2394  0.7616 -0.6448
 8886SOL     OW38293   1.770   0.673   3.697  0.2775  0.0877 -0.3262
 8886SOL    HW138294   1.854   0.653   3.655  0.3794 -1.2542  0.5139
 8886SOL    HW238295   1.773   0.621   3.778  0.1174 -0.2754 -0.5527
 8887SOL     OW38296   1.101   3.246   7.947  0.8743 -0.0885  0.0360
 8887SOL    HW138297   1.078   3.329   7.903  0.4251  0.2001  0.8177
 8887SOL    HW238298   1.016   3.204   7.935  0.8555  0.1670 -0.7826
 8888SOL     OW38299   1.154   0.137   1.316  0.1457 -0.1739 -0.5601
 8888SOL    HW138300   1.229   0.092   1.277 -1.1255 -2.5862 -0.2711
 8888SOL    HW238301   1.078   0.086   1.287  0.0020 -1.3003  1.7335
 8889SOL     OW38302   3.307   3.951   9.017 -0.3691  0.2013  0.2119
 8889SOL    HW138303   3.224   3.920   9.053 -1.3653 -0.5499 -2.7879
 8889SOL    HW238304   3.274   4.029   8.972 -0.4440 -0.6024 -1.0989
 8890SOL     OW38305   0.276   1.116   6.664 -0.4382  0.4082  0.4760
 8890SOL    HW138306   0.294   1.027   6.692  0.4282  0.7221  0.9223
 8890SOL    HW238307   0.185   1.112   6.635  0.4473  2.3303 -2.6690
 8891SOL     OW38308   0.827   3.077   2.897 -0.8455 -0.3285 -0.7040
 8891SOL    HW138309   0.754   3.137   2.884  1.4889  2.5206 -0.7056
 8891SOL    HW238310   0.907   3.131   2.898 -1.5844  0.8289 -3.5508
 8892SOL     OW38311   3.005   1.354   8.923 -0.2841  0.1397 -0.0249
 8892SOL    HW138312   2.931   1.297   8.945  0.6324 -0.9248  0.3070
 8892SOL    HW238313   3.061   1.289   8.881  0.0268 -0.7852  1.8031
 8893SOL     OW38314   2.956   0.254   7.985 -0.0656 -0.1540 -0.2014
 8893SOL    HW138315   3.028   0.303   8.025  0.3420 -0.5762 -0.4092
 8893SOL    HW238316   3.008   0.176   7.966  0.4253 -0.2510  1.5566
 8894SOL     OW38317   2.553   2.800   6.630 -0.5287 -0.1181  0.2604
 8894SOL    HW138318   2.551   2.895   6.643  1.7263 -0.2777  1.7635
 8894SOL    HW238319   2.633   2.785   6.680 -0.6766 -1.1224  0.1879
 8895SOL     OW38320   2.031   2.022   2.574  0.2643 -0.3042 -0.2993
 8895SOL    HW138321   1.943   2.003   2.540  0.2856  0.3794 -0.7582
 8895SOL    HW238322   2.023   1.985   2.662 -2.6430  0.9060 -0.0409
 8896SOL     OW38323   2.230   2.197  10.151 -0.0140 -0.6324 -0.1818
 8896SOL    HW138324   2.171   2.196  10.075 -0.0335 -0.8941 -0.1619
 8896SOL    HW238325   2.169   2.207  10.224  2.3548 -1.4990  1.8914
 8897SOL     OW38326   2.697   1.009   8.831 -0.0706  0.4244  0.4281
 8897SOL    HW138327   2.732   1.094   8.805 -2.8426  1.1901 -0.7711
 8897SOL    HW238328   2.611   1.005   8.791  1.5880 -0.3453 -3.1134
 8898SOL     OW38329   2.839   0.024   5.407 -0.6038 -0.4436  0.6948
 8898SOL    HW138330   2.841   4.675   5.374  3.3154  0.3763 -1.4009
 8898SOL    HW238331   2.834   4.739   5.499 -1.6277  1.3365  1.1456
 8899SOL     OW38332   4.339   4.452  11.848 -0.6095 -0.2067  0.3084
 8899SOL    HW138333   4.319   4.392  11.776  1.7308 -0.0275 -0.4924
 8899SOL    HW238334   4.431   4.471  11.829 -0.9071 -1.4362 -2.4141
 8900SOL     OW38335   4.419   1.285  16.107 -0.0952  0.1727  0.3925
 8900SOL    HW138336   4.435   1.266  16.014  0.2796 -1.9796  0.9007
 8900SOL    HW238337   4.406   1.196  16.141 -0.4992  0.1929  0.2935
 8901SOL     OW38338   2.328   2.428  10.657  0.1115  0.1224 -0.3997
 8901SOL    HW138339   2.246   2.470  10.685 -0.1083  0.3383 -1.3447
 8901SOL    HW238340   2.396   2.467  10.711  0.6330  0.3634 -1.2244
 8902SOL     OW38341   3.126   0.155   2.431 -0.3122  0.0159  0.3409
 8902SOL    HW138342   3.217   0.159   2.402 -0.6173 -2.9709 -1.0416
 8902SOL    HW238343   3.143   0.119   2.518 -1.9912  1.4813  1.2816
 8903SOL     OW38344   2.448   3.216   2.923  0.5754  0.2254  0.2927
 8903SOL    HW138345   2.469   3.129   2.888  0.6007  0.0173  0.8288
 8903SOL    HW238346   2.527   3.230   2.975  1.8196 -2.2582 -0.8893
 8904SOL     OW38347   1.522   3.245  10.068 -0.2934  0.4326  0.0150
 8904SOL    HW138348   1.566   3.294   9.999 -4.1390  1.5333 -1.6389
 8904SOL    HW238349   1.463   3.195  10.012  1.7519 -1.8393 -0.1593
 8905SOL     OW38350   2.448   2.214   4.357  0.1373 -0.0526 -0.2636
 8905SOL    HW138351   2.530   2.235   4.314  0.1844 -0.8634 -0.5772
 8905SOL    HW238352   2.456   2.276   4.429  0.1491 -1.5085  0.9960
 8906SOL     OW38353   1.697   3.664  11.108  0.1730 -0.0319 -0.1719
 8906SOL    HW138354   1.786   3.700  11.116  0.8420 -1.2047 -2.3983
 8906SOL    HW238355   1.689   3.617  11.025 -1.4844 -0.6052  0.3206
 8907SOL     OW38356   3.574   3.400   3.935 -0.1511  0.1115  0.0377
 8907SOL    HW138357   3.482   3.401   3.960 -0.2414  0.9287 -0.3379
 8907SOL    HW238358   3.592   3.492   3.917 -0.9643  0.3968  0.7254
 8908SOL     OW38359   4.032   2.429   4.286 -0.3202  0.9451  0.8477
 8908SOL    HW138360   4.051   2.386   4.202 -0.9764  1.2455  0.5443
 8908SOL    HW238361   4.045   2.516   4.250  0.2900 -0.1718 -1.6682
 8909SOL     OW38362   2.710   1.357   8.333  0.2550  0.2204 -0.2628
 8909SOL    HW138363   2.758   1.341   8.252  1.7889  1.8463  0.3380
 8909SOL    HW238364   2.645   1.417   8.298  0.3855  0.4884 -0.0506
 8910SOL     OW38365   1.299   3.779   6.853  0.2014  0.0835  0.0525
 8910SOL    HW138366   1.380   3.733   6.833 -0.2428 -0.1058 -1.2828
 8910SOL    HW238367   1.335   3.832   6.924  1.4530 -1.2648  0.4291
 8911SOL     OW38368   0.772   2.323   7.403  0.3563 -0.1132 -0.1235
 8911SOL    HW138369   0.706   2.392   7.405 -0.6958 -1.0150 -2.9765
 8911SOL    HW238370   0.823   2.353   7.328  1.7255  0.5356  1.0726
 8912SOL     OW38371   0.337   1.670   9.298 -0.7604 -0.5978 -0.2587
 8912SOL    HW138372   0.309   1.759   9.322  1.6318 -0.1257  0.7468
 8912SOL    HW238373   0.269   1.626   9.349 -0.2685 -1.1722 -0.1001
 8913SOL     OW38374   0.314   0.470   6.373  0.1121  0.8693 -0.3670
 8913SOL    HW138375   0.407   0.478   6.351  0.6046 -0.3750  1.3140
 8913SOL    HW238376   0.286   0.396   6.320  0.2495  1.6363 -1.5224
 8914SOL     OW38377   0.431   3.922   1.785 -0.0274 -0.1619  0.2525
 8914SOL    HW138378   0.342   3.897   1.813 -1.3682  1.8284 -2.2528
 8914SOL    HW238379   0.472   3.836   1.797  0.7272  0.7385  4.1105
 8915SOL     OW38380   3.795   2.800   6.994 -0.2199  0.4817  0.3838
 8915SOL    HW138381   3.765   2.888   7.018 -0.9712  0.4501 -0.4370
 8915SOL    HW238382   3.838   2.776   7.076 -1.7177 -3.4706  0.0017
 8916SOL     OW38383   1.018   4.229  17.664  0.1600  0.1130 -0.1741
 8916SOL    HW138384   0.947   4.261  17.609  0.7829  1.0162 -0.4569
 8916SOL    HW238385   1.089   4.206  17.603 -1.0496  1.3693 -2.0354
 8917SOL     OW38386   4.698   3.740   9.332  0.4418 -0.1673  0.5295
 8917SOL    HW138387   4.731   3.734   9.422  1.2133 -1.7650  0.1213
 8917SOL    HW238388   4.679   3.648   9.314 -0.3488 -0.0196  0.6074
 8918SOL     OW38389   2.452   4.150   6.730 -0.6753 -0.2773 -0.0545
 8918SOL    HW138390   2.547   4.153   6.720 -0.6828  0.9086  0.2729
 8918SOL    HW238391   2.445   4.220   6.794  1.1647  0.0800 -0.2494
 8919SOL     OW38392   2.911   2.349   2.419  0.1759 -0.1715 -0.0223
 8919SOL    HW138393   2.905   2.294   2.341  0.4277 -0.6265  0.2727
 8919SOL    HW238394   3.004   2.371   2.429  0.3736 -1.3084  0.6165
 8920SOL     OW38395   0.910   0.848   4.857 -0.3868 -0.1201  0.5833
 8920SOL    HW138396   0.820   0.877   4.840  0.4227  2.5792  0.8987
 8920SOL    HW238397   0.933   0.795   4.781  3.7745 -0.6036  2.1886
 8921SOL     OW38398   0.961   2.909  16.863  0.3400 -0.4024  0.0030
 8921SOL    HW138399   0.898   2.956  16.919  0.4761 -0.7996  0.4874
 8921SOL    HW238400   0.935   2.818  16.875 -2.3292  0.1717 -1.3549
 8922SOL     OW38401   0.868   2.789   2.490  0.1382 -0.1086  0.6595
 8922SOL    HW138402   0.877   2.841   2.410  0.4503 -2.1116 -0.6094
 8922SOL    HW238403   0.886   2.854   2.559 -1.3594 -0.6991  1.6082
 8923SOL     OW38404   1.854   1.617   3.579 -0.3742  0.3994 -0.3875
 8923SOL    HW138405   1.857   1.713   3.582  0.1658  0.3780 -0.1741
 8923SOL    HW238406   1.948   1.606   3.564 -0.0553  0.1634  1.6658
 8924SOL     OW38407   4.086   2.076   4.001  0.2515 -0.3048  0.2171
 8924SOL    HW138408   4.056   2.165   3.984 -0.0304 -0.3483  0.4794
 8924SOL    HW238409   4.181   2.084   4.001  0.3397 -1.3095 -0.2545
 8925SOL     OW38410   0.889   1.954   4.306 -0.5520 -0.3032  0.3377
 8925SOL    HW138411   0.833   1.895   4.255 -1.2335  1.8689 -1.4380
 8925SOL    HW238412   0.883   1.905   4.388 -0.3804  0.9296  1.0871
 8926SOL     OW38413   2.128   2.220   9.852 -0.5846 -0.4156 -0.2583
 8926SOL    HW138414   2.138   2.125   9.850 -3.4334 -0.6808 -1.4200
 8926SOL    HW238415   2.158   2.249   9.766  0.4281  3.0822  1.2605
 8927SOL     OW38416   3.054   3.963  11.386 -0.1198  0.1313  0.8719
 8927SOL    HW138417   3.109   3.885  11.396 -0.0839  0.2910  1.9874
 8927SOL    HW238418   3.077   4.012  11.307  0.5915 -1.3369  0.1715
 8928SOL     OW38419   2.201   1.367   7.302  0.4031  0.6284 -0.2208
 8928SOL    HW138420   2.107   1.385   7.294  0.3766  0.8739  0.6115
 8928SOL    HW238421   2.240   1.423   7.234  1.2261  1.0492  0.6007
 8929SOL     OW38422   0.855   0.194  13.889 -0.0553  0.9631 -0.9649
 8929SOL    HW138423   0.802   0.233  13.959  0.5464 -0.2462  0.1748
 8929SOL    HW238424   0.932   0.250  13.888  0.4336  0.2232 -3.4859
 8930SOL     OW38425   2.420   1.704  10.083  0.4350  0.3245  0.2340
 8930SOL    HW138426   2.394   1.654  10.160  0.9290 -0.8842 -0.3748
 8930SOL    HW238427   2.335   1.740  10.058  1.6950  2.5405 -0.8284
 8931SOL     OW38428   0.785   2.973   6.257  0.0435  0.4482  0.4001
 8931SOL    HW138429   0.790   3.020   6.340 -0.2700 -0.2489  0.8129
 8931SOL    HW238430   0.742   3.038   6.201 -0.1544 -0.8680 -0.9894
 8932SOL     OW38431   1.632   2.020  13.815 -0.0487 -0.1850  0.8693
 8932SOL    HW138432   1.710   1.967  13.828  0.6480  0.3185 -1.2641
 8932SOL    HW238433   1.644   2.094  13.874  0.1686  0.3535  0.1524
 8933SOL     OW38434   0.733   2.310   7.919  0.4355 -0.1837 -0.3542
 8933SOL    HW138435   0.689   2.371   7.861 -1.4772 -0.1754  1.1173
 8933SOL    HW238436   0.673   2.235   7.918  3.4037 -2.5388 -2.5044
 8934SOL     OW38437   1.469   1.044   8.845 -0.2849  0.1338 -0.9041
 8934SOL    HW138438   1.419   1.126   8.843 -0.0790  0.3713  4.8256
 8934SOL    HW238439   1.490   1.043   8.751 -0.3631  0.1008 -0.9215
 8935SOL     OW38440   1.072   2.340   3.646  0.2577  0.4114 -0.1387
 8935SOL    HW138441   1.037   2.364   3.732  3.0852  3.3677  0.1546
 8935SOL    HW238442   1.117   2.260   3.674 -1.4245 -0.1290  1.0145
 8936SOL     OW38443   0.030   0.178   3.296  0.4929  0.1692  0.5680
 8936SOL    HW138444   0.017   0.268   3.268  4.0592  0.1442 -1.1952
 8936SOL    HW238445   0.032   0.137   3.209 -0.5329 -1.6778  1.4103
 8937SOL     OW38446   4.413   2.744  14.723 -0.5461  0.0528 -0.0079
 8937SOL    HW138447   4.446   2.824  14.764 -1.3243  0.3289  0.0826
 8937SOL    HW238448   4.380   2.775  14.639 -0.2049 -0.7354 -0.4314
 8938SOL     OW38449   4.292   0.224   4.466  0.3266  0.4494 -0.2379
 8938SOL    HW138450   4.291   0.295   4.529  0.3526 -1.2167  1.6262
 8938SOL    HW238451   4.347   0.274   4.406 -0.6113  0.4987 -1.0660
 8939SOL     OW38452   3.243   3.208   7.208  0.5589  0.0791 -0.1464
 8939SOL    HW138453   3.176   3.187   7.143  0.6305  0.9165 -0.4955
 8939SOL    HW238454   3.267   3.299   7.189  1.9859 -0.4870 -1.1052
 8940SOL     OW38455   4.149   1.915   8.268 -0.4161 -0.0926  0.1676
 8940SOL    HW138456   4.107   1.904   8.183  1.0085  0.0370 -0.5459
 8940SOL    HW238457   4.070   1.911   8.322 -0.5515 -0.1514 -0.0325
 8941SOL     OW38458   2.341   3.591   0.559 -0.2401 -0.3152 -0.0474
 8941SOL    HW138459   2.390   3.509   0.561 -0.5947 -0.5197  0.1416
 8941SOL    HW238460   2.320   3.604   0.651  1.3121  1.5148  0.0479
 8942SOL     OW38461   0.882   1.950   2.702  0.0639  0.3170 -0.1815
 8942SOL    HW138462   0.863   1.965   2.609  1.2707  1.1534 -0.2995
 8942SOL    HW238463   0.846   1.864   2.718 -1.1852  0.4670 -2.1610
 8943SOL     OW38464   1.824   1.366  10.553 -0.7295  0.5629 -0.0320
 8943SOL    HW138465   1.767   1.419  10.609 -1.3979  0.1727 -0.3341
 8943SOL    HW238466   1.816   1.283  10.600  1.4465  0.9342  0.9666
 8944SOL     OW38467   4.353   0.623  17.551 -0.2043  0.5231  0.7734
 8944SOL    HW138468   4.416   0.661  17.612  0.4064  0.4273  0.2007
 8944SOL    HW238469   4.365   0.531  17.573  0.3918 -0.4042 -3.4513
 8945SOL     OW38470   0.087   1.235   4.754 -0.1227  0.0627  0.3907
 8945SOL    HW138471   0.052   1.313   4.798  0.0872 -0.1418  0.9206
 8945SOL    HW238472   0.079   1.169   4.823 -3.1480 -0.5908 -0.6208
 8946SOL     OW38473   1.156   3.943   0.655 -0.1777  0.2501  0.0856
 8946SOL    HW138474   1.075   3.928   0.606 -0.5979  0.7522  0.6322
 8946SOL    HW238475   1.221   3.967   0.589  0.1787 -1.0521 -0.0559
 8947SOL     OW38476   1.920   0.493  13.627  0.1200 -0.2667 -0.3408
 8947SOL    HW138477   1.847   0.550  13.601 -0.9222 -1.4209  0.0112
 8947SOL    HW238478   1.977   0.514  13.553  2.7881 -1.9079  1.2694
 8948SOL     OW38479   0.519   4.174   7.548 -0.4869  0.0374  0.0021
 8948SOL    HW138480   0.502   4.184   7.641  1.7483  0.7153  0.3392
 8948SOL    HW238481   0.427   4.161   7.527 -0.5332  0.8962 -0.3319
 8949SOL     OW38482   1.855   4.158   9.024 -0.4168  0.3608  0.4467
 8949SOL    HW138483   1.782   4.107   9.059  0.3198  0.5161  2.1999
 8949SOL    HW238484   1.888   4.092   8.962 -2.5158  0.7623 -1.0790
 8950SOL     OW38485   0.646   3.249   2.820  0.3619  0.1422 -0.1316
 8950SOL    HW138486   0.636   3.299   2.739 -1.1077  1.5743  0.8991
 8950SOL    HW238487   0.557   3.255   2.855  0.1703  1.7515 -0.9012
 8951SOL     OW38488   0.054   0.371   6.764  0.1397 -0.6031 -0.0745
 8951SOL    HW138489   0.004   0.386   6.844  0.2541 -0.8605  0.0461
 8951SOL    HW238490   0.070   0.276   6.772 -1.0490 -0.9419 -1.8331
 8952SOL     OW38491   1.225   1.280   2.745  0.0240  0.1647  0.5761
 8952SOL    HW138492   1.162   1.229   2.796 -0.4024  0.4275  0.3049
 8952SOL    HW238493   1.233   1.353   2.807 -1.0819 -0.1421  1.0868
 8953SOL     OW38494   3.436   2.973   7.740  0.4086  0.0640  0.0713
 8953SOL    HW138495   3.447   3.067   7.753 -1.1061  0.1451  0.7045
 8953SOL    HW238496   3.349   2.966   7.701  0.3555 -0.1622  0.2336
 8954SOL     OW38497   3.510   1.827   9.739 -0.1923 -0.5638  0.0576
 8954SOL    HW138498   3.457   1.750   9.722 -0.1838 -0.8774  1.4038
 8954SOL    HW238499   3.466   1.901   9.698 -0.9594 -1.6353 -1.0084
 8955SOL     OW38500   4.566   2.572   3.709 -0.4600  0.0231 -0.2083
 8955SOL    HW138501   4.597   2.487   3.678  0.3496  0.1891  0.1667
 8955SOL    HW238502   4.599   2.569   3.798 -1.4926  0.2705  0.1801
 8956SOL     OW38503   0.928   1.519  11.687  0.3974 -0.6007 -0.0280
 8956SOL    HW138504   0.861   1.456  11.713  0.4240  0.4053  2.4540
 8956SOL    HW238505   0.976   1.543  11.766  0.5714  1.4529 -0.7740
 8957SOL     OW38506   4.179   0.441   5.505  0.5544  0.0372 -0.0901
 8957SOL    HW138507   4.155   0.372   5.444  0.1704 -0.2186  0.3490
 8957SOL    HW238508   4.118   0.428   5.578 -0.1544  0.8574 -0.5273
 8958SOL     OW38509   4.439   0.573   1.469 -0.0466  0.2856 -0.4875
 8958SOL    HW138510   4.412   0.658   1.435 -0.0567 -0.1747 -1.6296
 8958SOL    HW238511   4.473   0.529   1.391 -0.7022 -2.1278  0.5973
 8959SOL     OW38512   3.145   2.946   5.384  0.2083  0.0513 -0.2876
 8959SOL    HW138513   3.123   2.858   5.413  1.8169 -0.7834 -1.6171
 8959SOL    HW238514   3.065   2.979   5.343  0.3451  1.0018  0.2055
 8960SOL     OW38515   1.146   0.494   3.365 -0.2921 -0.1048  0.1594
 8960SOL    HW138516   1.206   0.447   3.424  1.9429  2.3572 -0.1566
 8960SOL    HW238517   1.118   0.563   3.425  0.2356  1.3179 -1.2176
 8961SOL     OW38518   1.163   3.693  15.404  0.1486 -0.2897 -0.0243
 8961SOL    HW138519   1.074   3.675  15.372  1.4595 -2.0182 -2.6138
 8961SOL    HW238520   1.152   3.776  15.451 -1.6470 -0.3450 -0.3452
 8962SOL     OW38521   4.027   0.225  11.676  0.0670 -0.1167 -0.2509
 8962SOL    HW138522   4.107   0.230  11.727  0.0060 -0.6141 -0.1086
 8962SOL    HW238523   4.039   0.287  11.604 -0.6037 -1.0738 -1.1766
 8963SOL     OW38524   4.018   2.674  11.464  0.1956  0.2127 -0.0211
 8963SOL    HW138525   4.021   2.764  11.497 -1.2972  0.2370  0.0271
 8963SOL    HW238526   3.923   2.675  11.459  0.2609  0.0251 -1.2603
 8964SOL     OW38527   0.015   3.939   6.982 -0.1099 -0.5371 -0.1881
 8964SOL    HW138528   0.079   3.901   7.043  0.6289  0.2819 -0.4471
 8964SOL    HW238529   4.681   3.939   7.042  0.3693 -0.6947  0.4168
 8965SOL     OW38530   4.155   1.895   3.576  0.5993  0.1121 -1.0086
 8965SOL    HW138531   4.187   1.983   3.555 -1.5949  0.7379 -1.8367
 8965SOL    HW238532   4.072   1.889   3.528  0.3230 -1.6212 -0.3246
 8966SOL     OW38533   1.456   2.681   6.552 -0.2231 -0.1233 -0.2184
 8966SOL    HW138534   1.476   2.729   6.472  0.8233 -0.1594  0.0164
 8966SOL    HW238535   1.372   2.722   6.569 -0.0572  0.2735 -0.3555
 8967SOL     OW38536   2.281   3.234   5.524  0.2445  0.1456 -0.5772
 8967SOL    HW138537   2.340   3.275   5.587  3.1899 -1.8561 -2.0213
 8967SOL    HW238538   2.324   3.150   5.504 -0.8373 -0.4909 -0.2219
 8968SOL     OW38539   1.966   2.379   8.821  0.3471 -0.1706  0.3538
 8968SOL    HW138540   2.045   2.361   8.771  0.2190  0.9498 -0.2595
 8968SOL    HW238541   1.945   2.294   8.861 -1.3620 -0.2377 -0.6523
 8969SOL     OW38542   2.856   3.948   8.755 -0.0862 -0.3186  0.1825
 8969SOL    HW138543   2.878   4.040   8.739  2.7665 -1.1887 -0.8028
 8969SOL    HW238544   2.829   3.956   8.846 -1.5598 -1.0477 -0.1802
 8970SOL     OW38545   1.230   3.448   8.765  0.5819 -0.8377 -0.3360
 8970SOL    HW138546   1.228   3.432   8.671  0.7410 -0.7787 -0.3488
 8970SOL    HW238547   1.272   3.366   8.791 -0.1172 -1.2583 -0.5337
 8971SOL     OW38548   4.230   1.429   6.476  0.0309  0.0536  0.2027
 8971SOL    HW138549   4.166   1.496   6.452 -0.3752 -0.5844 -0.5015
 8971SOL    HW238550   4.305   1.484   6.498 -1.5012  1.3658  2.2625
 8972SOL     OW38551   3.311   0.555   7.864  0.3819 -0.2137  0.1149
 8972SOL    HW138552   3.288   0.608   7.788  0.6107  0.1538  0.3041
 8972SOL    HW238553   3.396   0.524   7.830 -1.0631 -3.2361 -0.7538
 8973SOL     OW38554   3.746   1.011   2.623  0.0852 -0.3543 -0.1896
 8973SOL    HW138555   3.810   1.074   2.590 -0.0461 -1.9628 -3.4697
 8973SOL    HW238556   3.805   0.967   2.685  0.4725  0.9355  0.3605
 8974SOL     OW38557   2.788   1.141   7.172  0.1349  0.2618 -0.1094
 8974SOL    HW138558   2.853   1.126   7.104 -1.4610 -0.9930 -1.3510
 8974SOL    HW238559   2.707   1.175   7.133  1.3494  0.6359 -2.2658
 8975SOL     OW38560   4.013   2.337  16.075 -0.1398 -0.1336 -0.5075
 8975SOL    HW138561   4.068   2.406  16.112 -2.5558  1.6969 -0.3613
 8975SOL    HW238562   3.983   2.369  15.989 -1.0629  1.8759  0.5725
 8976SOL     OW38563   2.341   1.402   8.853 -0.2874  0.1872 -0.1495
 8976SOL    HW138564   2.299   1.333   8.801  1.3575 -1.4719  0.7413
 8976SOL    HW238565   2.387   1.367   8.929 -1.3554 -0.5236  0.1680
 8977SOL     OW38566   2.927   3.160   2.846  0.0870  0.0834 -0.4703
 8977SOL    HW138567   3.001   3.202   2.890 -0.5054  0.8084 -0.1573
 8977SOL    HW238568   2.948   3.154   2.753 -0.9249  0.9888 -0.7637
 8978SOL     OW38569   1.183   2.936   2.544  0.8514 -0.3621  0.4969
 8978SOL    HW138570   1.121   2.940   2.616 -0.1571  2.0922 -0.4810
 8978SOL    HW238571   1.140   2.941   2.458 -0.4194  0.0798  1.1641
 8979SOL     OW38572   2.383   3.946  12.543  0.1970  0.5738 -0.1271
 8979SOL    HW138573   2.371   4.031  12.585  2.0076 -0.2034  2.0180
 8979SOL    HW238574   2.455   3.974  12.488  0.6974  1.0159  0.7453
 8980SOL     OW38575   1.466   4.512   7.652 -0.0987 -0.0297  0.6899
 8980SOL    HW138576   1.417   4.581   7.609  2.2288  0.0194 -1.8376
 8980SOL    HW238577   1.393   4.465   7.693  0.1376 -0.3901  0.7033
 8981SOL     OW38578   4.445   0.833   7.559 -0.2048  0.6770 -0.2615
 8981SOL    HW138579   4.421   0.866   7.645 -0.8604 -0.4539 -0.0052
 8981SOL    HW238580   4.535   0.866   7.564 -0.5603  1.6467 -0.3955
 8982SOL     OW38581   2.262   1.254   8.090  0.4102 -0.2549  0.1578
 8982SOL    HW138582   2.272   1.191   8.019 -0.4896  0.1845 -0.3505
 8982SOL    HW238583   2.223   1.330   8.049 -0.3873 -0.3253  0.7792
 8983SOL     OW38584   1.263   0.901   7.682 -0.3387  0.1930  0.5238
 8983SOL    HW138585   1.181   0.852   7.676  0.2379 -0.7722  0.6007
 8983SOL    HW238586   1.326   0.832   7.663  0.8192  1.4977 -0.2887
 8984SOL     OW38587   3.100   1.957   3.230 -0.2920  0.1049 -0.8355
 8984SOL    HW138588   3.131   1.890   3.169 -0.8132 -0.8793  0.0105
 8984SOL    HW238589   3.186   1.999   3.239 -0.0664 -0.7367  0.8427
 8985SOL     OW38590   0.044   4.702  11.012 -0.0505  0.4474 -0.5501
 8985SOL    HW138591   0.022   4.670  11.100 -0.6342 -1.1305 -1.2822
 8985SOL    HW238592   4.711   0.021  11.003  0.3464  0.6112 -2.6561
 8986SOL     OW38593   3.761   1.847   5.810 -0.3861 -0.2850  0.3759
 8986SOL    HW138594   3.796   1.806   5.731  0.5380  1.0690  0.0660
 8986SOL    HW238595   3.833   1.819   5.867 -1.9917 -1.6675  1.7078
 8987SOL     OW38596   2.243   2.270   3.205 -0.3282 -0.0902 -0.1981
 8987SOL    HW138597   2.209   2.202   3.148  1.3497 -0.2594 -1.0045
 8987SOL    HW238598   2.337   2.252   3.197 -0.0911  1.2222 -0.3812
 8988SOL     OW38599   2.715   2.899   3.389 -0.2333  0.2192 -0.1103
 8988SOL    HW138600   2.767   2.829   3.428  0.9537  1.8190  1.1547
 8988SOL    HW238601   2.634   2.900   3.441  0.5751  1.0405  1.1256
 8989SOL     OW38602   0.679   1.086   6.082  0.3122 -0.6354 -0.0568
 8989SOL    HW138603   0.749   1.034   6.042  0.6826 -0.2818  0.1279
 8989SOL    HW238604   0.602   1.057   6.034 -0.0906  2.0588 -1.0805
 8990SOL     OW38605   0.471   4.029   9.531  0.4396  0.5287 -0.0056
 8990SOL    HW138606   0.515   3.980   9.601 -1.8220 -1.1608  0.2469
 8990SOL    HW238607   0.435   3.953   9.485 -1.7856  2.6789 -1.7933
 8991SOL     OW38608   4.104   3.083   6.437 -0.6241  0.4039  0.2192
 8991SOL    HW138609   4.013   3.057   6.423 -0.6183  0.0034  0.9492
 8991SOL    HW238610   4.098   3.174   6.464  2.6867  0.6385  0.1881
 8992SOL     OW38611   1.777   0.744   0.706  0.6031  0.2934  0.0509
 8992SOL    HW138612   1.750   0.824   0.751 -2.4373 -0.3524 -0.6087
 8992SOL    HW238613   1.705   0.731   0.644 -0.0928 -1.1177  1.1425
 8993SOL     OW38614   4.080   2.065   7.564 -0.6233  0.0261  0.4154
 8993SOL    HW138615   4.059   2.133   7.628  0.3630 -1.6370  2.5181
 8993SOL    HW238616   4.133   2.011   7.623  1.2299  0.9204 -0.4301
 8994SOL     OW38617   2.719   2.872  13.552  0.0193  0.6634 -0.7309
 8994SOL    HW138618   2.797   2.817  13.542 -1.6892 -1.8273 -0.2342
 8994SOL    HW238619   2.656   2.803  13.532  2.3599 -1.8871  0.6512
 8995SOL     OW38620   0.893   1.878  13.670  0.1539 -0.0818  0.1410
 8995SOL    HW138621   0.953   1.887  13.745 -0.5820  2.1271  0.4646
 8995SOL    HW238622   0.836   1.811  13.708  1.0222 -0.8166  0.1522
 8996SOL     OW38623   0.265   1.960   5.539  0.3732 -0.5984  0.0533
 8996SOL    HW138624   0.347   1.927   5.504  0.9565  0.7215  0.1723
 8996SOL    HW238625   0.275   2.045   5.496 -1.1431 -1.3912 -1.8770
 8997SOL     OW38626   2.056   3.246   7.334  0.3237  0.1224  0.5607
 8997SOL    HW138627   2.013   3.331   7.338  0.2099  0.1628 -1.6050
 8997SOL    HW238628   2.050   3.229   7.240  0.9706  1.8677  0.2103
 8998SOL     OW38629   3.295   2.843   7.374 -0.7927  0.4194  0.0412
 8998SOL    HW138630   3.221   2.802   7.420 -0.3873  1.0509  1.2624
 8998SOL    HW238631   3.293   2.811   7.284  1.2378 -0.2745  0.2303
 8999SOL     OW38632   2.530   1.168   7.079 -0.4510 -0.1373 -0.2653
 8999SOL    HW138633   2.462   1.173   7.146 -0.3629 -0.0881 -0.1789
 8999SOL    HW238634   2.516   1.080   7.046 -2.7874  0.0709  0.1623
 9000SOL     OW38635   2.465   2.793  14.045 -0.0353  0.3673 -0.4605
 9000SOL    HW138636   2.535   2.854  14.066 -0.7142  0.6443  0.9989
 9000SOL    HW238637   2.510   2.708  14.049 -0.2342  0.2291 -1.2174
 9001SOL     OW38638   0.983   1.175   4.288  0.0916  0.2811  0.0980
 9001SOL    HW138639   1.042   1.126   4.346  1.1712 -1.3997 -2.4305
 9001SOL    HW238640   1.029   1.257   4.267 -1.3889  0.6142 -1.7656
 9002SOL     OW38641   1.842   1.913   5.064  0.3188 -0.1372  0.2345
 9002SOL    HW138642   1.842   1.892   5.157 -0.3050 -1.4289 -0.0609
 9002SOL    HW238643   1.841   1.827   5.023 -1.8942 -0.6381  1.3313
 9003SOL     OW38644   0.929   2.323   5.732  0.2441  0.4420  0.2441
 9003SOL    HW138645   0.983   2.272   5.672 -1.0611  0.4147 -0.9097
 9003SOL    HW238646   0.997   2.353   5.792 -0.9029  2.3307  0.6113
 9004SOL     OW38647   2.749   4.735   7.259 -0.2529  0.6755 -0.4933
 9004SOL    HW138648   2.830   4.684   7.255  0.4148  1.7369 -0.6967
 9004SOL    HW238649   2.723   4.714   7.349  0.5828 -1.1696 -0.6903
 9005SOL     OW38650   4.383   3.287   7.373  1.0703  0.3288 -0.0050
 9005SOL    HW138651   4.463   3.326   7.340  1.4995 -0.1003  0.5302
 9005SOL    HW238652   4.405   3.194   7.374  2.2710  0.6246  0.5597
 9006SOL     OW38653   2.059   0.999   1.580  0.7635 -0.3539  0.1662
 9006SOL    HW138654   2.074   1.089   1.552  1.1836 -0.2251  0.7861
 9006SOL    HW238655   1.996   0.973   1.513  0.5902 -0.9675  0.5728
 9007SOL     OW38656   0.812   2.233   0.135  0.7036  0.2631  0.7084
 9007SOL    HW138657   0.749   2.165   0.159  1.0063  0.0304  0.8418
 9007SOL    HW238658   0.810   2.301   0.203  1.7056  0.2736  0.7290
 9008SOL     OW38659   2.404   4.615   6.860  0.8857  0.0186  0.2720
 9008SOL    HW138660   2.354   4.573   6.790  0.6118  0.6859  0.0638
 9008SOL    HW238661   2.362   4.701   6.865  1.0298  0.0862  0.3109
 9009SOL     OW38662   0.426   1.178   6.906 -0.9877  0.1418  0.0502
 9009SOL    HW138663   0.512   1.145   6.880 -2.3988 -3.4045 -0.1290
 9009SOL    HW238664   0.379   1.157   6.825 -1.3358 -0.1387  0.3245
 9010SOL     OW38665   1.935   2.061   8.112 -0.0626 -0.1522  0.5331
 9010SOL    HW138666   1.877   2.133   8.134  0.8979  2.0531 -4.2141
 9010SOL    HW238667   1.886   1.981   8.129 -2.5863  1.0634 -1.1993
 9011SOL     OW38668   1.937   1.740   2.987  0.0871  0.5098  0.3894
 9011SOL    HW138669   1.970   1.673   2.928 -1.7025 -0.8408  0.9060
 9011SOL    HW238670   1.867   1.691   3.032 -0.4979  0.0504 -1.0268
 9012SOL     OW38671   4.707   2.410   6.062 -0.3003 -0.4862  0.3417
 9012SOL    HW138672   0.021   2.472   6.015 -2.0080 -0.0617 -1.0468
 9012SOL    HW238673   0.036   2.387   6.125  2.0134  0.2041 -1.9591
 9013SOL     OW38674   2.074   0.332  13.216  0.4261 -0.0451 -0.2758
 9013SOL    HW138675   2.086   0.405  13.276  0.7020  0.3457 -0.8104
 9013SOL    HW238676   2.136   0.265  13.244  1.3697  1.2832  0.7793
 9014SOL     OW38677   1.651   0.688  10.255 -0.0823  0.5234 -0.2465
 9014SOL    HW138678   1.723   0.690  10.318 -1.5040 -0.8313  1.4236
 9014SOL    HW238679   1.612   0.775  10.260  4.1586  2.4188 -0.1158
 9015SOL     OW38680   3.854   0.184  11.091 -1.2656 -0.5588 -0.7039
 9015SOL    HW138681   3.761   0.171  11.073 -1.1133  0.1793 -2.1121
 9015SOL    HW238682   3.840   0.241  11.166 -1.1193  1.3467 -2.1086
 9016SOL     OW38683   1.474   0.824  11.029  0.2055  0.1305  0.2723
 9016SOL    HW138684   1.533   0.760  11.069 -1.6967  0.6570  3.9557
 9016SOL    HW238685   1.387   0.791  11.049 -1.5201  3.6971 -1.2400
 9017SOL     OW38686   2.927   3.868   3.711  0.1383 -0.7788 -0.4942
 9017SOL    HW138687   2.850   3.909   3.750 -0.5302 -2.2915 -0.2146
 9017SOL    HW238688   2.915   3.890   3.618 -0.2392  1.5242  0.1087
 9018SOL     OW38689   4.130   3.267   7.249 -0.3651  0.0560  0.4421
 9018SOL    HW138690   4.097   3.182   7.278 -1.0361  0.6903  1.5359
 9018SOL    HW238691   4.211   3.278   7.298  0.3436  1.5095 -1.0827
 9019SOL     OW38692   2.521   2.720   5.832  0.3283 -0.9036 -0.0895
 9019SOL    HW138693   2.556   2.707   5.744  3.8628 -0.5180  1.2588
 9019SOL    HW238694   2.602   2.691   5.876 -0.7233 -1.3336  1.5785
 9020SOL     OW38695   0.416   3.456  10.337  0.4070  0.0556  0.0671
 9020SOL    HW138696   0.438   3.379  10.285 -2.3519 -1.5481  1.3093
 9020SOL    HW238697   0.339   3.480  10.286  1.7090  2.9175 -0.5852
 9021SOL     OW38698   4.202   2.275   9.570  0.7049  0.3277 -0.5226
 9021SOL    HW138699   4.121   2.302   9.614  0.7344  1.0500 -0.9085
 9021SOL    HW238700   4.190   2.294   9.477  0.4368  0.3624 -0.4810
 9022SOL     OW38701   4.270   0.682   6.251 -0.3104  0.7267  0.4194
 9022SOL    HW138702   4.353   0.718   6.281 -0.1042 -0.4849  1.2876
 9022SOL    HW238703   4.280   0.610   6.189 -1.4091 -0.2496  1.3788
 9023SOL     OW38704   0.073   4.646   8.754  0.2090 -0.5940  0.1359
 9023SOL    HW138705   0.064   4.696   8.673 -1.1974 -0.7191  0.2061
 9023SOL    HW238706   4.726   4.608   8.763 -0.4442  1.4001  2.4110
 9024SOL     OW38707   2.746   4.030   5.364  0.0826 -0.4177 -0.0815
 9024SOL    HW138708   2.828   3.980   5.368  1.2334  1.4163 -0.3102
 9024SOL    HW238709   2.711   4.014   5.452 -1.1699 -1.4972 -0.7865
 9025SOL     OW38710   3.733   2.802   9.141 -0.5348  0.3401  0.1070
 9025SOL    HW138711   3.646   2.830   9.111 -0.3949 -1.1452 -1.7009
 9025SOL    HW238712   3.766   2.746   9.070  0.0131 -0.5599  1.0758
 9026SOL     OW38713   3.482   2.505   0.685  0.5612 -0.3858 -0.1938
 9026SOL    HW138714   3.533   2.583   0.704  0.2308  0.7030 -3.8090
 9026SOL    HW238715   3.408   2.545   0.640 -1.5454 -2.2020  1.6037
 9027SOL     OW38716   3.577   2.702   3.908  0.0694 -0.5046 -0.5152
 9027SOL    HW138717   3.658   2.704   3.959 -1.2315 -2.3765  1.5985
 9027SOL    HW238718   3.551   2.795   3.909  2.4884  0.1634  0.9481
 9028SOL     OW38719   3.000   1.308  11.161  0.4538 -0.2788 -0.3774
 9028SOL    HW138720   3.005   1.272  11.072 -0.4454 -1.0889 -0.1036
 9028SOL    HW238721   2.925   1.256  11.189  0.0504  0.6323  0.2132
 9029SOL     OW38722   2.539   0.960  11.992 -0.1703 -0.4867 -0.3770
 9029SOL    HW138723   2.516   0.987  11.903 -0.0867 -0.6426 -0.4465
 9029SOL    HW238724   2.622   0.916  11.969  0.5993 -0.0709  1.6697
 9030SOL     OW38725   1.181   0.242  12.620  0.4325 -0.2694 -0.1586
 9030SOL    HW138726   1.106   0.183  12.623  0.3141 -0.0476  1.2070
 9030SOL    HW238727   1.166   0.284  12.535 -3.0976  0.7352  0.9680
 9031SOL     OW38728   0.062   0.317   2.248  0.5607 -0.0061 -0.3905
 9031SOL    HW138729   0.091   0.340   2.160 -0.1764  1.0536 -0.3479
 9031SOL    HW238730   4.708   0.326   2.238  0.4956  0.4689  0.7042
 9032SOL     OW38731   3.480   1.205   7.969  0.9561 -0.2741 -0.4618
 9032SOL    HW138732   3.518   1.285   7.932  0.1792  0.3817  0.1281
 9032SOL    HW238733   3.405   1.232   8.023 -1.0517 -1.5095 -2.6631
 9033SOL     OW38734   4.574   2.303   8.207  0.1802 -0.8726  0.1186
 9033SOL    HW138735   4.665   2.333   8.206  0.4746 -1.9248 -2.9739
 9033SOL    HW238736   4.520   2.382   8.208 -0.0486 -1.0321  0.6298
 9034SOL     OW38737   3.880   1.301  13.423 -0.0881  0.1198  0.4738
 9034SOL    HW138738   3.928   1.292  13.340 -0.0022 -2.8157  0.8562
 9034SOL    HW238739   3.916   1.387  13.445 -1.6479  0.6196  1.0888
 9035SOL     OW38740   0.400   4.111  17.188  0.4124  0.3338 -0.6408
 9035SOL    HW138741   0.388   4.079  17.098  0.8062 -2.2131  0.2326
 9035SOL    HW238742   0.317   4.153  17.211 -0.2541 -0.6557 -1.2492
 9036SOL     OW38743   1.131   3.705  16.178 -0.2206  0.6182 -0.3627
 9036SOL    HW138744   1.124   3.641  16.250 -0.5533  0.7470 -0.2803
 9036SOL    HW238745   1.199   3.763  16.210  1.0635 -0.6097 -0.8824
 9037SOL     OW38746   0.608   1.448   5.748  1.1329 -0.7349 -0.1808
 9037SOL    HW138747   0.672   1.430   5.817 -0.1781  0.6550  1.3962
 9037SOL    HW238748   0.540   1.382   5.764  1.5866 -1.5127 -1.4704
 9038SOL     OW38749   4.049   0.527   1.748 -0.0887  0.3643  0.6530
 9038SOL    HW138750   4.021   0.537   1.657  0.5807  0.1172  0.4152
 9038SOL    HW238751   4.131   0.577   1.745 -1.0934  1.9407 -0.9002
 9039SOL     OW38752   0.675   1.684  15.600  0.0061  0.3509 -0.0610
 9039SOL    HW138753   0.672   1.754  15.665  0.9362  2.3887 -2.2589
 9039SOL    HW238754   0.671   1.602  15.651 -0.9860 -0.1586 -0.9438
 9040SOL     OW38755   1.796   3.343  14.449 -0.6391 -0.4849  0.4330
 9040SOL    HW138756   1.769   3.434  14.457 -1.4098 -0.9176  2.8939
 9040SOL    HW238757   1.737   3.304  14.384  0.6154  0.0289 -1.0158
 9041SOL     OW38758   3.769   3.615   2.106  0.3797 -0.1372  0.5229
 9041SOL    HW138759   3.699   3.616   2.172  1.7702  0.3300  1.9796
 9041SOL    HW238760   3.754   3.697   2.058 -2.7647 -0.8897  0.1849
 9042SOL     OW38761   0.538   3.546   8.493 -0.2377  0.5813  0.4670
 9042SOL    HW138762   0.452   3.547   8.451 -0.5790 -1.2096  1.0999
 9042SOL    HW238763   0.568   3.629   8.456 -1.8420  2.0235  2.4185
 9043SOL     OW38764   0.022   0.084  14.044  0.2543 -0.4438  0.4013
 9043SOL    HW138765   0.080   0.134  14.102  0.1880  0.6566 -0.4833
 9043SOL    HW238766   4.691   0.147  14.035  0.5663 -0.1473 -0.0387
 9044SOL     OW38767   2.360   2.199  13.732  0.1637  0.3307 -0.4156
 9044SOL    HW138768   2.305   2.232  13.803  1.0339 -0.7562  0.7751
 9044SOL    HW238769   2.435   2.158  13.776 -0.2739  0.7389  0.7142
 9045SOL     OW38770   4.567   2.764   8.786 -0.4126 -0.2075  0.2043
 9045SOL    HW138771   4.515   2.842   8.766 -2.3432 -1.0171  2.0800
 9045SOL    HW238772   4.507   2.701   8.825  0.1766  0.3371  2.0343
 9046SOL     OW38773   0.823   2.336  11.635 -0.0315 -0.3667 -0.4120
 9046SOL    HW138774   0.804   2.244  11.614  0.4986 -0.5918  0.0930
 9046SOL    HW238775   0.915   2.337  11.660 -0.1828 -1.9027  0.2231
 9047SOL     OW38776   0.427   1.308   8.209  0.8591  0.9131 -0.0785
 9047SOL    HW138777   0.449   1.216   8.219 -0.2690  0.5750 -0.7053
 9047SOL    HW238778   0.380   1.301   8.125  0.0595  0.2922  0.4127
 9048SOL     OW38779   4.134   1.899   8.974 -0.3215  1.2221 -0.4686
 9048SOL    HW138780   4.127   1.993   8.991  3.2091  1.3706  0.1318
 9048SOL    HW238781   4.061   1.863   9.024 -1.0175  3.2420 -0.0251
 9049SOL     OW38782   3.109   0.188   5.665  0.0438  0.0802 -0.1897
 9049SOL    HW138783   3.159   0.121   5.712  0.0675 -0.4474 -0.9709
 9049SOL    HW238784   3.020   0.154   5.679  1.0768 -1.9567  1.3129
 9050SOL     OW38785   2.550   2.498   8.354  0.1780 -0.1225  0.4304
 9050SOL    HW138786   2.561   2.519   8.262  0.1740  2.4811  1.0246
 9050SOL    HW238787   2.495   2.564   8.397 -1.7582 -1.2557 -0.3192
 9051SOL     OW38788   3.754   0.067   4.674 -0.0526 -0.5415  0.7908
 9051SOL    HW138789   3.753   0.080   4.579  1.3736  0.7154  0.9363
 9051SOL    HW238790   3.672   0.022   4.692 -0.4453 -0.4550 -0.7436
 9052SOL     OW38791   3.673   3.024   7.053  0.4841 -0.1605  0.3117
 9052SOL    HW138792   3.604   2.986   6.999  0.6407 -2.2488  1.5844
 9052SOL    HW238793   3.624   3.058   7.127 -1.3415 -0.3327 -0.8145
 9053SOL     OW38794   1.273   2.953  15.784  0.2061 -0.6560  0.6114
 9053SOL    HW138795   1.350   2.998  15.751 -0.4403 -1.4153 -1.9436
 9053SOL    HW238796   1.299   2.867  15.753  0.2149 -1.3585  2.5260
 9054SOL     OW38797   1.288   3.897   0.139 -1.3332 -0.3285 -0.3307
 9054SOL    HW138798   1.256   3.899   0.048  3.8549 -1.0588 -2.1324
 9054SOL    HW238799   1.379   3.870   0.127 -0.6767  1.1882  1.2411
 9055SOL     OW38800   0.593   4.306   2.491  0.3368 -0.1618  0.1510
 9055SOL    HW138801   0.568   4.258   2.412  0.0863  1.1854 -0.5930
 9055SOL    HW238802   0.585   4.394   2.454  1.3944 -0.8617 -1.7322
 9056SOL     OW38803   1.908   1.571   5.148  0.0180  0.8604  0.5835
 9056SOL    HW138804   2.000   1.586   5.127 -0.4954  2.1293 -0.8779
 9056SOL    HW238805   1.920   1.489   5.195 -0.8793 -0.0744 -0.8101
 9057SOL     OW38806   4.452   2.253   9.670 -0.1317  0.5854  0.3763
 9057SOL    HW138807   4.482   2.333   9.627  0.8729  0.4493  0.8443
 9057SOL    HW238808   4.364   2.241   9.633 -0.1044  2.2352 -0.2392
 9058SOL     OW38809   1.961   3.248  10.018  0.2155  0.1603 -0.9897
 9058SOL    HW138810   2.020   3.289   9.955 -1.7195  2.9569 -0.9699
 9058SOL    HW238811   1.895   3.222   9.954 -0.7633  1.8566 -0.6695
 9059SOL     OW38812   2.344   3.239   0.757 -0.0611  0.0078 -0.3876
 9059SOL    HW138813   2.413   3.173   0.764  0.4522  0.4504 -1.2483
 9059SOL    HW238814   2.360   3.269   0.667  0.3657 -3.4013 -1.4573
 9060SOL     OW38815   0.839   2.702  12.024  0.4608  0.8055 -0.5010
 9060SOL    HW138816   0.823   2.770  11.958 -0.8078  0.9899 -0.0051
 9060SOL    HW238817   0.753   2.662  12.027  1.3695 -1.1958 -1.3491
 9061SOL     OW38818   4.108   2.704   3.382 -0.2102 -0.3988 -0.7681
 9061SOL    HW138819   4.147   2.630   3.427 -0.1516 -0.6589 -1.2551
 9061SOL    HW238820   4.016   2.681   3.364 -1.2198  4.0174 -1.4291
 9062SOL     OW38821   0.047   2.379   7.813 -0.5211 -0.0134 -0.8141
 9062SOL    HW138822   0.084   2.308   7.866 -0.7671  1.7735  1.7075
 9062SOL    HW238823   0.081   2.457   7.855 -0.3700  1.4459 -3.6133
 9063SOL     OW38824   2.199   3.255   0.263  0.0217  0.8406  0.2763
 9063SOL    HW138825   2.128   3.192   0.248  0.1930  0.5992  0.4784
 9063SOL    HW238826   2.148   3.334   0.280  0.6748  1.2165  0.4967
 9064SOL     OW38827   3.701   0.180   4.054  0.0903  0.4269 -0.3010
 9064SOL    HW138828   3.625   0.179   4.111  1.4899  0.5855  1.5566
 9064SOL    HW238829   3.678   0.247   3.989 -1.4379 -1.2305 -1.4408
 9065SOL     OW38830   1.859   3.282   0.997  0.0414  0.5322  0.1147
 9065SOL    HW138831   1.825   3.367   0.969  0.1979  0.3433 -0.6291
 9065SOL    HW238832   1.813   3.224   0.937  1.6326  1.2163 -1.7415
 9066SOL     OW38833   3.814   4.680   6.211 -0.1599  0.1027  0.6324
 9066SOL    HW138834   3.903   4.715   6.219  0.7609 -2.1529  0.3688
 9066SOL    HW238835   3.832   4.607   6.151  2.4363  0.4846  0.9374
 9067SOL     OW38836   1.189   3.747  14.396 -0.6209 -0.5085 -0.2390
 9067SOL    HW138837   1.136   3.771  14.472 -0.4301 -1.9409  0.3340
 9067SOL    HW238838   1.268   3.800  14.411 -0.9507 -0.2960  0.7157
 9068SOL     OW38839   2.988   2.827   8.985  0.4775  0.3153 -0.1245
 9068SOL    HW138840   2.927   2.797   9.052  1.0455  0.9930  0.6988
 9068SOL    HW238841   2.933   2.882   8.931 -0.0237 -0.0457  0.0163
 9069SOL     OW38842   3.357   3.637   2.736  0.2033 -0.9763 -0.0116
 9069SOL    HW138843   3.270   3.612   2.706 -0.6944 -0.3012  1.9848
 9069SOL    HW238844   3.340   3.629   2.830 -1.6785 -1.1282 -0.3524
 9070SOL     OW38845   0.400   4.297   8.425  0.3392  0.4540  0.1491
 9070SOL    HW138846   0.319   4.281   8.474  0.0831 -1.0722 -0.7521
 9070SOL    HW238847   0.375   4.341   8.344  0.4702  1.9556  0.9369
 9071SOL     OW38848   2.866   3.821   7.541 -0.4239 -0.3954 -0.4850
 9071SOL    HW138849   2.868   3.735   7.581  1.4688 -0.2784 -0.3437
 9071SOL    HW238850   2.955   3.850   7.560  0.2986 -1.7101 -1.8922
 9072SOL     OW38851   4.146   1.186   7.679  0.1350  0.4631  0.3426
 9072SOL    HW138852   4.107   1.101   7.662 -0.0229  0.2576  1.6993
 9072SOL    HW238853   4.071   1.242   7.662 -0.0871  0.2125  0.4998
 9073SOL     OW38854   0.081   4.251  15.015 -0.5033 -0.0568  0.2961
 9073SOL    HW138855   0.150   4.313  14.992 -0.9997 -0.7583 -2.9993
 9073SOL    HW238856   0.043   4.292  15.093 -0.1169 -0.0626  0.4896
 9074SOL     OW38857   3.552   3.587   8.026  0.1017 -0.7656 -0.4203
 9074SOL    HW138858   3.582   3.678   8.022 -1.9202 -0.1187 -0.7804
 9074SOL    HW238859   3.614   3.567   8.096 -0.5583  1.3908  0.7919
 9075SOL     OW38860   0.626   2.737   6.255  0.1926  0.2068 -0.1323
 9075SOL    HW138861   0.672   2.816   6.283  0.4368 -0.2677  0.7972
 9075SOL    HW238862   0.655   2.725   6.165  0.9744 -1.8686  0.3897
 9076SOL     OW38863   0.913   2.583   9.447 -0.1694  0.7983  0.2248
 9076SOL    HW138864   0.900   2.497   9.486 -1.8176 -0.2758 -2.6600
 9076SOL    HW238865   0.869   2.574   9.362 -2.0098 -1.6148  1.4330
 9077SOL     OW38866   0.543   0.629  13.710 -0.2731  0.1037  0.1578
 9077SOL    HW138867   0.608   0.697  13.726  1.9636 -2.2734  1.2446
 9077SOL    HW238868   0.574   0.558  13.767  2.6087  0.7423 -0.5835
 9078SOL     OW38869   1.148   1.695   7.940 -0.2229  0.9168 -0.1951
 9078SOL    HW138870   1.083   1.636   7.903 -0.4019  2.1128 -1.7938
 9078SOL    HW238871   1.099   1.766   7.982  1.7839  2.2890 -0.1533
 9079SOL     OW38872   2.266   3.122  14.460  0.2719  0.1030 -0.3559
 9079SOL    HW138873   2.275   3.085  14.372 -0.3495 -1.8321  0.3725
 9079SOL    HW238874   2.177   3.155  14.445  0.2848  0.1845 -0.2514
 9080SOL     OW38875   3.313   0.527   8.514 -0.1460  0.2583 -0.4106
 9080SOL    HW138876   3.276   0.507   8.600  0.8035 -2.0298 -0.5150
 9080SOL    HW238877   3.240   0.510   8.455 -0.7764  1.3964  0.0359
 9081SOL     OW38878   0.930   2.412   9.814 -0.1702 -0.1471 -0.3423
 9081SOL    HW138879   0.862   2.438   9.752  0.6013  0.0870 -1.0907
 9081SOL    HW238880   0.987   2.357   9.761  2.2594  1.5913  0.4630
 9082SOL     OW38881   0.514   2.214   2.605 -0.6143 -0.1281 -0.6503
 9082SOL    HW138882   0.538   2.255   2.522 -0.7033 -2.1658 -1.6761
 9082SOL    HW238883   0.588   2.220   2.664 -0.0445  0.4172 -1.4222
 9083SOL     OW38884   4.444   2.666   7.149 -0.1434 -0.0004 -0.3886
 9083SOL    HW138885   4.496   2.745   7.139 -2.1321  1.1125 -1.7876
 9083SOL    HW238886   4.372   2.691   7.091  1.6278  2.0875 -1.6852
 9084SOL     OW38887   2.154   2.991  13.729 -0.1815 -0.8668  0.1319
 9084SOL    HW138888   2.081   3.007  13.788  0.2971  1.7477  0.0191
 9084SOL    HW238889   2.186   2.915  13.780 -1.7065 -2.1902 -0.8879
 9085SOL     OW38890   1.541   4.000   3.308  0.1035  0.6409 -0.1148
 9085SOL    HW138891   1.518   3.966   3.221 -1.9492 -1.2343  1.1796
 9085SOL    HW238892   1.634   3.978   3.304 -0.7876 -3.4336  1.0915
 9086SOL     OW38893   3.909   1.332  12.755 -0.1420  0.4238  0.4529
 9086SOL    HW138894   3.824   1.334  12.713 -0.7859  0.0325  1.7255
 9086SOL    HW238895   3.966   1.355  12.682 -0.3726 -0.5928 -0.0376
 9087SOL     OW38896   0.831   3.802   6.931 -0.1364 -0.1739 -0.3954
 9087SOL    HW138897   0.890   3.830   6.861  1.6593 -0.2451  1.0771
 9087SOL    HW238898   0.887   3.740   6.979  0.2229 -1.3474 -2.2969
 9088SOL     OW38899   1.851   2.164  14.851  0.9550  0.1205  0.1205
 9088SOL    HW138900   1.923   2.219  14.818  0.6160  1.3204  1.3955
 9088SOL    HW238901   1.777   2.214  14.816 -1.5208 -3.3382  0.4533
 9089SOL     OW38902   0.576   1.416  12.144  0.2033 -0.2287  0.0054
 9089SOL    HW138903   0.563   1.339  12.089  0.0175 -0.2611  0.0949
 9089SOL    HW238904   0.640   1.387  12.208  0.1460 -1.1037 -0.3393
 9090SOL     OW38905   2.592   3.526   5.142 -0.2013  0.0719  0.2875
 9090SOL    HW138906   2.624   3.438   5.122 -1.7380 -0.5611  0.6518
 9090SOL    HW238907   2.640   3.535   5.224  0.5573 -1.4624  0.0181
 9091SOL     OW38908   3.943   1.055   2.803  0.6061  0.6014 -0.6946
 9091SOL    HW138909   3.953   1.150   2.806  1.0083  0.6383 -3.4509
 9091SOL    HW238910   4.034   1.025   2.798  0.3089 -0.2200 -1.0733
 9092SOL     OW38911   0.330   1.072   4.702  0.2765 -0.5011 -0.2035
 9092SOL    HW138912   0.335   1.026   4.619 -1.2663  0.5914 -0.9076
 9092SOL    HW238913   0.250   1.122   4.685  1.7814  1.9669 -0.1323
 9093SOL     OW38914   4.672   1.263   9.319  0.0075  0.2325  0.0835
 9093SOL    HW138915   4.676   1.262   9.223 -0.4941  0.8993  0.0503
 9093SOL    HW238916   0.024   1.258   9.341 -0.0027  0.6173  0.2213
 9094SOL     OW38917   4.417   0.018   5.292 -0.2772 -0.1970 -0.6038
 9094SOL    HW138918   4.495   4.703   5.287 -0.6389 -0.2969 -4.9840
 9094SOL    HW238919   4.362   4.728   5.220  0.1435  1.0148 -1.4405
 9095SOL     OW38920   3.979   1.755   4.102 -0.3800 -0.5711  0.6666
 9095SOL    HW138921   4.052   1.778   4.044  0.0645  0.6851  1.7217
 9095SOL    HW238922   4.020   1.790   4.181 -2.5912  1.2102  1.0079
 9096SOL     OW38923   0.726   4.109   4.922  0.0522  0.2632 -0.2651
 9096SOL    HW138924   0.742   4.135   5.013  0.3340  2.3342 -0.8949
 9096SOL    HW238925   0.714   4.194   4.879 -1.5798  0.1370 -0.0549
 9097SOL     OW38926   0.243   2.299  17.100  0.0731 -0.3574  0.0442
 9097SOL    HW138927   0.233   2.204  17.106 -1.3099 -0.0671  2.0954
 9097SOL    HW238928   0.337   2.310  17.116  0.0160 -0.8939  0.7217
 9098SOL     OW38929   1.090   1.942   5.265  0.1541 -0.5575 -0.3336
 9098SOL    HW138930   1.107   2.033   5.290 -2.1145 -0.4004  0.5930
 9098SOL    HW238931   1.176   1.913   5.233  1.2327  2.6879 -0.3685
 9099SOL     OW38932   0.467   1.599  13.943 -0.1666 -0.1840  0.2476
 9099SOL    HW138933   0.381   1.586  13.903  0.2487 -2.4164  0.0665
 9099SOL    HW238934   0.464   1.564  14.033 -0.5966 -0.3128  0.1857
 9100SOL     OW38935   4.444   4.694   2.223 -0.0359  0.2849  0.0655
 9100SOL    HW138936   4.410   4.606   2.209  0.5628 -0.1613  1.4323
 9100SOL    HW238937   4.374   0.011   2.194  0.2719  0.2694 -0.7119
 9101SOL     OW38938   2.605   4.615   1.825  0.0555  0.3562 -0.2339
 9101SOL    HW138939   2.517   4.578   1.821  0.3522 -0.4045  0.3025
 9101SOL    HW238940   2.588   4.700   1.784  0.7440  0.0100 -1.2195
 9102SOL     OW38941   4.233   0.936  14.779 -0.8030 -0.0889  0.3611
 9102SOL    HW138942   4.308   0.965  14.831 -1.0308  0.0003  0.6399
 9102SOL    HW238943   4.231   1.005  14.712 -0.7755 -1.4749 -1.0631
 9103SOL     OW38944   1.826   0.855   3.055 -0.0360 -0.1992 -0.6471
 9103SOL    HW138945   1.786   0.933   3.092 -1.7339 -1.7728  0.8136
 9103SOL    HW238946   1.920   0.871   3.064 -0.3665 -0.1506  2.6567
 9104SOL     OW38947   1.908   3.741  14.372  0.5362 -0.0019 -0.4413
 9104SOL    HW138948   1.978   3.678  14.388  0.1183 -0.1984  0.6755
 9104SOL    HW238949   1.846   3.709  14.438 -0.8242  1.5469 -0.9708
 9105SOL     OW38950   3.150   0.881   2.884 -0.4873  0.0578 -0.1012
 9105SOL    HW138951   3.156   0.870   2.979  1.0921  0.1115 -0.1896
 9105SOL    HW238952   3.068   0.929   2.875 -0.6387 -0.2414 -0.3254
 9106SOL     OW38953   3.789   1.887  11.016 -0.1796 -0.0303 -0.3289
 9106SOL    HW138954   3.758   1.797  11.012 -0.1878 -0.0979  1.2501
 9106SOL    HW238955   3.792   1.897  11.111 -2.1725 -3.1403  0.0423
 9107SOL     OW38956   2.486   0.477   3.364  0.0391 -0.4066  0.1912
 9107SOL    HW138957   2.515   0.516   3.282 -2.1241  0.7230 -0.0422
 9107SOL    HW238958   2.416   0.427   3.321  0.2808 -0.4969 -0.1016
 9108SOL     OW38959   4.257   0.585  10.094 -0.2394 -0.1291 -0.2740
 9108SOL    HW138960   4.291   0.592  10.183 -3.6212  0.9122  0.9460
 9108SOL    HW238961   4.185   0.647  10.109  1.6551  2.0640 -0.1646
 9109SOL     OW38962   2.051   3.366  14.569  0.7271 -0.2187  0.4236
 9109SOL    HW138963   2.104   3.410  14.503 -0.0690 -0.1792 -0.1926
 9109SOL    HW238964   1.978   3.330  14.517  0.6164 -1.2972  1.3147
 9110SOL     OW38965   4.415   2.978   7.575 -0.0988 -0.5055 -0.2169
 9110SOL    HW138966   4.440   2.977   7.483 -0.0057  2.3723 -0.2205
 9110SOL    HW238967   4.417   2.883   7.590  0.3265 -0.4684 -0.0298
 9111SOL     OW38968   3.556   4.536   7.248 -0.5458 -0.0374  0.0171
 9111SOL    HW138969   3.623   4.504   7.187  0.2127  2.0255 -0.2077
 9111SOL    HW238970   3.546   4.623   7.210 -1.0351 -0.9973 -2.0843
 9112SOL     OW38971   1.745   2.320  13.650  0.1427 -0.8431 -0.0252
 9112SOL    HW138972   1.677   2.359  13.703 -0.1884 -0.2713 -0.8637
 9112SOL    HW238973   1.757   2.384  13.579  0.2636 -1.6974 -0.7784
 9113SOL     OW38974   2.828   4.684   3.784  0.0393  0.2477 -0.2504
 9113SOL    HW138975   2.852   4.595   3.758 -3.6714 -0.9912  0.5980
 9113SOL    HW238976   2.752   4.713   3.734 -0.3588 -1.5823 -0.6847
 9114SOL     OW38977   3.078   3.356   9.562 -0.0955 -0.1957 -0.0712
 9114SOL    HW138978   3.092   3.433   9.617  0.2862 -0.8915  0.8116
 9114SOL    HW238979   3.004   3.320   9.612 -2.3059  1.9783 -1.7724
 9115SOL     OW38980   3.187   1.258   7.729 -0.2041  0.4065  0.5847
 9115SOL    HW138981   3.156   1.348   7.721  1.8866  1.0852 -0.0740
 9115SOL    HW238982   3.275   1.270   7.765  0.2528 -0.3170 -0.2884
 9116SOL     OW38983   3.074   1.036   5.974 -0.8737 -0.0127  0.0522
 9116SOL    HW138984   3.124   1.014   5.895  0.5468 -2.2126  1.5538
 9116SOL    HW238985   3.144   1.058   6.036 -1.0719  1.8906 -0.4197
 9117SOL     OW38986   4.655   0.255   4.580  0.0075  0.0206 -0.0293
 9117SOL    HW138987   4.628   0.170   4.614 -0.7829  0.7374  1.1280
 9117SOL    HW238988   4.711   0.287   4.650 -0.7853 -1.0386  1.0870
 9118SOL     OW38989   1.774   1.716   4.847 -0.1988 -0.2496 -0.4350
 9118SOL    HW138990   1.739   1.695   4.760 -1.7252 -0.6011  0.2534
 9118SOL    HW238991   1.707   1.674   4.900 -0.5174  1.4697  0.5473
 9119SOL     OW38992   4.351   2.417   5.905 -0.2235  0.8990  0.5762
 9119SOL    HW138993   4.285   2.463   5.957 -2.0880 -1.4750  0.3236
 9119SOL    HW238994   4.322   2.426   5.814  0.5402 -0.5673  0.1919
 9120SOL     OW38995   1.834   3.543  10.550 -0.6423 -0.2123  0.0272
 9120SOL    HW138996   1.874   3.470  10.504  0.3690 -1.2211  2.4838
 9120SOL    HW238997   1.788   3.503  10.625 -1.3303  0.0331 -0.2634
 9121SOL     OW38998   1.556   4.009   5.546 -0.0865 -0.6520 -0.6839
 9121SOL    HW138999   1.542   3.916   5.526 -3.1131 -0.1314 -1.0437
 9121SOL    HW239000   1.467   4.038   5.565  0.3908  0.4036 -0.1022
 9122SOL     OW39001   0.708   0.209   6.264  0.4294 -0.0335  0.4515
 9122SOL    HW139002   0.768   0.190   6.192  0.4739 -1.0293  0.7519
 9122SOL    HW239003   0.621   0.180   6.235  0.9561 -1.7910  0.5938
 9123SOL     OW39004   2.034   0.880   3.598 -0.6065  0.6416  0.0046
 9123SOL    HW139005   2.040   0.841   3.510  0.7266 -0.8919  0.7808
 9123SOL    HW239006   1.997   0.966   3.578 -0.1913  0.7853 -0.1304
 9124SOL     OW39007   4.152   3.622  14.471  0.2939  0.1889  0.0432
 9124SOL    HW139008   4.110   3.678  14.406  0.1629 -0.3543 -0.3469
 9124SOL    HW239009   4.239   3.662  14.476  0.0837  0.5888  0.4019
 9125SOL     OW39010   1.574   0.192   5.536 -0.5910 -0.1920  0.2569
 9125SOL    HW139011   1.627   0.162   5.610  2.2397 -0.3096 -1.8356
 9125SOL    HW239012   1.497   0.216   5.589  0.6034  1.5108  1.2139
 9126SOL     OW39013   3.113   0.334   8.678 -0.1323 -0.2761 -0.3712
 9126SOL    HW139014   3.097   0.412   8.732  1.8215  0.2345 -0.5226
 9126SOL    HW239015   3.120   0.268   8.747  2.7301  0.2286 -0.1983
 9127SOL     OW39016   3.958   0.899   5.448 -0.0746 -0.4134 -0.1314
 9127SOL    HW139017   3.865   0.923   5.454 -0.4915 -1.5750 -1.8187
 9127SOL    HW239018   3.998   0.939   5.525 -3.4911 -0.7216  1.8101
 9128SOL     OW39019   3.893   1.267  11.402 -0.2900  0.1413  0.2178
 9128SOL    HW139020   3.838   1.229  11.471 -1.6096  1.4258 -0.1080
 9128SOL    HW239021   3.984   1.248  11.424  0.0608  0.3777 -1.0489
 9129SOL     OW39022   1.986   1.087  12.459 -0.3499 -0.7179  0.2225
 9129SOL    HW139023   1.902   1.100  12.414  1.2124  1.1535 -2.1308
 9129SOL    HW239024   2.044   1.134  12.399  0.3705 -2.1876 -0.2329
 9130SOL     OW39025   1.287   1.971   9.713 -0.3067 -0.5638 -0.5775
 9130SOL    HW139026   1.333   2.053   9.696 -0.2226 -0.2093  1.2917
 9130SOL    HW239027   1.345   1.928   9.776 -1.5628 -1.0496  0.2493
 9131SOL     OW39028   1.764   0.740  17.248  0.2708  0.5489  0.3222
 9131SOL    HW139029   1.791   0.709  17.162 -1.4663 -0.3665  0.1197
 9131SOL    HW239030   1.810   0.679  17.306 -0.6217 -0.0870  0.3600
 9132SOL     OW39031   2.385   4.614   7.600  0.6150 -0.0775 -0.1760
 9132SOL    HW139032   2.339   4.531   7.590  1.0788 -0.4940  1.1845
 9132SOL    HW239033   2.419   4.604   7.689  1.4584  0.6611 -0.4103
 9133SOL     OW39034   2.670   2.581  15.463 -0.0801  0.2270 -0.6741
 9133SOL    HW139035   2.755   2.550  15.494 -0.0973  0.9487  0.1063
 9133SOL    HW239036   2.698   2.638  15.391  2.4926 -1.4026 -0.9479
 9134SOL     OW39037   3.299   0.832   2.319  0.4184 -0.0247 -0.0822
 9134SOL    HW139038   3.272   0.794   2.235  0.4341 -1.2125  0.4487
 9134SOL    HW239039   3.270   0.772   2.387 -1.8763  0.5848 -0.5351
 9135SOL     OW39040   0.850   2.009   3.557 -0.4089 -1.0582  0.5111
 9135SOL    HW139041   0.840   1.916   3.538 -0.8195 -0.9219  0.0660
 9135SOL    HW239042   0.761   2.043   3.556 -0.8296 -2.1707 -0.0789
 9136SOL     OW39043   0.304   3.986  16.954 -0.3450  0.2356 -0.2827
 9136SOL    HW139044   0.387   3.975  16.906 -1.0870 -0.5035 -1.3970
 9136SOL    HW239045   0.242   4.015  16.888  0.2078 -0.4634 -1.1147
 9137SOL     OW39046   3.762   2.788   9.437  0.4899 -0.2454 -0.1130
 9137SOL    HW139047   3.763   2.775   9.342 -2.5087 -0.9634 -0.0669
 9137SOL    HW239048   3.682   2.840   9.438 -0.7607 -2.1322 -2.8273
 9138SOL     OW39049   0.650   0.381   2.324 -0.0503  0.0162 -0.3787
 9138SOL    HW139050   0.732   0.402   2.370 -0.7160  0.5760  0.5324
 9138SOL    HW239051   0.673   0.400   2.232  0.1645  0.4324 -0.2435
 9139SOL     OW39052   3.517   0.817   6.986 -0.4542 -0.2218  0.5272
 9139SOL    HW139053   3.605   0.818   6.949 -1.0413  0.4955 -0.8858
 9139SOL    HW239054   3.466   0.848   6.911 -0.2953 -1.3669 -0.0482
 9140SOL     OW39055   0.890   0.378   2.499  0.6801 -0.0537  0.4968
 9140SOL    HW139056   0.872   0.417   2.585 -0.2119  1.7627 -0.5140
 9140SOL    HW239057   0.978   0.341   2.510  0.0284 -2.0232 -0.9346
 9141SOL     OW39058   4.135   3.845   5.993 -0.1928  0.5421  0.1334
 9141SOL    HW139059   4.100   3.773   5.941 -0.9598 -1.5734  3.5923
 9141SOL    HW239060   4.055   3.866   6.042 -0.4587  0.6782 -0.3553
 9142SOL     OW39061   4.319   0.208   9.561 -0.2028 -0.3980 -0.2166
 9142SOL    HW139062   4.278   0.124   9.582  2.4627 -1.1343  2.0961
 9142SOL    HW239063   4.349   0.189   9.472 -0.5021  2.7069 -0.9527
 9143SOL     OW39064   1.437   0.272   0.347  0.2265 -0.0150  0.4506
 9143SOL    HW139065   1.462   0.190   0.389  0.9172  0.5146  1.0747
 9143SOL    HW239066   1.370   0.252   0.281 -1.2671 -0.7016  2.1538
 9144SOL     OW39067   0.114   0.579  16.089 -0.6541 -0.1361  0.5402
 9144SOL    HW139068   0.116   0.484  16.104 -0.7564 -0.2893 -0.4680
 9144SOL    HW239069   0.176   0.593  16.017 -0.1288  0.9079  1.1892
 9145SOL     OW39070   3.036   3.213   9.094 -0.3887 -0.4745  0.3104
 9145SOL    HW139071   2.986   3.143   9.136 -0.8062 -1.3939 -1.6732
 9145SOL    HW239072   3.124   3.177   9.103  0.4949  1.4919 -0.5977
 9146SOL     OW39073   0.477   1.319   5.450  1.0661 -0.0415 -0.3433
 9146SOL    HW139074   0.431   1.320   5.534 -1.3694 -1.4453 -1.6486
 9146SOL    HW239075   0.445   1.400   5.410 -1.6356 -0.5311  0.8733
 9147SOL     OW39076   0.788   4.325   7.119 -0.3321  0.4513 -0.0315
 9147SOL    HW139077   0.814   4.233   7.117 -4.2685 -0.7981  3.9579
 9147SOL    HW239078   0.728   4.311   7.193 -1.3836  2.0472 -0.5847
 9148SOL     OW39079   3.463   0.848   7.772  0.0522 -0.3254  0.2201
 9148SOL    HW139080   3.398   0.907   7.734 -0.6181  0.3137  2.3702
 9148SOL    HW239081   3.417   0.766   7.753  1.4941 -1.5157  1.8874
 9149SOL     OW39082   2.800   4.488   4.122 -0.3073 -0.2512  0.2287
 9149SOL    HW139083   2.863   4.473   4.052  0.4630 -0.7757  1.0391
 9149SOL    HW239084   2.859   4.490   4.197 -1.5696 -2.3979  1.2717
 9150SOL     OW39085   1.872   2.092   1.506  0.5509 -0.2265  0.2002
 9150SOL    HW139086   1.853   2.088   1.600  2.8450 -2.4832  0.5574
 9150SOL    HW239087   1.921   2.175   1.502  0.0384  0.2743  3.9851
 9151SOL     OW39088   2.235   1.436   4.743  0.3288  0.2280  0.4786
 9151SOL    HW139089   2.169   1.504   4.753 -1.3245 -1.0678 -1.7408
 9151SOL    HW239090   2.294   1.471   4.677  0.5194 -0.2357  0.4002
 9152SOL     OW39091   1.849   2.737   3.735 -0.6111 -0.4072  0.0999
 9152SOL    HW139092   1.861   2.787   3.816 -4.4978  2.7719 -1.2186
 9152SOL    HW239093   1.768   2.689   3.752 -1.2571 -0.2883 -2.5690
 9153SOL     OW39094   2.631   0.643   2.606 -0.1537  0.4966 -0.0733
 9153SOL    HW139095   2.706   0.648   2.547  0.6332  3.2914  1.1833
 9153SOL    HW239096   2.551   0.646   2.554  0.7809 -0.2168 -1.5433
 9154SOL     OW39097   4.723   0.421  11.121  0.7651  0.0098  0.3847
 9154SOL    HW139098   4.670   0.343  11.099 -0.7058  0.9227  0.6978
 9154SOL    HW239099   0.006   0.452  11.033 -0.0281  0.8331  0.4589
 9155SOL     OW39100   2.765   3.450   9.661  0.0364 -0.1986 -0.0879
 9155SOL    HW139101   2.678   3.484   9.645  0.7827  1.2885 -0.9927
 9155SOL    HW239102   2.799   3.513   9.725  0.8440 -0.4613 -0.2527
 9156SOL     OW39103   0.704   2.713   6.800  0.4180 -0.2382 -0.3603
 9156SOL    HW139104   0.620   2.694   6.844  0.7824  0.7223  0.7549
 9156SOL    HW239105   0.682   2.795   6.756  0.6350 -0.5845 -1.0979
 9157SOL     OW39106   0.913   3.349  13.974  0.3351  0.3304  0.0537
 9157SOL    HW139107   1.008   3.354  13.969  0.4474 -0.5174  1.5179
 9157SOL    HW239108   0.891   3.410  14.045 -2.4651 -1.1370  0.4678
 9158SOL     OW39109   2.922   2.105   3.089 -0.1561 -0.0685 -0.2783
 9158SOL    HW139110   2.976   2.083   3.165 -0.9994 -1.0409  0.0440
 9158SOL    HW239111   2.987   2.089   3.021  0.2506  2.1518 -0.4132
 9159SOL     OW39112   1.967   1.571   6.346  0.2395  0.2946  0.5313
 9159SOL    HW139113   1.992   1.654   6.387 -0.8357 -0.1286  2.0511
 9159SOL    HW239114   2.000   1.503   6.405  0.3699 -0.6759 -0.6760
 9160SOL     OW39115   3.403   3.402   8.209  0.7069 -0.6737  0.3980
 9160SOL    HW139116   3.446   3.464   8.150  0.6631  0.1628  1.2327
 9160SOL    HW239117   3.471   3.356   8.258  0.8285 -2.1375 -1.1564
 9161SOL     OW39118   0.076   1.461   0.787 -0.1955  0.6676  0.4385
 9161SOL    HW139119   0.165   1.426   0.777 -0.6808 -0.4266 -0.0316
 9161SOL    HW239120   0.082   1.532   0.723  0.6932 -0.1143 -0.3618
 9162SOL     OW39121   2.807   2.777   9.198 -0.1699  0.0288 -0.2485
 9162SOL    HW139122   2.772   2.762   9.286 -0.8737 -2.7006 -0.9918
 9162SOL    HW239123   2.729   2.745   9.152 -0.1070  1.0519 -1.0685
 9163SOL     OW39124   2.926   4.470  14.507  0.0416 -0.1025 -0.3696
 9163SOL    HW139125   2.907   4.531  14.436 -2.8680 -0.5649  0.0071
 9163SOL    HW239126   2.972   4.529  14.567  2.3515 -0.2300 -2.0041
 9164SOL     OW39127   4.612   2.706   9.731  0.1099  0.0002 -0.0934
 9164SOL    HW139128   4.621   2.772   9.800  1.7113 -0.0749 -0.2216
 9164SOL    HW239129   4.698   2.667   9.748  0.1104  0.3289  0.6978
 9165SOL     OW39130   2.292   4.406  14.444  0.3986 -0.0263  0.6115
 9165SOL    HW139131   2.228   4.388  14.512  1.6341 -2.0075  1.2656
 9165SOL    HW239132   2.370   4.362  14.480  1.5452 -0.8185 -2.8015
 9166SOL     OW39133   3.872   2.145  12.197  0.0228 -0.1634 -0.8846
 9166SOL    HW139134   3.800   2.206  12.210 -0.2148 -0.5455 -0.4262
 9166SOL    HW239135   3.878   2.136  12.101  1.1756 -0.3418 -0.8003
 9167SOL     OW39136   0.282   0.955   3.832 -0.3633  0.8325 -0.0038
 9167SOL    HW139137   0.197   0.980   3.869 -1.6519 -2.3313 -0.8059
 9167SOL    HW239138   0.275   1.000   3.747  1.1939  0.3341 -0.3817
 9168SOL     OW39139   2.155   2.762   2.324  0.0836  0.1067 -0.5143
 9168SOL    HW139140   2.182   2.814   2.400 -0.4221  2.1163 -1.7355
 9168SOL    HW239141   2.119   2.685   2.369 -2.6414  2.0218  0.5775
 9169SOL     OW39142   1.145   2.933   5.976 -0.2158  0.0221 -0.2825
 9169SOL    HW139143   1.197   2.857   6.000  0.1153  0.2594 -0.2527
 9169SOL    HW239144   1.135   2.907   5.884 -2.7719 -1.2320  0.3503
 9170SOL     OW39145   3.553   2.207  10.042 -1.1059 -0.1169  0.1077
 9170SOL    HW139146   3.485   2.213   9.975 -1.5865  1.0851  0.7058
 9170SOL    HW239147   3.525   2.130  10.092 -1.7265 -1.1802 -1.8794
 9171SOL     OW39148   2.525   4.289   8.660  0.4431  0.1778  0.1768
 9171SOL    HW139149   2.597   4.312   8.719 -0.3055 -0.0764  1.1951
 9171SOL    HW239150   2.526   4.346   8.583  1.2736  0.8223  0.6617
 9172SOL     OW39151   0.424   0.340   1.620  0.5142  0.7613  0.1721
 9172SOL    HW139152   0.508   0.372   1.653  1.3641  0.2438 -1.4852
 9172SOL    HW239153   0.451   0.274   1.556  2.2719  1.2849  0.3774
 9173SOL     OW39154   3.695   4.670   2.286 -0.3973  0.0639 -0.3755
 9173SOL    HW139155   3.686   4.682   2.380  0.3531  2.4409 -0.5978
 9173SOL    HW239156   3.733   0.014   2.261  0.2074 -0.1592 -0.2131
 9174SOL     OW39157   3.131   1.509  12.928 -0.4156 -0.2815  0.4316
 9174SOL    HW139158   3.169   1.595  12.912 -1.4273  0.0593 -0.1304
 9174SOL    HW239159   3.049   1.541  12.966 -1.2888 -0.4518 -1.3017
 9175SOL     OW39160   0.703   1.152   7.260 -0.1139  0.1314  0.1146
 9175SOL    HW139161   0.743   1.140   7.174  1.1133  1.9872  0.4148
 9175SOL    HW239162   0.783   1.194   7.291  0.8752 -1.7220  0.0654
 9176SOL     OW39163   3.087   4.500   5.250 -0.5283  0.2910  0.2073
 9176SOL    HW139164   3.084   4.407   5.273 -2.2538  0.5872  1.1925
 9176SOL    HW239165   3.174   4.518   5.284 -0.3736 -2.4907  1.2799
 9177SOL     OW39166   2.148   4.302   2.843  0.0837 -0.1026 -0.2644
 9177SOL    HW139167   2.085   4.372   2.861  0.3988  0.5983 -1.8430
 9177SOL    HW239168   2.161   4.316   2.749  1.1432 -1.4860 -0.3218
 9178SOL     OW39169   3.550   1.760  16.380  0.6706 -0.0770 -1.0047
 9178SOL    HW139170   3.586   1.807  16.455  1.7014 -0.8214 -1.0406
 9178SOL    HW239171   3.542   1.830  16.315 -0.1798  0.0212 -0.7921
 9179SOL     OW39172   2.440   0.889   3.038  0.7109 -1.1450  0.2033
 9179SOL    HW139173   2.426   0.868   3.130 -1.3536  0.1581  0.2008
 9179SOL    HW239174   2.380   0.826   2.997 -0.7092  0.0010  0.4856
 9180SOL     OW39175   2.561   3.077  13.500 -0.5049 -0.1322 -0.0306
 9180SOL    HW139176   2.617   3.008  13.535 -0.6718 -0.9252 -1.3282
 9180SOL    HW239177   2.629   3.133  13.462 -1.1407 -0.9077 -2.2868
 9181SOL     OW39178   3.860   3.845  16.093 -0.0378 -0.1779  0.3521
 9181SOL    HW139179   3.767   3.870  16.088  0.4062  1.2976 -0.5093
 9181SOL    HW239180   3.836   3.754  16.111 -0.9740  0.2993  1.5519
 9182SOL     OW39181   2.294   3.259   4.734 -0.3034 -0.0972 -0.4330
 9182SOL    HW139182   2.387   3.244   4.751 -1.0317 -2.6938  1.1932
 9182SOL    HW239183   2.255   3.172   4.728  1.1170 -0.7442 -0.1980
 9183SOL     OW39184   0.154   4.306  10.206 -0.5018 -0.1476 -0.0367
 9183SOL    HW139185   0.166   4.335  10.297  0.8461  0.9620 -0.5676
 9183SOL    HW239186   0.072   4.351  10.183 -0.4307  0.8267  1.5826
 9184SOL     OW39187   2.879   4.608  15.304  0.2797  0.4864 -0.4703
 9184SOL    HW139188   2.850   4.696  15.328  1.8220  0.1085  2.8454
 9184SOL    HW239189   2.871   4.612  15.209  2.5458  0.6164 -0.6580
 9185SOL     OW39190   2.037   1.903   7.383  0.6254 -0.1070 -0.0929
 9185SOL    HW139191   2.122   1.943   7.399  2.0974 -2.7678 -1.3910
 9185SOL    HW239192   2.047   1.864   7.296  1.4961  1.3022 -0.6408
 9186SOL     OW39193   2.861   2.099   5.545 -0.0256 -0.7113  0.0310
 9186SOL    HW139194   2.869   2.006   5.521 -0.6257 -0.3842 -1.4701
 9186SOL    HW239195   2.841   2.098   5.638  0.1805 -3.1632  0.0706
 9187SOL     OW39196   2.474   3.339  17.182  0.4119  0.0849 -0.5297
 9187SOL    HW139197   2.393   3.292  17.203 -0.7443  2.2239 -0.2151
 9187SOL    HW239198   2.477   3.321  17.088 -2.4971  0.4377 -0.7059
 9188SOL     OW39199   2.368   4.354   9.616 -0.0787 -0.3494 -0.3477
 9188SOL    HW139200   2.362   4.312   9.530  2.1586 -2.0827  0.3427
 9188SOL    HW239201   2.451   4.396   9.594  0.4280 -1.4537 -0.5187
 9189SOL     OW39202   1.149   2.312   9.035  0.2863 -0.2124  0.6160
 9189SOL    HW139203   1.074   2.268   9.075 -0.6311  0.0115 -0.8613
 9189SOL    HW239204   1.209   2.238   9.036 -0.6263 -0.9922 -3.5906
 9190SOL     OW39205   3.371   0.050  10.902 -0.1926 -0.1341 -0.1110
 9190SOL    HW139206   3.313   4.714  10.901  1.3749 -1.3347  0.3796
 9190SOL    HW239207   3.450   0.012  10.863  0.7320  0.7513  0.9164
 9191SOL     OW39208   4.499   0.639  17.307 -0.1569 -0.4879  0.4074
 9191SOL    HW139209   4.439   0.593  17.365 -0.4335  0.3885  0.8141
 9191SOL    HW239210   4.451   0.655  17.226  0.8735 -0.8101 -0.2731
 9192SOL     OW39211   0.334   0.436   5.632 -0.5107  0.6206  0.3147
 9192SOL    HW139212   0.355   0.402   5.719  1.3111  1.8757  0.3647
 9192SOL    HW239213   0.251   0.483   5.646 -0.2266  1.5757 -1.2272
 9193SOL     OW39214   3.298   3.554   3.664  0.3306  0.5014 -0.8528
 9193SOL    HW139215   3.274   3.632   3.614 -0.0504  0.4842 -0.6908
 9193SOL    HW239216   3.351   3.500   3.605 -1.1996 -1.9842  0.0431
 9194SOL     OW39217   4.208   2.171   3.050 -0.4821 -0.5574  0.1693
 9194SOL    HW139218   4.148   2.229   3.097  0.0864  0.8619 -0.8570
 9194SOL    HW239219   4.288   2.204   3.091 -0.2790 -0.0346 -0.6543
 9195SOL     OW39220   3.241   0.717   6.155 -0.7003 -0.2701  0.3236
 9195SOL    HW139221   3.236   0.628   6.188 -2.1180 -0.2142  0.2594
 9195SOL    HW239222   3.311   0.701   6.091 -2.1247  1.1115 -1.6186
 9196SOL     OW39223   2.412   4.481  11.898 -0.1959  0.1018 -0.2469
 9196SOL    HW139224   2.345   4.544  11.924 -0.4356 -0.5491  0.7091
 9196SOL    HW239225   2.484   4.529  11.858 -0.7777 -0.4906 -2.0453
 9197SOL     OW39226   2.778   3.973   4.326 -0.2112 -0.3961  0.3430
 9197SOL    HW139227   2.777   4.035   4.398  0.5090 -1.3508  1.1810
 9197SOL    HW239228   2.764   4.023   4.246  0.8781 -1.3841 -0.4654
 9198SOL     OW39229   0.612   3.434  11.818  0.3094 -0.2789  0.4881
 9198SOL    HW139230   0.700   3.437  11.856  0.3313 -0.9161  0.4871
 9198SOL    HW239231   0.589   3.526  11.825 -0.6886 -0.4205 -0.8383
 9199SOL     OW39232   1.283   3.894  16.261  0.5124 -0.1663 -0.6067
 9199SOL    HW139233   1.359   3.836  16.249 -0.7764 -2.0201  0.2770
 9199SOL    HW239234   1.284   3.933  16.174 -0.1246  1.0006 -0.0939
 9200SOL     OW39235   4.231   0.553   6.747  0.7832  0.2550 -0.1696
 9200SOL    HW139236   4.317   0.517   6.768  0.3506 -0.4640  0.3542
 9200SOL    HW239237   4.233   0.547   6.651 -0.7320 -2.7090 -0.0110
 9201SOL     OW39238   3.520   3.503   1.477 -0.4103 -0.6455 -0.5928
 9201SOL    HW139239   3.515   3.410   1.501 -1.4819 -0.1506  1.0796
 9201SOL    HW239240   3.601   3.525   1.522  1.3987 -1.0941 -3.6063
 9202SOL     OW39241   0.928   2.216   9.191  0.0625  0.0263  0.3564
 9202SOL    HW139242   0.891   2.128   9.184 -2.4807  1.2511 -1.7149
 9202SOL    HW239243   0.956   2.225   9.282 -0.5505  0.2103  0.5255
 9203SOL     OW39244   1.760   0.836   2.508 -0.3380 -0.3448 -0.4803
 9203SOL    HW139245   1.784   0.747   2.533  0.0775 -0.5105 -1.4533
 9203SOL    HW239246   1.840   0.874   2.469 -2.1225  1.9449 -1.9367
 9204SOL     OW39247   3.527   1.308  11.649  0.2823  0.5057  0.3617
 9204SOL    HW139248   3.451   1.362  11.670 -1.2801 -1.5969  0.0665
 9204SOL    HW239249   3.490   1.237  11.596  0.9252 -0.3255  1.0308
 9205SOL     OW39250   0.527   1.647   2.961  1.2820  0.4930  0.6126
 9205SOL    HW139251   0.471   1.619   3.033 -1.9648 -2.5214 -3.0693
 9205SOL    HW239252   0.550   1.558   2.933  1.3240  0.7463 -0.1585
 9206SOL     OW39253   1.034   1.354   2.103 -0.3249 -0.7364  0.2692
 9206SOL    HW139254   1.111   1.328   2.052  0.6601  0.7230  1.0365
 9206SOL    HW239255   1.023   1.272   2.151 -0.7160  0.0855  1.5655
 9207SOL     OW39256   0.136   2.980   6.581 -0.4766  0.4646 -0.0848
 9207SOL    HW139257   0.147   2.922   6.505  0.2129  0.9620 -0.3662
 9207SOL    HW239258   0.198   3.050   6.559  1.2871 -0.5288  1.6962
 9208SOL     OW39259   2.669   2.015   4.943 -0.1391 -0.0114  0.2038
 9208SOL    HW139260   2.581   2.022   4.906  0.4810  0.6665 -1.1188
 9208SOL    HW239261   2.709   2.097   4.913  0.8552 -1.4203 -2.2698
 9209SOL     OW39262   4.735   0.495  17.029  0.2256 -0.1527  0.2806
 9209SOL    HW139263   4.671   0.434  16.993  0.1070 -1.2951  2.4030
 9209SOL    HW239264   4.715   0.562  16.964 -0.7150 -0.1667  0.5481
 9210SOL     OW39265   1.223   3.284   8.528 -0.5255 -0.5974  0.2939
 9210SOL    HW139266   1.137   3.253   8.501 -0.1618 -1.7062  0.4039
 9210SOL    HW239267   1.271   3.212   8.486  2.4829 -0.0672  2.8142
 9211SOL     OW39268   3.631   1.714  11.872 -0.2145 -0.4736  0.8692
 9211SOL    HW139269   3.655   1.684  11.784 -1.4381  1.1270  0.0005
 9211SOL    HW239270   3.716   1.720  11.915 -0.7964  0.5522  1.8550
 9212SOL     OW39271   3.957   4.400   9.622 -0.3020  0.4928 -0.5348
 9212SOL    HW139272   4.005   4.429   9.544 -2.1094 -1.2503 -2.3027
 9212SOL    HW239273   3.882   4.459   9.614 -0.3540  0.3504 -1.0743
 9213SOL     OW39274   1.641   1.800  15.259 -0.5952  0.2154 -0.1478
 9213SOL    HW139275   1.700   1.808  15.184 -1.4516  1.8411 -0.6571
 9213SOL    HW239276   1.596   1.721  15.229  0.8342  0.2965 -2.4450
 9214SOL     OW39277   4.643   0.858   7.023  1.2192 -0.6540  0.4135
 9214SOL    HW139278   4.687   0.941   7.003  0.6602 -0.4430  0.0638
 9214SOL    HW239279   4.608   0.841   6.935  1.4305 -1.8373  0.5587
 9215SOL     OW39280   4.466   4.170   9.309  0.0456  0.1739 -0.4225
 9215SOL    HW139281   4.469   4.082   9.345 -2.3049  0.6911  1.0236
 9215SOL    HW239282   4.458   4.162   9.214 -1.4974 -1.7028 -0.1282
 9216SOL     OW39283   0.995   0.745  12.153  0.1379 -0.6936  0.2805
 9216SOL    HW139284   1.072   0.754  12.210  1.3518 -0.6283 -1.3577
 9216SOL    HW239285   1.027   0.697  12.077  0.5580  1.7924 -1.1450
 9217SOL     OW39286   0.737   1.079  14.987  0.0386  0.0837 -0.0491
 9217SOL    HW139287   0.705   1.055  14.901  1.4197 -1.5626 -0.1027
 9217SOL    HW239288   0.820   1.032  14.991  1.1977  2.1042 -0.2752
 9218SOL     OW39289   2.158   0.307   2.266 -0.1372 -0.1330  0.6450
 9218SOL    HW139290   2.100   0.238   2.234  0.5556 -0.9399  1.1015
 9218SOL    HW239291   2.113   0.335   2.345 -0.1996 -0.7231  0.8196
 9219SOL     OW39292   3.601   2.618   7.088  0.1011  0.1900  0.2246
 9219SOL    HW139293   3.650   2.647   7.011 -0.3833  0.6545  0.0927
 9219SOL    HW239294   3.644   2.668   7.157 -0.7074 -0.9096  1.5188
 9220SOL     OW39295   2.566   2.348   5.766  0.1990 -0.2321  0.4753
 9220SOL    HW139296   2.627   2.405   5.719 -2.1756  1.4842 -0.5381
 9220SOL    HW239297   2.615   2.269   5.743 -0.7202 -0.6710  0.0029
 9221SOL     OW39298   2.237   4.510   6.671 -0.0317  0.2345 -0.4414
 9221SOL    HW139299   2.155   4.503   6.623  0.1186 -0.6987 -0.5581
 9221SOL    HW239300   2.213   4.477   6.757  0.2586 -1.2426 -0.9205
 9222SOL     OW39301   0.811   3.702   0.726  0.0486  0.2306  0.2818
 9222SOL    HW139302   0.772   3.615   0.715  3.1656 -0.8799 -1.8851
 9222SOL    HW239303   0.894   3.688   0.770 -1.3672 -1.2585  2.4952
 9223SOL     OW39304   3.070   1.043  12.174 -0.0075  0.3365  0.4411
 9223SOL    HW139305   2.982   1.080  12.184  0.3924  1.6801 -0.9701
 9223SOL    HW239306   3.121   1.103  12.228 -1.7898  1.4950  0.8529
 9224SOL     OW39307   0.626   1.134   8.769 -0.0522  0.0354  0.6345
 9224SOL    HW139308   0.574   1.134   8.689 -0.9676  1.7654  1.2390
 9224SOL    HW239309   0.648   1.226   8.781 -0.4744  0.6411 -3.4882
 9225SOL     OW39310   2.011   0.396   6.519 -0.4120 -0.3261 -1.0466
 9225SOL    HW139311   2.019   0.382   6.614 -1.6102  0.2826 -0.8637
 9225SOL    HW239312   2.041   0.311   6.488  3.5274  0.4975  0.4559
 9226SOL     OW39313   4.378   0.989  12.067 -0.5018 -0.4446 -0.2873
 9226SOL    HW139314   4.288   0.974  12.036 -0.7409  1.0074 -0.2900
 9226SOL    HW239315   4.388   1.079  12.037  2.1152 -0.3927  0.7888
 9227SOL     OW39316   1.038   0.680   3.527 -0.5750 -0.7503  0.4906
 9227SOL    HW139317   1.047   0.750   3.462  2.0249 -1.4771  0.0594
 9227SOL    HW239318   1.048   0.730   3.608  2.0976 -3.5254  1.8780
 9228SOL     OW39319   2.384   0.870   9.077  0.2923  0.0169 -0.1779
 9228SOL    HW139320   2.327   0.861   9.000 -0.4896 -1.8261  0.5895
 9228SOL    HW239321   2.328   0.815   9.132  0.8720 -1.0499 -0.6587
 9229SOL     OW39322   4.671   3.514   1.233  0.2934 -0.2586 -0.0227
 9229SOL    HW139323   0.020   3.483   1.243  0.2383 -0.5498 -0.4694
 9229SOL    HW239324   4.665   3.588   1.294 -2.3861 -2.2930  2.1693
 9230SOL     OW39325   4.191   3.018  12.985  0.2054 -0.5222 -0.2804
 9230SOL    HW139326   4.200   3.026  12.891 -0.1553 -0.4015 -0.3061
 9230SOL    HW239327   4.124   2.950  12.991 -0.1485 -0.3303 -2.2095
 9231SOL     OW39328   2.596   0.753   8.895  0.7628  0.4677  0.4269
 9231SOL    HW139329   2.518   0.768   8.949  0.5917  0.3533  0.2151
 9231SOL    HW239330   2.622   0.839   8.862  1.4709 -0.8690 -2.5424
 9232SOL     OW39331   1.501   2.317  15.477 -0.1540 -0.7244 -0.1463
 9232SOL    HW139332   1.481   2.276  15.392 -0.3428  1.5802 -1.2185
 9232SOL    HW239333   1.475   2.241  15.529  1.0425 -2.1912 -1.6719
 9233SOL     OW39334   0.881   1.802   5.931  0.3963  0.2492 -0.0579
 9233SOL    HW139335   0.876   1.779   6.023 -0.4698  0.6468 -0.0107
 9233SOL    HW239336   0.796   1.771   5.898 -0.1902  4.4088 -2.4902
 9234SOL     OW39337   1.603   0.394  15.703 -0.2816  0.0335 -0.9712
 9234SOL    HW139338   1.602   0.430  15.615 -1.8655 -1.3792 -1.5259
 9234SOL    HW239339   1.589   0.300  15.686  0.6356 -0.6239  1.8630
 9235SOL     OW39340   1.121   3.684   8.733  0.2472  0.1669  0.4165
 9235SOL    HW139341   1.165   3.599   8.747  0.4329 -0.3697 -3.4161
 9235SOL    HW239342   1.190   3.738   8.696  0.4909 -0.4038  0.0334
 9236SOL     OW39343   1.487   3.389   7.383  0.1685  0.4722 -0.4527
 9236SOL    HW139344   1.481   3.297   7.360  0.1601 -0.2016  2.1868
 9236SOL    HW239345   1.392   3.399   7.389  0.0226 -1.3701  0.3126
 9237SOL     OW39346   1.540   2.533   5.932 -0.0355  0.5669  0.5053
 9237SOL    HW139347   1.527   2.438   5.932 -1.5586  0.7642  0.5632
 9237SOL    HW239348   1.613   2.554   5.989  0.8507 -0.1659 -0.3594
 9238SOL     OW39349   4.272   2.672   8.549 -0.3360 -0.1779  0.1214
 9238SOL    HW139350   4.278   2.590   8.599  1.4127  1.5153  2.6893
 9238SOL    HW239351   4.213   2.653   8.476 -1.0275 -3.8682  1.6335
 9239SOL     OW39352   3.917   4.599   3.585 -0.0948  0.4005 -0.2304
 9239SOL    HW139353   3.929   4.595   3.680 -0.7671 -0.4958 -0.1771
 9239SOL    HW239354   3.825   4.623   3.574  0.4152  2.6658  0.5204
 9240SOL     OW39355   1.565   2.710   1.748 -0.0539  0.4038  0.0516
 9240SOL    HW139356   1.563   2.726   1.842  1.0470  0.8711 -0.0065
 9240SOL    HW239357   1.511   2.783   1.718  0.5295  0.1360 -1.6640
 9241SOL     OW39358   2.466   3.841  10.378  0.0127  0.0681 -0.0356
 9241SOL    HW139359   2.405   3.768  10.389  0.5306 -0.2135  0.9243
 9241SOL    HW239360   2.420   3.906  10.325 -1.7023 -0.4376  0.8512
 9242SOL     OW39361   4.528   3.362   5.487 -0.1405 -0.1789 -0.5439
 9242SOL    HW139362   4.606   3.307   5.486 -1.1807 -1.6367 -1.9425
 9242SOL    HW239363   4.477   3.318   5.554  0.9569 -0.3758  0.1553
 9243SOL     OW39364   1.754   1.323   3.476 -0.1480  0.0977 -0.0131
 9243SOL    HW139365   1.670   1.360   3.447 -0.5086 -0.1361  0.7286
 9243SOL    HW239366   1.786   1.379   3.546 -1.5338 -0.0951  0.7760
 9244SOL     OW39367   1.390   0.872  17.445 -0.8542  0.8456 -0.6222
 9244SOL    HW139368   1.403   0.888  17.539  1.0317  0.2857 -0.7841
 9244SOL    HW239369   1.469   0.915  17.412  0.6608 -0.3840  1.4305
 9245SOL     OW39370   2.056   3.581  15.268 -0.2772  0.4090  0.0364
 9245SOL    HW139371   1.964   3.581  15.240 -0.2956  0.1906  0.0978
 9245SOL    HW239372   2.073   3.666  15.307  0.6636 -1.3999  3.5478
 9246SOL     OW39373   3.319   1.035   7.627  0.2772 -0.4154  0.2787
 9246SOL    HW139374   3.242   1.084   7.658  2.6652  3.9050 -0.6011
 9246SOL    HW239375   3.371   1.109   7.595  0.1608 -0.0143  1.0319
 9247SOL     OW39376   3.255   0.868   3.830  0.3824  0.2748  0.4556
 9247SOL    HW139377   3.308   0.804   3.781  2.5092  0.8531  2.0517
 9247SOL    HW239378   3.172   0.858   3.781  0.0598 -1.0721  1.2865
 9248SOL     OW39379   1.505   2.752   8.133  0.0990  0.5023  0.2772
 9248SOL    HW139380   1.540   2.678   8.083 -0.8414 -1.0929  1.9724
 9248SOL    HW239381   1.526   2.823   8.073 -2.1796 -0.3862 -1.5790
 9249SOL     OW39382   4.449   1.384   4.100  0.0081  1.0552  0.1516
 9249SOL    HW139383   4.452   1.306   4.155  1.1172  1.1755  0.2451
 9249SOL    HW239384   4.356   1.409   4.107 -0.4217 -0.5613  0.2601
 9250SOL     OW39385   0.800   2.120   6.535  0.2873  0.0974 -0.8675
 9250SOL    HW139386   0.875   2.180   6.530 -1.3981  1.9359 -3.8740
 9250SOL    HW239387   0.754   2.138   6.453 -0.3788 -1.0778 -0.7569
 9251SOL     OW39388   2.750   0.952   3.258 -0.0280 -0.0923 -0.7616
 9251SOL    HW139389   2.784   0.993   3.338 -0.5595  0.7640 -0.9720
 9251SOL    HW239390   2.665   0.928   3.295 -0.9627  1.1491 -2.0680
 9252SOL     OW39391   3.798   2.061   8.723 -0.2640  0.0930  0.3486
 9252SOL    HW139392   3.709   2.037   8.695  0.7257 -1.0166 -1.8670
 9252SOL    HW239393   3.789   2.144   8.769  0.4492 -0.4068  1.3939
 9253SOL     OW39394   3.425   1.147  10.015 -0.5750  0.2121 -0.3137
 9253SOL    HW139395   3.433   1.242  10.016 -2.6407  0.3837  1.4891
 9253SOL    HW239396   3.508   1.110   9.984 -0.1727  1.0218 -0.1994
 9254SOL     OW39397   0.239   3.095   8.061  0.5118  0.3110  0.3889
 9254SOL    HW139398   0.167   3.153   8.035  1.0159 -0.3510 -2.5474
 9254SOL    HW239399   0.304   3.158   8.032 -0.4376  0.9579 -0.3409
 9255SOL     OW39400   3.334   3.311   5.944  0.0198 -0.4615 -0.6054
 9255SOL    HW139401   3.269   3.253   5.906  1.2947 -0.7120 -2.4161
 9255SOL    HW239402   3.303   3.323   6.034 -1.6927 -1.3028 -1.0924
 9256SOL     OW39403   4.700   4.103   9.645  0.0127 -0.4676 -0.1360
 9256SOL    HW139404   4.676   4.024   9.693  1.2664  0.4188  1.9438
 9256SOL    HW239405   0.039   4.126   9.692 -2.9002  2.5053  3.3082
 9257SOL     OW39406   0.400   0.329   3.207  0.1629 -0.6256 -0.0677
 9257SOL    HW139407   0.335   0.400   3.201  0.8505  0.0490  0.4427
 9257SOL    HW239408   0.427   0.325   3.298  0.7656  1.6470 -0.1274
 9258SOL     OW39409   2.217   3.744   2.872 -0.4347 -0.0278  0.0740
 9258SOL    HW139410   2.220   3.648   2.875 -2.7372 -0.0851  0.6330
 9258SOL    HW239411   2.166   3.747   2.791 -1.3706 -1.7387  0.6086
 9259SOL     OW39412   1.762   4.271  10.558 -0.1398 -0.0278 -0.5087
 9259SOL    HW139413   1.715   4.315  10.487 -1.1235  0.6827  0.5911
 9259SOL    HW239414   1.755   4.178  10.537 -2.1267 -0.2115  1.0452
 9260SOL     OW39415   1.018   0.039   6.265 -0.2029 -0.2763  0.5111
 9260SOL    HW139416   0.949   0.008   6.206  0.4670 -0.9878  0.1025
 9260SOL    HW239417   0.967   0.066   6.342  1.7638 -1.6325  2.3015
 9261SOL     OW39418   3.196   4.568  10.862 -0.2189 -0.2106  0.2953
 9261SOL    HW139419   3.255   4.502  10.899 -0.0440  0.1617  0.6804
 9261SOL    HW239420   3.149   4.521  10.793 -0.3073 -0.0973  0.2768
 9262SOL     OW39421   0.657   3.266  16.119 -0.0721  0.5982  0.0711
 9262SOL    HW139422   0.621   3.342  16.074 -1.0188 -0.4911 -0.9934
 9262SOL    HW239423   0.611   3.269  16.203  0.0109 -0.9922  0.1820
 9263SOL     OW39424   0.960   4.498   2.442  0.1273  0.5910  0.3052
 9263SOL    HW139425   1.039   4.449   2.420 -0.7502 -0.7208  0.0842
 9263SOL    HW239426   0.933   4.467   2.529 -0.3906  0.8267  0.2318
 9264SOL     OW39427   1.848   1.194   3.916 -0.6767 -0.3775 -0.4893
 9264SOL    HW139428   1.881   1.147   3.840 -4.3267 -1.2346 -1.5523
 9264SOL    HW239429   1.849   1.286   3.890 -0.6237 -0.2812 -0.1438
 9265SOL     OW39430   2.449   0.846  10.169  0.1319 -0.5676 -0.1765
 9265SOL    HW139431   2.361   0.811  10.186 -0.4881  1.4479  0.7452
 9265SOL    HW239432   2.478   0.765  10.125 -0.0167  0.4357 -2.1270
 9266SOL     OW39433   2.919   2.979   1.257 -0.8588  0.4657  0.0846
 9266SOL    HW139434   2.911   3.070   1.228  0.3987 -0.0557 -1.9063
 9266SOL    HW239435   2.938   2.927   1.179  0.4690 -0.2404  0.8882
 9267SOL     OW39436   1.888   3.530   4.397 -0.1186 -0.0471 -0.1374
 9267SOL    HW139437   1.887   3.511   4.491 -1.2251 -0.3838 -0.2239
 9267SOL    HW239438   1.806   3.578   4.396  0.7569  1.4517  0.6548
 9268SOL     OW39439   3.869   1.579   5.247 -0.7520 -0.3391 -0.2751
 9268SOL    HW139440   3.811   1.534   5.307 -1.3845  1.6671  0.6125
 9268SOL    HW239441   3.850   1.545   5.159 -2.2363  0.8488 -0.4129
 9269SOL     OW39442   0.014   1.125   8.493 -0.4388 -0.1120 -0.2350
 9269SOL    HW139443   4.734   1.091   8.580 -0.0282 -1.0858 -0.5198
 9269SOL    HW239444   0.104   1.156   8.505 -0.4825 -0.4414  0.9575
 9270SOL     OW39445   0.610   0.329   7.827  0.0680  0.3085  0.0159
 9270SOL    HW139446   0.657   0.259   7.781  0.6567  0.5429  0.2648
 9270SOL    HW239447   0.537   0.278   7.862  0.3822 -0.2603 -0.1568
 9271SOL     OW39448   2.689   0.463   1.583  0.6441  0.5127 -0.0968
 9271SOL    HW139449   2.784   0.471   1.596  0.5309  1.8968 -0.1542
 9271SOL    HW239450   2.692   0.438   1.491 -0.7071  0.4935 -0.1242
 9272SOL     OW39451   2.023   2.586   5.763  0.0698 -0.9246 -0.3425
 9272SOL    HW139452   2.098   2.593   5.821  0.4281  0.4570 -0.9664
 9272SOL    HW239453   2.058   2.534   5.691  1.2146 -1.5685  0.6875
 9273SOL     OW39454   1.030   3.274  17.000  0.2976 -0.0849 -0.2946
 9273SOL    HW139455   0.957   3.331  17.021  0.1284 -0.1845 -0.6071
 9273SOL    HW239456   1.001   3.226  16.922  0.1655  0.7989 -0.7992
 9274SOL     OW39457   0.678   2.592   4.201  0.1855 -0.2808 -0.2284
 9274SOL    HW139458   0.732   2.656   4.247 -0.5121  0.1811 -0.0425
 9274SOL    HW239459   0.675   2.521   4.264  0.0679 -0.1179 -0.0532
 9275SOL     OW39460   2.965   3.625   2.822 -0.5413  0.8573 -0.0979
 9275SOL    HW139461   2.928   3.701   2.868 -1.5079  0.9633 -1.0370
 9275SOL    HW239462   2.906   3.622   2.746  0.3204  1.4273 -0.7853
 9276SOL     OW39463   1.937   3.800   3.718  0.1652  0.3360 -0.2736
 9276SOL    HW139464   1.973   3.845   3.794  0.9101  1.2130 -1.1621
 9276SOL    HW239465   1.985   3.852   3.654  0.5160  1.4084  0.8568
 9277SOL     OW39466   3.836   3.087   6.412  1.1805  0.4075  0.5908
 9277SOL    HW139467   3.755   3.055   6.453  0.6700  0.9341 -0.0197
 9277SOL    HW239468   3.815   3.167   6.365  0.9366 -0.0801 -0.1283
 9278SOL     OW39469   2.697   4.706   5.777  0.3144 -0.6864  0.1999
 9278SOL    HW139470   2.621   4.650   5.765 -0.7119  1.1954 -2.0157
 9278SOL    HW239471   2.760   4.643   5.813 -0.3073 -1.5334 -0.2077
 9279SOL     OW39472   3.217   0.963  13.683  0.0894  0.4949 -0.4916
 9279SOL    HW139473   3.256   1.031  13.629  1.6157 -0.0883 -0.1244
 9279SOL    HW239474   3.155   1.011  13.738  1.7563 -0.2716  2.0896
 9280SOL     OW39475   1.707   0.724   6.811  0.0856  0.9661  0.2562
 9280SOL    HW139476   1.738   0.671   6.737 -2.1859  1.1297 -0.8342
 9280SOL    HW239477   1.788   0.726   6.862 -0.8678  0.3619  1.7880
 9281SOL     OW39478   1.256   2.772   5.516 -0.4447  0.2342  0.3418
 9281SOL    HW139479   1.347   2.768   5.546  0.0838 -0.1574 -1.3004
 9281SOL    HW239480   1.222   2.834   5.581 -0.2531 -1.7725  2.3415
 9282SOL     OW39481   1.946   3.604   6.275 -0.4987 -0.3923 -0.0109
 9282SOL    HW139482   1.917   3.690   6.244  2.9378  1.5421  2.1086
 9282SOL    HW239483   1.909   3.542   6.211 -3.7398  0.4159  1.0902
 9283SOL     OW39484   3.331   1.592   4.066  0.0559 -0.4147  0.3217
 9283SOL    HW139485   3.340   1.503   4.099 -0.7001 -0.1239  1.3285
 9283SOL    HW239486   3.343   1.640   4.148  2.4261  0.5198 -0.5921
 9284SOL     OW39487   1.483   3.959   3.571 -0.4787  0.3054 -0.1340
 9284SOL    HW139488   1.447   3.938   3.485  0.2322 -0.1444 -0.3156
 9284SOL    HW239489   1.571   3.981   3.543  0.8267  0.7322  4.2885
 9285SOL     OW39490   1.846   1.901   6.504 -0.0484 -0.0675 -0.4501
 9285SOL    HW139491   1.868   1.858   6.587 -2.1605  0.1463  0.1978
 9285SOL    HW239492   1.839   1.989   6.541 -2.5980 -1.1107  1.5026
 9286SOL     OW39493   4.254   2.129   8.408  0.3516  0.0348 -0.1140
 9286SOL    HW139494   4.203   2.205   8.382 -0.8939 -1.1912 -1.2769
 9286SOL    HW239495   4.237   2.063   8.340  0.4519  0.3051 -0.3963
 9287SOL     OW39496   3.544   3.420   4.350  0.3309 -0.9738  0.2703
 9287SOL    HW139497   3.584   3.502   4.322  0.2550 -1.5588 -1.5101
 9287SOL    HW239498   3.492   3.443   4.427  2.0508 -1.4421  1.5808
 9288SOL     OW39499   2.412   4.413   2.954 -0.3818  0.4261 -0.3013
 9288SOL    HW139500   2.352   4.393   2.882  0.7904 -1.4103 -0.7760
 9288SOL    HW239501   2.395   4.336   3.008  0.1708 -0.0517 -0.8039
 9289SOL     OW39502   3.809   4.702   8.316  0.4339  0.1297 -0.3951
 9289SOL    HW139503   3.743   0.028   8.336 -2.4360 -2.4523 -1.1934
 9289SOL    HW239504   3.864   0.024   8.271 -0.3855  0.3912 -1.0302
 9290SOL     OW39505   1.625   0.687   4.258  0.3583  0.1932 -0.3730
 9290SOL    HW139506   1.582   0.740   4.326  1.3437 -0.7601  1.0095
 9290SOL    HW239507   1.626   0.751   4.187  1.8927  1.1350  0.4911
 9291SOL     OW39508   3.848   1.604   6.543 -0.3880 -0.7350 -0.0776
 9291SOL    HW139509   3.759   1.612   6.577  0.7927 -0.2961  2.9001
 9291SOL    HW239510   3.880   1.527   6.589 -0.4079 -1.4562 -1.2533
 9292SOL     OW39511   4.320   2.742   6.898 -0.1391 -0.5761 -0.3577
 9292SOL    HW139512   4.250   2.680   6.878 -1.9475  0.5825  2.5095
 9292SOL    HW239513   4.265   2.819   6.888  0.0070 -0.4440 -0.1466
 9293SOL     OW39514   2.914   4.452   1.711  0.5402  0.4157 -0.4373
 9293SOL    HW139515   2.907   4.357   1.702  1.1796  0.4815 -1.6337
 9293SOL    HW239516   2.836   4.475   1.661  0.1146  0.0151  0.0459
 9294SOL     OW39517   3.048   0.018   3.945 -0.5031  0.5427  0.1729
 9294SOL    HW139518   2.993   0.055   4.013  0.2020  0.5917  0.7140
 9294SOL    HW239519   2.981   0.008   3.877 -0.7784  0.1463  0.4990
 9295SOL     OW39520   0.504   3.875   7.859  0.0074  0.5195  0.1835
 9295SOL    HW139521   0.423   3.867   7.809 -0.3562 -0.0901  0.8780
 9295SOL    HW239522   0.466   3.842   7.940 -0.0620  1.0370  0.3663
 9296SOL     OW39523   1.705   1.148   7.039 -0.2069  0.6933  0.1018
 9296SOL    HW139524   1.695   1.070   6.985  3.7072 -0.4909  1.1203
 9296SOL    HW239525   1.635   1.130   7.102 -0.2259  0.6964  0.0818
 9297SOL     OW39526   2.097   3.119   9.630 -0.2179  0.0347  0.3313
 9297SOL    HW139527   2.015   3.146   9.672 -1.6329 -0.5880 -2.0477
 9297SOL    HW239528   2.138   3.067   9.699 -2.5442  0.7487  2.2562
 9298SOL     OW39529   1.235   3.088  17.111 -0.2701  0.0219  0.4015
 9298SOL    HW139530   1.191   3.022  17.164  0.8153 -0.3702  0.8136
 9298SOL    HW239531   1.158   3.120  17.064 -0.1304 -0.0526  0.1213
 9299SOL     OW39532   1.324   2.521   1.744 -0.2480  0.4074  0.1228
 9299SOL    HW139533   1.284   2.607   1.736  1.3918  0.9506 -2.0912
 9299SOL    HW239534   1.413   2.548   1.766  1.4421 -2.5111 -3.2039
 9300SOL     OW39535   3.231   1.646   4.995 -0.3540 -0.4272 -0.1835
 9300SOL    HW139536   3.227   1.642   4.899  1.4906 -0.7616 -0.2489
 9300SOL    HW239537   3.167   1.716   5.008  3.2780  2.7748  0.1958
 9301SOL     OW39538   4.006   1.610   8.263 -0.2166 -0.2824 -0.4163
 9301SOL    HW139539   3.914   1.624   8.283 -0.0428 -0.3753  0.4242
 9301SOL    HW239540   4.060   1.636   8.338 -0.8380  0.8494 -0.3570
 9302SOL     OW39541   2.820   4.141   9.931 -0.3595 -0.3588 -0.1868
 9302SOL    HW139542   2.744   4.195   9.953 -1.8608 -1.9224 -1.5275
 9302SOL    HW239543   2.871   4.218   9.907  0.6612 -0.6906  0.9265
 9303SOL     OW39544   2.857   1.500   4.647 -0.1837 -0.6558  0.2082
 9303SOL    HW139545   2.853   1.595   4.635  0.1288 -1.1224 -3.4659
 9303SOL    HW239546   2.935   1.497   4.703  1.4251  1.2317 -1.9058
 9304SOL     OW39547   3.411   2.658   2.685  0.0607  0.3832 -0.3805
 9304SOL    HW139548   3.442   2.568   2.671  2.4837  0.9609  1.4108
 9304SOL    HW239549   3.479   2.706   2.732 -1.0313  0.4882  1.0800
 9305SOL     OW39550   2.710   2.554   7.782  0.1061  0.6530  0.0211
 9305SOL    HW139551   2.691   2.631   7.835 -0.5690  0.9705 -0.6890
 9305SOL    HW239552   2.660   2.571   7.702  0.8907 -1.3906 -0.9083
 9306SOL     OW39553   2.304   2.417   5.186 -0.2961  0.4916  0.1386
 9306SOL    HW139554   2.333   2.456   5.269  1.7349 -0.7587 -0.0004
 9306SOL    HW239555   2.363   2.342   5.197 -0.7103 -0.1738 -2.3127
 9307SOL     OW39556   4.494   4.120  11.566  0.0580 -0.1329 -0.3744
 9307SOL    HW139557   4.410   4.140  11.607  0.7457 -3.1810  2.5528
 9307SOL    HW239558   4.534   4.207  11.562  1.0482 -0.6162 -0.9713
 9308SOL     OW39559   1.589   2.444   6.543 -0.0200 -0.4012  0.5936
 9308SOL    HW139560   1.532   2.404   6.609 -0.4885  2.4434  1.9310
 9308SOL    HW239561   1.551   2.532   6.554  1.8584  0.5751 -0.8058
 9309SOL     OW39562   2.066   0.088   8.177  0.3639  0.3646  0.1307
 9309SOL    HW139563   2.047   0.182   8.172 -1.0680 -0.0614 -2.3035
 9309SOL    HW239564   2.153   0.086   8.219 -0.0116 -0.2293  0.8803
 9310SOL     OW39565   1.615   3.865   0.755 -0.2017 -0.1421 -0.1302
 9310SOL    HW139566   1.600   3.783   0.708  0.8407 -0.6023  0.3298
 9310SOL    HW239567   1.635   3.841   0.846 -0.2447 -3.0005 -0.8651
 9311SOL     OW39568   0.126   4.351   3.351  0.2244  0.1821  0.1152
 9311SOL    HW139569   0.074   4.336   3.430  2.5112 -0.9273  1.4052
 9311SOL    HW239570   0.066   4.341   3.278 -0.9308 -0.5487  1.1685
 9312SOL     OW39571   1.922   2.782   4.014  0.3990 -0.2164 -0.1519
 9312SOL    HW139572   1.916   2.853   4.077  0.0479  0.7232 -1.2578
 9312SOL    HW239573   1.965   2.715   4.067  1.4806  1.1160  0.6409
 9313SOL     OW39574   1.619   3.185  10.492  0.0268  0.4622 -0.8694
 9313SOL    HW139575   1.577   3.267  10.467 -1.9023 -1.1753 -2.9582
 9313SOL    HW239576   1.620   3.141  10.407 -1.1358 -0.3358 -0.4617
 9314SOL     OW39577   1.884   2.313   8.482  0.0271 -0.4416  0.2217
 9314SOL    HW139578   1.907   2.220   8.474 -0.6774 -0.5575 -0.4554
 9314SOL    HW239579   1.835   2.319   8.564 -2.3304  0.9474 -1.2725
 9315SOL     OW39580   1.135   1.822   3.166 -0.0800  0.0698  0.3039
 9315SOL    HW139581   1.078   1.898   3.164  2.5369  1.9710 -2.1591
 9315SOL    HW239582   1.114   1.781   3.082 -1.1196 -2.2576  1.6930
 9316SOL     OW39583   4.510   1.000  14.882  0.5425 -0.3703  0.3000
 9316SOL    HW139584   4.581   0.949  14.921  0.0767 -0.5313  0.9326
 9316SOL    HW239585   4.469   1.040  14.958 -2.7235 -2.5418 -0.3349
 9317SOL     OW39586   0.409   3.372   2.897  0.0107 -0.2619  0.5918
 9317SOL    HW139587   0.427   3.393   2.989 -3.2274  0.3861  1.0702
 9317SOL    HW239588   0.316   3.349   2.897 -0.7155  2.7034  0.7038
 9318SOL     OW39589   1.970   4.170   4.208 -0.5126 -0.1301 -0.1648
 9318SOL    HW139590   1.994   4.077   4.207 -0.4762 -0.1171 -1.0019
 9318SOL    HW239591   1.961   4.186   4.301 -0.9208 -3.1064  0.3073
 9319SOL     OW39592   3.066   1.255   5.757 -0.6711 -0.1119  0.2687
 9319SOL    HW139593   3.083   1.164   5.785  1.9659  0.7888  1.6774
 9319SOL    HW239594   3.019   1.241   5.676  1.1747  0.6966 -0.9345
 9320SOL     OW39595   2.541   3.814  17.621  0.3801 -0.1852  0.4345
 9320SOL    HW139596   2.566   3.790  17.711  1.4227  1.0661  0.4749
 9320SOL    HW239597   2.449   3.787  17.623  0.2792  0.0459 -1.2378
 9321SOL     OW39598   2.825   4.534   5.156  0.1586  0.8042 -0.4675
 9321SOL    HW139599   2.792   4.469   5.218  3.2510 -1.3664 -1.1106
 9321SOL    HW239600   2.919   4.520   5.170  0.1811  1.2541 -0.1695
 9322SOL     OW39601   4.094   4.662   3.385  0.0559  0.2907 -0.6837
 9322SOL    HW139602   4.026   4.650   3.451  0.6422  0.8741  0.0266
 9322SOL    HW239603   4.173   4.651   3.439 -1.2647 -0.5655  1.0711
 9323SOL     OW39604   2.171   3.046   9.133  0.0491  0.5162 -0.2883
 9323SOL    HW139605   2.201   2.964   9.094 -1.0099  0.2124 -0.4622
 9323SOL    HW239606   2.150   3.019   9.222  0.0644  1.0701 -0.1165
 9324SOL     OW39607   2.823   0.500   6.257 -0.0184 -0.0827 -0.4858
 9324SOL    HW139608   2.839   0.561   6.184 -1.7113 -0.2267 -0.9796
 9324SOL    HW239609   2.749   0.463   6.209 -0.4863  0.7004 -0.3610
 9325SOL     OW39610   4.440   4.067  16.794  0.9773 -0.1655  0.0585
 9325SOL    HW139611   4.370   4.011  16.827 -1.0152  0.7054 -2.6258
 9325SOL    HW239612   4.410   4.069  16.703  0.5508 -1.0911  0.1806
 9326SOL     OW39613   0.097   2.801  10.559  0.5579 -0.2251  0.2058
 9326SOL    HW139614   0.113   2.840  10.645 -0.8892  0.9215 -0.0407
 9326SOL    HW239615   0.071   2.712  10.582 -0.5176  0.2516  0.8142
 9327SOL     OW39616   3.675   1.723   2.761  0.2006  0.5546  0.1661
 9327SOL    HW139617   3.624   1.803   2.747 -0.7721 -0.2173 -0.6083
 9327SOL    HW239618   3.755   1.748   2.714 -1.0893 -0.6042 -2.6617
 9328SOL     OW39619   3.819   4.367   3.362 -0.2272 -0.2084 -0.4250
 9328SOL    HW139620   3.899   4.375   3.412 -0.8951  0.1196  0.5902
 9328SOL    HW239621   3.753   4.327   3.419  0.4780  1.5439  1.6315
 9329SOL     OW39622   2.446   3.036   3.432 -0.2093 -0.2171 -0.2596
 9329SOL    HW139623   2.399   3.111   3.469 -1.5576 -1.3657  0.3251
 9329SOL    HW239624   2.488   2.994   3.507 -1.8097  1.2940  1.4981
 9330SOL     OW39625   3.732   4.503   4.780 -0.3256 -0.6211  0.2752
 9330SOL    HW139626   3.769   4.569   4.838  0.1373  0.3240 -1.0752
 9330SOL    HW239627   3.659   4.554   4.745  0.8413  1.2665  0.6404
 9331SOL     OW39628   0.234   0.204   1.372  0.0393 -0.3003 -0.2300
 9331SOL    HW139629   0.280   0.169   1.447  0.2585 -0.6702 -0.5377
 9331SOL    HW239630   0.289   0.279   1.348 -1.1657  0.1287 -1.7097
 9332SOL     OW39631   2.290   3.150  17.601  0.5944 -0.2798  0.4739
 9332SOL    HW139632   2.250   3.216  17.657  0.3912  0.2723 -0.3238
 9332SOL    HW239633   2.254   3.072  17.643  1.8473 -0.3457  1.4485
 9333SOL     OW39634   0.874   4.238   9.604 -0.2530  0.1933  0.2136
 9333SOL    HW139635   0.909   4.154   9.634  2.6976  1.6509  0.8636
 9333SOL    HW239636   0.817   4.204   9.535 -0.5016 -0.5325  0.7722
 9334SOL     OW39637   1.603   1.396   2.829 -0.1409  0.0236  0.2086
 9334SOL    HW139638   1.509   1.401   2.843 -0.7377 -1.5878 -3.3217
 9334SOL    HW239639   1.610   1.446   2.748 -0.9119  0.7624  0.5937
 9335SOL     OW39640   0.073   2.810   4.192  0.1244  0.0967  0.0455
 9335SOL    HW139641   0.050   2.798   4.099  1.4955 -0.8839 -0.1691
 9335SOL    HW239642   0.160   2.771   4.188  0.7064  1.3451  0.9182
 9336SOL     OW39643   0.329   3.738   7.459  0.1411 -0.1387 -0.3993
 9336SOL    HW139644   0.358   3.653   7.425 -1.1365 -0.1314 -1.5204
 9336SOL    HW239645   0.403   3.795   7.439 -0.9441  1.3813 -0.0697
 9337SOL     OW39646   1.502   3.483   1.208  0.4800 -0.2208  0.5157
 9337SOL    HW139647   1.470   3.572   1.189 -2.0839 -1.4707 -0.9087
 9337SOL    HW239648   1.471   3.472   1.298  0.1248 -1.6638  0.2066
 9338SOL     OW39649   3.359   3.298   3.212 -0.0077  0.0196 -0.4748
 9338SOL    HW139650   3.381   3.266   3.300  1.2794  0.3617 -0.6706
 9338SOL    HW239651   3.263   3.297   3.209 -0.0229  0.2828 -0.0657
 9339SOL     OW39652   0.776   3.337   6.047  0.2723 -0.0807  0.2145
 9339SOL    HW139653   0.812   3.387   6.120 -1.1156 -0.1487  0.9495
 9339SOL    HW239654   0.851   3.278   6.040  1.6865  1.3158  3.6464
 9340SOL     OW39655   1.249   0.883   7.345  0.2054 -0.2331 -0.0589
 9340SOL    HW139656   1.319   0.837   7.299 -1.0976 -1.2597 -1.0196
 9340SOL    HW239657   1.176   0.822   7.333  0.6433 -0.8301  0.2923
 9341SOL     OW39658   3.892   2.507   9.889 -0.6602 -0.1929  0.5137
 9341SOL    HW139659   3.860   2.551   9.810 -1.2540  0.5729  1.1765
 9341SOL    HW239660   3.821   2.443   9.899 -0.9686  0.4058  2.2369
 9342SOL     OW39661   1.345   1.627   3.149  0.3232 -0.2777 -0.4707
 9342SOL    HW139662   1.424   1.680   3.137 -1.2898  2.0364 -0.9421
 9342SOL    HW239663   1.286   1.695   3.181  3.2490  1.5305  1.0848
 9343SOL     OW39664   0.687   1.941  17.168 -0.1160  0.0096  0.4798
 9343SOL    HW139665   0.648   1.959  17.082 -1.1253  1.5816  1.2774
 9343SOL    HW239666   0.650   2.016  17.214 -0.9343 -0.1731  0.1102
 9344SOL     OW39667   1.477   1.109   1.709  0.0684  0.3021 -0.4501
 9344SOL    HW139668   1.556   1.162   1.698 -1.2966  2.0162 -1.7797
 9344SOL    HW239669   1.496   1.062   1.791 -0.2465 -0.5335 -0.8575
 9345SOL     OW39670   3.175   1.504  12.368  0.1168 -0.2400  0.2510
 9345SOL    HW139671   3.165   1.443  12.442  0.3346  0.3428  0.7597
 9345SOL    HW239672   3.217   1.580  12.408  1.2305 -0.0662 -1.2766
 9346SOL     OW39673   4.663   0.724  15.415  0.6660 -0.1065 -0.8371
 9346SOL    HW139674   4.616   0.642  15.423  1.5048 -0.5510 -0.4882
 9346SOL    HW239675   4.603   0.754  15.347  0.7571  0.4406 -0.6777
 9347SOL     OW39676   3.103   1.997   6.920 -0.4061  0.3624 -0.1587
 9347SOL    HW139677   3.057   2.052   6.983  0.2526 -0.9385  1.4453
 9347SOL    HW239678   3.189   2.035   6.938  0.1493 -0.1563 -1.7347
 9348SOL     OW39679   4.465   3.534   4.943  0.1115 -0.2768 -0.2231
 9348SOL    HW139680   4.380   3.500   4.916  0.1980 -2.3474  2.0756
 9348SOL    HW239681   4.507   3.448   4.946  2.2175  0.7708  0.1154
 9349SOL     OW39682   1.582   0.386   2.643  0.6859 -0.5496  0.2983
 9349SOL    HW139683   1.550   0.445   2.712 -0.0535  0.9384 -1.3264
 9349SOL    HW239684   1.509   0.339   2.605  0.6925  0.6315 -1.1593
 9350SOL     OW39685   3.746   2.587   5.385 -0.0800  0.4002  0.0488
 9350SOL    HW139686   3.660   2.605   5.348 -0.8160 -0.2736  1.4436
 9350SOL    HW239687   3.729   2.624   5.471  1.2526 -0.8354  0.8357
 9351SOL     OW39688   1.226   2.965   7.413  0.4040 -0.2539  0.7321
 9351SOL    HW139689   1.184   2.913   7.482  0.0651 -0.5824  0.2726
 9351SOL    HW239690   1.193   3.055   7.415 -1.4825 -0.9533  0.9967
 9352SOL     OW39691   1.609   3.418   0.727  0.1997 -0.6154  0.5209
 9352SOL    HW139692   1.645   3.442   0.812  2.1446  0.0635 -0.5034
 9352SOL    HW239693   1.687   3.392   0.678  0.2924 -0.6481  0.6851
 9353SOL     OW39694   3.834   3.500   7.563  0.0140 -0.1107 -0.4876
 9353SOL    HW139695   3.738   3.505   7.568  0.0591  0.0200  0.1622
 9353SOL    HW239696   3.862   3.461   7.645 -1.8720  0.2470  0.3354
 9354SOL     OW39697   1.427   3.350   3.274  0.6500 -0.0710  0.8177
 9354SOL    HW139698   1.480   3.288   3.326  1.3478 -0.7770 -0.7412
 9354SOL    HW239699   1.506   3.384   3.232  0.5314  1.2392  1.6564
 9355SOL     OW39700   2.038   3.168  14.333  0.1062 -0.6649  0.5870
 9355SOL    HW139701   2.045   3.102  14.264  0.6190 -1.4850  1.4274
 9355SOL    HW239702   1.958   3.209  14.301 -0.4861 -2.9741 -0.8951
 9356SOL     OW39703   3.030   4.078   6.655 -0.4713  0.0765 -0.0910
 9356SOL    HW139704   3.001   3.986   6.653 -1.2822  0.3485 -1.2275
 9356SOL    HW239705   2.983   4.115   6.729  2.3905  1.5835  0.9771
 9357SOL     OW39706   0.400   4.304   0.330 -0.2997 -0.2108  0.6796
 9357SOL    HW139707   0.489   4.277   0.352 -0.7599 -2.3721 -0.1278
 9357SOL    HW239708   0.413   4.394   0.360  0.2450  0.5543 -1.8472
 9358SOL     OW39709   0.806   1.325  11.838 -0.5368  0.0919 -0.4309
 9358SOL    HW139710   0.714   1.343  11.858 -0.9409 -2.6674  0.2140
 9358SOL    HW239711   0.820   1.260  11.907  2.9617  1.5371  0.1958
 9359SOL     OW39712   4.284   2.729  11.422  0.0824  0.3806 -0.6341
 9359SOL    HW139713   4.272   2.765  11.334 -1.5430 -0.1383 -0.6315
 9359SOL    HW239714   4.196   2.693  11.438  1.6216 -2.8287  0.5619
 9360SOL     OW39715   0.192   0.350   7.943  0.2939 -0.2206 -0.0821
 9360SOL    HW139716   0.241   0.432   7.945 -0.1286  0.0438 -0.8650
 9360SOL    HW239717   0.125   0.366   7.877  1.1520 -0.3732 -0.9872
 9361SOL     OW39718   3.247   0.554   6.893  0.4626  0.5137  0.0345
 9361SOL    HW139719   3.199   0.479   6.928  0.7902  0.1325 -0.3348
 9361SOL    HW239720   3.333   0.516   6.874  0.6708 -0.5841  3.1364
 9362SOL     OW39721   3.837   1.994   5.381 -0.4309 -0.2430 -0.1288
 9362SOL    HW139722   3.757   1.952   5.351 -0.0569 -0.3317 -1.0050
 9362SOL    HW239723   3.797   2.076   5.408  0.0340  0.5604 -1.8932
 9363SOL     OW39724   3.254   3.369   8.605  0.2152  0.3242 -0.2591
 9363SOL    HW139725   3.270   3.459   8.634 -1.5975  0.1246  1.3546
 9363SOL    HW239726   3.193   3.330   8.667  1.2319  0.7857  1.0503
 9364SOL     OW39727   4.583   3.620   7.266  0.1200 -0.1781  0.7964
 9364SOL    HW139728   4.620   3.537   7.236  0.5850 -0.1805  1.3705
 9364SOL    HW239729   4.665   3.653   7.304  1.7048 -0.3128 -2.4852
 9365SOL     OW39730   4.402   2.137   4.505 -0.2274 -0.4487  0.2506
 9365SOL    HW139731   4.476   2.115   4.448  0.0595  0.0037  0.4463
 9365SOL    HW239732   4.392   2.050   4.543 -0.2691  0.5802  2.5496
 9366SOL     OW39733   1.135   2.869  13.336 -0.0775  0.2223  0.1705
 9366SOL    HW139734   1.176   2.785  13.354  0.4220  0.3958 -0.1837
 9366SOL    HW239735   1.083   2.875  13.417  3.9524 -0.7353  2.8474
 9367SOL     OW39736   3.610   3.650   3.884 -0.5188  0.1094  0.1188
 9367SOL    HW139737   3.690   3.703   3.883 -0.7849  0.5216  0.6024
 9367SOL    HW239738   3.611   3.629   3.791 -1.5877 -0.5266  0.2506
 9368SOL     OW39739   3.526   4.207   9.027 -0.6113  0.1484  0.0323
 9368SOL    HW139740   3.462   4.277   9.012 -0.4558 -0.0408 -1.5338
 9368SOL    HW239741   3.526   4.152   8.949  0.3364 -0.3339  0.3820
 9369SOL     OW39742   4.393   2.051  10.806  0.8775  0.0635 -0.7576
 9369SOL    HW139743   4.437   2.043  10.722  0.4271  0.4537 -1.0349
 9369SOL    HW239744   4.332   2.123  10.787  0.5862  0.2405  0.8051
 9370SOL     OW39745   2.610   2.712  15.723 -0.1815 -0.0103 -0.0931
 9370SOL    HW139746   2.618   2.691  15.630  0.5622 -0.3010  0.0358
 9370SOL    HW239747   2.563   2.795  15.731  0.5984  0.3861  0.3318
 9371SOL     OW39748   0.331   2.624   9.097  0.3488 -0.2372  0.2334
 9371SOL    HW139749   0.257   2.679   9.069  0.2855 -0.7360 -0.5956
 9371SOL    HW239750   0.309   2.550   9.040  1.2318  0.7706 -1.4067
 9372SOL     OW39751   1.224   2.815   6.455 -0.3878 -0.2880  0.4757
 9372SOL    HW139752   1.303   2.827   6.401 -0.9238 -0.9163 -0.4475
 9372SOL    HW239753   1.161   2.848   6.391  1.0393  0.2158 -0.6695
 9373SOL     OW39754   0.039   4.029   3.422  0.3569 -0.1826 -0.3950
 9373SOL    HW139755   4.736   4.061   3.501  1.7412 -0.2205  0.4007
 9373SOL    HW239756   0.114   3.979   3.455  0.1002 -0.2109  0.1538
 9374SOL     OW39757   1.774   1.117   1.204 -0.3014  0.8060  0.8229
 9374SOL    HW139758   1.772   1.210   1.182 -0.3551  0.2904 -1.3545
 9374SOL    HW239759   1.833   1.088   1.134 -1.9557 -0.2478 -0.1504
 9375SOL     OW39760   1.366   0.535   4.103 -0.4582  0.1525 -0.5964
 9375SOL    HW139761   1.297   0.550   4.168 -0.8559  1.3687 -1.3083
 9375SOL    HW239762   1.427   0.477   4.150 -0.7138  0.4223  0.0603
 9376SOL     OW39763   3.309   3.150   9.056  0.2730  0.0632  0.1497
 9376SOL    HW139764   3.334   3.107   8.974 -0.0131  0.3868 -0.1056
 9376SOL    HW239765   3.338   3.240   9.039  0.5138  0.3600  2.1612
 9377SOL     OW39766   3.294   2.983   5.796  0.7177 -0.3147 -0.2250
 9377SOL    HW139767   3.274   2.922   5.867  1.3241 -0.0779  0.1489
 9377SOL    HW239768   3.218   3.042   5.796  1.1160  0.2065  1.1964
 9378SOL     OW39769   2.343   1.777   6.788 -0.2910 -0.0430  0.0964
 9378SOL    HW139770   2.356   1.718   6.714  0.3852  1.5343 -1.0239
 9378SOL    HW239771   2.419   1.760   6.844 -0.2948  2.3090  0.7979
 9379SOL     OW39772   3.389   3.551   7.799 -0.7063 -0.2233 -0.1028
 9379SOL    HW139773   3.435   3.583   7.876  0.8576 -1.5616 -0.4804
 9379SOL    HW239774   3.324   3.619   7.779  0.4454  0.7453 -0.5430
 9380SOL     OW39775   4.351   4.332   5.502 -0.2292 -0.3980 -0.5160
 9380SOL    HW139776   4.271   4.377   5.531  0.2140 -1.0170  1.7017
 9380SOL    HW239777   4.326   4.243   5.526  1.8675 -0.8973 -0.2603
 9381SOL     OW39778   0.344   1.455   6.180 -0.3973  0.4237 -0.4630
 9381SOL    HW139779   0.415   1.499   6.134  0.7004 -0.6457  0.2405
 9381SOL    HW239780   0.364   1.363   6.166 -0.2206  0.2327  1.0592
 9382SOL     OW39781   2.582   4.591   4.413 -0.5099 -0.0218 -0.9106
 9382SOL    HW139782   2.613   4.623   4.498  0.0290 -1.0806 -0.7091
 9382SOL    HW239783   2.554   4.503   4.441 -0.7635  0.6232  0.8907
 9383SOL     OW39784   2.359   4.342   7.636 -0.5642 -0.1908  0.3323
 9383SOL    HW139785   2.445   4.372   7.606 -1.0673  2.2728  1.3135
 9383SOL    HW239786   2.387   4.267   7.689 -1.3417 -0.2411  0.6762
 9384SOL     OW39787   3.876   2.790   5.719  0.2020 -0.7926  0.0168
 9384SOL    HW139788   3.909   2.799   5.630  1.1393 -0.5399  0.3961
 9384SOL    HW239789   3.796   2.741   5.697 -0.1462 -0.7880  1.2835
 9385SOL     OW39790   0.585   3.956   2.776 -0.0556  0.3841  0.0977
 9385SOL    HW139791   0.567   3.871   2.817 -1.2316  0.0687 -1.0890
 9385SOL    HW239792   0.513   3.953   2.713 -0.6809 -0.8695  0.8418
 9386SOL     OW39793   4.400   4.067   3.839 -0.1641 -0.2291 -0.0479
 9386SOL    HW139794   4.357   4.088   3.922 -0.6272 -0.6060 -0.1907
 9386SOL    HW239795   4.455   4.142   3.819  1.6695 -1.3290  0.8057
 9387SOL     OW39796   4.383   1.456  17.266  0.1936  0.2314  0.0144
 9387SOL    HW139797   4.337   1.386  17.312  0.7686 -0.6530 -0.7599
 9387SOL    HW239798   4.314   1.478  17.203  0.7444  2.6526  0.2811
 9388SOL     OW39799   1.408   2.694   7.108 -1.1213  0.0768 -0.0894
 9388SOL    HW139800   1.423   2.689   7.202  3.1847 -0.5166 -0.8139
 9388SOL    HW239801   1.474   2.759   7.085 -2.8546  1.9880  0.2907
 9389SOL     OW39802   0.654   3.884   3.218 -0.2606  0.1016  0.2849
 9389SOL    HW139803   0.717   3.813   3.206 -1.0188 -0.7501  1.3836
 9389SOL    HW239804   0.657   3.930   3.134 -0.1665  0.3678  0.4342
 9390SOL     OW39805   0.106   1.405  13.987 -0.4681  0.4721  0.1010
 9390SOL    HW139806   0.024   1.371  13.952  1.1249 -1.5747 -1.6510
 9390SOL    HW239807   0.078   1.484  14.032 -0.9512 -0.0397  0.6994
 9391SOL     OW39808   4.264   1.390  11.887  0.1144 -0.5741 -0.0979
 9391SOL    HW139809   4.179   1.421  11.856  0.3473  1.4534  1.3570
 9391SOL    HW239810   4.299   1.450  11.952 -2.3657 -0.0350  0.7507
 9392SOL     OW39811   1.863   1.482  14.728  0.3792  0.4914 -0.2194
 9392SOL    HW139812   1.781   1.460  14.684 -0.1855  1.0572  0.5723
 9392SOL    HW239813   1.924   1.435  14.670 -0.6988 -1.4949  0.2677
 9393SOL     OW39814   0.081   3.294   8.972 -0.2108 -0.3239  0.3114
 9393SOL    HW139815   4.740   3.249   8.990  0.4363 -0.8206  2.0239
 9393SOL    HW239816   0.088   3.267   8.880 -0.8123  0.8316 -0.0794
 9394SOL     OW39817   1.879   0.614  12.579  0.0292 -0.5741  0.3243
 9394SOL    HW139818   1.914   0.702  12.591 -0.4660 -0.6467  2.2835
 9394SOL    HW239819   1.937   0.570  12.517  1.2934  3.7145 -1.5080
 9395SOL     OW39820   4.138   2.165   5.466 -0.6072 -0.0890 -0.1642
 9395SOL    HW139821   4.159   2.106   5.538  0.3193  1.0577  0.4882
 9395SOL    HW239822   4.126   2.111   5.388  0.1033 -1.9191  0.9976
 9396SOL     OW39823   3.900   1.678  14.679 -0.6043  1.0477  0.5740
 9396SOL    HW139824   3.932   1.735  14.750  0.0687  0.0202  1.1027
 9396SOL    HW239825   3.892   1.741  14.608 -0.7549 -1.0509 -1.2682
 9397SOL     OW39826   3.918   1.310   3.548  0.0904 -0.1275  0.0435
 9397SOL    HW139827   3.878   1.350   3.625 -0.8003  0.3049 -0.6574
 9397SOL    HW239828   3.915   1.376   3.479  2.8522  3.0105  2.9444
 9398SOL     OW39829   0.370   2.655   5.388  0.2394 -0.6835 -0.0541
 9398SOL    HW139830   0.350   2.745   5.414 -0.4570 -0.6524 -0.7374
 9398SOL    HW239831   0.295   2.626   5.338 -1.3973  0.5758  1.6517
 9399SOL     OW39832   4.693   1.720   6.280 -0.0244 -0.2650 -0.2493
 9399SOL    HW139833   4.652   1.747   6.362 -0.2402  3.8375 -1.7149
 9399SOL    HW239834   4.618   1.723   6.222  0.3256  3.8790 -0.4610
 9400SOL     OW39835   3.938   1.257   3.886  0.5819  0.0037 -0.3618
 9400SOL    HW139836   3.971   1.347   3.882  0.7692 -0.0384  0.2815
 9400SOL    HW239837   3.990   1.203   3.826  0.7061 -1.0930  0.7359
 9401SOL     OW39838   1.986   0.599  15.209 -0.6070 -0.1569  0.0040
 9401SOL    HW139839   1.930   0.526  15.183 -0.2491 -1.5628  3.2062
 9401SOL    HW239840   1.980   0.582  15.303  0.2075  1.4903  0.3601
 9402SOL     OW39841   4.059   2.015  10.619 -0.0612 -0.7149 -0.1383
 9402SOL    HW139842   4.065   1.964  10.701  0.9992 -2.6974 -1.4429
 9402SOL    HW239843   4.121   1.962  10.569  0.2064  1.3931 -2.0374
 9403SOL     OW39844   0.493   2.347   9.589 -0.0099 -0.8871  0.0205
 9403SOL    HW139845   0.492   2.356   9.494  0.7047 -1.2156 -0.0189
 9403SOL    HW239846   0.424   2.282   9.601  2.0645 -3.1086 -0.0646
 9404SOL     OW39847   4.324   4.690   4.712 -0.0757  0.0941  0.1052
 9404SOL    HW139848   4.330   4.594   4.708 -0.5103  0.0815 -0.2563
 9404SOL    HW239849   4.239   4.685   4.755 -1.1880  0.2141 -2.0668
 9405SOL     OW39850   3.151   2.459   2.460  0.2029 -1.2736 -0.4465
 9405SOL    HW139851   3.217   2.527   2.450 -0.7493 -0.5386 -1.7158
 9405SOL    HW239852   3.137   2.461   2.555  1.4821 -1.9942 -0.2349
 9406SOL     OW39853   0.187   1.863   2.969 -0.1220 -0.4648 -0.1327
 9406SOL    HW139854   0.124   1.934   2.986  0.0817  0.1078 -1.8132
 9406SOL    HW239855   0.264   1.918   2.985 -1.8590  1.6923  0.8261
 9407SOL     OW39856   0.031   1.076   4.991 -0.3912 -0.0044 -0.1790
 9407SOL    HW139857   4.730   0.991   5.010 -0.0641 -0.6952 -2.5058
 9407SOL    HW239858   0.037   1.117   5.077 -1.3205  0.0443 -0.1355
 9408SOL     OW39859   1.263   0.464  10.139 -0.7894  0.3858  0.2747
 9408SOL    HW139860   1.323   0.504  10.202 -2.2483  1.1691  1.1719
 9408SOL    HW239861   1.323   0.430  10.073  1.4755  1.5849  1.7017
 9409SOL     OW39862   3.019   4.469  10.672  0.1970  0.4696 -0.0672
 9409SOL    HW139863   2.974   4.392  10.639  1.5732  0.5472 -2.1207
 9409SOL    HW239864   2.945   4.523  10.698 -1.4669 -1.6828 -0.3837
 9410SOL     OW39865   2.125   4.668   2.251 -0.5405  0.6486  0.2438
 9410SOL    HW139866   2.085   0.005   2.211 -0.2082 -0.7695 -2.8379
 9410SOL    HW239867   2.216   4.677   2.222  0.4276  0.0639  3.0884
 9411SOL     OW39868   0.199   1.704   2.333  0.0990 -0.2309 -1.0079
 9411SOL    HW139869   0.123   1.761   2.321  1.1045  0.5738 -3.7419
 9411SOL    HW239870   0.267   1.737   2.274 -0.4037  1.4416 -0.6366
 9412SOL     OW39871   0.931   2.881   3.034 -0.0147 -0.0672  0.2719
 9412SOL    HW139872   0.986   2.944   3.081  0.7602  0.6445 -1.5587
 9412SOL    HW239873   0.890   2.950   2.980  0.7090  0.1607  0.0187
 9413SOL     OW39874   2.161   1.058   3.850 -0.3820 -0.0122 -0.3375
 9413SOL    HW139875   2.154   0.991   3.782 -0.5087 -0.2389 -0.0965
 9413SOL    HW239876   2.257   1.064   3.846 -0.4702  2.8862  1.3679
 9414SOL     OW39877   4.120   3.566   1.883  0.1376 -0.3313  0.9910
 9414SOL    HW139878   4.073   3.650   1.879  0.3812 -0.3208 -1.3520
 9414SOL    HW239879   4.055   3.506   1.919 -1.5911 -0.6023 -2.5688
 9415SOL     OW39880   0.685   1.133  16.950  0.1029  0.0754  0.1745
 9415SOL    HW139881   0.619   1.086  17.001  0.8620  0.7528  1.7630
 9415SOL    HW239882   0.673   1.220  16.988  0.4700  0.8710 -1.4951
 9416SOL     OW39883   0.949   3.645   3.998  0.2585 -0.2116 -0.1339
 9416SOL    HW139884   1.015   3.581   4.026 -2.1352 -2.6675 -0.1457
 9416SOL    HW239885   0.888   3.655   4.071 -0.6563  0.5459 -1.0163
 9417SOL     OW39886   1.847   1.872   8.944  0.0858  0.1748 -0.6705
 9417SOL    HW139887   1.844   1.967   8.957 -1.9583  0.0172 -0.0977
 9417SOL    HW239888   1.891   1.853   9.027 -3.1460 -0.1713  0.9310
 9418SOL     OW39889   1.350   2.373   6.242 -0.5947 -0.2352 -0.1223
 9418SOL    HW139890   1.292   2.393   6.169 -0.5665  2.9072  0.7170
 9418SOL    HW239891   1.292   2.383   6.318 -0.9907 -1.1134 -0.3078
 9419SOL     OW39892   3.008   0.121   8.319  0.2306 -0.2644  0.0197
 9419SOL    HW139893   2.987   0.200   8.369  0.4800  1.0365 -1.9329
 9419SOL    HW239894   2.921   0.080   8.315 -0.5088  1.3331 -0.1453
 9420SOL     OW39895   1.924   1.215  16.966  0.1927  0.4260 -0.3879
 9420SOL    HW139896   2.016   1.236  16.951  0.2169 -0.2052 -1.0802
 9420SOL    HW239897   1.924   1.120  16.957 -0.1340  0.3131  0.7037
 9421SOL     OW39898   4.714   3.593   6.947  0.4748 -0.4414 -1.0638
 9421SOL    HW139899   0.028   3.658   6.991  0.2200 -1.6669  1.0672
 9421SOL    HW239900   4.628   3.625   6.975  0.0346 -1.9987 -0.6901
 9422SOL     OW39901   1.387   2.187   5.887  0.2001 -0.3791  0.9506
 9422SOL    HW139902   1.402   2.110   5.832 -1.1296 -1.0042  1.4832
 9422SOL    HW239903   1.297   2.177   5.918 -0.4109  0.9586 -0.3914
 9423SOL     OW39904   0.870   1.550   3.063 -0.3044  0.4600  0.2359
 9423SOL    HW139905   0.815   1.617   3.104  0.1612 -0.0749  1.7350
 9423SOL    HW239906   0.945   1.599   3.029  0.3323 -0.6671  0.0093
 9424SOL     OW39907   3.836   3.831   3.898  0.5436 -0.2889  0.1519
 9424SOL    HW139908   3.929   3.808   3.897  0.9012  1.1384  1.4068
 9424SOL    HW239909   3.825   3.873   3.813 -0.3068  1.4008  1.1087
 9425SOL     OW39910   1.367   4.513   8.233 -0.0790 -0.6295 -0.0593
 9425SOL    HW139911   1.449   4.540   8.275 -0.4712  0.3206  0.0964
 9425SOL    HW239912   1.361   4.423   8.266  3.0061 -0.2094  1.6442
 9426SOL     OW39913   0.602   0.418   7.577 -0.4825  0.0248 -0.1028
 9426SOL    HW139914   0.627   0.505   7.543  1.7204 -0.2035  0.9786
 9426SOL    HW239915   0.579   0.437   7.668  0.2161  0.2983  0.0159
 9427SOL     OW39916   3.948   4.237   4.317 -0.3252  0.1549  0.0408
 9427SOL    HW139917   3.917   4.225   4.227 -0.8192 -3.2548  0.6509
 9427SOL    HW239918   3.908   4.318   4.347 -1.7171 -0.3235 -0.5179
 9428SOL     OW39919   2.627   4.560   9.748 -0.0321 -0.0980  0.0752
 9428SOL    HW139920   2.663   4.648   9.736 -2.0588  0.8211  0.7410
 9428SOL    HW239921   2.557   4.576   9.811 -1.5220 -0.3126 -1.5461
 9429SOL     OW39922   2.612   2.930   8.661 -0.5639  0.5958  0.7430
 9429SOL    HW139923   2.664   2.988   8.606  0.2901  0.3428  1.2784
 9429SOL    HW239924   2.529   2.959   8.625  0.0467  1.0631 -0.2807
 9430SOL     OW39925   4.109   0.036   1.922 -0.0513  0.2161 -0.7166
 9430SOL    HW139926   4.141   0.054   2.010  1.0527  0.0399 -1.0877
 9430SOL    HW239927   4.173   4.723   1.877  0.9421  0.0283  0.9295
 9431SOL     OW39928   4.286   3.460   4.021  0.0821  0.6101  0.3983
 9431SOL    HW139929   4.341   3.514   3.965 -1.9665  1.2011 -1.0113
 9431SOL    HW239930   4.202   3.504   4.012 -0.3020 -0.7657 -2.6892
 9432SOL     OW39931   0.559   1.047   8.339 -0.1781 -0.0909  0.1580
 9432SOL    HW139932   0.624   0.988   8.376  1.1135 -0.6460 -2.9846
 9432SOL    HW239933   0.506   1.059   8.418 -0.0186  0.2445  0.2153
 9433SOL     OW39934   1.442   0.757   3.202 -0.2823  0.0042 -0.0968
 9433SOL    HW139935   1.535   0.769   3.221 -0.4632 -0.0860  0.8786
 9433SOL    HW239936   1.411   0.763   3.293  0.6612 -0.0383  0.2299
 9434SOL     OW39937   3.958   2.057   9.943  0.8709 -0.0064 -0.1819
 9434SOL    HW139938   3.865   2.058   9.921  1.1795  0.2692 -1.4812
 9434SOL    HW239939   3.998   2.006   9.872  0.3957  1.1273 -1.2514
 9435SOL     OW39940   0.723   0.315   6.553 -0.2412  0.0139 -0.8840
 9435SOL    HW139941   0.761   0.335   6.467  0.6058 -0.5771 -0.6439
 9435SOL    HW239942   0.792   0.353   6.607 -1.7475  0.4804  0.6949
 9436SOL     OW39943   2.331   1.515   3.061  0.1164 -0.6892 -0.2982
 9436SOL    HW139944   2.306   1.432   3.101 -2.2118 -0.0814 -0.4653
 9436SOL    HW239945   2.423   1.491   3.052  0.3442  0.5033 -1.2016
 9437SOL     OW39946   1.320   0.313  15.096  0.4942  0.0308  0.0630
 9437SOL    HW139947   1.257   0.272  15.156  0.1429  0.5368  0.0374
 9437SOL    HW239948   1.386   0.244  15.096  1.3183  0.8177  0.1538
 9438SOL     OW39949   3.066   3.009   8.281 -0.0997  0.0457 -0.0799
 9438SOL    HW139950   3.137   3.040   8.224 -0.0790  1.3229  0.6401
 9438SOL    HW239951   3.089   3.061   8.358 -0.1267  0.0475 -0.0730
 9439SOL     OW39952   2.611   3.201  11.072  0.3065 -0.1216  0.3454
 9439SOL    HW139953   2.656   3.117  11.056  1.8407  1.0045 -1.2410
 9439SOL    HW239954   2.680   3.259  11.040  0.4832  1.1329  2.9851
 9440SOL     OW39955   1.063   1.077   8.659  0.2071  0.0770  0.1191
 9440SOL    HW139956   1.153   1.068   8.626 -0.3387  0.1789 -1.3765
 9440SOL    HW239957   1.026   1.149   8.610 -1.1716 -0.4980  0.3240
 9441SOL     OW39958   4.527   2.277   8.483 -0.2827  0.6270 -0.5593
 9441SOL    HW139959   4.441   2.244   8.511  0.5126 -0.2857  0.8218
 9441SOL    HW239960   4.528   2.292   8.388 -2.4246  1.7364 -0.4106
 9442SOL     OW39961   0.266   1.872   5.218 -0.2210 -0.1926  0.0683
 9442SOL    HW139962   0.220   1.876   5.134  2.7367  0.4332 -1.5542
 9442SOL    HW239963   0.250   1.964   5.240  1.2775 -0.4533  2.2168
 9443SOL     OW39964   1.464   1.457   5.829 -0.0959  0.0391  0.4209
 9443SOL    HW139965   1.492   1.531   5.884  1.2701 -0.2019  0.0616
 9443SOL    HW239966   1.537   1.398   5.849 -0.3529 -0.2644  0.4614
 9444SOL     OW39967   3.474   0.452   6.238 -0.6541  0.1861  0.3774
 9444SOL    HW139968   3.513   0.489   6.159 -1.9662 -0.5633 -0.6298
 9444SOL    HW239969   3.513   0.510   6.303 -0.9505  1.6323 -0.7287
 9445SOL     OW39970   3.467   2.360   3.945 -0.0900 -0.2882  0.0528
 9445SOL    HW139971   3.509   2.292   3.893 -0.2104  0.0304 -0.4747
 9445SOL    HW239972   3.466   2.432   3.881  0.2444 -0.5716 -0.2753
 9446SOL     OW39973   4.543   2.246   7.796 -0.6089  0.2057 -0.3505
 9446SOL    HW139974   4.614   2.310   7.793  1.0126 -1.5663 -0.0214
 9446SOL    HW239975   4.592   2.164   7.788 -1.5474 -0.3273 -0.6269
 9447SOL     OW39976   0.236   4.583   4.195  0.0361 -0.4452  0.3386
 9447SOL    HW139977   0.199   4.658   4.147  1.1355  0.3774  0.7570
 9447SOL    HW239978   0.270   4.523   4.128  2.7626  2.1026 -0.5908
 9448SOL     OW39979   3.263   3.305   6.207  0.1149  0.6606  0.1993
 9448SOL    HW139980   3.179   3.269   6.235  0.7149 -0.2739  0.8071
 9448SOL    HW239981   3.332   3.242   6.226 -2.4909 -1.8863  1.2978
 9449SOL     OW39982   4.267   0.597   5.190  0.1418 -0.1011 -0.4549
 9449SOL    HW139983   4.212   0.547   5.251  1.6034  1.0017  1.7727
 9449SOL    HW239984   4.242   0.689   5.201  1.7194  0.5142 -2.1038
 9450SOL     OW39985   1.999   0.119   6.121  0.0223  0.0441 -0.0066
 9450SOL    HW139986   2.048   0.082   6.194 -0.2592  1.7925  1.0528
 9450SOL    HW239987   1.998   0.212   6.143  0.3881  0.0138  0.1400
 9451SOL     OW39988   4.169   4.653  11.863 -0.4548  0.1046 -0.4936
 9451SOL    HW139989   4.223   4.575  11.853 -2.3309 -1.3336  0.5867
 9451SOL    HW239990   4.225   4.727  11.842 -1.2762  0.2863 -2.0291
 9452SOL     OW39991   2.064   0.236  14.768  0.7915  1.0228 -0.4803
 9452SOL    HW139992   2.071   0.285  14.849  1.6326  1.7161 -0.9670
 9452SOL    HW239993   1.971   0.237  14.747 -0.1031 -0.6984  3.5270
 9453SOL     OW39994   1.027   4.264   4.173  0.1603  0.0913  0.0362
 9453SOL    HW139995   0.947   4.296   4.131 -1.3342 -2.6119  0.8315
 9453SOL    HW239996   1.053   4.199   4.108  1.1386 -2.1372  2.6640
 9454SOL     OW39997   1.030   0.080   7.481  0.0092  0.6010 -0.0540
 9454SOL    HW139998   1.044   0.071   7.387 -0.0628 -1.5839  0.1538
 9454SOL    HW239999   0.958   0.142   7.490 -1.0605 -0.4077 -1.6882
 9455SOL     OW40000   0.460   1.469   2.641 -0.3093 -0.5618  0.0144
 9455SOL    HW140001   0.454   1.374   2.650  0.7994 -0.7031 -0.8264
 9455SOL    HW240002   0.506   1.468   2.557 -0.2014 -0.7638  0.0775
 9456SOL     OW40003   3.974   0.984   7.637 -0.3030 -0.1579 -0.3166
 9456SOL    HW140004   3.971   0.900   7.590 -2.3635  0.4591 -1.2524
 9456SOL    HW240005   3.903   1.037   7.603 -0.3527 -0.1186 -0.1530
 9457SOL     OW40006   3.532   2.984   3.831  0.0703  0.2716  0.5385
 9457SOL    HW140007   3.569   2.933   3.759  0.6229  1.2613  0.1210
 9457SOL    HW240008   3.480   3.050   3.785 -0.0805  0.2909  0.7364
 9458SOL     OW40009   2.186   1.751   8.522  0.4043  0.4843  0.3357
 9458SOL    HW140010   2.279   1.755   8.544  0.2789  0.4386  0.8535
 9458SOL    HW240011   2.150   1.806   8.592  1.0225  0.4241  0.6912
 9459SOL     OW40012   2.050   1.256   8.814  0.1174  0.1807 -0.3294
 9459SOL    HW140013   1.979   1.192   8.814  0.9669 -0.7690  0.5109
 9459SOL    HW240014   2.080   1.248   8.905  0.6002 -0.3801 -0.5325
 9460SOL     OW40015   3.068   0.597   8.832 -0.5236  0.0955  0.0716
 9460SOL    HW140016   3.119   0.667   8.792  0.2642 -2.0237 -2.6944
 9460SOL    HW240017   2.987   0.622   8.788 -0.2004  1.0329  0.0169
 9461SOL     OW40018   0.514   1.110   1.705  0.1006  0.2198  0.1737
 9461SOL    HW140019   0.505   1.193   1.658 -1.3042 -0.5553 -0.9296
 9461SOL    HW240020   0.516   1.050   1.630  0.2300 -0.2976  0.5917
 9462SOL     OW40021   4.171   3.963  11.114  0.0257  0.1256  0.2671
 9462SOL    HW140022   4.218   3.925  11.188  0.8974 -2.2228 -1.4948
 9462SOL    HW240023   4.084   3.986  11.147 -1.2802 -1.0302 -2.3212
 9463SOL     OW40024   1.075   2.799   5.166 -0.3654  0.2733 -0.4025
 9463SOL    HW140025   1.136   2.871   5.158  2.2709 -1.6935  2.1295
 9463SOL    HW240026   1.007   2.843   5.217  0.3586 -1.6748  2.2606
 9464SOL     OW40027   1.254   1.584   5.082  0.0744 -0.2202 -0.1280
 9464SOL    HW140028   1.224   1.664   5.125 -2.0079  0.0074 -1.9861
 9464SOL    HW240029   1.314   1.557   5.151  0.8279 -0.2645 -0.8028
 9465SOL     OW40030   3.449   2.200   4.177  0.0272  0.1763 -0.5764
 9465SOL    HW140031   3.544   2.204   4.168 -0.1792  1.1805 -2.4066
 9465SOL    HW240032   3.427   2.262   4.107  1.6168  3.0331  1.4435
 9466SOL     OW40033   0.183   2.127   1.805  0.1943  0.0333  0.0752
 9466SOL    HW140034   0.092   2.111   1.832 -0.0969  0.1050 -0.8632
 9466SOL    HW240035   0.182   2.209   1.756 -0.3440  1.0323  1.7466
 9467SOL     OW40036   2.695   3.332   1.979  0.0847  0.6194 -0.1374
 9467SOL    HW140037   2.623   3.278   1.946 -0.2683 -0.7924  2.9494
 9467SOL    HW240038   2.770   3.293   1.935 -2.3306 -2.2429 -1.7232
 9468SOL     OW40039   2.811   3.853   4.795  0.0005  0.2354 -0.1679
 9468SOL    HW140040   2.892   3.884   4.755 -0.5004  2.7649  0.7687
 9468SOL    HW240041   2.780   3.939   4.824  1.0888  0.6108 -0.1559
 9469SOL     OW40042   0.190   0.445  11.309 -0.0635 -0.2909  0.1134
 9469SOL    HW140043   0.120   0.424  11.247  0.7556 -1.1996 -0.4963
 9469SOL    HW240044   0.194   0.364  11.359 -1.0689 -0.7348 -0.5197
 9470SOL     OW40045   0.392   3.866   8.573  0.2394  0.1253  0.4687
 9470SOL    HW140046   0.337   3.843   8.648  0.8647 -0.0014  0.8887
 9470SOL    HW240047   0.474   3.827   8.603  1.5830  1.7758 -1.0500
 9471SOL     OW40048   4.294   4.459   2.901 -0.3781 -0.0207  0.0132
 9471SOL    HW140049   4.340   4.388   2.946  0.2118 -1.8730 -3.5469
 9471SOL    HW240050   4.256   4.517   2.966  0.6453  0.9378 -0.2449
 9472SOL     OW40051   4.483   3.408   2.967  0.0355 -0.2097 -0.0993
 9472SOL    HW140052   4.491   3.406   2.872  2.6773  1.0049  0.1078
 9472SOL    HW240053   4.505   3.500   2.983 -0.8079  0.2649 -1.6537
 9473SOL     OW40054   2.399   0.897   5.840 -0.5409  0.3998  0.1241
 9473SOL    HW140055   2.486   0.867   5.813  0.2539 -0.1681  3.3071
 9473SOL    HW240056   2.345   0.852   5.775  0.5866 -0.1397 -0.4466
 9474SOL     OW40057   0.966   0.427   1.514 -0.3345  0.3829  0.6614
 9474SOL    HW140058   0.977   0.501   1.455  2.0388 -0.6171 -0.1441
 9474SOL    HW240059   0.904   0.376   1.462 -0.9139  0.6804  1.0601
 9475SOL     OW40060   2.358   0.115   7.465 -0.2653  0.0871 -0.3626
 9475SOL    HW140061   2.429   0.094   7.405  0.5605 -0.6286  0.8502
 9475SOL    HW240062   2.345   0.029   7.505  0.2316 -0.3183 -1.0882
 9476SOL     OW40063   1.770   0.118   5.753  0.2142 -0.1375 -0.2045
 9476SOL    HW140064   1.759   0.023   5.751 -1.0425  0.0087 -0.4849
 9476SOL    HW240065   1.863   0.112   5.774  0.5633  2.1108 -1.1086
 9477SOL     OW40066   3.382   0.132  17.186  0.2497  0.4174  0.1569
 9477SOL    HW140067   3.336   0.190  17.246 -2.8019  2.1897 -3.8661
 9477SOL    HW240068   3.415   0.069  17.250  1.3807 -0.2637 -1.0801
 9478SOL     OW40069   2.195   2.439   4.948  0.0652  0.2625  0.2162
 9478SOL    HW140070   2.275   2.443   4.895 -0.2007 -0.9677 -0.2777
 9478SOL    HW240071   2.236   2.436   5.035  1.2109 -1.7285 -0.3822
 9479SOL     OW40072   3.113   3.244  12.459  0.3797  0.1713 -0.0719
 9479SOL    HW140073   3.180   3.308  12.480  0.1575  0.1242  0.7564
 9479SOL    HW240074   3.032   3.268  12.502  0.6102 -0.9778  1.0096
 9480SOL     OW40075   3.711   1.686   8.363  0.0166 -0.0936 -0.5019
 9480SOL    HW140076   3.644   1.738   8.319  1.5756  3.1537  0.9629
 9480SOL    HW240077   3.665   1.653   8.441  0.2332  0.6030 -0.0837
 9481SOL     OW40078   0.210   1.675   4.291 -0.2837 -0.3553  0.5641
 9481SOL    HW140079   0.258   1.732   4.351 -1.0793 -2.4321  3.1356
 9481SOL    HW240080   0.227   1.588   4.327 -0.7579 -0.4119  0.6590
 9482SOL     OW40081   0.355   1.467   8.834  0.0650  0.3457 -0.4083
 9482SOL    HW140082   0.306   1.503   8.908  0.5818  0.1392  0.0285
 9482SOL    HW240083   0.439   1.443   8.872  0.8471  0.6177 -1.9923
 9483SOL     OW40084   4.538   2.349  15.239  0.5712  0.1224 -0.3708
 9483SOL    HW140085   4.556   2.402  15.161 -1.8334  2.0981  0.4468
 9483SOL    HW240086   4.538   2.259  15.206  2.5031 -0.4638  1.2325
 9484SOL     OW40087   2.312   3.764  17.457 -0.0277 -0.1788  0.5445
 9484SOL    HW140088   2.242   3.779  17.521 -0.6115 -2.2913  0.3947
 9484SOL    HW240089   2.279   3.696  17.399  0.8953  0.6198 -0.8894
 9485SOL     OW40090   3.737   4.259  15.751 -0.0860 -0.5533  0.1713
 9485SOL    HW140091   3.656   4.298  15.784 -0.9885 -0.0860 -2.5928
 9485SOL    HW240092   3.755   4.203  15.827 -1.6477  0.5327  1.3512
 9486SOL     OW40093   1.440   3.084   3.885  0.8196  0.0397  0.0746
 9486SOL    HW140094   1.530   3.054   3.899  0.8735  1.1446  2.0178
 9486SOL    HW240095   1.388   3.032   3.946 -1.2961  1.7082 -0.3174
 9487SOL     OW40096   1.919   2.759   0.282 -0.1989  0.1523  0.4701
 9487SOL    HW140097   2.007   2.795   0.272 -0.6740  1.0449 -0.4741
 9487SOL    HW240098   1.896   2.737   0.192  0.2652 -0.2852  0.4593
 9488SOL     OW40099   3.361   3.140   3.623 -0.3145  0.2430  0.3465
 9488SOL    HW140100   3.399   3.219   3.584  0.6687 -1.2138 -1.6197
 9488SOL    HW240101   3.280   3.173   3.663 -0.9643 -0.8529 -0.0632
 9489SOL     OW40102   3.242   0.679   4.904  0.5075 -0.0453 -0.7438
 9489SOL    HW140103   3.323   0.694   4.953 -0.2294 -2.7905  1.3274
 9489SOL    HW240104   3.223   0.587   4.919 -1.2561  0.5385  0.6234
 9490SOL     OW40105   2.528   1.592   8.197  0.0873 -0.4280  0.4555
 9490SOL    HW140106   2.547   1.518   8.139  0.3800  0.5383 -0.7020
 9490SOL    HW240107   2.498   1.646   8.123  1.8487 -0.0573  0.0078
 9491SOL     OW40108   1.458   1.113   3.270 -0.1293 -0.6313 -0.7432
 9491SOL    HW140109   1.498   1.194   3.239  1.4441 -1.4761 -0.8977
 9491SOL    HW240110   1.410   1.081   3.193 -0.7566 -0.7391 -0.3158
 9492SOL     OW40111   1.596   1.284  16.566 -0.0387  0.1188  0.0259
 9492SOL    HW140112   1.566   1.346  16.632 -2.0984  0.3385 -1.1003
 9492SOL    HW240113   1.632   1.214  16.621 -0.7922 -2.3626 -2.6056
 9493SOL     OW40114   2.453   4.159  17.530 -0.1682 -0.4166  0.6529
 9493SOL    HW140115   2.391   4.111  17.475 -0.5321  1.0852 -0.2774
 9493SOL    HW240116   2.437   4.246  17.493  0.3892  0.0448  1.5046
 9494SOL     OW40117   2.969   2.738   5.387  0.0774  0.1972  0.4691
 9494SOL    HW140118   2.969   2.642   5.387  0.6113  0.1942  1.1283
 9494SOL    HW240119   2.902   2.747   5.454  0.1785 -0.8224  0.7057
 9495SOL     OW40120   0.080   1.475  11.869  0.0930 -0.1939 -0.1447
 9495SOL    HW140121   0.008   1.450  11.927 -1.3227  1.3016 -1.2866
 9495SOL    HW240122   0.034   1.515  11.795  0.3416  1.0553  0.3810
 9496SOL     OW40123   0.885   2.909   4.084 -0.1414 -0.8380  0.3102
 9496SOL    HW140124   0.841   2.851   4.023 -1.4530  1.4752 -0.9054
 9496SOL    HW240125   0.964   2.856   4.097  1.1998  1.2140  0.6720
 9497SOL     OW40126   0.348   3.422   3.523  0.7124 -0.6027 -0.4636
 9497SOL    HW140127   0.441   3.443   3.515  0.1506  1.9836 -0.2540
 9497SOL    HW240128   0.322   3.514   3.512 -0.7112 -1.0784 -0.9754
 9498SOL     OW40129   1.901   0.899  10.651  0.0089 -0.4950 -0.2793
 9498SOL    HW140130   1.965   0.971  10.654 -0.8584  0.3231 -1.2801
 9498SOL    HW240131   1.828   0.944  10.608 -0.4776  0.4828  1.5750
 9499SOL     OW40132   4.398   2.405   9.924 -0.0503 -0.2775 -0.1437
 9499SOL    HW140133   4.407   2.351   9.845  2.3254 -2.5115  1.6856
 9499SOL    HW240134   4.469   2.377   9.981 -0.2902 -1.8793 -0.6219
 9500SOL     OW40135   0.771   1.864   0.979 -0.7742 -0.6468  0.4454
 9500SOL    HW140136   0.766   1.959   0.964 -2.8395 -0.6390  1.1716
 9500SOL    HW240137   0.825   1.865   1.058 -0.6437  0.4588  0.3445
 9501SOL     OW40138   3.517   1.930  17.587  0.3638  0.0974 -0.6444
 9501SOL    HW140139   3.455   1.902  17.655  1.8426 -1.5569  0.0181
 9501SOL    HW240140   3.593   1.964  17.634 -1.0078 -0.1638  1.7631
 9502SOL     OW40141   1.793   1.687   9.191 -0.1748  0.6486  0.6013
 9502SOL    HW140142   1.737   1.662   9.118  0.7149  0.5724 -0.0551
 9502SOL    HW240143   1.879   1.662   9.157 -0.8346  1.0121 -1.3579
 9503SOL     OW40144   0.015   1.237   9.727  0.1621 -0.3104 -0.4262
 9503SOL    HW140145   0.036   1.284   9.807 -0.4861 -1.0333  0.1841
 9503SOL    HW240146   0.075   1.162   9.732 -0.1282 -0.4652  0.7381
 9504SOL     OW40147   2.445   3.878   4.999 -0.1167 -0.2191  0.2894
 9504SOL    HW140148   2.467   3.868   5.091  1.4028 -0.6147 -0.1212
 9504SOL    HW240149   2.499   3.810   4.959 -1.5751 -0.5519 -1.0896
 9505SOL     OW40150   1.433   0.112  12.707  0.5732 -0.5020  0.6198
 9505SOL    HW140151   1.389   0.027  12.710 -1.6639  0.7035  1.7592
 9505SOL    HW240152   1.360   0.160  12.668  0.3865  0.0907  1.6914
 9506SOL     OW40153   0.502   2.984   0.776 -0.3073  0.6362  0.3141
 9506SOL    HW140154   0.517   3.058   0.835 -1.7875  0.0599  1.4122
 9506SOL    HW240155   0.589   2.948   0.759 -1.6731 -2.2997 -0.3886
 9507SOL     OW40156   2.711   1.301   9.898  0.2718  0.6582  0.1492
 9507SOL    HW140157   2.789   1.262   9.936 -0.3298  0.5361  1.2786
 9507SOL    HW240158   2.634   1.248   9.923 -0.9944  2.4029 -0.0699
 9508SOL     OW40159   1.451   4.350   7.227 -0.3498  0.3391 -0.5003
 9508SOL    HW140160   1.546   4.345   7.230 -0.4232 -0.7531 -0.0840
 9508SOL    HW240161   1.441   4.445   7.214  0.7173  0.8121  2.2052
 9509SOL     OW40162   1.251   0.355  14.093  0.9941 -0.4875 -0.0528
 9509SOL    HW140163   1.337   0.348  14.133  1.1494  3.0670  0.2810
 9509SOL    HW240164   1.251   0.276  14.039 -0.4398  0.1030 -0.9108
 9510SOL     OW40165   3.771   4.118  15.981 -0.2500 -0.4938  0.4553
 9510SOL    HW140166   3.741   4.144  16.068 -2.5125  1.3655 -0.8828
 9510SOL    HW240167   3.722   4.035  15.983 -1.9177  0.4573 -0.7472
 9511SOL     OW40168   4.467   1.441   1.846 -0.0849  0.5724  0.4570
 9511SOL    HW140169   4.376   1.435   1.818  0.4473 -1.3613 -0.8785
 9511SOL    HW240170   4.520   1.468   1.771  2.0727  1.6734  2.4056
 9512SOL     OW40171   0.395   4.620   5.694  0.2197 -0.2441 -0.0489
 9512SOL    HW140172   0.465   4.614   5.629 -0.9214 -0.7074 -1.2374
 9512SOL    HW240173   0.324   4.627   5.629  0.0698 -0.3928  0.0998
 9513SOL     OW40174   3.561   0.805   4.637  0.2387  0.5251 -0.0207
 9513SOL    HW140175   3.533   0.748   4.708  0.8383  0.2889  0.0262
 9513SOL    HW240176   3.558   0.742   4.564  1.0548  1.0356 -0.5043
 9514SOL     OW40177   3.244   1.480   8.901  0.1552 -0.4412  0.1170
 9514SOL    HW140178   3.209   1.555   8.853  2.0127  0.5998  0.4184
 9514SOL    HW240179   3.160   1.442   8.927  0.4071 -0.7602  0.4720
 9515SOL     OW40180   3.183   0.187   6.048 -0.1328  0.0833 -0.1662
 9515SOL    HW140181   3.118   0.119   6.029 -1.2663  0.6766  1.6192
 9515SOL    HW240182   3.144   0.267   6.012  1.5293  0.2838 -1.4901
 9516SOL     OW40183   2.723   4.027   8.425 -0.2732 -0.6671 -0.1435
 9516SOL    HW140184   2.736   3.940   8.462  0.6249 -0.9626 -1.1598
 9516SOL    HW240185   2.634   4.029   8.461  0.7592 -0.8949  2.4369
 9517SOL     OW40186   3.582   2.432   6.826  0.2785 -0.4473 -0.4745
 9517SOL    HW140187   3.595   2.443   6.921 -0.6947 -2.1396 -0.1345
 9517SOL    HW240188   3.634   2.354   6.806  3.0395  1.5373 -0.9863
 9518SOL     OW40189   4.069   0.572  17.420  0.0272  0.2398  0.4749
 9518SOL    HW140190   4.136   0.637  17.445 -0.0203  0.9219 -1.1425
 9518SOL    HW240191   4.093   0.561  17.328  0.7228 -0.9599  0.8055
 9519SOL     OW40192   2.887   3.953  16.750 -0.4567  0.2515  0.0983
 9519SOL    HW140193   2.891   3.957  16.845  1.3833 -0.1939  0.0312
 9519SOL    HW240194   2.808   3.898  16.750 -0.8384  0.8035  0.6258
 9520SOL     OW40195   1.442   1.092   2.672 -0.2153 -0.6782 -0.3923
 9520SOL    HW140196   1.504   1.163   2.687  2.2179 -2.6431 -1.1208
 9520SOL    HW240197   1.358   1.136   2.679  0.9341  1.7980 -2.5168
 9521SOL     OW40198   2.752   0.823  12.161 -0.2482  0.0164 -0.4490
 9521SOL    HW140199   2.787   0.911  12.173  0.9141 -0.8410  2.4330
 9521SOL    HW240200   2.663   0.837  12.192  0.2818 -1.2310  1.6099
 9522SOL     OW40201   3.530   1.592   4.250 -0.6689 -0.0500 -0.2047
 9522SOL    HW140202   3.565   1.504   4.264  1.8173  1.0062  0.2248
 9522SOL    HW240203   3.553   1.621   4.161 -0.3827  2.0391  0.5610
 9523SOL     OW40204   2.248   0.234   5.730 -0.1812 -0.0298 -0.0887
 9523SOL    HW140205   2.312   0.231   5.659  0.0417  1.6851  0.0514
 9523SOL    HW240206   2.277   0.311   5.779 -0.6713 -0.0464  0.2277
 9524SOL     OW40207   3.927   0.957   4.281 -0.1265  0.0020  0.2423
 9524SOL    HW140208   3.942   1.024   4.214  0.4284 -0.5879 -0.2315
 9524SOL    HW240209   4.016   0.925   4.292  0.3149  1.0773 -0.2488
 9525SOL     OW40210   2.392   2.178  12.772 -0.0103  0.3881  0.0380
 9525SOL    HW140211   2.412   2.181  12.678 -1.0170 -1.6150 -0.2269
 9525SOL    HW240212   2.337   2.100  12.779  0.4446  0.0733  0.0947
 9526SOL     OW40213   2.186   2.808   2.784 -0.1365  0.2018  0.2705
 9526SOL    HW140214   2.280   2.790   2.791  0.2527  1.6393 -1.2356
 9526SOL    HW240215   2.155   2.718   2.776  0.0400  0.2801 -1.2205
 9527SOL     OW40216   3.178   3.598  16.509  0.5706 -0.1923 -0.2074
 9527SOL    HW140217   3.149   3.608  16.419  1.1776 -0.9245 -0.4824
 9527SOL    HW240218   3.163   3.682  16.552  0.0851 -0.8203  0.8431
 9528SOL     OW40219   1.951   3.525   1.850 -0.2816 -0.1653  0.8827
 9528SOL    HW140220   1.888   3.475   1.797 -0.0175 -0.3436  0.7382
 9528SOL    HW240221   2.033   3.478   1.835 -0.9235 -0.5421 -1.3272
 9529SOL     OW40222   4.466   3.010   5.184  0.3463  0.1666 -0.4437
 9529SOL    HW140223   4.403   3.082   5.186 -0.0708 -0.3022  3.6142
 9529SOL    HW240224   4.504   3.024   5.097  0.2658 -1.2206 -0.7105
 9530SOL     OW40225   1.815   4.655  11.435 -0.6108 -1.2271 -0.5631
 9530SOL    HW140226   1.753   4.728  11.436  0.0713 -0.6700  0.8689
 9530SOL    HW240227   1.866   4.675  11.357 -0.0176  1.4193  0.5079
 9531SOL     OW40228   4.092   4.670   9.745  0.2995 -0.8437 -0.0315
 9531SOL    HW140229   4.151   4.664   9.670  2.1675 -2.3708  1.5612
 9531SOL    HW240230   4.008   4.658   9.702 -0.0786 -0.6251  0.6396
 9532SOL     OW40231   0.625   2.550   3.147 -0.1982  0.5504  0.4497
 9532SOL    HW140232   0.690   2.492   3.188 -0.2337  1.2726  1.5176
 9532SOL    HW240233   0.647   2.637   3.179  0.6981  0.8047 -0.8530
 9533SOL     OW40234   4.481   4.252   9.025 -0.2775 -0.2480  0.3654
 9533SOL    HW140235   4.483   4.343   9.054 -0.8577 -0.8446  2.2634
 9533SOL    HW240236   4.549   4.246   8.959 -2.8583  0.5842 -2.3624
 9534SOL     OW40237   2.104   0.186  15.791 -0.1268  0.2848 -0.2588
 9534SOL    HW140238   2.124   0.175  15.884 -1.1292  1.6739  0.1294
 9534SOL    HW240239   2.128   0.101  15.754  0.9178  0.3768  0.2069
 9535SOL     OW40240   4.212   1.236   4.571 -0.3463  0.3306  0.1350
 9535SOL    HW140241   4.141   1.173   4.578  0.6163 -0.8028 -0.2032
 9535SOL    HW240242   4.175   1.311   4.617 -1.6473 -0.4917  0.4060
 9536SOL     OW40243   0.804   2.707   9.153  0.5816  0.4115 -0.5189
 9536SOL    HW140244   0.858   2.786   9.162  1.4136 -0.2304  0.0608
 9536SOL    HW240245   0.868   2.645   9.118  1.5344  0.7942  0.5518
 9537SOL     OW40246   4.303   4.352   9.480 -0.6427 -0.2367  0.4578
 9537SOL    HW140247   4.365   4.331   9.411  0.7844 -0.7759  1.8948
 9537SOL    HW240248   4.222   4.318   9.442  0.4979 -1.9458 -0.4224
 9538SOL     OW40249   1.040   3.651   5.969  0.2742 -0.4017 -0.2818
 9538SOL    HW140250   1.053   3.563   6.005 -0.0766 -0.2073  0.3248
 9538SOL    HW240251   0.988   3.684   6.042  1.2987  0.1761  0.1821
 9539SOL     OW40252   2.931   0.998   4.068  0.4405  0.0028  0.4820
 9539SOL    HW140253   2.838   0.987   4.048  0.0732 -1.4747  3.0745
 9539SOL    HW240254   2.935   1.007   4.163  0.4164  0.7784  0.4092
 9540SOL     OW40255   0.460   2.065   3.306  0.0297  0.1368  0.1382
 9540SOL    HW140256   0.466   2.067   3.401  0.4129 -1.1148  0.1381
 9540SOL    HW240257   0.440   2.157   3.287 -0.5493  0.0402  0.2767
 9541SOL     OW40258   2.674   2.674   1.746 -0.5296  0.2431 -0.0041
 9541SOL    HW140259   2.589   2.632   1.760 -0.5132  0.8239  1.7952
 9541SOL    HW240260   2.660   2.712   1.659  0.4352 -3.3169 -1.7370
 9542SOL     OW40261   4.215   2.730  16.983  0.2361  0.4914 -0.0945
 9542SOL    HW140262   4.266   2.657  17.019  1.3609  1.4501  0.2718
 9542SOL    HW240263   4.153   2.689  16.923  1.4971  0.0133 -1.0828
 9543SOL     OW40264   0.767   0.646   6.549  0.4721  0.1241 -0.1322
 9543SOL    HW140265   0.792   0.616   6.462 -0.6982 -0.2502 -0.3448
 9543SOL    HW240266   0.799   0.573   6.602  2.0641  0.5181 -0.5502
 9544SOL     OW40267   3.335   3.689   8.610  0.5150 -0.5492 -0.5531
 9544SOL    HW140268   3.311   3.703   8.518 -0.3575 -1.9599 -0.5436
 9544SOL    HW240269   3.271   3.743   8.657  2.0205 -0.4104  1.3236
 9545SOL     OW40270   2.219   1.726   2.066 -0.2098 -0.1594 -0.1436
 9545SOL    HW140271   2.237   1.738   2.159  0.6093  1.1276 -0.4742
 9545SOL    HW240272   2.149   1.789   2.048 -0.5869 -1.0060 -1.6824
 9546SOL     OW40273   3.661   0.752   7.296 -0.6273  0.1510 -0.1091
 9546SOL    HW140274   3.638   0.834   7.251 -0.0682  0.5234  0.2846
 9546SOL    HW240275   3.569   0.728   7.306  0.2712 -3.2158 -0.0461
 9547SOL     OW40276   2.055   3.922   3.924  0.5425  0.4805  0.7764
 9547SOL    HW140277   2.093   4.002   3.887  1.6303  0.3315  1.5699
 9547SOL    HW240278   2.136   3.876   3.947  0.1772 -0.6005 -0.0933
 9548SOL     OW40279   2.618   0.679   8.510 -0.0029  0.0353  0.0268
 9548SOL    HW140280   2.526   0.698   8.495  0.8762  1.4364 -3.5947
 9548SOL    HW240281   2.647   0.628   8.434  0.4670  0.0494  0.1977
 9549SOL     OW40282   0.088   0.540   5.686  0.3213 -0.3162  0.4291
 9549SOL    HW140283   4.734   0.548   5.682  0.6673  3.3945 -0.1510
 9549SOL    HW240284   0.120   0.607   5.746 -1.0599  0.4327  0.3319
 9550SOL     OW40285   0.961   2.952   5.354  0.2393 -0.4324 -0.3769
 9550SOL    HW140286   0.954   3.045   5.331  1.3331 -0.1398  0.4745
 9550SOL    HW240287   0.886   2.967   5.411 -0.7637  0.0038 -1.7937
 9551SOL     OW40288   3.995   2.929  16.563  0.4876  0.3721  0.1138
 9551SOL    HW140289   3.943   2.867  16.615  1.2940  0.6877  1.3049
 9551SOL    HW240290   4.068   2.941  16.624  1.4950 -1.1497 -0.7974
 9552SOL     OW40291   3.130   1.306   1.822  0.8346  0.3612  0.0834
 9552SOL    HW140292   3.071   1.379   1.843 -2.7397 -2.0917 -1.3744
 9552SOL    HW240293   3.096   1.276   1.738 -1.4235 -1.0329  1.5141
 9553SOL     OW40294   3.402   1.764   7.678 -0.5391 -0.0269  0.3314
 9553SOL    HW140295   3.455   1.757   7.758 -1.0663 -1.8893  0.5125
 9553SOL    HW240296   3.408   1.859   7.666 -0.0942 -0.2614 -1.1996
 9554SOL     OW40297   4.530   4.719   6.843  0.2258 -0.5086  0.1168
 9554SOL    HW140298   4.474   0.023   6.779 -1.4045 -1.7188  0.7154
 9554SOL    HW240299   4.565   4.650   6.787  0.6306  0.4428 -0.7989
 9555SOL     OW40300   3.442   3.105  16.399  0.8456 -0.0025  0.0693
 9555SOL    HW140301   3.422   3.153  16.479  2.8599  0.1517  0.4744
 9555SOL    HW240302   3.415   3.013  16.409 -3.0640  1.0975 -0.2619
 9556SOL     OW40303   1.286   2.030   8.160  0.4152 -0.0655  0.3277
 9556SOL    HW140304   1.344   1.956   8.174  1.7141  0.6050 -1.4508
 9556SOL    HW240305   1.269   2.074   8.243  0.7671  0.1500  0.2856
 9557SOL     OW40306   2.130   1.388  13.973 -0.1410  0.5457 -0.1342
 9557SOL    HW140307   2.091   1.456  14.027 -3.6197 -2.7946  1.5108
 9557SOL    HW240308   2.157   1.443  13.900 -2.5912  2.3602  0.3465
 9558SOL     OW40309   0.304   3.752  13.941 -0.0271 -0.1692 -0.5864
 9558SOL    HW140310   0.314   3.658  13.932  3.7603  0.0631  1.3273
 9558SOL    HW240311   0.348   3.762  14.026  0.8613  1.6519 -1.2734
 9559SOL     OW40312   3.287   0.942  10.009 -0.2209  0.1228  0.6105
 9559SOL    HW140313   3.332   1.025  10.016 -1.8808  1.0391  0.5053
 9559SOL    HW240314   3.353   0.896   9.957  0.0582  1.4328 -0.1906
 9560SOL     OW40315   1.736   2.580   6.368 -0.2934 -0.2119  1.0987
 9560SOL    HW140316   1.795   2.637   6.418  0.5823  0.8594 -1.1531
 9560SOL    HW240317   1.688   2.528   6.432  0.7723 -1.8651  0.5408
 9561SOL     OW40318   2.142   1.707   3.353 -0.8872 -0.0478 -0.5341
 9561SOL    HW140319   2.233   1.698   3.381 -0.7901  2.2140 -0.1115
 9561SOL    HW240320   2.110   1.618   3.369 -0.4612 -0.0984  0.0208
 9562SOL     OW40321   2.683   2.210   7.712  0.4137 -0.3390  0.3653
 9562SOL    HW140322   2.739   2.224   7.788  0.5672 -1.5185  0.4751
 9562SOL    HW240323   2.607   2.247   7.758  0.3508  1.1621 -0.9731
 9563SOL     OW40324   3.072   2.857   6.964 -0.2172  1.2420  0.4648
 9563SOL    HW140325   3.118   2.845   6.881 -1.1828  1.6700 -0.1434
 9563SOL    HW240326   3.143   2.832   7.023  0.7407  0.7745 -0.8873
 9564SOL     OW40327   3.262   1.825   7.087 -0.1724  0.1245  0.7254
 9564SOL    HW140328   3.207   1.878   7.029  0.2329 -0.0498  0.1777
 9564SOL    HW240329   3.200   1.762   7.124  0.0911  0.8539  2.4250
 9565SOL     OW40330   4.272   1.386   1.361 -0.1561  0.2258  0.0872
 9565SOL    HW140331   4.224   1.454   1.408  0.1274 -0.1640  0.9374
 9565SOL    HW240332   4.224   1.379   1.278  1.0557  1.3924 -0.7085
 9566SOL     OW40333   0.547   1.939   1.484 -0.2625  0.2000 -0.1884
 9566SOL    HW140334   0.505   1.902   1.406 -1.2249  0.6373  0.1208
 9566SOL    HW240335   0.477   1.949   1.549 -1.1113  1.5726 -1.2987
 9567SOL     OW40336   1.376   3.390  11.666 -0.4763  0.0410  0.4764
 9567SOL    HW140337   1.341   3.301  11.673 -2.7128  0.8385 -0.5988
 9567SOL    HW240338   1.308   3.443  11.708 -0.0912 -1.0748  2.5330
 9568SOL     OW40339   1.767   0.774   5.788  0.4550  0.1872 -0.1062
 9568SOL    HW140340   1.735   0.846   5.841 -1.5935  0.2024 -1.3706
 9568SOL    HW240341   1.750   0.708   5.855 -1.2529 -0.5188 -1.2373
 9569SOL     OW40342   2.622   0.151   2.147  0.1047  0.7910  0.2548
 9569SOL    HW140343   2.668   0.234   2.143 -1.2706  1.5432  0.1469
 9569SOL    HW240344   2.675   0.092   2.200  0.4813 -0.6731 -1.7116
   4.74086   4.74086  17.76082
