Membrane in water
40344
    1TMC1    C1    1   3.929   3.463  11.920  0.0536 -0.2519 -0.6154
    1TMC1    C2    2   3.997   3.426  11.805  0.1929 -0.0434 -0.0845
    1TMC1    C3    3   4.093   3.330  11.810  0.3867 -0.5005  0.2815
    1TMC1    C4    4   3.956   3.401  12.041  0.6062  0.0561 -0.6080
    1TMC1    C5    5   4.045   3.298  12.035  0.8545  0.3188 -0.0950
    1TMC1    C6    6   4.121   3.266  11.929  0.0610 -0.3007  0.1382
    1TMC1     C    7   3.882   3.598  11.932  0.2460 -0.3196  0.6693
    1TMC1     O    8   3.887   3.640  12.047  0.0940 -0.3653 -0.1959
    1TMC1     H    9   3.997   3.486  11.714 -1.6188 -1.4463 -1.0184
    1TMC1    H1   10   3.883   3.421  12.119  1.0223  1.6220 -0.6122
    1TMC1    H2   11   4.190   3.183  11.929  1.4488  0.8886 -3.3246
    1TMC1    C7   12   4.023   3.184  12.123 -0.0993  0.1283 -0.0955
    1TMC1    C8   13   4.202   3.342  11.715 -0.0049  0.1925  0.1532
    1TMC1    O1   14   3.989   3.079  12.071  0.1074  0.8312  0.5220
    1TMC1    O2   15   4.169   3.384  11.604 -0.2761  0.4410  0.3786
    1TMC1    O3   16   4.135   3.194  12.205  0.3961 -0.0758  0.6408
    1TMC1    H3   17   4.151   3.287  12.233 -0.5850  0.2989 -0.0285
    1TMC1    O5   18   4.284   3.424  11.788 -0.3640  0.5332  0.2560
    1TMC1    H5   19   4.316   3.381  11.871 -0.6607 -0.0901  0.0539
    2MPD2     C   20   3.736   4.056  11.737  0.4559  0.7001  0.7526
    2MPD2    C1   21   3.735   4.018  11.873  0.0845 -0.5523  0.1609
    2MPD2    C2   22   3.788   3.891  11.907 -0.3650 -0.1202  0.0661
    2MPD2    C3   23   3.817   3.800  11.805 -0.1155  0.5176 -0.3561
    2MPD2    C4   24   3.800   3.838  11.677  0.0303  0.2336 -0.5168
    2MPD2    C5   25   3.764   3.963  11.641  0.2140 -0.7797  0.8752
    2MPD2     H   26   3.796   3.844  12.005  2.7227  0.9543  0.3499
    2MPD2    H1   27   3.832   3.768  11.602 -4.4198 -1.7124 -0.5845
    2MPD2    H2   28   3.695   4.150  11.701  0.3213  0.3565  0.0143
    2MPD2    H3   29   3.759   3.994  11.537 -0.9784 -0.7794  0.9321
    2MPD2     N   30   3.860   3.664  11.818  0.8701 -1.2993  0.3390
    2MPD2    H5   31   3.858   3.606  11.734 -0.6136  1.1306 -1.3228
    2MPD2    N1   32   3.691   4.101  11.977  0.1618 -0.2077 -0.4831
    2MPD2    H7   33   3.703   4.050  12.063 -3.0465  0.2752  0.2759
    3TMC1    C1   34   3.461   0.625  10.905  1.1816 -0.0449  0.4938
    3TMC1    C2   35   3.407   0.706  10.809  0.0107  0.7428  0.4988
    3TMC1    C3   36   3.496   0.765  10.727  0.3939 -0.7334 -0.6220
    3TMC1    C4   37   3.599   0.598  10.921 -0.7597  0.4238 -0.1488
    3TMC1    C5   38   3.677   0.646  10.815 -0.3357 -0.1324 -0.2787
    3TMC1    C6   39   3.629   0.733  10.721  0.1206 -0.2695  0.1942
    3TMC1     C   40   3.377   0.566  11.009  0.7266  0.5324  0.2638
    3TMC1     O   41   3.441   0.478  11.059  0.0178  1.1152  0.7177
    3TMC1     H   42   3.300   0.725  10.801  0.0468 -0.6290 -3.3170
    3TMC1    H1   43   3.632   0.553  11.014  0.0555  1.5174  0.0836
    3TMC1    H2   44   3.694   0.746  10.635  4.1511 -4.0078  2.6820
    3TMC1    C7   45   3.827   0.646  10.828  0.8754  0.7225 -0.4514
    3TMC1    C8   46   3.444   0.856  10.631 -0.6390  0.7182 -0.1165
    3TMC1    O1   47   3.884   0.725  10.756  0.5059 -0.2764  0.0822
    3TMC1    O2   48   3.325   0.880  10.619 -0.0865  0.3911  0.8078
    3TMC1    O3   49   3.875   0.519  10.852 -0.0576  0.4898 -0.5088
    3TMC1    H3   50   3.802   0.457  10.876  0.1377 -0.0438 -1.2818
    3TMC1    O5   51   3.545   0.925  10.576  0.4400  0.1382 -0.0602
    3TMC1    H5   52   3.630   0.917  10.626 -0.4656  1.2545  1.6608
    4MPD2     C   53   2.939   0.488  11.243 -0.0045  0.1084 -0.4573
    4MPD2    C1   54   2.926   0.607  11.186 -0.0208 -1.2691 -0.2974
    4MPD2    C2   55   3.028   0.647  11.109  0.3724 -0.8124  0.9052
    4MPD2    C3   56   3.148   0.575  11.096 -0.1431  0.2276 -0.4265
    4MPD2    C4   57   3.151   0.450  11.158  0.0642  0.0007  0.5055
    4MPD2    C5   58   3.044   0.405  11.238 -0.9318  0.2430 -0.1704
    4MPD2     H   59   3.017   0.743  11.060 -0.9044 -1.1009  0.6119
    4MPD2    H1   60   3.225   0.371  11.151  0.8485  0.7117  0.6938
    4MPD2    H2   61   2.864   0.442  11.306  0.5999  0.4743  0.5256
    4MPD2    H3   62   3.056   0.304  11.277 -1.2387  0.1267 -0.3731
    4MPD2     N   63   3.250   0.622  11.018  0.6455 -0.4060  0.0042
    4MPD2    H5   64   3.233   0.702  10.958 -0.4805 -2.2205 -2.0847
    4MPD2    N1   65   2.824   0.693  11.226  0.6574  0.1660  0.4166
    4MPD2    H7   66   2.842   0.792  11.208  2.2378 -0.1512  0.2871
    5TCq1    O1   67   4.053   2.328  12.101 -0.0955 -0.3139 -0.1847
    5TCq1    C1   68   4.040   2.435  12.181 -0.3612  0.2857  0.2151
    5TCq1    O2   69   4.063   2.443  12.298  0.1097 -0.9221 -0.4651
    5TCq1    C2   70   3.952   2.520  12.110  0.2453 -0.3645  0.0651
    5TCq1    C3   71   3.847   2.584  12.171  0.1801 -0.5499  0.2129
    5TCq1    C4   72   3.758   2.659  12.091 -0.1944 -0.2695  0.4381
    5TCq1    C5   73   3.778   2.681  11.959  0.1064  0.4909  0.4742
    5TCq1    C6   74   3.896   2.621  11.904 -0.0670 -0.7702  0.0941
    5TCq1    C7   75   3.977   2.536  11.977 -0.0499  0.0795 -0.2797
    5TCq1    C8   76   3.917   2.633  11.760 -1.0597 -0.3032 -1.0463
    5TCq1    O4   77   3.974   2.537  11.711 -0.0581 -0.7817  0.2191
    5TCq1    C9   78   3.636   2.713  12.145  0.3123 -0.5958  0.0141
    5TCq1    O5   79   3.619   2.698  12.265  0.4627  0.3251  0.5712
    5TCq1    O6   80   3.559   2.770  12.059 -0.6777  0.0170 -0.0624
    5TCq1    H1   81   4.026   2.337  12.007 -0.2696 -0.3443 -0.1367
    5TCq1    H2   82   3.839   2.572  12.279  1.4727 -0.7862  0.2890
    5TCq1    H3   83   3.722   2.753  11.900 -0.4163 -0.6915 -0.4643
    5TCq1    H4   84   4.071   2.509  11.930  0.3699 -0.2387  0.7260
    6MPD2     C   85   3.826   2.904  11.524  0.1100 -0.2104 -0.0275
    6MPD2    C1   86   3.852   2.775  11.557 -0.3778 -0.6934  0.3470
    6MPD2    C2   87   3.859   2.678  11.462 -0.6833 -0.5242  0.3777
    6MPD2    C3   88   3.825   2.702  11.330 -0.0492  0.2198 -0.5294
    6MPD2    C4   89   3.802   2.834  11.295 -0.6810 -0.6158 -0.4916
    6MPD2    C5   90   3.807   2.935  11.391  0.1012  0.2994 -0.1722
    6MPD2     H   91   3.893   2.577  11.483  0.0144  0.0965  2.1600
    6MPD2    H1   92   3.794   2.870  11.193 -0.3770 -0.5600 -0.4939
    6MPD2    H2   93   3.811   2.975  11.605  1.5226 -1.6962  1.5295
    6MPD2    H3   94   3.786   3.032  11.348  0.0325 -0.2950 -1.4821
    6MPD2     N   95   3.838   2.595  11.238  0.6236 -0.4878  0.8802
    6MPD2    H5   96   3.864   2.504  11.275 -1.7875 -2.0456 -1.2379
    6MPD2    N1   97   3.886   2.751  11.698  0.6064  0.4954 -0.3337
    6MPD2    H7   98   3.860   2.830  11.755  1.7421  2.4685 -2.5255
    7TCq1    O1   99   1.107   2.258  13.161 -0.1126 -0.1507 -0.2159
    7TCq1    C1  100   1.173   2.163  13.235 -0.3056 -0.9687  0.0770
    7TCq1    O2  101   1.218   2.184  13.345 -0.1953 -0.4128 -0.6341
    7TCq1    C2  102   1.139   2.036  13.184  0.5615 -0.3314 -0.2345
    7TCq1    C3  103   1.130   2.019  13.049  0.8742 -0.3379 -0.4787
    7TCq1    C4  104   1.108   1.893  13.006  0.1409  0.3522  0.0552
    7TCq1    C5  105   1.117   1.783  13.092  0.1716  0.2510  0.3473
    7TCq1    C6  106   1.139   1.803  13.226  0.0051 -0.3175 -0.0044
    7TCq1    C7  107   1.149   1.932  13.273  0.9818 -0.2870  0.2851
    7TCq1    C8  108   1.167   1.688  13.313 -1.4750  0.0028  0.2933
    7TCq1    O4  109   1.134   1.580  13.278 -0.2005 -0.3165  0.1344
    7TCq1    C9  110   1.066   1.872  12.867 -0.5430 -0.3783  0.3799
    7TCq1    O5  111   1.024   1.757  12.834 -0.8642  0.6508  0.6373
    7TCq1    O6  112   1.071   1.972  12.786 -0.1400  0.3321 -1.3162
    7TCq1    H1  113   1.071   2.214  13.081  3.0708 -0.6086 -1.3977
    7TCq1    H2  114   1.132   2.101  12.979  0.2171  1.6913  1.8813
    7TCq1    H3  115   1.111   1.691  13.034 -0.9663 -0.9629  2.3827
    7TCq1    H4  116   1.158   1.957  13.378  0.0476  1.3304 -0.0206
    8MPD2     C  117   1.350   1.477  13.755  0.0231 -0.5392 -0.4369
    8MPD2    C1  118   1.267   1.417  13.658 -0.1062  0.2223 -0.3750
    8MPD2    C2  119   1.232   1.496  13.552  0.2757  0.1790  0.5572
    8MPD2    C3  120   1.276   1.627  13.536  0.6309  0.5993 -0.1302
    8MPD2    C4  121   1.362   1.674  13.631 -0.5223 -0.6616 -0.8780
    8MPD2    C5  122   1.399   1.601  13.742  0.2352 -0.0360 -0.4315
    8MPD2     H  123   1.177   1.463  13.465 -0.0889  0.0830  0.8232
    8MPD2    H1  124   1.386   1.780  13.633  0.3753 -0.8426 -2.2062
    8MPD2    H2  125   1.396   1.407  13.823  1.3215 -0.2808 -1.0512
    8MPD2    H3  126   1.464   1.648  13.814  0.1799  1.5235 -1.3935
    8MPD2     N  127   1.232   1.718  13.431 -0.1055  0.4058 -0.3941
    8MPD2    H5  128   1.278   1.809  13.431 -0.8118  0.7490  1.2117
    8MPD2    N1  129   1.245   1.285  13.667  0.6236 -0.2611  0.1643
    8MPD2    H7  130   1.285   1.230  13.743 -0.5770 -0.0236  0.9608
    9TMC1    C1  131   3.576   1.235  11.485  0.1632 -0.6059 -0.1941
    9TMC1    C2  132   3.452   1.183  11.516  0.3923 -0.3646 -0.2170
    9TMC1    C3  133   3.347   1.231  11.441  0.6688  0.2932  0.2527
    9TMC1    C4  134   3.608   1.306  11.375 -0.5374  0.2835 -0.0875
    9TMC1    C5  135   3.498   1.336  11.297 -1.3338  0.4209 -0.1806
    9TMC1    C6  136   3.374   1.302  11.327  0.1352 -0.0088  0.7315
    9TMC1     C  137   3.678   1.219  11.585  0.1006  0.7276  0.5651
    9TMC1     O  138   3.757   1.310  11.586  0.0252 -0.0934  0.7445
    9TMC1     H  139   3.425   1.124  11.602 -0.2489  0.0656 -0.1193
    9TMC1    H1  140   3.706   1.351  11.362 -0.6085  0.9206  1.4991
    9TMC1    H2  141   3.289   1.330  11.266 -1.4232 -1.7953  2.0533
    9TMC1    C7  142   3.512   1.394  11.157  0.4571 -0.3225 -0.4497
    9TMC1    C8  143   3.208   1.183  11.463  0.2276  0.0703 -0.0536
    9TMC1    O1  144   3.408   1.415  11.095  0.2401  0.4561 -0.2300
    9TMC1    O2  145   3.179   1.090  11.536  0.2975  0.2519  0.6017
    9TMC1    O3  146   3.630   1.349  11.105  0.2066 -0.5040 -0.1317
    9TMC1    H3  147   3.707   1.358  11.165 -0.2708  0.9714  0.2534
    9TMC1    O5  148   3.125   1.283  11.451 -0.5503  0.3940  0.2436
    9TMC1    H5  149   3.162   1.371  11.431 -1.0803  0.9317  1.6249
   10MPD2     C  150   3.800   1.208  11.859 -0.5567  0.7894 -0.7004
   10MPD2    C1  151   3.703   1.114  11.811  0.0673  0.7807 -0.6198
   10MPD2    C2  152   3.643   1.029  11.905  0.4048  0.6720 -1.0099
   10MPD2    C3  153   3.684   1.032  12.038  0.5292  0.3680 -0.0621
   10MPD2    C4  154   3.788   1.113  12.077 -0.3224  0.0820 -0.2939
   10MPD2    C5  155   3.845   1.194  11.983 -0.4559 -0.5946 -0.3675
   10MPD2     H  156   3.558   0.969  11.875  2.0672 -2.1190 -0.2087
   10MPD2    H1  157   3.820   1.102  12.181 -0.1052  0.8897 -0.2733
   10MPD2    H2  158   3.854   1.279  11.797 -0.6030  1.8796  0.4984
   10MPD2    H3  159   3.918   1.265  12.023 -1.4700 -0.3546  1.0835
   10MPD2     N  160   3.624   0.954  12.137 -0.0390  0.3093 -0.3226
   10MPD2    H5  161   3.660   0.964  12.232 -0.9504 -2.2568  0.2892
   10MPD2    N1  162   3.647   1.120  11.681 -0.2002 -0.9682 -0.5992
   10MPD2    H7  163   3.575   1.056  11.648 -0.3333 -0.6398 -0.9477
   11TCq1    O1  164   4.322   0.317  13.850 -0.1962  0.2896  0.0125
   11TCq1    C1  165   4.238   0.307  13.950 -0.2262  0.3230  0.0789
   11TCq1    O2  166   4.140   0.377  13.945 -0.8894  0.7668  0.1037
   11TCq1    C2  167   4.273   0.213  14.052 -0.0613  0.2685 -0.0461
   11TCq1    C3  168   4.400   0.189  14.090  1.0577 -0.4169 -0.2596
   11TCq1    C4  169   4.430   0.098  14.191  0.6901  0.7434  0.0125
   11TCq1    C5  170   4.327   0.031  14.254 -0.2746 -0.9158 -0.0894
   11TCq1    C6  171   4.206   0.067  14.205 -0.3176 -0.7180  0.4731
   11TCq1    C7  172   4.167   0.150  14.108 -0.0894  0.1609  0.0183
   11TCq1    C8  173   4.103   4.710  14.235  0.4591 -0.5611 -0.3558
   11TCq1    O4  174   3.984   0.007  14.243 -0.4137  0.6881  0.1664
   11TCq1    C9  175   4.566   0.068  14.216 -0.3421  0.4659  0.1478
   11TCq1    O5  176   4.597   4.735  14.315 -0.4412 -0.2559 -0.0425
   11TCq1    O6  177   4.653   0.114  14.139 -0.4181  0.0281 -0.1160
   11TCq1    H1  178   4.370   0.232  13.840  1.0970  0.9537  0.6943
   11TCq1    H2  179   4.482   0.249  14.051  0.2423  1.9871  1.6901
   11TCq1    H3  180   4.359   4.697  14.329  0.8149 -0.0469  0.2786
   11TCq1    H4  181   4.061   0.172  14.102 -0.1663  0.0786  1.0677
   12MPD2     C  182   3.954   4.467  14.186 -1.0260 -0.7524 -0.5184
   12MPD2    C1  183   4.090   4.463  14.222  0.7602  0.2251 -0.4536
   12MPD2    C2  184   4.164   4.353  14.205 -1.0229  0.8800  0.1260
   12MPD2    C3  185   4.106   4.238  14.155 -0.1594 -0.0393  0.9025
   12MPD2    C4  186   3.972   4.234  14.131  0.2620 -0.8038  0.4249
   12MPD2    C5  187   3.902   4.353  14.144  0.1805 -0.4619 -0.8977
   12MPD2     H  188   4.268   4.352  14.237 -1.7972 -0.2193  2.6031
   12MPD2    H1  189   3.919   4.142  14.107 -1.2712  0.1758  0.0201
   12MPD2    H2  190   3.879   4.544  14.199 -0.4539 -0.0896 -1.1611
   12MPD2    H3  191   3.797   4.362  14.119  0.0190  0.0435 -0.0187
   12MPD2     N  192   4.186   4.121  14.118  0.7359 -0.6273  0.9856
   12MPD2    H5  193   4.131   4.040  14.091  0.4788  0.1161 -0.7804
   12MPD2    N1  194   4.157   4.585  14.238 -0.5314  0.2756 -0.0160
   12MPD2    H7  195   4.258   4.584  14.251 -0.3192 -1.8067 -1.8715
   13TCq1    O1  196   4.052   1.510  11.273  0.3910  0.1051  0.2829
   13TCq1    C1  197   3.976   1.428  11.189 -1.2363  0.6690 -0.0576
   13TCq1    O2  198   3.854   1.435  11.190 -0.1992 -0.2051 -0.5639
   13TCq1    C2  199   4.040   1.301  11.220  0.3384 -0.2204  0.0345
   13TCq1    C3  200   4.177   1.301  11.249 -0.3850  0.2949 -0.0338
   13TCq1    C4  201   4.233   1.188  11.294  0.1111  0.1083  0.1962
   13TCq1    C5  202   4.151   1.074  11.309  0.7096 -0.4168 -0.0086
   13TCq1    C6  203   4.018   1.079  11.285  0.1198  0.3299  0.0997
   13TCq1    C7  204   3.955   1.198  11.242  0.3248 -0.0455  0.1676
   13TCq1    C8  205   3.942   0.949  11.284 -0.4295 -0.4363  0.6045
   13TCq1    O4  206   3.817   0.955  11.278  0.1228  0.2673 -0.3122
   13TCq1    C9  207   4.375   1.178  11.314  0.0627 -0.3428 -0.1946
   13TCq1    O5  208   4.442   1.284  11.336 -0.4367  0.0251  0.0561
   13TCq1    O6  209   4.417   1.065  11.296  0.3201  0.0314  0.0937
   13TCq1    H1  210   4.123   1.463  11.322  0.0047 -1.5314 -0.7778
   13TCq1    H2  211   4.248   1.381  11.227  3.0814 -2.3209  1.6836
   13TCq1    H3  212   4.190   0.981  11.347  0.3499 -1.2709 -1.7090
   13TCq1    H4  213   3.853   1.195  11.206 -0.0537 -1.0263  1.3379
   14MPD2     C  214   4.047   0.613  11.187  1.0596  0.0998 -0.0227
   14MPD2    C1  215   3.973   0.711  11.250 -0.4472 -0.3234 -0.1859
   14MPD2    C2  216   3.850   0.681  11.305 -0.2062 -0.1330  0.2189
   14MPD2    C3  217   3.789   0.562  11.275  0.1482  0.3064 -0.0227
   14MPD2    C4  218   3.862   0.467  11.208  0.3220  0.4472  0.3414
   14MPD2    C5  219   3.989   0.493  11.168  0.1267 -0.4671 -0.9501
   14MPD2     H  220   3.786   0.750  11.359  0.6563 -1.2506  2.6694
   14MPD2    H1  221   3.817   0.370  11.194 -2.5887  2.3396 -3.4028
   14MPD2    H2  222   4.142   0.634  11.139  1.0095  1.2292  0.3632
   14MPD2    H3  223   4.038   0.418  11.107 -0.4665 -0.6009 -1.2683
   14MPD2     N  224   3.659   0.547  11.325 -0.1147  0.1194  0.1386
   14MPD2    H5  225   3.626   0.626  11.380  1.1767 -0.4421  1.7151
   14MPD2    N1  226   4.026   0.846  11.256 -0.4170  0.1580  0.1645
   14MPD2    H7  227   4.125   0.864  11.238 -1.4033  3.8201 -1.4764
   15TCq1    O1  228   1.680   3.822   1.644 -0.6838  0.3960  0.1326
   15TCq1    C1  229   1.624   3.915   1.553  0.3730 -0.4138 -0.4785
   15TCq1    O2  230   1.650   4.034   1.560  0.0183  0.5256 -0.0140
   15TCq1    C2  231   1.486   3.867   1.546  0.4473  0.4680  0.0734
   15TCq1    C3  232   1.396   3.934   1.622 -0.0078  0.5058  0.0694
   15TCq1    C4  233   1.258   3.905   1.610 -0.5989 -0.4935  0.6501
   15TCq1    C5  234   1.223   3.798   1.529  0.1634  1.0704 -0.4704
   15TCq1    C6  235   1.321   3.716   1.473 -0.4221 -0.1563  0.0862
   15TCq1    C7  236   1.459   3.753   1.476  0.1914 -0.8595  0.5312
   15TCq1    C8  237   1.297   3.593   1.393 -0.3313 -0.0730 -0.3949
   15TCq1    O4  238   1.390   3.524   1.361  0.4749 -0.2050  0.3281
   15TCq1    C9  239   1.156   3.977   1.693  0.1682  0.3396 -0.5871
   15TCq1    O5  240   1.038   3.943   1.667  0.6444 -0.2798  0.3162
   15TCq1    O6  241   1.193   4.057   1.784  0.2209 -0.2246  0.2673
   15TCq1    H1  242   1.615   3.751   1.665 -2.5295  1.8401 -0.7412
   15TCq1    H2  243   1.421   4.023   1.678  0.8673 -1.0177  2.1060
   15TCq1    H3  244   1.119   3.766   1.532 -0.1744  2.3980  1.5765
   15TCq1    H4  245   1.536   3.706   1.416 -0.8735  1.5498 -2.7274
   16MPD2     C  246   0.993   3.552   1.187  0.2617  0.8300 -0.7658
   16MPD2    C1  247   1.109   3.514   1.247  0.4112  0.0119 -0.6836
   16MPD2    C2  248   1.159   3.384   1.238 -0.1612 -0.0759 -0.3801
   16MPD2    C3  249   1.095   3.297   1.153 -0.1729 -0.5641  0.3246
   16MPD2    C4  250   0.986   3.336   1.084 -0.4471  0.3415 -0.3511
   16MPD2    C5  251   0.939   3.467   1.096  0.0478 -0.7013  0.6570
   16MPD2     H  252   1.250   3.360   1.291 -0.7195 -1.5623 -0.1073
   16MPD2    H1  253   0.933   3.279   1.008 -2.6108 -1.5599  2.5998
   16MPD2    H2  254   0.963   3.656   1.195 -0.1402  0.5611  1.1154
   16MPD2    H3  255   0.854   3.510   1.044  0.9367 -0.0978 -0.2899
   16MPD2     N  256   1.157   3.170   1.138 -0.3820  0.1389 -0.8568
   16MPD2    H5  257   1.239   3.149   1.194 -2.1676 -0.2590  1.5780
   16MPD2    N1  258   1.172   3.607   1.334  0.5065  0.1132  0.0395
   16MPD2    H7  259   1.119   3.691   1.358 -0.7907 -0.7839  0.3408
   17TMC1    C1  260   2.941   3.956  11.168  0.2889 -0.1268  0.3128
   17TMC1    C2  261   2.946   3.994  11.035 -0.4852 -0.1102  0.3823
   17TMC1    C3  262   2.827   4.037  10.982  0.2837 -0.6020  0.0428
   17TMC1    C4  263   2.825   3.960  11.244  0.8057 -0.1075  0.6482
   17TMC1    C5  264   2.715   3.996  11.182  0.2361  0.9222 -0.5221
   17TMC1    C6  265   2.714   4.042  11.048  0.3040  0.6993 -0.0709
   17TMC1     C  266   3.061   3.917  11.245  0.1598 -0.5161 -0.5429
   17TMC1     O  267   3.050   3.855  11.352  0.1854 -0.7505 -0.9036
   17TMC1     H  268   3.038   3.989  10.977 -1.0441  0.0370 -0.5114
   17TMC1    H1  269   2.829   3.940  11.351  1.4844 -1.7154  0.3221
   17TMC1    H2  270   2.623   4.074  11.000 -0.4137 -0.1837  0.6955
   17TMC1    C7  271   2.605   4.040  11.259  0.5978  0.2022  0.2241
   17TMC1    C8  272   2.829   4.052  10.838 -0.6468 -0.4560  0.1624
   17TMC1    O1  273   2.494   4.030  11.211 -0.3930  0.0457 -0.3425
   17TMC1    O2  274   2.907   4.117  10.777  0.1762 -0.2508  0.2418
   17TMC1    O3  275   2.646   4.154  11.318 -0.2488  0.4139 -0.3385
   17TMC1    H3  276   2.733   4.143  11.363 -0.1265  0.8334 -0.4681
   17TMC1    O5  277   2.715   4.009  10.783 -0.5710  0.3483  0.1470
   17TMC1    H5  278   2.671   3.937  10.833 -1.6267 -0.1164 -1.4756
   18MPD2     C  279   3.332   3.826  11.303  0.5801  1.0199 -0.1154
   18MPD2    C1  280   3.305   3.943  11.236  0.3337 -0.1573  0.2596
   18MPD2    C2  281   3.404   4.027  11.190  1.1648 -0.2164  0.5904
   18MPD2    C3  282   3.530   3.997  11.223  0.0063  0.3391  0.1032
   18MPD2    C4  283   3.560   3.880  11.289 -0.4062 -0.3383  0.1876
   18MPD2    C5  284   3.465   3.795  11.328  0.3835  0.7990  0.2030
   18MPD2     H  285   3.380   4.111  11.126 -0.0849 -0.0419  1.2688
   18MPD2    H1  286   3.659   3.839  11.304 -1.3331 -2.8504 -0.6645
   18MPD2    H2  287   3.256   3.757  11.338  1.4184  0.8290  1.3204
   18MPD2    H3  288   3.495   3.701  11.374  0.6832 -0.2650 -2.1549
   18MPD2     N  289   3.647   4.066  11.174 -0.3930 -0.4559 -0.1143
   18MPD2    H5  290   3.734   4.025  11.206  0.3019  0.4803 -0.8195
   18MPD2    N1  291   3.176   3.976  11.196 -0.0878  0.0780  0.3645
   18MPD2    H7  292   3.160   4.051  11.129  0.2479 -0.2541 -0.0881
   19TMC2    C1  293   0.920   4.672  14.062  0.7066 -0.1006  0.0420
   19TMC2    C2  294   0.853   0.049  14.101  0.0252  0.5123  0.0902
   19TMC2    C3  295   0.730   0.041  14.156  0.4059  0.7024 -0.1691
   19TMC2    C4  296   0.850   4.554  14.058  0.9750 -0.5005 -0.1256
   19TMC2    C5  297   0.725   4.550  14.119 -0.3377 -0.0147  0.3314
   19TMC2    C6  298   0.664   4.663  14.178  1.2692 -0.4584  0.1143
   19TMC2     C  299   1.064   4.667  14.062 -0.1873  0.1085  0.0691
   19TMC2     O  300   1.127   0.034  14.077  0.5424  0.4724  0.1959
   19TMC2     H  301   0.901   0.146  14.106 -0.6580  0.8292  0.4139
   19TMC2    H1  302   0.894   4.457  14.036 -0.9189 -1.2402 -0.6604
   19TMC2    H2  303   0.577   4.663  14.242 -0.6459  1.2632 -2.4984
   19TMC2    C7  304   0.652   4.427  14.114 -0.3364  0.3520  0.9789
   19TMC2    C8  305   0.709   0.133  14.265  0.0994 -0.0583 -0.4733
   19TMC2    O1  306   0.719   4.330  14.077  0.1871  0.3058 -0.5486
   19TMC2    O2  307   0.801   0.166  14.333 -0.0812 -0.6500  0.4709
   19TMC2    O5  308   0.593   0.206  14.234 -0.6285 -0.3874  0.0393
   19TMC2    H5  309   0.562   0.174  14.147 -0.4071  1.5799 -0.7441
   20MPD2     C  310   1.340   4.593  14.132 -0.1402 -0.2132  0.0034
   20MPD2    C1  311   1.236   4.504  14.109 -0.4375 -0.1720  0.4664
   20MPD2    C2  312   1.259   4.368  14.130 -0.4755  0.0648 -0.1635
   20MPD2    C3  313   1.383   4.317  14.175 -0.1591  0.3543  0.5099
   20MPD2    C4  314   1.486   4.407  14.186 -0.0257  0.1010 -0.8426
   20MPD2    C5  315   1.464   4.536  14.160 -0.2667 -0.2070  0.3520
   20MPD2     H  316   1.176   4.305  14.101  0.2275  0.6767 -3.4732
   20MPD2    H1  317   1.581   4.378  14.229  0.5028 -1.3278 -2.9873
   20MPD2    H2  318   1.334   4.701  14.124  0.2401 -0.1996 -0.1036
   20MPD2    H3  319   1.547   4.603  14.182 -0.6560  0.8731 -1.4331
   20MPD2     N  320   1.404   4.182  14.210 -0.2295 -0.2484 -0.2436
   20MPD2    H5  321   1.496   4.153  14.242 -0.4833 -0.3929  0.3587
   20MPD2    N1  322   1.105   4.539  14.071  0.3844 -0.6359  0.0652
   20MPD2    H7  323   1.038   4.464  14.066  0.4560 -0.6545 -0.7031
   21TMC2    C1  324   3.351   0.223  14.614  0.0368 -0.8773  0.0282
   21TMC2    C2  325   3.401   0.122  14.535  0.7894  0.4074 -0.2489
   21TMC2    C3  326   3.317   0.034  14.480 -0.4294 -0.3858 -0.2564
   21TMC2    C4  327   3.220   0.248  14.616 -0.2201  0.2244  0.2996
   21TMC2    C5  328   3.132   0.166  14.553  0.5495 -0.7705  0.0327
   21TMC2    C6  329   3.180   0.056  14.492  0.2261  0.0668  0.3566
   21TMC2     C  330   3.426   0.245  14.738 -0.5786  0.4209  0.7998
   21TMC2     O  331   3.530   0.179  14.745 -1.0444  0.6595  0.3354
   21TMC2     H  332   3.505   0.091  14.537 -0.2526 -2.9895  2.3078
   21TMC2    H1  333   3.178   0.331  14.671 -1.6287  1.2155 -2.2757
   21TMC2    H2  334   3.111   4.718  14.455 -0.7020  1.4751 -0.8071
   21TMC2    C7  335   3.026   0.140  14.648  0.5352  0.2800 -0.5239
   21TMC2    C8  336   3.361   4.650  14.422 -0.2624  0.4993  0.7634
   21TMC2    O1  337   3.032   0.048  14.729  0.1063  0.3061  0.4443
   21TMC2    O2  338   3.450   4.586  14.466 -0.2358  0.2082  0.4171
   21TMC2    O5  339   3.296   4.635  14.308  0.1063 -0.1766  0.5877
   21TMC2    H5  340   3.235   4.708  14.283  1.6414  0.7901 -0.3322
   22MPD2     C  341   3.513   0.354  15.221 -0.4440 -0.2478  0.2591
   22MPD2    C1  342   3.529   0.237  15.147  0.4690 -0.2230 -0.1926
   22MPD2    C2  343   3.484   0.230  15.016  0.0893 -0.0009 -0.5401
   22MPD2    C3  344   3.422   0.339  14.964 -0.2324 -0.3469 -0.7210
   22MPD2    C4  345   3.387   0.444  15.042 -0.5072  0.8219 -0.5362
   22MPD2    C5  346   3.429   0.446  15.168 -0.1929  0.1239 -0.8743
   22MPD2     H  347   3.480   0.135  14.964  0.3102 -1.5012  2.1957
   22MPD2    H1  348   3.334   0.529  15.000 -0.3593  2.5385  2.6674
   22MPD2    H2  349   3.547   0.374  15.322  1.7049 -0.6313 -0.3956
   22MPD2    H3  350   3.395   0.527  15.232  0.4570  1.1391 -1.8037
   22MPD2     N  351   3.372   0.334  14.833  0.0666  0.2934  0.3497
   22MPD2    H5  352   3.314   0.411  14.802  3.0537  1.4794 -2.3195
   22MPD2    N1  353   3.598   0.124  15.190 -1.1032 -0.1750 -0.0437
   22MPD2    H7  354   3.594   0.045  15.126  1.1059  0.1739 -0.6137
   23TMC2    C1  355   4.231   1.441  14.696  0.3026 -0.9251 -0.5321
   23TMC2    C2  356   4.155   1.550  14.686 -0.0290  0.5012 -0.0728
   23TMC2    C3  357   4.044   1.551  14.609  0.0637 -0.1268  0.2054
   23TMC2    C4  358   4.199   1.324  14.634  0.3465  0.4127 -0.4800
   23TMC2    C5  359   4.095   1.324  14.548 -0.9945  0.1031 -0.5334
   23TMC2    C6  360   4.014   1.434  14.537 -0.1238 -0.2492 -0.1843
   23TMC2     C  361   4.338   1.425  14.792  0.0805 -0.1430 -0.6218
   23TMC2     O  362   4.368   1.314  14.835 -0.3421  0.4095  0.3609
   23TMC2     H  363   4.181   1.629  14.755 -1.0277  0.0918  0.7797
   23TMC2    H1  364   4.247   1.228  14.648  0.3971  0.0407 -3.2091
   23TMC2    H2  365   3.919   1.426  14.487 -0.5690 -2.0504  0.9614
   23TMC2    C7  366   4.031   1.201  14.518 -0.0652  0.2022  0.1410
   23TMC2    C8  367   3.915   1.587  14.664  0.3519 -0.4191 -0.9810
   23TMC2    O1  368   4.088   1.114  14.450  0.7480  0.1573 -0.1345
   23TMC2    O2  369   3.818   1.510  14.661 -0.3683 -0.3360  0.0018
   23TMC2    O5  370   3.921   1.718  14.700 -0.3692 -0.3620 -0.0237
   23TMC2    H5  371   4.005   1.758  14.668 -0.4375  0.2247  0.5300
   24MPD2     C  372   4.729   1.650  15.056 -0.0357 -0.0922  0.2391
   24MPD2    C1  373   4.642   1.542  15.084  0.1841  0.8105 -0.1001
   24MPD2    C2  374   4.541   1.503  15.003  0.1026 -0.0991  0.5669
   24MPD2    C3  375   4.504   1.581  14.896 -0.8812 -0.6020 -0.8515
   24MPD2    C4  376   4.576   1.694  14.874  0.4653  0.3089 -0.8165
   24MPD2    C5  377   4.691   1.725  14.948  0.5372 -0.0220 -0.1302
   24MPD2     H  378   4.488   1.411  15.022 -1.9499  1.0469  0.4085
   24MPD2    H1  379   4.555   1.756  14.788 -1.4765  0.9248  0.0908
   24MPD2    H2  380   0.072   1.679  15.123 -0.4892 -1.0498  1.2049
   24MPD2    H3  381   0.016   1.810  14.924  0.2378  0.7019  1.6497
   24MPD2     N  382   4.402   1.548  14.802 -0.4526  0.9169 -0.6360
   24MPD2    H5  383   4.386   1.614  14.727 -0.2939  0.8024 -0.7684
   24MPD2    N1  384   4.671   1.457  15.191 -0.5433  0.0687 -0.1465
   24MPD2    H7  385   4.620   1.371  15.206  1.9945 -1.1223  1.8070
   25TMC2    C1  386   3.208   4.061  11.953  0.4497  0.2013  0.0009
   25TMC2    C2  387   3.207   4.200  11.918  0.3053  0.0975 -0.3277
   25TMC2    C3  388   3.111   4.278  11.975 -0.4493  0.3850  0.5320
   25TMC2    C4  389   3.116   4.002  12.029 -0.1879 -0.2292  0.0024
   25TMC2    C5  390   3.029   4.088  12.091 -0.4622  0.3485 -0.3690
   25TMC2    C6  391   3.022   4.226  12.067 -0.6643 -1.1642 -0.4558
   25TMC2     C  392   3.298   3.976  11.881 -0.0305 -0.2782  0.3521
   25TMC2     O  393   3.395   4.033  11.835 -0.0684  1.0436 -0.5275
   25TMC2     H  394   3.289   4.248  11.865  0.1341  1.1436  0.3596
   25TMC2    H1  395   3.116   3.895  12.046 -1.2328 -0.6280 -2.5479
   25TMC2    H2  396   2.937   4.290  12.085  0.9082  0.8985 -0.2975
   25TMC2    C7  397   2.931   4.022  12.175 -0.2138  0.2787  0.2170
   25TMC2    C8  398   3.124   4.418  11.961  0.0709 -0.5146 -0.0890
   25TMC2    O1  399   2.975   3.920  12.223  0.2834 -0.0761 -0.3755
   25TMC2    O2  400   3.186   4.469  11.865 -0.3656  0.2489  0.0560
   25TMC2    O5  401   3.138   4.465  12.091 -0.3750  0.6183  0.0812
   25TMC2    H5  402   3.103   4.415  12.167  1.2091 -0.6004  0.0202
   26MPD2     C  403   3.417   3.558  11.607 -0.7571  0.0612  0.0436
   26MPD2    C1  404   3.287   3.544  11.638 -0.3315 -0.1426 -0.1150
   26MPD2    C2  405   3.220   3.643  11.711  0.0850  1.1347 -0.2778
   26MPD2    C3  406   3.292   3.756  11.766 -0.4790  0.0648 -0.4941
   26MPD2    C4  407   3.425   3.762  11.737 -0.0759  0.2853  0.2960
   26MPD2    C5  408   3.487   3.664  11.659 -0.3710  0.4267 -0.2011
   26MPD2     H  409   3.112   3.642  11.716  0.2035 -1.7697  2.1048
   26MPD2    H1  410   3.494   3.833  11.780  1.0349 -1.1534  0.8907
   26MPD2    H2  411   3.465   3.474  11.557 -2.2609 -0.6180 -0.2609
   26MPD2    H3  412   3.595   3.671  11.652 -0.3225  0.1029  0.2228
   26MPD2     N  413   3.231   3.863  11.836  0.0057 -0.0667  0.1116
   26MPD2    H5  414   3.131   3.852  11.850  0.2955 -1.5071  1.0817
   26MPD2    N1  415   3.222   3.425  11.593 -0.6363  0.3654  0.1783
   26MPD2    H7  416   3.270   3.357  11.534 -1.1956  1.1481 -1.1627
   27TMC2    C1  417   2.103   0.419  12.318 -0.4528  0.0285 -0.6293
   27TMC2    C2  418   2.156   0.409  12.193 -0.7873  0.2615 -0.5017
   27TMC2    C3  419   2.283   0.367  12.188  1.0751  0.3462 -0.1349
   27TMC2    C4  420   2.167   0.392  12.436  0.0128 -0.1606 -1.4832
   27TMC2    C5  421   2.293   0.346  12.425 -0.1012  0.5242 -0.0010
   27TMC2    C6  422   2.354   0.334  12.297  0.2852  0.2252  0.8389
   27TMC2     C  423   1.972   0.488  12.332  0.0510 -0.1599  0.5771
   27TMC2     O  424   1.954   0.547  12.435  0.2253 -0.3242 -0.1257
   27TMC2     H  425   2.111   0.467  12.113  0.4529  1.4357 -0.3506
   27TMC2    H1  426   2.119   0.407  12.532  2.3420 -0.1983 -0.3300
   27TMC2    H2  427   2.460   0.308  12.296  0.7278  2.0633 -0.0076
   27TMC2    C7  428   2.352   0.268  12.536  0.0375 -0.0241  0.2676
   27TMC2    C8  429   2.349   0.381  12.060 -0.3371 -0.5397  0.2619
   27TMC2    O1  430   2.466   0.219  12.519  0.1685  0.3219 -0.0809
   27TMC2    O2  431   2.450   0.448  12.031 -0.3691 -0.4282 -0.4263
   27TMC2    O5  432   2.253   0.346  11.978  0.4335  0.1498 -0.3957
   27TMC2    H5  433   2.180   0.295  12.018  0.1800  1.4766  0.8500
   28MPD2     C  434   1.507   0.641  12.173  0.3881 -0.1738 -0.1330
   28MPD2    C1  435   1.574   0.670  12.283  0.4365 -0.1505 -0.5611
   28MPD2    C2  436   1.707   0.619  12.301  0.4509  0.6522 -0.1896
   28MPD2    C3  437   1.765   0.544  12.205 -0.1983  0.5798  0.0162
   28MPD2    C4  438   1.694   0.525  12.088 -0.3436 -0.0182  0.0149
   28MPD2    C5  439   1.564   0.569  12.073 -0.2018  0.1116  0.1699
   28MPD2     H  440   1.776   0.644  12.381  0.7224 -1.2684  0.1757
   28MPD2    H1  441   1.740   0.462  12.013 -1.7822 -0.4069 -0.5412
   28MPD2    H2  442   1.401   0.664  12.172  0.4581  0.1638  0.4479
   28MPD2    H3  443   1.503   0.538  11.989 -2.1336 -1.2694  2.1043
   28MPD2     N  444   1.898   0.490  12.219 -0.0790 -0.4035  0.5723
   28MPD2    H5  445   1.918   0.424  12.145 -1.9117  0.2092 -0.4677
   28MPD2    N1  446   1.506   0.747  12.378 -0.3656 -0.0930 -0.1766
   28MPD2    H7  447   1.412   0.778  12.356 -0.0453  1.5510  0.7716
   29TMC2    C1  448   2.014   3.398  14.403 -0.2774  0.0615  0.9874
   29TMC2    C2  449   1.954   3.490  14.481  0.0113  0.5701 -0.2574
   29TMC2    C3  450   2.017   3.607  14.512 -0.6289  0.0122 -0.2390
   29TMC2    C4  451   2.118   3.431  14.325  0.4590 -0.2877 -0.7747
   29TMC2    C5  452   2.168   3.560  14.337 -0.6037  0.6850  0.1661
   29TMC2    C6  453   2.136   3.641  14.447 -0.0288 -0.5726 -0.0598
   29TMC2     C  454   1.924   3.288  14.371  0.5820 -0.2051  0.3911
   29TMC2     O  455   1.813   3.285  14.429  0.2276  0.1281  0.5332
   29TMC2     H  456   1.857   3.477  14.527 -0.7997  0.6284 -1.9673
   29TMC2    H1  457   2.149   3.358  14.251  1.1651  0.3754 -1.1359
   29TMC2    H2  458   2.165   3.745  14.452  1.5072 -1.0256  0.4372
   29TMC2    C7  459   2.285   3.586  14.261 -0.2715 -0.9489 -0.2504
   29TMC2    C8  460   1.951   3.705  14.601 -0.0143  0.0668 -0.2772
   29TMC2    O1  461   2.292   3.530  14.153  0.3674 -0.0566  0.0119
   29TMC2    O2  462   1.829   3.701  14.619  0.1672  0.2661 -0.3283
   29TMC2    O5  463   2.028   3.811  14.628 -0.0394  0.8053 -0.0891
   29TMC2    H5  464   2.125   3.793  14.633  0.0255  0.5993 -2.1140
   30MPD2     C  465   1.771   2.866  14.119  0.7435  0.0106  0.4841
   30MPD2    C1  466   1.903   2.858  14.143 -0.2182 -0.0807 -0.4268
   30MPD2    C2  467   1.978   2.967  14.181 -0.8258 -0.1609 -0.5924
   30MPD2    C3  468   1.912   3.078  14.232 -0.3764 -0.1958  0.0300
   30MPD2    C4  469   1.773   3.081  14.217 -0.0768 -0.3277  0.2278
   30MPD2    C5  470   1.707   2.982  14.147 -0.3814  0.2070 -0.6500
   30MPD2     H  471   2.086   2.967  14.189 -0.9141  2.4157  0.7949
   30MPD2    H1  472   1.707   3.160  14.252 -1.7072 -0.2821 -2.9884
   30MPD2    H2  473   1.709   2.785  14.082 -0.1910 -0.4204  2.9795
   30MPD2    H3  474   1.601   2.990  14.125 -0.3906 -0.1264 -0.7331
   30MPD2     N  475   1.981   3.190  14.290  0.1233  0.3435 -0.3607
   30MPD2    H5  476   2.082   3.189  14.280  0.2560 -0.1614  1.0166
   30MPD2    N1  477   1.969   2.733  14.142  0.3191  0.7003 -0.4432
   30MPD2    H7  478   2.069   2.738  14.131  0.3752 -3.0804 -1.6452
   31TMC2    C1  479   4.452   1.891  15.189  0.1173 -0.1475 -0.2475
   31TMC2    C2  480   4.353   1.822  15.127  0.3529  0.2143 -0.2669
   31TMC2    C3  481   4.315   1.710  15.197 -0.0487 -0.6775 -0.5926
   31TMC2    C4  482   4.517   1.859  15.308  0.2806  0.0321 -0.2909
   31TMC2    C5  483   4.474   1.743  15.366 -0.1474  0.0343  0.1735
   31TMC2    C6  484   4.377   1.669  15.313  0.6503  0.3599  0.1790
   31TMC2     C  485   4.512   1.989  15.097 -0.1624  0.5160 -0.0035
   31TMC2     O  486   4.454   2.011  14.993  0.3683  0.2558  0.8046
   31TMC2     H  487   4.290   1.872  15.055  1.6301  0.7082 -1.0269
   31TMC2    H1  488   4.589   1.926  15.355  0.0347  2.0816 -2.8083
   31TMC2    H2  489   4.344   1.578  15.362  1.4323  1.6750  3.1639
   31TMC2    C7  490   4.525   1.685  15.489 -0.0001 -0.2054 -0.6903
   31TMC2    C8  491   4.211   1.626  15.144  0.5210 -0.0156 -0.8125
   31TMC2    O1  492   4.450   1.626  15.562  0.0206 -0.4593 -0.1379
   31TMC2    O2  493   4.150   1.545  15.217 -0.6410 -1.1261 -0.2653
   31TMC2    O5  494   4.183   1.647  15.016  0.4036  0.4597  0.2913
   31TMC2    H5  495   4.237   1.719  14.976 -0.1953  0.9694  0.3921
   32MPD2     C  496   0.150   2.288  14.945 -0.0769 -0.2908  0.4740
   32MPD2    C1  497   0.019   2.285  14.909  0.0739  0.6787 -0.3640
   32MPD2    C2  498   4.666   2.204  14.970 -0.4448 -0.4378  0.4868
   32MPD2    C3  499   4.713   2.117  15.068 -0.4857 -0.7343 -0.2682
   32MPD2    C4  500   0.104   2.123  15.109 -0.2251  0.0346 -0.1063
   32MPD2    C5  501   0.193   2.210  15.052  0.4907 -0.3349  0.1056
   32MPD2     H  502   4.562   2.209  14.941 -0.1138  0.0969 -0.6246
   32MPD2    H1  503   0.139   2.052  15.183  1.9354 -1.3909 -2.5036
   32MPD2    H2  504   0.226   2.356  14.909  1.8342 -3.0023 -0.6277
   32MPD2    H3  505   0.295   2.218  15.090  0.8020 -0.8771 -0.6090
   32MPD2     N  506   4.639   2.019  15.131  0.5078 -1.1317 -0.1307
   32MPD2    H5  507   4.687   1.968  15.205 -1.2946 -1.0007  1.1264
   32MPD2    N1  508   4.727   2.379  14.803 -0.0935 -0.0453  0.0591
   32MPD2    H7  509   0.071   2.426  14.766  0.5322 -0.6247  0.6767
   33TMC2    C1  510   3.693   0.251  10.491  0.5789  0.0882 -0.4933
   33TMC2    C2  511   3.561   0.211  10.470 -0.2846 -0.3195  0.1504
   33TMC2    C3  512   3.481   0.297  10.401 -0.1949  0.6605 -0.0240
   33TMC2    C4  513   3.734   0.379  10.456  0.0446  0.2872 -0.6590
   33TMC2    C5  514   3.650   0.459  10.385  0.3520 -0.5284 -0.1951
   33TMC2    C6  515   3.523   0.422  10.366 -0.2904 -0.1313  0.5932
   33TMC2     C  516   3.793   0.161  10.544 -0.2621 -0.5689  0.7843
   33TMC2     O  517   3.780   0.041  10.520  0.2032 -0.2093  0.2624
   33TMC2     H  518   3.523   0.113  10.496  0.8804 -0.7526  0.2400
   33TMC2    H1  519   3.831   0.417  10.486 -1.1439  2.7880 -0.0033
   33TMC2    H2  520   3.461   0.496  10.316 -0.1181 -0.9469 -0.8087
   33TMC2    C7  521   3.682   0.596  10.356  0.6132  0.2686  0.6150
   33TMC2    C8  522   3.362   0.235  10.341 -0.2185 -0.6018  0.4784
   33TMC2    O1  523   3.748   0.661  10.441  0.6854  0.1703  0.6325
   33TMC2    O2  524   3.292   0.175  10.413 -0.0851  0.5821  0.1607
   33TMC2    O5  525   3.325   0.310  10.234 -0.2282 -0.3050 -0.1281
   33TMC2    H5  526   3.404   0.357  10.198  0.1685  0.0973  1.2753
   34MPD2     C  527   4.166   0.044  10.887 -0.7985  0.0050  0.6524
   34MPD2    C1  528   4.061   4.704  10.844  0.4830  0.9006  0.0216
   34MPD2    C2  529   3.974   0.027  10.753  0.1089  0.7816  0.2890
   34MPD2    C3  530   3.992   0.153  10.693  0.1466  0.0780  0.3612
   34MPD2    C4  531   4.104   0.222  10.734  1.0810 -0.3052  0.3709
   34MPD2    C5  532   4.191   0.167  10.828 -0.4258  0.2937  1.3888
   34MPD2     H  533   3.891   4.709  10.711  0.8438  0.5188 -0.8108
   34MPD2    H1  534   4.121   0.324  10.702  0.6820 -0.5125 -0.5151
   34MPD2    H2  535   4.236   4.736  10.956  1.9141  2.7771 -0.2907
   34MPD2    H3  536   4.283   0.212  10.864 -0.1706  0.6171  0.3367
   34MPD2     N  537   3.899   0.219  10.609  0.2547  0.4365 -0.4997
   34MPD2    H5  538   3.905   0.321  10.608  0.9034  0.4258  2.2697
   34MPD2    N1  539   4.032   4.577  10.899  0.0140 -0.1955  0.6752
   34MPD2    H7  540   4.091   4.540  10.974 -1.2082  1.3494  2.4020
   35TMC2    C1  541   4.711   1.342  11.667  0.4207 -0.2022  0.5032
   35TMC2    C2  542   4.640   1.446  11.609  0.1519  0.2468 -0.5005
   35TMC2    C3  543   4.508   1.429  11.595 -0.3134  0.3719  0.5322
   35TMC2    C4  544   4.647   1.226  11.710  0.3512 -0.6794 -0.3854
   35TMC2    C5  545   4.513   1.214  11.686 -0.6082 -0.4059  0.3091
   35TMC2    C6  546   4.435   1.314  11.625 -0.6407 -0.5820 -0.6691
   35TMC2     C  547   0.080   1.393  11.747 -0.1993  0.2946  0.1502
   35TMC2     O  548   0.079   1.514  11.770 -0.7210  0.0728  0.4492
   35TMC2     H  549   4.676   1.546  11.593  0.6990 -0.1522 -1.7405
   35TMC2    H1  550   4.700   1.155  11.772 -0.7771  0.2776  1.6792
   35TMC2    H2  551   4.329   1.317  11.607 -0.9900 -0.2079  1.3849
   35TMC2    C7  552   4.467   1.072  11.665 -0.1278  0.0311  1.1238
   35TMC2    C8  553   4.431   1.543  11.543  0.5660 -0.2709  0.1818
   35TMC2    O1  554   4.554   0.990  11.675 -0.2529  0.1857 -0.0723
   35TMC2    O2  555   4.455   1.659  11.571  0.0865 -0.9155 -0.3161
   35TMC2    O5  556   4.361   1.503  11.440  0.3489 -0.2668 -0.1174
   35TMC2    H5  557   4.399   1.420  11.404 -1.6001  0.0195 -2.8286
   36MPD2     C  558   0.460   1.313  12.085  0.2093  0.1201 -0.1294
   36MPD2    C1  559   0.437   1.196  12.016 -0.5644 -0.1979  0.3876
   36MPD2    C2  560   0.344   1.197  11.913  0.1976 -0.4113 -0.3416
   36MPD2    C3  561   0.266   1.305  11.887 -0.2756 -0.1121  0.0315
   36MPD2    C4  562   0.284   1.423  11.958  0.2409  0.1514  0.6593
   36MPD2    C5  563   0.384   1.422  12.052  1.3335  0.4936  0.1354
   36MPD2     H  564   0.334   1.107  11.852  0.1212  0.1199 -1.1039
   36MPD2    H1  565   0.237   1.516  11.926  1.1505 -1.0580 -4.1895
   36MPD2    H2  566   0.542   1.326  12.154 -0.2330 -0.9660  0.5998
   36MPD2    H3  567   0.411   1.517  12.095  0.5614  0.2907  1.0711
   36MPD2     N  568   0.162   1.292  11.790 -0.0899 -0.4950  0.2791
   36MPD2    H5  569   0.156   1.200  11.746  3.2647 -1.2045  1.3118
   36MPD2    N1  570   0.529   1.087  12.038 -0.0843 -0.5974  0.4205
   36MPD2    H7  571   0.606   1.098  12.104  0.3127  0.1077 -0.1653
   37TMC2    C1  572   2.824   1.131  12.463  0.4621  0.7626 -0.6462
   37TMC2    C2  573   2.698   1.125  12.417  0.3387 -0.3304 -0.0112
   37TMC2    C3  574   2.676   1.188  12.292  0.5078 -0.4393 -0.0939
   37TMC2    C4  575   2.929   1.187  12.378 -0.0633  0.3351  0.1352
   37TMC2    C5  576   2.900   1.246  12.257 -0.1742  0.6259  0.6408
   37TMC2    C6  577   2.769   1.255  12.215 -0.4606  0.6637  0.4663
   37TMC2     C  578   2.856   1.090  12.607 -0.3113 -0.1075 -0.0377
   37TMC2     O  579   2.763   1.035  12.668 -0.0833 -0.4340  0.0757
   37TMC2     H  580   2.618   1.078  12.472  0.1468  0.0884  0.0684
   37TMC2    H1  581   3.031   1.199  12.410  0.2949 -0.7651 -0.5837
   37TMC2    H2  582   2.751   1.309  12.122 -1.0809  0.0167  0.2028
   37TMC2    C7  583   3.015   1.316  12.193  0.1527  0.7540 -0.4630
   37TMC2    C8  584   2.551   1.152  12.228 -0.2167  0.0737 -0.1473
   37TMC2    O1  585   3.110   1.354  12.257 -0.5783 -0.3681  0.1056
   37TMC2    O2  586   2.454   1.110  12.283 -0.4304 -0.1954  0.2665
   37TMC2    O5  587   2.551   1.183  12.098 -0.2510  0.4647  0.1002
   37TMC2    H5  588   2.641   1.174  12.060 -0.5573  1.5227 -0.8977
   38MPD2     C  589   3.113   1.167  13.037  0.0566  0.0559  0.7030
   38MPD2    C1  590   3.201   1.195  12.933  0.1389 -0.0736  0.5670
   38MPD2    C2  591   3.159   1.177  12.804  0.5463  0.6286 -0.7759
   38MPD2    C3  592   3.029   1.132  12.785  0.7313 -0.1585 -0.8644
   38MPD2    C4  593   2.952   1.089  12.885  0.0041 -0.7909 -0.4271
   38MPD2    C5  594   2.988   1.116  13.014 -0.0452 -0.2207  0.3494
   38MPD2     H  595   3.214   1.214  12.719 -0.3116  0.4240 -1.4199
   38MPD2    H1  596   2.864   1.028  12.872 -0.9621  0.6780 -0.7498
   38MPD2    H2  597   3.142   1.189  13.139 -1.1377 -0.8991  1.2532
   38MPD2    H3  598   2.919   1.098  13.096  0.7202 -0.3688  0.9551
   38MPD2     N  599   2.981   1.137  12.650 -1.2061  0.1837  0.1228
   38MPD2    H5  600   3.027   1.202  12.587 -0.1569 -0.6728  0.0075
   38MPD2    N1  601   3.332   1.250  12.959 -0.1881 -0.1977  0.2245
   38MPD2    H7  602   3.395   1.257  12.880  0.3311  1.0080  0.7480
   39TMC2    C1  603   1.716   2.242   1.882  0.1861 -0.4736 -0.5305
   39TMC2    C2  604   1.682   2.194   2.006  0.2278 -0.6586  0.5541
   39TMC2    C3  605   1.786   2.196   2.104 -0.3758 -0.4297  0.2249
   39TMC2    C4  606   1.839   2.291   1.865  0.6373 -0.5839  0.8470
   39TMC2    C5  607   1.942   2.275   1.958 -0.3053 -0.3086  0.5244
   39TMC2    C6  608   1.914   2.232   2.087 -0.1189 -0.3633 -0.6381
   39TMC2     C  609   1.616   2.256   1.777 -0.6316 -0.1949  0.2451
   39TMC2     O  610   1.520   2.318   1.811 -0.0099  0.3288 -0.2846
   39TMC2     H  611   1.594   2.130   2.011 -0.0838 -0.2511  0.1987
   39TMC2    H1  612   1.859   2.344   1.773 -3.7908 -1.7020 -0.7183
   39TMC2    H2  613   1.996   2.215   2.156 -0.0112  2.3067 -0.0955
   39TMC2    C7  614   2.077   2.325   1.938  1.2663 -0.0351  0.4955
   39TMC2    C8  615   1.769   2.123   2.228 -0.2710  0.3703  0.2473
   39TMC2    O1  616   2.165   2.261   1.994 -0.5255  0.1193  0.3408
   39TMC2    O2  617   1.862   2.090   2.300 -0.8433 -0.2062  0.2752
   39TMC2    O5  618   1.634   2.124   2.258 -0.5777  0.1345  0.2374
   39TMC2    H5  619   1.592   2.191   2.200 -3.6570 -0.5954  1.6250
   40MPD2     C  620   1.662   2.159   1.422  0.2052  0.2254 -0.0936
   40MPD2    C1  621   1.596   2.219   1.525 -0.0872 -0.3176 -0.1418
   40MPD2    C2  622   1.477   2.282   1.502 -0.1091  0.7559  0.5410
   40MPD2    C3  623   1.430   2.300   1.370  0.6708  0.3768  0.3337
   40MPD2    C4  624   1.509   2.256   1.266 -0.0059 -0.4801  0.3177
   40MPD2    C5  625   1.627   2.190   1.295 -0.3982  0.6379  0.3823
   40MPD2     H  626   1.425   2.323   1.587  0.7018 -0.0624  1.4247
   40MPD2    H1  627   1.478   2.261   1.162  0.4519  0.2118  0.2151
   40MPD2    H2  628   1.753   2.102   1.430  0.7472  0.9317 -1.2087
   40MPD2    H3  629   1.699   2.167   1.217  0.3336  0.4346  1.1208
   40MPD2     N  630   1.306   2.355   1.336  0.5217  0.6405  0.6248
   40MPD2    H5  631   1.278   2.351   1.238 -5.2365 -2.0622  2.3866
   40MPD2    N1  632   1.662   2.216   1.653 -0.2322 -0.4799  0.3830
   40MPD2    H7  633   1.751   2.167   1.658  0.2447  0.5318  1.8842
   41TMC2    C1  634   0.148   1.281  13.396  0.6105  0.6474 -0.9002
   41TMC2    C2  635   0.060   1.338  13.484  0.5734  0.7530  0.6705
   41TMC2    C3  636   4.715   1.438  13.441 -0.2182 -1.0517 -0.4096
   41TMC2    C4  637   0.166   1.332  13.273 -0.5817 -0.0547 -0.0167
   41TMC2    C5  638   0.095   1.446  13.242 -0.6831 -0.1497  0.2966
   41TMC2    C6  639   4.734   1.504  13.321 -0.4865  0.1260 -0.3526
   41TMC2     C  640   0.219   1.163  13.436  0.9666  0.3126  0.1046
   41TMC2     O  641   0.287   1.100  13.351  0.1647 -0.1780  0.3467
   41TMC2     H  642   0.041   1.288  13.578 -1.2526  1.7405  0.8240
   41TMC2    H1  643   0.244   1.290  13.210 -1.2424 -1.9395  0.4091
   41TMC2    H2  644   4.676   1.589  13.286  0.6554  0.6566 -0.9348
   41TMC2    C7  645   0.098   1.501  13.106 -0.1833  0.0886  0.2224
   41TMC2    C8  646   4.603   1.483  13.522 -0.0511  0.4355  0.1572
   41TMC2    O1  647   0.025   1.594  13.087 -0.0381  0.0137 -0.1160
   41TMC2    O2  648   4.543   1.589  13.512 -0.1521 -0.2624  0.6371
   41TMC2    O5  649   4.544   1.372  13.566  0.0879  0.3205  0.1497
   41TMC2    H5  650   4.593   1.291  13.540 -0.1967  0.5893 -1.2579
   42MPD2     C  651   0.335   0.933  13.594  1.5194  0.2075  0.1178
   42MPD2    C1  652   0.285   1.045  13.646 -0.4079 -0.5637 -0.3445
   42MPD2    C2  653   0.297   1.076  13.783  0.5209  0.3043  0.7732
   42MPD2    C3  654   0.363   0.993  13.866  0.4643  0.2574  1.1766
   42MPD2    C4  655   0.407   0.877  13.816 -0.3430 -0.5137  0.5797
   42MPD2    C5  656   0.402   0.847  13.681 -0.8606  0.0875 -0.6719
   42MPD2     H  657   0.267   1.177  13.809  2.2211  0.8490  0.6342
   42MPD2    H1  658   0.456   0.800  13.874  0.0768 -2.6232 -2.5876
   42MPD2    H2  659   0.329   0.914  13.487  1.6871 -1.4834  0.4045
   42MPD2    H3  660   0.450   0.758  13.643 -2.2867 -0.6499 -0.7217
   42MPD2     N  661   0.402   1.024  14.001 -0.6362 -0.1267 -0.3029
   42MPD2    H5  662   0.468   0.958  14.040  1.4685  1.5348 -1.0352
   42MPD2    N1  663   0.222   1.145  13.573 -0.2274 -0.1405  0.0272
   42MPD2    H7  664   0.174   1.213  13.631  0.1886 -1.6215  2.1190
   43TMC2    C1  665   1.898   4.091   0.772 -0.0406 -0.5385  0.6668
   43TMC2    C2  666   1.783   4.131   0.834  0.3103  0.6403  0.1155
   43TMC2    C3  667   1.794   4.225   0.930 -0.1548  0.2339  0.0518
   43TMC2    C4  668   2.012   4.157   0.792  0.5511  0.4901  0.2112
   43TMC2    C5  669   2.012   4.262   0.880 -0.9715 -0.5917  0.7042
   43TMC2    C6  670   1.907   4.302   0.949  0.3623  0.1643  0.1510
   43TMC2     C  671   1.914   3.945   0.731  0.0794  0.1486 -0.1067
   43TMC2     O  672   2.025   3.896   0.725  0.2477 -0.9617 -0.0425
   43TMC2     H  673   1.684   4.102   0.801  0.3943  1.5751 -0.9744
   43TMC2    H1  674   2.104   4.122   0.746 -1.4636 -2.1311 -1.8204
   43TMC2    H2  675   1.892   4.392   1.008  0.8630 -0.2678  0.9398
   43TMC2    C7  676   2.144   4.307   0.916 -0.8340 -0.0436 -0.0617
   43TMC2    C8  677   1.676   4.260   1.005  0.7177  0.1401 -0.3410
   43TMC2    O1  678   2.246   4.279   0.852  0.4234 -0.2692 -0.1236
   43TMC2    O2  679   1.562   4.268   0.962 -0.1601 -0.3344  0.0551
   43TMC2    O5  680   1.715   4.228   1.132 -0.2321  0.3611  0.1434
   43TMC2    H5  681   1.813   4.231   1.141 -0.2994 -2.9675  1.8249
   44MPD2     C  682   1.713   3.481   0.683  0.4146  0.0941 -0.1398
   44MPD2    C1  683   1.841   3.525   0.661 -0.3089  0.1528  0.2328
   44MPD2    C2  684   1.870   3.658   0.680 -0.5434  0.0606  0.2871
   44MPD2    C3  685   1.763   3.749   0.709  0.2966  0.2400  1.0191
   44MPD2    C4  686   1.635   3.702   0.728 -0.2735 -0.6063 -1.0136
   44MPD2    C5  687   1.614   3.568   0.712 -0.3164 -0.0593 -0.6331
   44MPD2     H  688   1.968   3.698   0.660 -0.6817 -0.4359 -1.3565
   44MPD2    H1  689   1.549   3.766   0.746  0.4213  0.2467 -0.6899
   44MPD2    H2  690   1.674   3.383   0.658  3.4433 -1.0831 -0.2509
   44MPD2    H3  691   1.510   3.537   0.716 -0.3994  0.4628  1.2625
   44MPD2     N  692   1.790   3.883   0.729  0.1194 -0.2535 -0.2066
   44MPD2    H5  693   1.711   3.946   0.730 -0.3222 -0.8101  0.1578
   44MPD2    N1  694   1.944   3.437   0.607  0.3792  0.1865  0.0576
   44MPD2    H7  695   2.033   3.473   0.574  1.2140 -1.2337  0.7624
   45TMC2    C1  696   2.988   1.392  10.182 -0.0442  0.2272  0.2152
   45TMC2    C2  697   3.114   1.377  10.157  1.1538  0.0498 -0.2385
   45TMC2    C3  698   3.186   1.487  10.126  0.0819 -0.0307 -0.0229
   45TMC2    C4  699   2.930   1.522  10.184 -0.4756  0.0403 -0.1998
   45TMC2    C5  700   3.006   1.630  10.158  0.2930 -0.0276 -0.3751
   45TMC2    C6  701   3.133   1.612  10.119  0.1657 -0.0534 -0.7167
   45TMC2     C  702   2.903   1.273  10.177  0.0282 -0.7059  0.1565
   45TMC2     O  703   2.945   1.160  10.177  0.3579 -0.2908 -0.0550
   45TMC2     H  704   3.159   1.279  10.167 -2.3674 -1.2172  3.4460
   45TMC2    H1  705   2.828   1.538  10.218 -0.7550  0.2217 -1.1254
   45TMC2    H2  706   3.195   1.700  10.103 -0.7385  0.8830  0.9679
   45TMC2    C7  707   2.955   1.765  10.187  0.3785  0.1970 -0.0225
   45TMC2    C8  708   3.322   1.483  10.068  0.9460 -0.4822 -0.0056
   45TMC2    O1  709   2.890   1.785  10.286  0.4250 -0.3241 -0.2240
   45TMC2    O2  710   3.376   1.584  10.027 -0.1147 -0.7990 -0.3797
   45TMC2    O5  711   3.382   1.362  10.092  0.4779 -0.1242  0.3480
   45TMC2    H5  712   3.322   1.304  10.143  1.1555 -0.9663  0.1792
   46MPD2     C  713   2.663   1.085  10.148 -0.4131 -0.5150 -0.1077
   46MPD2    C1  714   2.663   1.225  10.146  0.2579 -0.1744 -0.7019
   46MPD2    C2  715   2.538   1.286  10.125  0.2053  0.0746  0.5410
   46MPD2    C3  716   2.420   1.215  10.087  0.0873  0.1012 -0.0999
   46MPD2    C4  717   2.420   1.080  10.102 -0.0092  0.3955  0.0403
   46MPD2    C5  718   2.543   1.020  10.118  0.6160 -0.3399 -0.3477
   46MPD2     H  719   2.543   1.392  10.147  3.2382  0.2503 -0.9367
   46MPD2    H1  720   2.335   1.015  10.085 -2.4636  3.4792  0.3709
   46MPD2    H2  721   2.756   1.031  10.162 -0.8564 -1.3956 -0.5265
   46MPD2    H3  722   2.532   0.915  10.095  0.6681 -0.5415  0.5631
   46MPD2     N  723   2.309   1.302  10.067 -0.1276 -0.2569  0.2208
   46MPD2    H5  724   2.333   1.400  10.077 -0.1449 -0.3417  1.1105
   46MPD2    N1  725   2.770   1.315  10.170 -0.0944 -0.0689  0.3982
   46MPD2    H7  726   2.743   1.412  10.156  1.0990  0.4706  1.7642
   47TMC2    C1  727   4.669   2.992   9.668 -0.3691 -0.4100  0.1979
   47TMC2    C2  728   4.561   2.912   9.690 -0.3365  0.4609 -0.0266
   47TMC2    C3  729   4.441   2.950   9.637  0.4776  0.6787  0.0412
   47TMC2    C4  730   4.659   3.112   9.606  1.0892 -0.2013 -0.4386
   47TMC2    C5  731   4.542   3.139   9.549  0.4994 -0.9682  0.9958
   47TMC2    C6  732   4.430   3.069   9.571  0.1851 -0.1085 -0.3767
   47TMC2     C  733   0.066   2.934   9.685  0.0414  0.0878 -0.1303
   47TMC2     O  734   0.159   3.012   9.671  0.0248 -0.3545  0.1751
   47TMC2     H  735   4.564   2.830   9.761 -2.4429 -0.8872 -1.5241
   47TMC2    H1  736   0.005   3.173   9.575  0.2103  1.2078 -0.0477
   47TMC2    H2  737   4.332   3.113   9.568  0.3519  0.0654 -3.1703
   47TMC2    C7  738   4.520   3.270   9.500 -0.1638  0.3198  0.1924
   47TMC2    C8  739   4.335   2.852   9.639  0.5506 -0.0764  0.3285
   47TMC2    O1  740   4.598   3.361   9.521  0.7273 -0.1197 -0.1950
   47TMC2    O2  741   4.357   2.732   9.641  0.0744  0.4074 -0.2152
   47TMC2    O5  742   4.216   2.907   9.609 -0.0887  0.2499  0.7549
   47TMC2    H5  743   4.208   3.005   9.610 -0.5116  0.2312 -0.5890
   48MPD2     C  744   0.302   2.767   9.771 -0.0475  0.4540 -0.0630
   48MPD2    C1  745   0.174   2.719   9.768 -0.0084 -0.3354 -0.3067
   48MPD2    C2  746   0.150   2.588   9.798  0.1426 -0.4204 -0.7605
   48MPD2    C3  747   0.247   2.506   9.839  0.1402  0.8546 -0.2602
   48MPD2    C4  748   0.373   2.551   9.849  0.4431  0.3290 -0.1501
   48MPD2    C5  749   0.399   2.686   9.812  0.7189 -0.6902 -0.0344
   48MPD2     H  750   0.045   2.560   9.801  0.1184  0.0501  2.3872
   48MPD2    H1  751   0.458   2.497   9.890  1.7939  2.2967 -0.3392
   48MPD2    H2  752   0.326   2.868   9.738  0.4198  0.9582  1.8249
   48MPD2    H3  753   0.498   2.727   9.829 -0.2846  0.0395  4.0425
   48MPD2     N  754   0.210   2.376   9.887  0.5163  0.6107  0.3634
   48MPD2    H5  755   0.111   2.360   9.873  0.4321  0.2451  1.3857
   48MPD2    N1  756   0.067   2.797   9.723 -0.2297 -0.3282  0.5681
   48MPD2    H7  757   4.719   2.744   9.716 -0.6208  0.4644 -0.8368
   49TMC2    C1  758   3.818   4.169  10.247  0.4146 -0.8237 -0.2295
   49TMC2    C2  759   3.836   4.088  10.137  0.6343  0.0665  0.2207
   49TMC2    C3  760   3.925   4.115  10.035 -0.5651  0.0257  0.0563
   49TMC2    C4  761   3.895   4.276  10.269 -0.2503  0.0122 -0.1151
   49TMC2    C5  762   3.993   4.293  10.171  0.3994  0.0474  0.8631
   49TMC2    C6  763   4.009   4.219  10.055 -0.2054 -0.6764  0.4020
   49TMC2     C  764   3.705   4.139  10.336  0.5021  0.0718  0.2100
   49TMC2     O  765   3.648   4.031  10.317  0.4103  0.1609 -0.1179
   49TMC2     H  766   3.777   3.997  10.134 -1.3629  1.3860 -0.3029
   49TMC2    H1  767   3.881   4.342  10.354 -1.7535  0.2814 -0.5762
   49TMC2    H2  768   4.084   4.245   9.981 -0.8153  0.3431  0.1448
   49TMC2    C7  769   4.041   4.427  10.164 -0.0240 -0.4040  0.1212
   49TMC2    C8  770   3.971   4.013   9.944  0.0464 -0.2841  0.3551
   49TMC2    O1  771   3.974   4.515  10.215  0.2140 -0.0396 -0.3288
   49TMC2    O2  772   4.076   4.026   9.881  0.0767  0.2533 -0.6330
   49TMC2    O5  773   3.848   3.970   9.894 -0.3549 -0.2569  0.1100
   49TMC2    H5  774   3.772   3.965   9.956  0.2477  0.2975  0.8939
   50MPD2     C  775   3.551   4.108  10.597 -0.1852 -0.0476  0.5496
   50MPD2    C1  776   3.591   4.227  10.539 -0.3501 -0.3803  0.6341
   50MPD2    C2  777   3.561   4.341  10.614 -0.0929 -0.8066  0.0557
   50MPD2    C3  778   3.494   4.335  10.738 -0.0608 -0.1057  0.5997
   50MPD2    C4  779   3.457   4.215  10.792 -0.0636 -0.6307  0.0474
   50MPD2    C5  780   3.481   4.103  10.718 -0.6388  0.0670 -0.5631
   50MPD2     H  781   3.598   4.434  10.572 -0.7609 -1.1816 -1.3739
   50MPD2    H1  782   3.424   4.219  10.895  0.9432 -1.1160  0.3915
   50MPD2    H2  783   3.592   4.015  10.558 -0.6800  0.5350 -1.3673
   50MPD2    H3  784   3.470   4.004  10.762  3.7732 -1.1802 -2.2452
   50MPD2     N  785   3.487   4.452  10.818  0.0028 -0.5319  0.2092
   50MPD2    H5  786   3.455   4.437  10.913 -1.9573  0.1025 -0.3391
   50MPD2    N1  787   3.677   4.239  10.425  0.2262  0.4036 -0.2519
   50MPD2    H7  788   3.714   4.332  10.403  0.2107  0.4071 -0.2634
   51TMC2    C1  789   3.852   2.602   2.101  0.1980  0.1857  0.2381
   51TMC2    C2  790   3.722   2.574   2.114  0.4265  0.2263 -0.0715
   51TMC2    C3  791   3.631   2.677   2.091  0.1498  0.0806  0.0595
   51TMC2    C4  792   3.903   2.728   2.068 -0.7174 -0.6462 -0.4009
   51TMC2    C5  793   3.807   2.830   2.053  0.5820  0.0664 -0.0307
   51TMC2    C6  794   3.674   2.802   2.069  0.5863  0.8210 -0.1479
   51TMC2     C  795   3.947   2.492   2.087  0.4567 -0.0818  0.2665
   51TMC2     O  796   4.062   2.518   2.054  0.0446  0.1396  0.1997
   51TMC2     H  797   3.683   2.473   2.105 -1.5706  1.0388 -0.6791
   51TMC2    H1  798   4.007   2.746   2.041 -0.6040  0.0220  0.4707
   51TMC2    H2  799   3.606   2.887   2.073 -0.4008 -0.0027  0.4258
   51TMC2    C7  800   3.853   2.941   1.975 -0.1075  0.2964 -0.6879
   51TMC2    C8  801   3.494   2.654   2.113  0.5293  0.5840 -0.1845
   51TMC2    O1  802   3.971   2.969   1.974 -0.3987 -0.1857  0.3857
   51TMC2    O2  803   3.455   2.560   2.178  0.3657  0.0581  0.3241
   51TMC2    O5  804   3.436   2.721   2.010  0.4479  0.0201 -0.3704
   51TMC2    H5  805   3.497   2.768   1.950  2.0715  0.1795  1.4240
   52MPD2     C  806   4.050   1.996   2.092  0.3214 -0.2509 -0.1611
   52MPD2    C1  807   4.100   2.094   2.011  0.4621 -0.2960 -0.6671
   52MPD2    C2  808   4.043   2.218   2.028  0.0334  0.1144  0.1066
   52MPD2    C3  809   3.946   2.248   2.121  0.0490  0.0411  0.3152
   52MPD2    C4  810   3.904   2.148   2.205 -0.3930  0.7393 -0.3024
   52MPD2    C5  811   3.962   2.024   2.192  1.1123  0.3444  0.1864
   52MPD2     H  812   4.077   2.296   1.960  0.5153 -0.7861 -0.6763
   52MPD2    H1  813   3.828   2.174   2.278  0.0658  2.8763 -0.5659
   52MPD2    H2  814   4.092   1.896   2.090 -1.3738 -0.9206 -2.4460
   52MPD2    H3  815   3.931   1.937   2.248  1.2718 -0.2136 -0.5977
   52MPD2     N  816   3.895   2.380   2.141  0.0819 -0.0339  0.6870
   52MPD2    H5  817   3.818   2.380   2.207  0.2594  1.9314  0.8970
   52MPD2    N1  818   4.173   2.061   1.890  0.2225 -0.5016  0.1054
   52MPD2    H7  819   4.205   2.135   1.828 -2.3520  0.7317  0.2147
   53TMC2    C1  820   3.381   1.920  12.015 -0.0406  0.3079  0.1278
   53TMC2    C2  821   3.310   2.036  12.049  0.4721 -0.4016  0.0945
   53TMC2    C3  822   3.332   2.083  12.179 -0.5971  0.4675  0.4416
   53TMC2    C4  823   3.453   1.850  12.107 -0.1503  0.2084  0.0827
   53TMC2    C5  824   3.454   1.892  12.241 -0.5650 -0.0075  0.1394
   53TMC2    C6  825   3.387   2.009  12.275  0.3719  0.1781 -0.0849
   53TMC2     C  826   3.311   1.831  11.923  0.0983 -0.4558  0.6743
   53TMC2     O  827   3.266   1.876  11.817 -0.1042  0.3574  0.5918
   53TMC2     H  828   3.242   2.085  11.981  0.2798 -1.2866 -0.3451
   53TMC2    H1  829   3.507   1.760  12.079  1.0470  1.5596 -1.9287
   53TMC2    H2  830   3.377   2.038  12.379 -0.8253 -1.5238  0.2748
   53TMC2    C7  831   3.448   1.787  12.333  0.3250 -0.9656  0.7916
   53TMC2    C8  832   3.257   2.190  12.236  0.0963  0.0182  0.0029
   53TMC2    O1  833   3.377   1.698  12.280 -0.5580  0.4881 -0.7106
   53TMC2    O2  834   3.236   2.197  12.357 -1.0965  0.5306 -0.6057
   53TMC2    O5  835   3.249   2.289  12.149 -0.1591 -0.5671  0.4870
   53TMC2    H5  836   3.294   2.281  12.062  1.2329  1.7130  0.9972
   54MPD2     C  837   3.184   1.613  11.793  0.7305  0.8740 -0.3534
   54MPD2    C1  838   3.190   1.627  11.926 -0.3464 -0.3320 -0.0956
   54MPD2    C2  839   3.138   1.531  12.010 -0.5633 -0.1584  0.6957
   54MPD2    C3  840   3.061   1.423  11.971 -0.5531 -0.3523  0.2258
   54MPD2    C4  841   3.053   1.409  11.829 -0.3737  0.4165 -0.4276
   54MPD2    C5  842   3.108   1.505  11.748  0.2233 -0.1916  0.1267
   54MPD2     H  843   3.143   1.544  12.118  0.2524 -3.1030  0.9948
   54MPD2    H1  844   3.002   1.323  11.787 -1.4605  1.2925 -0.8881
   54MPD2    H2  845   3.237   1.671  11.719 -1.0407  0.2544 -2.1142
   54MPD2    H3  846   3.094   1.491  11.642 -0.7158 -0.0374  0.2297
   54MPD2     N  847   2.995   1.333  12.058  0.4105 -0.0853  0.2242
   54MPD2    H5  848   2.930   1.267  12.015  1.4906  0.0015 -1.5120
   54MPD2    N1  849   3.253   1.733  11.989  0.1347  0.0777  0.2723
   54MPD2    H7  850   3.255   1.742  12.090 -1.4597  1.4552  0.1664
   55TMC2    C1  851   0.334   3.588   0.289  0.6499  0.1638 -0.5381
   55TMC2    C2  852   0.289   3.492   0.203  0.0779  0.3866 -0.2820
   55TMC2    C3  853   0.274   3.368   0.250 -0.1898 -0.0037  0.0453
   55TMC2    C4  854   0.353   3.557   0.422 -0.4691 -0.0571  0.5690
   55TMC2    C5  855   0.333   3.431   0.461 -0.2257 -0.3528  0.0710
   55TMC2    C6  856   0.285   3.333   0.381  0.3196 -0.8498 -0.0890
   55TMC2     C  857   0.324   3.728   0.262 -0.1333  0.1420  0.3729
   55TMC2     O  858   0.328   3.806   0.357  0.3244 -0.7306  0.1215
   55TMC2     H  859   0.283   3.509   0.096 -0.3837  0.4017 -0.2514
   55TMC2    H1  860   0.387   3.632   0.493  0.2964 -1.0275  1.2306
   55TMC2    H2  861   0.273   3.232   0.419  0.2694 -1.0750 -0.7125
   55TMC2    C7  862   0.344   3.392   0.595  0.4370  0.7233  0.0861
   55TMC2    C8  863   0.249   3.256   0.164  0.0285 -0.2749  0.4822
   55TMC2    O1  864   0.377   3.274   0.620 -0.0559 -0.1636 -0.5669
   55TMC2    O2  865   0.273   3.138   0.187 -0.1721  0.0090 -0.0145
   55TMC2    O5  866   0.185   3.300   0.053  0.1438 -0.3202  0.8566
   55TMC2    H5  867   0.133   3.382   0.068  4.8887  3.0296 -0.7768
   56MPD2     C  868   0.313   3.876  17.681 -0.0040  0.5580  0.1798
   56MPD2    C1  869   0.301   3.870   0.061 -0.3143 -0.2831 -0.2637
   56MPD2    C2  870   0.260   3.981   0.130  0.2632 -0.1127  0.0337
   56MPD2    C3  871   0.232   4.102   0.075 -0.8436 -0.3893  0.4946
   56MPD2    C4  872   0.240   4.106  17.688 -0.0151  0.7095  0.2043
   56MPD2    C5  873   0.287   3.994  17.620 -0.3561  0.3420  0.0645
   56MPD2     H  874   0.261   3.986   0.238 -0.5945 -0.8382  0.0727
   56MPD2    H1  875   0.231   4.200  17.636  2.0477  0.1138 -1.2321
   56MPD2    H2  876   0.347   3.787  17.630 -1.0943 -1.3494  2.7987
   56MPD2    H3  877   0.283   4.003  17.512  0.7333 -1.2301 -0.1001
   56MPD2     N  878   0.200   4.209   0.154 -0.2791 -0.1046 -0.5119
   56MPD2    H5  879   0.184   4.186   0.251 -1.1775 -0.3004 -0.7104
   56MPD2    N1  880   0.313   3.746   0.123 -0.1420  0.3357 -0.1685
   56MPD2    H7  881   0.326   3.660   0.071 -1.7046  1.1459 -1.9448
   57TMC2    C1  882   3.598   0.171  13.325 -1.2187  0.3341  0.3591
   57TMC2    C2  883   3.547   0.298  13.304  0.0038  0.0561  0.7376
   57TMC2    C3  884   3.595   0.374  13.198  0.8581 -0.4735 -0.4633
   57TMC2    C4  885   3.700   0.120  13.254 -0.0599 -0.1226  0.1778
   57TMC2    C5  886   3.750   0.204  13.154  0.0717  0.0568 -1.2609
   57TMC2    C6  887   3.689   0.322  13.115  0.9273 -0.6032 -0.1746
   57TMC2     C  888   3.548   0.093  13.437 -0.1552  0.0804 -0.0381
   57TMC2     O  889   3.549   4.708  13.423 -0.0531  0.3393 -0.3816
   57TMC2     H  890   3.461   0.326  13.362 -1.4536 -0.4894 -1.1413
   57TMC2    H1  891   3.742   0.022  13.271 -1.7626 -0.5816  1.6635
   57TMC2    H2  892   3.733   0.386  13.040 -0.5683  0.9209  0.2588
   57TMC2    C7  893   3.879   0.186  13.092 -0.5907 -0.3107 -0.5929
   57TMC2    C8  894   3.534   0.494  13.152 -0.0344  0.2467  0.4880
   57TMC2    O1  895   3.895   0.238  12.985 -0.0210  0.2755  0.3755
   57TMC2    O2  896   3.555   0.543  13.040 -0.3526  0.2517  0.6581
   57TMC2    O5  897   3.453   0.538  13.250 -0.6998 -0.0963 -0.5516
   57TMC2    H5  898   3.469   0.501  13.340 -1.2858  0.1857 -0.3324
   58MPD2     C  899   3.374   0.042  13.917  0.3035 -0.1832 -0.0638
   58MPD2    C1  900   3.395   0.177  13.888  0.5447 -0.2470  0.3855
   58MPD2    C2  901   3.449   0.210  13.769 -0.6820  0.1873  0.1144
   58MPD2    C3  902   3.475   0.120  13.668 -0.0935 -0.2652  0.3604
   58MPD2    C4  903   3.454   4.720  13.694 -0.8708 -0.2541  1.2060
   58MPD2    C5  904   3.416   4.688  13.822  0.3845 -0.6770 -0.2174
   58MPD2     H  905   3.448   0.315  13.743  0.9875  0.6224  1.8330
   58MPD2    H1  906   3.464   4.643  13.618  0.7764  0.1706  0.9856
   58MPD2    H2  907   3.334   0.006  14.011 -1.9036  0.4540 -0.7644
   58MPD2    H3  908   3.396   4.583  13.842 -1.0068 -0.4259 -0.3312
   58MPD2     N  909   3.518   0.172  13.544 -0.3687 -0.3662 -0.5540
   58MPD2    H5  910   3.533   0.273  13.547  1.2276 -0.6754  1.2566
   58MPD2    N1  911   3.361   0.282  13.971  0.3490 -1.1761 -0.5967
   58MPD2    H7  912   3.361   0.367  13.917 -1.6131 -0.8102 -0.0390
   59TMC2    C1  913   1.517   0.323  12.751  0.7927  0.4876  0.5480
   59TMC2    C2  914   1.649   0.291  12.750 -0.7107 -0.2961  0.8095
   59TMC2    C3  915   1.717   0.290  12.634 -0.1293  0.0580 -0.1078
   59TMC2    C4  916   1.449   0.351  12.633 -0.2259  0.7869 -0.5482
   59TMC2    C5  917   1.520   0.342  12.511  0.5764 -1.0314 -0.2652
   59TMC2    C6  918   1.657   0.310  12.511 -0.2572 -0.7106  0.3604
   59TMC2     C  919   1.442   0.309  12.876 -0.0269  0.6016  0.1692
   59TMC2     O  920   1.320   0.296  12.862  0.1402 -0.0458 -0.1528
   59TMC2     H  921   1.691   0.247  12.839 -2.0561 -1.5988  0.7983
   59TMC2    H1  922   1.342   0.367  12.631 -0.7844 -2.7888 -0.2119
   59TMC2    H2  923   1.710   0.301  12.416 -2.3028  0.5040 -0.8965
   59TMC2    C7  924   1.448   0.313  12.380 -0.9384 -0.2322 -0.6087
   59TMC2    C8  925   1.858   0.261  12.639 -0.1449  0.0452  0.4975
   59TMC2    O1  926   1.506   0.241  12.299 -0.5995  0.1399 -0.0870
   59TMC2    O2  927   1.930   0.220  12.547 -0.0667  0.1278 -0.5224
   59TMC2    O5  928   1.903   0.327  12.747 -0.3725  0.4223  0.8946
   59TMC2    H5  929   1.827   0.369  12.792 -0.7074 -1.1848  1.8669
   60MPD2     C  930   1.349   0.271  13.165 -0.5163  0.4843  0.6367
   60MPD2    C1  931   1.475   0.314  13.129 -0.6972  0.2840  0.8764
   60MPD2    C2  932   1.562   0.359  13.228 -0.9377  0.1773 -0.2879
   60MPD2    C3  933   1.520   0.362  13.365 -0.3005 -0.4568  0.4903
   60MPD2    C4  934   1.397   0.315  13.394 -0.4959 -0.0390  0.6946
   60MPD2    C5  935   1.318   0.264  13.294 -0.4504  0.5017  0.0419
   60MPD2     H  936   1.658   0.389  13.188 -0.7372 -1.0544 -0.7499
   60MPD2    H1  937   1.351   0.317  13.492 -0.9794  0.6272  0.4529
   60MPD2    H2  938   1.273   0.236  13.095  0.7715  1.1205 -1.0619
   60MPD2    H3  939   1.232   0.208  13.330 -0.4417  1.7618  1.9753
   60MPD2     N  940   1.611   0.408  13.465  0.6390 -0.4452  0.5267
   60MPD2    H5  941   1.709   0.410  13.440  0.5523  0.3650  0.2537
   60MPD2    N1  942   1.516   0.328  12.992  0.9538  0.4347 -0.5751
   60MPD2    H7  943   1.611   0.358  12.975  0.7954  0.4188 -1.4581
   61TMC2    C1  944   1.108   1.542  15.780 -0.0757 -0.0722  0.3096
   61TMC2    C2  945   1.187   1.539  15.891 -0.4148 -0.1764  0.1412
   61TMC2    C3  946   1.181   1.642  15.980  0.1157  0.1551 -0.0606
   61TMC2    C4  947   1.023   1.653  15.756 -0.1412  0.0990 -0.1436
   61TMC2    C5  948   1.029   1.760  15.841  0.3732  0.5913 -0.1941
   61TMC2    C6  949   1.109   1.759  15.956  0.4755  0.2849  0.6605
   61TMC2     C  950   1.143   1.462  15.667 -0.2542 -0.3053 -0.3327
   61TMC2     O  951   1.211   1.366  15.693  0.0970  0.2162  0.1947
   61TMC2     H  952   1.248   1.450  15.903 -1.2884 -1.0229 -1.7314
   61TMC2    H1  953   0.953   1.664  15.674  0.1469 -1.8580 -0.6526
   61TMC2    H2  954   1.100   1.839  16.028  0.7722  0.0082  1.0048
   61TMC2    C7  955   0.963   1.884  15.807  0.9139  0.4102  0.7016
   61TMC2    C8  956   1.233   1.615  16.116 -0.7045 -0.5270  0.4292
   61TMC2    O1  957   1.020   1.988  15.846  0.2840  0.0381  0.4221
   61TMC2    O2  958   1.304   1.521  16.147  0.3730 -0.5979  0.3301
   61TMC2    O5  959   1.143   1.669  16.200  0.4583  0.2210  0.4284
   61TMC2    H5  960   1.068   1.713  16.156 -1.8859 -3.0522  1.1387
   62MPD2     C  961   1.199   1.377  15.388  0.0188 -0.5000 -0.4086
   62MPD2    C1  962   1.153   1.501  15.422  0.7592 -0.3332  0.1405
   62MPD2    C2  963   1.131   1.601  15.328 -0.0589  0.0643 -0.3464
   62MPD2    C3  964   1.176   1.576  15.196  0.3540  0.4052 -0.2142
   62MPD2    C4  965   1.217   1.450  15.160 -0.0387 -0.1189  0.0294
   62MPD2    C5  966   1.225   1.351  15.256  1.2634 -0.1511  0.2306
   62MPD2     H  967   1.104   1.702  15.360 -0.7020 -0.0529 -0.5175
   62MPD2    H1  968   1.241   1.432  15.056 -0.3398  1.9586 -0.3984
   62MPD2    H2  969   1.191   1.297  15.462 -0.1615 -0.5042 -0.4342
   62MPD2    H3  970   1.253   1.249  15.232  1.1318  0.0478 -0.7605
   62MPD2     N  971   1.173   1.669  15.085 -0.1879 -0.0519 -0.3294
   62MPD2    H5  972   1.197   1.632  14.994  1.4514  1.0536 -0.3514
   62MPD2    N1  973   1.111   1.529  15.554  0.2343  0.1645 -0.4406
   62MPD2    H7  974   1.055   1.613  15.545 -0.8687 -0.3691  1.5107
   63TMC2    C1  975   0.328   2.333  10.683  0.2703 -0.1905  0.5317
   63TMC2    C2  976   0.397   2.276  10.791 -0.0845  0.1542  0.3367
   63TMC2    C3  977   0.530   2.289  10.800  0.0783  0.1461 -0.0273
   63TMC2    C4  978   0.389   2.411  10.596  0.2685 -0.5869 -0.2835
   63TMC2    C5  979   0.522   2.431  10.609  0.2898 -0.1381 -0.2135
   63TMC2    C6  980   0.596   2.362  10.704  0.1185  0.2811 -0.1601
   63TMC2     C  981   0.184   2.304  10.670 -0.2151 -0.1940  0.3150
   63TMC2     O  982   0.118   2.381  10.605 -0.4178 -0.2914  0.0645
   63TMC2     H  983   0.342   2.225  10.869 -0.8969  0.0767 -0.2855
   63TMC2    H1  984   0.327   2.454  10.518  0.6834 -1.3915 -1.0651
   63TMC2    H2  985   0.704   2.368  10.713  0.1681  2.1188 -1.9902
   63TMC2    C7  986   0.600   2.470  10.492  0.2509 -0.1833 -0.1683
   63TMC2    C8  987   0.615   2.216  10.887  0.4698  0.2282 -0.3162
   63TMC2    O1  988   0.692   2.400  10.453  0.4667  0.0607  0.7645
   63TMC2    O2  989   0.738   2.215  10.870  0.0636  0.9126 -0.1759
   63TMC2    O5  990   0.553   2.182  11.000  0.1268  0.3294 -0.6230
   63TMC2    H5  991   0.457   2.164  11.001  0.3648 -0.9704 -0.5118
   64MPD2     C  992   4.509   2.034  10.800  0.2528 -0.0181 -0.0335
   64MPD2    C1  993   4.619   1.967  10.838  0.9473  0.2487  0.3586
   64MPD2    C2  994   0.007   2.014  10.809  0.2368 -0.6163 -0.6338
   64MPD2    C3  995   0.018   2.143  10.754 -0.1305  0.2770 -1.1549
   64MPD2    C4  996   4.638   2.214  10.713  0.4605  1.0485 -0.2116
   64MPD2    C5  997   4.520   2.145  10.729  0.2603  0.6413  0.0761
   64MPD2     H  998   0.093   1.958  10.846 -1.0005 -1.3676  1.0942
   64MPD2    H1  999   4.637   2.310  10.661  0.7958  1.6839  0.9448
   64MPD2    H2 1000   4.405   2.017  10.826  0.5257  0.3345  1.3164
   64MPD2    H3 1001   4.428   2.193  10.696 -1.1306 -1.5063  0.8511
   64MPD2     N 1002   0.152   2.189  10.736  0.0403  0.8710  0.7351
   64MPD2    H5 1003   0.224   2.134  10.781  0.2552  0.4948 -0.0802
   64MPD2    N1 1004   4.612   1.846  10.913  0.1214  0.5271  0.0015
   64MPD2    H7 1005   4.698   1.796  10.928 -0.1700 -0.0867 -0.3724
   65TMC2    C1 1006   1.604   1.159  15.728 -0.4931  0.4860 -0.0581
   65TMC2    C2 1007   1.688   1.095  15.639  0.0706 -0.3073  0.0010
   65TMC2    C3 1008   1.731   1.165  15.531  0.4388 -0.2364  0.5234
   65TMC2    C4 1009   1.546   1.280  15.693  0.2329 -0.0342 -0.2944
   65TMC2    C5 1010   1.582   1.332  15.569  0.0586  0.2881  0.2303
   65TMC2    C6 1011   1.665   1.271  15.481 -0.4422 -0.5731 -0.6854
   65TMC2     C 1012   1.530   1.077  15.816 -0.3897  0.0210  0.1287
   65TMC2     O 1013   1.454   1.136  15.893  0.5407 -0.2361  0.6892
   65TMC2     H 1014   1.735   1.000  15.662  0.2600  0.1050  1.3490
   65TMC2    H1 1015   1.472   1.327  15.756 -0.9927 -1.3765 -0.7472
   65TMC2    H2 1016   1.703   1.318  15.391  2.7626 -1.2149  0.3533
   65TMC2    C7 1017   1.541   1.470  15.540  0.0432 -0.0524  0.3117
   65TMC2    C8 1018   1.851   1.119  15.458 -0.6209 -0.0588  0.1581
   65TMC2    O1 1019   1.556   1.512  15.426  0.1382 -0.3141  0.7751
   65TMC2    O2 1020   1.898   1.005  15.471 -0.1634 -0.2576 -0.3627
   65TMC2    O5 1021   1.917   1.233  15.432  0.4759 -0.5106  0.3873
   65TMC2    H5 1022   1.868   1.317  15.445  1.6909  0.2595  0.1011
   66MPD2     C 1023   1.392   0.856  15.954  0.1039 -0.6201 -0.3535
   66MPD2    C1 1024   1.441   0.849  15.824  0.7567 -0.1922 -0.3317
   66MPD2    C2 1025   1.419   0.733  15.754 -0.1574  0.0496  0.3078
   66MPD2    C3 1026   1.350   0.629  15.816 -0.3744  0.1278  0.0570
   66MPD2    C4 1027   1.300   0.640  15.947 -0.5137  0.3531  0.0247
   66MPD2    C5 1028   1.327   0.753  16.017 -0.1783 -0.8645  0.3932
   66MPD2     H 1029   1.477   0.714  15.664  0.7078 -2.1268  1.3162
   66MPD2    H1 1030   1.251   0.553  15.988  2.2050 -0.4987  1.4850
   66MPD2    H2 1031   1.399   0.949  16.008 -1.8458 -0.9055  0.3646
   66MPD2    H3 1032   1.289   0.759  16.118 -1.0846 -2.6904  0.1532
   66MPD2     N 1033   1.310   0.517  15.740 -0.4889 -0.2182 -0.1390
   66MPD2    H5 1034   1.236   0.456  15.775  0.5847 -1.6552 -0.3661
   66MPD2    N1 1035   1.525   0.950  15.767  0.5551 -0.4131 -0.0192
   66MPD2    H7 1036   1.565   0.925  15.677  2.1250  0.3981  0.4536
   67TMC2    C1 1037   1.762   0.587  14.631  0.4514  0.2400  0.7446
   67TMC2    C2 1038   1.712   0.714  14.620 -0.0785 -0.5358  0.6456
   67TMC2    C3 1039   1.760   0.812  14.701 -0.3404 -0.0444  0.1813
   67TMC2    C4 1040   1.864   0.560  14.715 -0.2985 -0.4109  0.0444
   67TMC2    C5 1041   1.909   0.662  14.791  0.3067 -0.0539  0.0057
   67TMC2    C6 1042   1.861   0.794  14.790  0.6632  0.5020 -0.1354
   67TMC2     C 1043   1.722   0.472  14.553 -0.0985 -0.1006  0.1328
   67TMC2     O 1044   1.797   0.376  14.549 -0.1072 -0.2277 -0.6518
   67TMC2     H 1045   1.621   0.739  14.567  1.7506 -0.1519 -2.3081
   67TMC2    H1 1046   1.908   0.461  14.719  0.2904 -0.2433 -2.2117
   67TMC2    H2 1047   1.905   0.870  14.854 -0.1049 -0.0585  1.0687
   67TMC2    C7 1048   2.004   0.608  14.893 -0.6970 -0.9065  0.0182
   67TMC2    C8 1049   1.691   0.940  14.694 -0.6857  0.5760 -0.4414
   67TMC2    O1 1050   2.074   0.514  14.860  0.0533 -0.1794 -0.2245
   67TMC2    O2 1051   1.636   0.979  14.592  0.4397  0.2488 -0.4120
   67TMC2    O5 1052   1.689   1.014  14.801 -0.0465  0.8118  0.7460
   67TMC2    H5 1053   1.729   0.967  14.878  0.8198 -0.7852 -0.6702
   68MPD2     C 1054   1.610   0.323  14.317 -0.3754  0.1517  0.1667
   68MPD2    C1 1055   1.541   0.417  14.393 -0.3047  0.3837  0.5727
   68MPD2    C2 1056   1.410   0.452  14.356 -0.3950  0.5221 -0.1208
   68MPD2    C3 1057   1.340   0.381  14.260 -0.1753 -0.3931 -0.4237
   68MPD2    C4 1058   1.410   0.285  14.194  0.4204  0.4659 -0.0663
   68MPD2    C5 1059   1.541   0.261  14.216  0.2323  0.4567 -0.0045
   68MPD2     H 1060   1.369   0.537  14.408 -1.0474 -0.2264  0.5833
   68MPD2    H1 1061   1.372   0.232  14.108  0.3990 -1.2870  1.0198
   68MPD2    H2 1062   1.710   0.288  14.337 -0.7081 -1.0245 -0.2400
   68MPD2    H3 1063   1.587   0.189  14.150  0.5272 -0.0871  0.7916
   68MPD2     N 1064   1.208   0.402  14.223 -0.0762 -0.0827 -0.0649
   68MPD2    H5 1065   1.168   0.355  14.143  2.1479 -0.0747 -1.1732
   68MPD2    N1 1066   1.597   0.496  14.499 -0.2893  0.0960  0.0608
   68MPD2    H7 1067   1.549   0.575  14.541  1.3318  1.0884  0.0414
   69TMC2    C1 1068   3.484   2.173  12.855  0.0794 -0.7000 -0.3223
   69TMC2    C2 1069   3.373   2.253  12.851 -0.4494  0.3900  0.2750
   69TMC2    C3 1070   3.346   2.337  12.741 -0.9192 -0.2564 -0.2226
   69TMC2    C4 1071   3.553   2.152  12.740  0.1016  0.3663 -0.2400
   69TMC2    C5 1072   3.515   2.217  12.626  0.8840  0.2028 -0.0558
   69TMC2    C6 1073   3.418   2.310  12.625 -0.3906 -0.3353 -0.5057
   69TMC2     C 1074   3.476   2.075  12.960 -0.4619  0.5666 -0.0889
   69TMC2     O 1075   3.375   2.057  13.023  0.0757  0.5067  0.1967
   69TMC2     H 1076   3.314   2.265  12.941 -0.2853 -1.3754  0.6096
   69TMC2    H1 1077   3.631   2.076  12.736 -0.6372 -0.4793  1.7024
   69TMC2    H2 1078   3.387   2.370  12.541  0.2566  2.1042  1.0083
   69TMC2    C7 1079   3.598   2.185  12.510 -0.1851  0.0835 -0.7406
   69TMC2    C8 1080   3.211   2.383  12.723  0.5863  0.1738 -0.8494
   69TMC2    O1 1081   3.643   2.067  12.502  0.3772 -0.2559  0.4062
   69TMC2    O2 1082   3.183   2.450  12.622 -0.0368  0.2803  0.2255
   69TMC2    O5 1083   3.150   2.273  12.759  0.3869  0.2678  0.3496
   69TMC2    H5 1084   3.137   2.263  12.856  3.5815  3.2140  1.0644
   70MPD2     C 1085   3.771   1.873  13.059  0.2827 -0.0254  0.4990
   70MPD2    C1 1086   3.640   1.909  13.063 -0.1292  0.7330  0.5227
   70MPD2    C2 1087   3.554   1.843  13.152  0.2543 -0.5065 -0.1327
   70MPD2    C3 1088   3.597   1.741  13.234  0.1123 -0.6563  0.5932
   70MPD2    C4 1089   3.730   1.704  13.225  0.7095  0.8180 -0.8819
   70MPD2    C5 1090   3.814   1.771  13.141 -0.9253 -0.9559 -0.4964
   70MPD2     H 1091   3.453   1.877  13.171 -0.4895 -2.9361  0.2409
   70MPD2    H1 1092   3.769   1.623  13.285 -1.4846  0.4635  0.0704
   70MPD2    H2 1093   3.841   1.919  12.990  0.1126 -0.5270 -0.0066
   70MPD2    H3 1094   3.919   1.747  13.147 -0.3382  1.7025 -0.1781
   70MPD2     N 1095   3.514   1.672  13.325 -0.2045 -0.3038  0.5438
   70MPD2    H5 1096   3.571   1.619  13.390  0.2748 -0.0899  0.2959
   70MPD2    N1 1097   3.597   2.014  12.975 -0.2991 -0.1292  0.1912
   70MPD2    H7 1098   3.678   2.064  12.940 -0.6600 -0.6798 -1.4348
   71TMC2    C1 1099   1.219   1.597   1.093  0.2249  0.1001  0.4143
   71TMC2    C2 1100   1.210   1.669   1.207  0.4127 -0.0304  0.2150
   71TMC2    C3 1101   1.101   1.650   1.281  0.0846  0.1081 -0.2991
   71TMC2    C4 1102   1.120   1.504   1.059  0.4537 -0.3710  0.3443
   71TMC2    C5 1103   1.016   1.476   1.146 -0.0713 -0.1314  0.3131
   71TMC2    C6 1104   1.000   1.556   1.256  0.2692 -0.5991  0.4569
   71TMC2     C 1105   1.299   1.650   0.978 -0.1449  0.0122  0.1742
   71TMC2     O 1106   1.331   1.767   0.988  0.2550  0.3430 -0.0474
   71TMC2     H 1107   1.283   1.748   1.223 -0.8299  1.0512  0.4753
   71TMC2    H1 1108   1.125   1.443   0.970 -0.4577  1.3105 -0.8442
   71TMC2    H2 1109   0.933   1.534   1.339 -0.3187 -1.2371 -0.1905
   71TMC2    C7 1110   0.900   1.402   1.098  0.2850  0.1636 -0.0086
   71TMC2    C8 1111   1.105   1.719   1.409  0.0215 -0.0462 -0.5785
   71TMC2    O1 1112   0.916   1.323   1.004 -0.2632 -0.5453 -0.1097
   71TMC2    O2 1113   1.208   1.732   1.472 -0.0013 -0.0469  0.1546
   71TMC2    O5 1114   0.981   1.751   1.453 -0.1261 -0.5389  0.2632
   71TMC2    H5 1115   0.903   1.727   1.397  0.6871  0.2706 -1.2122
   72MPD2     C 1116   1.602   1.623   0.571  0.5562 -0.0200 -0.2076
   72MPD2    C1 1117   1.535   1.731   0.620 -0.3510  0.9078 -0.3017
   72MPD2    C2 1118   1.452   1.709   0.730 -0.3777 -0.1954 -0.2036
   72MPD2    C3 1119   1.435   1.582   0.785 -0.2096 -0.8154  0.4017
   72MPD2    C4 1120   1.513   1.480   0.734  0.5016 -0.4028 -0.2159
   72MPD2    C5 1121   1.586   1.500   0.620 -0.3781 -0.3981  0.0863
   72MPD2     H 1122   1.395   1.794   0.766  0.9373 -0.2845  2.1338
   72MPD2    H1 1123   1.497   1.382   0.777  0.3252  0.0583  0.7677
   72MPD2    H2 1124   1.671   1.633   0.488  1.0232  0.8463  0.2780
   72MPD2    H3 1125   1.631   1.414   0.571 -0.7832 -0.4066 -0.2647
   72MPD2     N 1126   1.342   1.556   0.890  0.5598  0.3861  1.2248
   72MPD2    H5 1127   1.324   1.461   0.920  0.5349 -0.2213 -0.7047
   72MPD2    N1 1128   1.532   1.864   0.558  0.2075 -0.1150 -0.0509
   72MPD2    H7 1129   1.491   1.948   0.600 -1.1470 -0.6137 -0.3797
   73TMC2    C1 1130   0.987   4.034  13.920 -0.0873  0.2474  0.0536
   73TMC2    C2 1131   0.924   4.056  14.037 -0.7700 -0.4595 -0.0003
   73TMC2    C3 1132   0.923   3.956  14.134  0.6802 -0.2143 -0.5272
   73TMC2    C4 1133   1.059   3.916  13.908  0.8449  0.9686  0.0491
   73TMC2    C5 1134   1.068   3.827  14.007  0.2137 -0.0036  0.1253
   73TMC2    C6 1135   1.000   3.841  14.127 -0.5973 -0.1526 -0.6781
   73TMC2     C 1136   1.056   4.139  13.855  0.0990 -0.0006  0.2128
   73TMC2     O 1137   1.174   4.121  13.822 -0.5763  0.3285  0.0434
   73TMC2     H 1138   0.893   4.156  14.066 -1.1853 -0.7184  0.4506
   73TMC2    H1 1139   1.121   3.893  13.822  1.4605 -0.3661  0.8543
   73TMC2    H2 1140   1.011   3.766  14.204  0.6311  1.3867  0.6482
   73TMC2    C7 1141   1.211   3.791  14.023  0.6793  0.0211 -0.1393
   73TMC2    C8 1142   0.895   4.000  14.269 -0.9192 -0.8177 -0.6464
   73TMC2    O1 1143   1.235   3.688  14.084 -0.0174 -0.2192 -0.1222
   73TMC2    O2 1144   0.931   3.940  14.372  0.4622  0.6954  0.2926
   73TMC2    O5 1145   0.780   4.071  14.257 -0.1024  0.3362 -0.6275
   73TMC2    H5 1146   0.739   4.068  14.168 -1.9907  1.2092  0.2000
   74MPD2     C 1147   1.122   4.614  13.680  0.1593  0.2524 -0.3430
   74MPD2    C1 1148   1.210   4.517  13.738 -0.3993 -0.3995 -0.2101
   74MPD2    C2 1149   1.155   4.406  13.797 -0.6564  0.0647 -0.1279
   74MPD2    C3 1150   1.025   4.377  13.798  0.1071 -0.4244  0.0160
   74MPD2    C4 1151   0.940   4.476  13.753  0.5377 -0.3164  0.1858
   74MPD2    C5 1152   0.988   4.596  13.700  0.0447  0.0607  0.0886
   74MPD2     H 1153   1.220   4.342  13.856  0.4694  0.7199 -0.6438
   74MPD2    H1 1154   0.834   4.462  13.773  0.5783  1.6989  1.9263
   74MPD2    H2 1155   1.161   4.690  13.614 -0.1425  0.6393 -0.0788
   74MPD2    H3 1156   0.924   4.668  13.651 -1.6608  0.5643  3.0754
   74MPD2     N 1157   0.973   4.245  13.836 -0.2202  0.8820 -0.4554
   74MPD2    H5 1158   0.872   4.229  13.839  0.2876 -2.2244  0.3823
   74MPD2    N1 1159   1.350   4.542  13.729 -0.3289  0.2189  1.1899
   74MPD2    H7 1160   1.381   4.621  13.675  1.3947 -1.6098 -0.4750
   75TMC2    C1 1161   0.999   0.520  14.222  0.1492  0.3039 -0.1819
   75TMC2    C2 1162   0.895   0.515  14.310  0.5563 -0.6560 -0.2073
   75TMC2    C3 1163   0.771   0.484  14.256  0.1850 -0.1178 -0.2093
   75TMC2    C4 1164   0.987   0.480  14.089 -0.4476  0.1245 -0.5065
   75TMC2    C5 1165   0.860   0.454  14.043  0.7063 -1.0517  0.3527
   75TMC2    C6 1166   0.753   0.466  14.124 -0.0927 -0.3325 -0.1559
   75TMC2     C 1167   1.122   0.490  14.289 -0.4926 -0.1895 -0.5301
   75TMC2     O 1168   1.134   0.517  14.409  0.0843 -0.1219  0.1547
   75TMC2     H 1169   0.905   0.547  14.412  0.4088  0.0385 -0.4112
   75TMC2    H1 1170   1.070   0.496  14.022  0.8368 -0.7252  0.8977
   75TMC2    H2 1171   0.653   0.471  14.081  0.0421  1.8199 -0.2283
   75TMC2    C7 1172   0.821   0.479  13.906  0.2417  0.3458  0.5580
   75TMC2    C8 1173   0.661   0.498  14.334 -0.4889 -0.4795  0.0614
   75TMC2    O1 1174   0.741   0.394  13.874  0.0491 -0.5771  0.6592
   75TMC2    O2 1175   0.559   0.546  14.283  0.4678 -0.2057  0.5306
   75TMC2    O5 1176   0.690   0.501  14.465  0.8539  0.3934  0.1457
   75TMC2    H5 1177   0.771   0.450  14.486  0.5377 -0.9612 -1.9249
   76TMC2    C1 1178   4.287   0.937  11.996  0.3357 -0.1071 -0.3155
   76TMC2    C2 1179   4.166   0.875  11.983  0.5262  0.5576 -0.0957
   76TMC2    C3 1180   4.166   0.741  12.006  0.1197  0.3613 -1.2319
   76TMC2    C4 1181   4.406   0.858  12.014 -0.6533 -0.5063  0.4159
   76TMC2    C5 1182   4.397   0.722  12.018 -0.3575 -0.0689  0.3680
   76TMC2    C6 1183   4.274   0.661  12.016  0.3006  0.3991 -0.4645
   76TMC2     C 1184   4.285   1.081  11.998  0.3290 -0.0663  0.1031
   76TMC2     O 1185   4.175   1.134  11.987  0.1141 -0.2322  0.0718
   76TMC2     H 1186   4.078   0.933  11.956  0.8702 -0.5500 -3.5007
   76TMC2    H1 1187   4.502   0.909  12.005 -1.1283  0.3094 -0.0549
   76TMC2    H2 1188   4.266   0.553  12.019 -1.6460  0.5989  1.8446
   76TMC2    C7 1189   4.514   0.647  12.044  0.6799 -0.1920  0.3716
   76TMC2    C8 1190   4.033   0.680  12.015 -0.4134  0.8098  0.3285
   76TMC2    O1 1191   4.508   0.526  12.023  0.3111  0.3378 -0.0684
   76TMC2    O2 1192   4.007   0.568  11.973 -0.0644 -0.2388  0.0601
   76TMC2    O5 1193   3.944   0.769  12.064 -0.1615  0.4039 -0.0184
   76TMC2    H5 1194   3.986   0.833  12.126 -0.1938  0.4428 -0.0365
   77MPD2     C 1195   4.542   1.538  12.006 -0.3465  0.0593  0.4064
   77MPD2    C1 1196   4.403   1.509  11.976  0.1548 -0.2579  0.8729
   77MPD2    C2 1197   4.347   1.378  11.981  0.5193  0.2048  0.0947
   77MPD2    C3 1198   4.433   1.277  12.020  0.4562 -0.9824  0.5319
   77MPD2    C4 1199   4.566   1.308  12.060 -0.2731  0.4773 -0.5574
   77MPD2    C5 1200   4.621   1.432  12.043  0.7301 -0.3025  0.8511
   77MPD2     H 1201   4.244   1.357  11.955  1.0798  1.3004 -3.0343
   77MPD2    H1 1202   4.630   1.222  12.079  1.4902  1.6211 -1.2644
   77MPD2    H2 1203   4.580   1.639  12.009  0.6758 -0.3651  1.8920
   77MPD2    H3 1204   4.724   1.449  12.072  0.4918 -0.5551  1.8454
   77MPD2     N 1205   4.409   1.139  12.005  0.4709  0.4637  0.0178
   77MPD2    H5 1206   4.492   1.080  12.009 -0.6405 -1.0332  0.8816
   77MPD2    N1 1207   4.310   1.611  11.945 -0.4700 -0.3386  0.6245
   77MPD2    H7 1208   4.218   1.576  11.920 -0.7503 -2.0421  4.0370
   78TMC2    C1 1209   1.164   1.791   1.820  0.2551 -0.0701 -0.5012
   78TMC2    C2 1210   1.116   1.884   1.728 -0.4353 -0.5056  0.4791
   78TMC2    C3 1211   1.208   1.974   1.677  0.7916 -0.0743  0.2803
   78TMC2    C4 1212   1.291   1.800   1.863 -0.6436  0.2428  0.4434
   78TMC2    C5 1213   1.378   1.893   1.821 -0.0049  0.2802  0.4755
   78TMC2    C6 1214   1.342   1.982   1.718  0.4494  0.4927  0.2000
   78TMC2     C 1215   1.086   1.668   1.837 -0.0556 -0.0549 -0.0298
   78TMC2     O 1216   1.110   1.601   1.934  0.5778  0.0338 -0.0636
   78TMC2     H 1217   1.015   1.891   1.689 -0.0476 -0.2819 -0.4892
   78TMC2    H1 1218   1.323   1.718   1.927  1.1867  1.6496  1.3347
   78TMC2    H2 1219   1.414   2.052   1.676  0.0885  1.0115  0.4442
   78TMC2    C7 1220   1.520   1.872   1.841 -0.3145 -0.5788  0.3796
   78TMC2    C8 1221   1.176   2.075   1.583  0.1105 -0.1631  0.5142
   78TMC2    O1 1222   1.595   1.916   1.754  0.3186 -0.1136  0.1285
   78TMC2    O2 1223   1.070   2.129   1.587 -0.4671 -0.0500  0.7012
   78TMC2    O5 1224   1.230   2.050   1.466  0.1887  0.7222  0.1576
   78TMC2    H5 1225   1.315   2.000   1.471  0.7723  1.5684 -1.3837
   79MPD1     C 1226   0.693   1.344   1.758  0.0860 -0.1892  0.0365
   79MPD1    C1 1227   0.814   1.329   1.820 -0.7175 -0.1881  0.0762
   79MPD1    C2 1228   0.901   1.434   1.824 -0.5426  0.3831 -0.2434
   79MPD1    C3 1229   0.882   1.555   1.755 -0.4066 -0.3601 -0.6270
   79MPD1    C4 1230   0.760   1.563   1.683 -0.1875 -0.2843 -0.8083
   79MPD1    C5 1231   0.669   1.460   1.684  0.4450 -0.6081 -0.2010
   79MPD1     H 1232   0.992   1.424   1.883 -0.3664  0.1545 -0.5505
   79MPD1    H1 1233   0.730   1.657   1.638  0.7311  0.5408  0.3077
   79MPD1    H2 1234   0.615   1.268   1.757 -0.5560  0.4955 -1.4940
   79MPD1    H3 1235   0.575   1.494   1.642 -1.0515 -1.6457  2.2875
   79MPD1     N 1236   0.977   1.661   1.753 -0.3170 -0.1729 -0.5214
   79MPD1    H5 1237   0.959   1.741   1.694  0.5821 -1.5486 -2.6546
   79MPD1    N1 1238   0.853   1.208   1.880 -0.4254  0.1322 -0.1304
   79MPD1    H6 1239   0.828   1.125   1.827  0.1399  0.2007 -0.5116
   79MPD1    H7 1240   0.949   1.198   1.912  0.2863  1.1498 -1.9058
   80TMC2    C1 1241   3.639   1.467  11.993 -0.3123  0.5986 -0.6925
   80TMC2    C2 1242   3.630   1.530  11.870  0.0252  0.1714  0.1642
   80TMC2    C3 1243   3.532   1.493  11.787  0.6195 -0.5160  0.8299
   80TMC2    C4 1244   3.547   1.373  12.029 -0.6446 -0.2026 -0.0598
   80TMC2    C5 1245   3.441   1.342  11.942  0.7285  0.1088  0.7652
   80TMC2    C6 1246   3.437   1.398  11.818 -0.2223  0.0640  0.3920
   80TMC2     C 1247   3.734   1.521  12.090 -0.0364  0.2414  0.2523
   80TMC2     O 1248   3.830   1.576  12.045  0.0259  0.1493  0.3115
   80TMC2     H 1249   3.674   1.629  11.860  3.1114 -1.1282  0.8899
   80TMC2    H1 1250   3.557   1.329  12.128  1.4450 -0.3065 -0.3256
   80TMC2    H2 1251   3.359   1.376  11.745  1.3661 -0.6103 -1.0974
   80TMC2    C7 1252   3.365   1.221  11.955 -0.1223  0.5950  0.2860
   80TMC2    C8 1253   3.526   1.561  11.657 -0.4966  0.1405 -0.1166
   80TMC2    O1 1254   3.344   1.163  11.847  0.2293 -0.3127  0.9555
   80TMC2    O2 1255   3.439   1.529  11.575 -0.3463  0.1757  0.7913
   80TMC2    O5 1256   3.649   1.609  11.625  0.4399 -0.8494  0.1088
   80TMC2    H5 1257   3.724   1.606  11.688 -0.6216 -1.1739  1.3449
   81MPD2     C 1258   3.857   1.659  12.321 -0.3914 -0.2849 -0.4617
   81MPD2    C1 1259   3.759   1.561  12.334 -0.7474 -0.5884  0.3030
   81MPD2    C2 1260   3.719   1.519  12.455 -0.6903  0.1681  0.8156
   81MPD2    C3 1261   3.773   1.574  12.571 -0.9933  0.4023 -0.8479
   81MPD2    C4 1262   3.877   1.666  12.564  0.7008 -0.3130 -0.1545
   81MPD2    C5 1263   3.915   1.708  12.439  0.4719  0.3910  0.0390
   81MPD2     H 1264   3.640   1.445  12.449 -0.5915 -0.0381  2.1561
   81MPD2    H1 1265   3.935   1.705  12.647 -1.8622 -2.9848  2.9126
   81MPD2    H2 1266   3.888   1.694  12.223 -1.2328 -2.0768 -1.3798
   81MPD2    H3 1267   4.001   1.774  12.428  0.8296  0.2307  1.9016
   81MPD2     N 1268   3.750   1.518  12.692  0.6957  0.0603  0.1916
   81MPD2    H5 1269   3.819   1.535  12.764  2.2938 -1.7814 -0.9116
   81MPD2    N1 1270   3.692   1.503  12.222 -0.7109  0.3095  0.0191
   81MPD2    H7 1271   3.599   1.464  12.232 -1.1726  1.3850 -0.0105
   82TMC2    C1 1272   1.339   0.581  11.320 -0.4160  0.4444  0.2569
   82TMC2    C2 1273   1.403   0.662  11.403 -0.0010  0.0068  0.3646
   82TMC2    C3 1274   1.391   0.643  11.539 -0.4714  0.2578 -0.3514
   82TMC2    C4 1275   1.275   0.469  11.368  0.4380 -0.6990 -0.5843
   82TMC2    C5 1276   1.274   0.447  11.502 -0.1853  0.4209 -0.5529
   82TMC2    C6 1277   1.330   0.537  11.593 -0.2933 -0.3861  0.2374
   82TMC2     C 1278   1.331   0.612  11.171  0.8950 -0.2269 -0.9647
   82TMC2     O 1279   1.252   0.549  11.102 -0.2092 -0.8606  0.6948
   82TMC2     H 1280   1.448   0.751  11.363  0.4244 -2.2713 -4.2216
   82TMC2    H1 1281   1.211   0.417  11.297 -1.8279  0.6879  0.4698
   82TMC2    H2 1282   1.340   0.515  11.698 -1.7415 -0.0948  0.4224
   82TMC2    C7 1283   1.227   0.324  11.561  0.4519 -0.0508 -1.2579
   82TMC2    C8 1284   1.467   0.727  11.630 -0.6054 -0.3187  0.2268
   82TMC2    O1 1285   1.252   0.303  11.680 -0.8727 -0.6775 -0.0223
   82TMC2    O2 1286   1.544   0.661  11.701  0.5744  0.2287 -0.7890
   82TMC2    O5 1287   1.492   0.847  11.579 -0.2562  0.0628 -0.3420
   82TMC2    H5 1288   1.408   0.877  11.536 -0.0395  1.9602  0.5407
   83MPD2     C 1289   1.508   0.854  10.758 -0.3458 -0.0655 -0.5158
   83MPD2    C1 1290   1.389   0.782  10.768 -0.6568  0.7497  0.1505
   83MPD2    C2 1291   1.371   0.723  10.894  0.2456  0.1282  0.0759
   83MPD2    C3 1292   1.465   0.739  10.995  0.2354  0.1277  0.3559
   83MPD2    C4 1293   1.580   0.811  10.975  0.0746  0.0825 -0.4606
   83MPD2    C5 1294   1.601   0.876  10.855 -0.3448 -0.0018 -0.3756
   83MPD2     H 1295   1.286   0.657  10.905  1.4855 -1.2799  1.1587
   83MPD2    H1 1296   1.653   0.814  11.055  0.2606  0.3035 -0.6416
   83MPD2    H2 1297   1.537   0.897  10.663  1.3110  0.8533  0.3972
   83MPD2    H3 1298   1.690   0.932  10.830 -1.4553  1.9497  0.1016
   83MPD2     N 1299   1.441   0.689  11.129 -0.1476  0.7234  0.0393
   83MPD2    H5 1300   1.510   0.725  11.194  0.9376  0.0481 -0.7399
   83MPD2    N1 1301   1.303   0.772  10.651  0.2445 -0.3592  0.2280
   83MPD2    H7 1302   1.342   0.793  10.560 -0.5576  1.0819  0.2132
   84TMC2    C1 1303   3.391   0.029  11.062 -0.1183  0.3634  0.5218
   84TMC2    C2 1304   3.479   0.136  11.061  0.0441 -0.1125 -0.3171
   84TMC2    C3 1305   3.578   0.135  10.970  0.8550  0.4257 -0.8433
   84TMC2    C4 1306   3.409   4.670  10.967 -0.2089  0.0140 -0.1610
   84TMC2    C5 1307   3.507   4.680  10.877 -0.4089  0.1119  0.8253
   84TMC2    C6 1308   3.598   0.050  10.869  0.1636  0.3487 -0.1367
   84TMC2     C 1309   3.260   0.055  11.118 -0.4121  0.6575 -0.1196
   84TMC2     O 1310   3.249   0.127  11.216  0.6631 -0.2602  0.1941
   84TMC2     H 1311   3.449   0.218  11.125 -0.3912 -0.4547 -0.0823
   84TMC2    H1 1312   3.341   4.586  10.956  0.3903 -0.1011 -3.1468
   84TMC2    H2 1313   3.661   0.072  10.783 -2.8761  2.3838 -1.8171
   84TMC2    C7 1314   3.518   4.578  10.774 -0.4792  0.4738  0.0167
   84TMC2    C8 1315   3.677   0.236  10.986  0.0312  0.0884  0.6504
   84TMC2    O1 1316   3.549   4.630  10.663 -0.5705 -0.0132  0.2124
   84TMC2    O2 1317   3.706   0.322  10.901  0.5983 -0.0693  0.0529
   84TMC2    O5 1318   3.775   0.166  11.062  0.5325  0.5105 -0.1091
   84TMC2    H5 1319   3.748   0.089  11.117 -1.3345  0.8520 -0.5491
   85TMC2    C1 1320   3.421   2.579  16.005  1.0262 -0.3927  0.0947
   85TMC2    C2 1321   3.326   2.673  16.008  0.3216 -0.4508  0.3135
   85TMC2    C3 1322   3.369   2.791  15.953  0.5045  0.2652 -0.0339
   85TMC2    C4 1323   3.538   2.600  15.946 -0.4246 -0.0530 -0.1280
   85TMC2    C5 1324   3.574   2.714  15.888  1.0257  0.7738 -0.2397
   85TMC2    C6 1325   3.490   2.820  15.895  0.3345 -0.1242 -0.0796
   85TMC2     C 1326   3.386   2.459  16.090 -0.2529 -0.4974 -0.3935
   85TMC2     O 1327   3.268   2.434  16.110 -0.3009 -0.1318 -0.5991
   85TMC2     H 1328   3.237   2.659  16.068 -0.4367 -0.8159 -0.8764
   85TMC2    H1 1329   3.606   2.517  15.940  0.6752  0.8812 -0.6307
   85TMC2    H2 1330   3.522   2.916  15.856 -0.9895  0.0989 -0.6123
   85TMC2    C7 1331   3.715   2.741  15.832  0.1889  0.6574 -0.1175
   85TMC2    C8 1332   3.304   2.906  16.019 -0.1978  0.2238  0.4253
   85TMC2    O1 1333   3.737   2.848  15.776 -0.1341 -0.4843  0.5075
   85TMC2    O2 1334   3.193   2.901  16.065 -0.5190  0.2222 -0.0661
   85TMC2    O5 1335   3.407   2.979  16.077  0.1515 -0.1283 -0.6839
   85TMC2    H5 1336   3.496   2.963  16.040  1.1999  0.5887  1.5340
   86MPD2     C 1337   3.509   2.153  16.478 -0.5006 -0.8361  0.1051
   86MPD2    C1 1338   3.594   2.127  16.370  0.0437 -0.0628 -0.2963
   86MPD2    C2 1339   3.594   2.204  16.259  0.1412 -0.1542 -0.1432
   86MPD2    C3 1340   3.502   2.310  16.245  0.4047 -0.8440 -0.2691
   86MPD2    C4 1341   3.418   2.336  16.344 -0.8078 -0.5725  0.2020
   86MPD2    C5 1342   3.423   2.262  16.460  0.5537 -0.2321  0.1162
   86MPD2     H 1343   3.669   2.188  16.183  1.1191 -0.7238  0.9343
   86MPD2    H1 1344   3.348   2.419  16.344  1.4834  1.3479 -0.4406
   86MPD2    H2 1345   3.502   2.093  16.568 -1.8127  1.6194  1.6459
   86MPD2    H3 1346   3.355   2.297  16.538 -0.1405 -0.1756 -0.5127
   86MPD2     N 1347   3.507   2.395  16.136 -0.0496  0.2235 -0.3330
   86MPD2    H5 1348   3.596   2.407  16.089 -0.3143  0.5071 -0.7663
   86MPD2    N1 1349   3.684   2.013  16.370 -0.3462  0.2268 -0.2365
   86MPD2    H7 1350   3.726   1.986  16.282 -0.3479  1.4892 -0.6305
   87TMC2    C1 1351   1.725   0.524   1.279 -0.4458 -0.1228  0.7779
   87TMC2    C2 1352   1.843   0.536   1.344  0.1568 -0.0852  0.0411
   87TMC2    C3 1353   1.844   0.557   1.484  0.0402  0.3720 -0.0810
   87TMC2    C4 1354   1.602   0.534   1.349  0.3821 -0.9633 -0.1307
   87TMC2    C5 1355   1.610   0.544   1.484  0.4833 -0.6376  0.5434
   87TMC2    C6 1356   1.729   0.561   1.554  0.4090 -0.3316  0.1927
   87TMC2     C 1357   1.713   0.479   1.140 -0.2736  0.1017 -0.1378
   87TMC2     O 1358   1.626   0.395   1.114  0.0779 -0.5723  0.2908
   87TMC2     H 1359   1.932   0.518   1.285 -1.1617 -2.1604 -1.3046
   87TMC2    H1 1360   1.507   0.546   1.299  1.2644  1.3781 -1.2245
   87TMC2    H2 1361   1.726   0.564   1.663  0.3159  1.4326  0.1419
   87TMC2    C7 1362   1.498   0.533   1.573 -0.7070 -0.5486 -0.3629
   87TMC2    C8 1363   1.969   0.559   1.548  0.0741  0.1497 -0.3166
   87TMC2    O1 1364   1.499   0.601   1.677 -0.1814  0.1428  0.1238
   87TMC2    O2 1365   2.066   0.558   1.475  0.9618 -0.0768 -0.3735
   87TMC2    O5 1366   1.969   0.642   1.660  0.3705  0.0087  0.4546
   87TMC2    H5 1367   1.885   0.663   1.706  1.2474  1.1247  1.5404
   88MPD2     C 1368   1.184   0.367   1.498  0.1885  0.2921  0.1399
   88MPD2    C1 1369   1.265   0.465   1.543  0.1383 -0.2798  0.3482
   88MPD2    C2 1370   1.218   0.582   1.602 -0.1568 -0.5696 -0.6805
   88MPD2    C3 1371   1.075   0.602   1.607 -0.0001 -0.0439  0.3493
   88MPD2    C4 1372   0.993   0.505   1.549  0.4448  0.1089 -0.1975
   88MPD2    C5 1373   1.053   0.392   1.490 -0.3344  0.0284  0.9092
   88MPD2     H 1374   1.289   0.662   1.618 -0.7171 -0.4432  1.0737
   88MPD2    H1 1375   0.886   0.511   1.558  0.5342  2.0516 -0.4930
   88MPD2    H2 1376   1.218   0.275   1.453  0.6973  1.1986 -1.2915
   88MPD2    H3 1377   0.986   0.314   1.455 -0.9459  1.7280 -1.6864
   88MPD2     N 1378   1.005   0.719   1.639  1.0249  0.3702 -0.2478
   88MPD2    H5 1379   0.906   0.716   1.617  0.7905 -1.5019  1.1005
   88MPD2    N1 1380   1.402   0.455   1.519  0.2295 -0.7920 -0.5193
   88MPD2    H7 1381   1.422   0.397   1.438 -0.3961 -0.8136 -0.6577
   89TMC2    C1 1382   2.355   2.766   1.266 -0.3072  0.0839  0.5670
   89TMC2    C2 1383   2.218   2.764   1.235  0.5071  0.5770 -0.4430
   89TMC2    C3 1384   2.177   2.828   1.122 -1.1611 -0.1053 -0.4077
   89TMC2    C4 1385   2.446   2.806   1.171  0.1103 -0.3368  0.3626
   89TMC2    C5 1386   2.394   2.883   1.073 -0.8283  0.1999  0.4809
   89TMC2    C6 1387   2.264   2.893   1.039 -0.8603 -0.5577  0.2655
   89TMC2     C 1388   2.396   2.716   1.398 -0.3104 -0.0543  0.3240
   89TMC2     O 1389   2.520   2.715   1.413 -0.0962  0.2471 -0.3692
   89TMC2     H 1390   2.143   2.713   1.295  1.8185  0.4178  1.0723
   89TMC2    H1 1391   2.553   2.801   1.187  0.3824  2.1900 -0.6798
   89TMC2    H2 1392   2.223   2.960   0.965  1.1006 -0.2654 -0.5370
   89TMC2    C7 1393   2.482   2.909   0.961  0.0168 -0.2989 -0.3044
   89TMC2    C8 1394   2.037   2.810   1.096 -0.0574 -0.2838 -0.2002
   89TMC2    O1 1395   2.584   2.837   0.963 -0.2847  0.0191  0.9494
   89TMC2    O2 1396   1.963   2.763   1.181  0.1299 -0.1708  0.2901
   89TMC2    O5 1397   2.014   2.842   0.973  0.2889  0.7264 -0.0448
   89TMC2    H5 1398   2.092   2.865   0.919 -0.1613  0.5642 -0.7637
   90MPD2     C 1399   2.324   2.398   1.794 -0.6275 -0.5925 -0.4402
   90MPD2    C1 1400   2.201   2.460   1.766 -0.6625 -0.6825  0.1589
   90MPD2    C2 1401   2.194   2.554   1.665  0.1878  0.1398 -0.0119
   90MPD2    C3 1402   2.310   2.584   1.586  0.5493  0.0251  0.3687
   90MPD2    C4 1403   2.428   2.526   1.621  0.1420  0.4799  0.2307
   90MPD2    C5 1404   2.432   2.427   1.720 -0.1576 -0.2411 -0.6937
   90MPD2     H 1405   2.099   2.605   1.655 -0.0584 -0.0607  1.3931
   90MPD2    H1 1406   2.522   2.542   1.571 -0.5392 -0.9752 -1.5203
   90MPD2    H2 1407   2.324   2.314   1.863  0.6065 -1.4434 -1.4951
   90MPD2    H3 1408   2.520   2.370   1.744 -0.1805  0.1888  0.4042
   90MPD2     N 1409   2.294   2.664   1.469  0.0249  0.1162 -0.1862
   90MPD2    H5 1410   2.203   2.700   1.445 -0.4101 -0.7597  0.1707
   90MPD2    N1 1411   2.082   2.428   1.842 -0.7470  0.5967 -0.4153
   90MPD2    H7 1412   2.002   2.483   1.815 -0.6315  0.5045 -0.9374
   91TMC2    C1 1413   3.948   3.236  16.718 -0.6589  0.1122  0.0854
   91TMC2    C2 1414   3.940   3.330  16.625 -0.1870 -0.2121 -0.6577
   91TMC2    C3 1415   3.820   3.365  16.569 -0.6439  0.4575  0.2440
   91TMC2    C4 1416   3.831   3.197  16.782 -0.1910 -0.5576  0.3097
   91TMC2    C5 1417   3.707   3.240  16.726 -0.0368 -0.1079 -0.3882
   91TMC2    C6 1418   3.704   3.320  16.613 -0.6387 -0.1173  0.1275
   91TMC2     C 1419   4.036   3.129  16.688  0.4711  0.4605  0.4899
   91TMC2     O 1420   4.006   3.021  16.737  0.6693  0.1979 -0.1641
   91TMC2     H 1421   4.031   3.365  16.576  0.6673  0.6452  1.5435
   91TMC2    H1 1422   3.833   3.126  16.864 -1.0585 -0.2514  0.5956
   91TMC2    H2 1423   3.615   3.372  16.578  0.3339  0.0777 -2.0511
   91TMC2    C7 1424   3.590   3.174  16.769 -0.2850 -0.0766  0.4986
   91TMC2    C8 1425   3.813   3.484  16.487  0.0460  0.3589  0.2621
   91TMC2    O1 1426   3.591   3.136  16.885 -0.2220 -0.2786 -0.1430
   91TMC2    O2 1427   3.725   3.517  16.412 -0.3154  0.5111  0.4729
   91TMC2    O5 1428   3.888   3.580  16.549  0.4838  0.2711  0.3987
   91TMC2    H5 1429   3.909   3.551  16.641  0.6153  0.4687  0.4317
   92MPD2     C 1430   4.162   2.943  16.487  0.1166  0.2600 -0.2685
   92MPD2    C1 1431   4.206   3.075  16.514  0.4736  0.6134  0.6121
   92MPD2    C2 1432   4.303   3.124  16.432 -0.1089  0.0017 -0.7070
   92MPD2    C3 1433   4.371   3.049  16.340 -0.0210  0.7952 -0.0684
   92MPD2    C4 1434   4.327   2.919  16.311 -0.2927  0.0191 -0.4797
   92MPD2    C5 1435   4.227   2.868  16.390  0.4386 -0.7833 -0.0550
   92MPD2     H 1436   4.331   3.228  16.449 -0.9287  0.1291 -0.1346
   92MPD2    H1 1437   4.368   2.861  16.229 -0.1695 -0.5560 -0.0076
   92MPD2    H2 1438   4.081   2.907  16.549 -2.0012  1.9365 -2.0404
   92MPD2    H3 1439   4.193   2.768  16.364 -1.5533  0.0134 -0.5207
   92MPD2     N 1440   4.473   3.109  16.263  0.1185 -0.3140  0.0007
   92MPD2    H5 1441   4.477   3.210  16.267  1.7449 -0.2874 -2.4610
   92MPD2    N1 1442   4.142   3.165  16.607  0.0183 -0.2350 -0.9693
   92MPD2    H7 1443   4.182   3.259  16.607  0.6164 -0.4800  4.4732
   93TMC2    C1 1444   1.071   3.183  14.232 -0.0397  0.2287 -0.7955
   93TMC2    C2 1445   1.001   3.288  14.285  0.7419  0.0142 -1.0406
   93TMC2    C3 1446   1.067   3.401  14.315 -0.8800  0.1637 -0.1245
   93TMC2    C4 1447   1.202   3.188  14.214  0.9214 -0.6229 -0.2020
   93TMC2    C5 1448   1.265   3.313  14.235  0.2935  0.1316 -0.4825
   93TMC2    C6 1449   1.196   3.421  14.280  0.1866  0.2009 -0.1457
   93TMC2     C 1450   0.992   3.090  14.151  0.0856  0.1456  0.5236
   93TMC2     O 1451   1.052   2.987  14.118  0.5317 -0.3403 -0.3326
   93TMC2     H 1452   0.893   3.289  14.299  0.8448 -0.7649 -0.1918
   93TMC2    H1 1453   1.249   3.103  14.167 -2.0702 -2.6346  0.4077
   93TMC2    H2 1454   1.246   3.516  14.299  1.5678 -0.7667  1.0780
   93TMC2    C7 1455   1.389   3.334  14.164 -0.0848 -0.0314  0.1195
   93TMC2    C8 1456   0.984   3.494  14.396 -0.5119  0.6906  0.1658
   93TMC2    O1 1457   1.409   3.270  14.066  0.1437 -0.1831 -0.4719
   93TMC2    O2 1458   0.860   3.479  14.403 -0.0477 -0.2775 -0.6226
   93TMC2    O5 1459   1.042   3.616  14.420  1.1715 -0.9355 -0.0436
   93TMC2    H5 1460   1.138   3.609  14.438  0.6691 -1.6035  2.3599
   94MPD2     C 1461   0.773   2.934  14.009  0.5754 -0.2203 -0.5483
   94MPD2    C1 1462   0.764   3.060  14.054 -0.4210 -0.5863  0.3733
   94MPD2    C2 1463   0.651   3.136  14.034 -0.2195 -0.0179 -0.4758
   94MPD2    C3 1464   0.548   3.075  13.960 -0.5058 -0.4880 -0.0308
   94MPD2    C4 1465   0.548   2.943  13.931 -0.1174  0.0155  0.5740
   94MPD2    C5 1466   0.657   2.865  13.965 -0.0793  0.1748  0.4879
   94MPD2     H 1467   0.635   3.238  14.066 -0.0544 -0.9486  2.5220
   94MPD2    H1 1468   0.456   2.902  13.890 -1.0113  2.3088  0.2671
   94MPD2    H2 1469   0.865   2.881  14.033  1.6986  2.2330  0.5900
   94MPD2    H3 1470   0.663   2.759  13.942 -0.6176  0.0683  0.8425
   94MPD2     N 1471   0.437   3.160  13.922  0.2052  0.3046  0.7961
   94MPD2    H5 1472   0.347   3.123  13.891  0.0021  1.4229  0.0556
   94MPD2    N1 1473   0.868   3.130  14.117  0.4795 -0.2229  0.0711
   94MPD2    H7 1474   0.845   3.223  14.151 -1.8378 -0.6790 -0.3106
   95TMC2    C1 1475   0.655   0.074  16.262 -0.2847  0.7954 -0.0799
   95TMC2    C2 1476   0.544   4.733  16.293 -0.2047  0.7634 -0.3788
   95TMC2    C3 1477   0.483   0.030  16.411  0.3814  0.4983 -0.2543
   95TMC2    C4 1478   0.706   0.173  16.343 -0.4946 -0.4127 -0.3305
   95TMC2    C5 1479   0.637   0.197  16.457  0.2670  0.6894  0.2862
   95TMC2    C6 1480   0.527   0.126  16.493  0.1269 -0.2827 -0.2402
   95TMC2     C 1481   0.735   0.047  16.142 -0.1654 -0.0222  0.9841
   95TMC2     O 1482   0.843   0.106  16.134 -0.0635 -0.2069 -0.2975
   95TMC2     H 1483   0.521   4.643  16.238 -0.0561  0.6485 -0.2522
   95TMC2    H1 1484   0.798   0.226  16.319 -1.9551  1.4956 -1.6533
   95TMC2    H2 1485   0.457   0.155  16.571 -1.2398 -0.0675 -1.5561
   95TMC2    C7 1486   0.685   0.303  16.537  0.9578  0.4041  0.2266
   95TMC2    C8 1487   0.383   4.690  16.474 -0.8099 -1.0572 -0.0850
   95TMC2    O1 1488   0.750   0.392  16.481  0.3669  0.3209  0.0078
   95TMC2    O2 1489   0.352   4.693  16.590 -0.1011 -0.4678  0.4062
   95TMC2    O5 1490   0.295   4.649  16.382 -0.1444 -0.1231 -0.2146
   95TMC2    H5 1491   0.302   4.701  16.300 -2.2703  1.2105  0.4681
   96MPD2     C 1492   0.769   4.661  15.634  0.4725  0.3701  0.2124
   96MPD2    C1 1493   0.857   4.722  15.716 -0.8571  0.1199 -0.5971
   96MPD2    C2 1494   0.823   0.002  15.852 -0.3269 -0.3066 -0.7088
   96MPD2    C3 1495   0.696   4.701  15.904 -0.1177 -0.4377  0.3773
   96MPD2    C4 1496   0.612   4.634  15.817 -0.1022  0.1936  0.1701
   96MPD2    C5 1497   0.655   4.608  15.685  0.3654 -0.2043 -0.9382
   96MPD2     H 1498   0.900   0.036  15.921 -1.5888  0.0024  0.5319
   96MPD2    H1 1499   0.516   4.594  15.848 -0.4531  0.8211 -0.1319
   96MPD2    H2 1500   0.797   4.630  15.534  0.8259 -1.8645  1.0242
   96MPD2    H3 1501   0.591   4.548  15.623 -1.2801  1.2967 -0.6994
   96MPD2     N 1502   0.662   4.716  16.044  0.8692  0.4749 -0.8828
   96MPD2    H5 1503   0.569   4.681  16.068  0.8993  0.6220 -0.5576
   96MPD2    N1 1504   0.981   0.026  15.659  0.0177  0.9455  0.3201
   96MPD2    H7 1505   0.983   0.012  15.558 -0.0466 -1.1173  0.6249
   97TMC2    C1 1506   3.438   3.241   1.336  0.1370 -0.1294 -0.2711
   97TMC2    C2 1507   3.330   3.308   1.384  0.5447  0.8198  0.1028
   97TMC2    C3 1508   3.274   3.406   1.303  0.5114 -1.0740 -0.8718
   97TMC2    C4 1509   3.494   3.269   1.218 -0.2342  0.3814 -0.4177
   97TMC2    C5 1510   3.451   3.384   1.162 -0.1131  0.1604 -0.8663
   97TMC2    C6 1511   3.344   3.456   1.192 -0.2646 -0.5683 -0.2319
   97TMC2     C 1512   3.462   3.116   1.388  0.5488  0.0893 -0.5052
   97TMC2     O 1513   3.376   3.065   1.456  0.0863  0.1190 -0.4633
   97TMC2     H 1514   3.284   3.296   1.481  2.4677  1.1023  1.0349
   97TMC2    H1 1515   3.573   3.208   1.175  0.8503  0.3877  1.5664
   97TMC2    H2 1516   3.314   3.553   1.152  1.6085 -0.0169 -0.2838
   97TMC2    C7 1517   3.550   3.437   1.065 -0.4921 -0.4582  0.3001
   97TMC2    C8 1518   3.169   3.486   1.362 -0.6021 -0.0866 -0.2378
   97TMC2    O1 1519   3.657   3.381   1.073 -0.1655 -0.0809 -0.5845
   97TMC2    O2 1520   3.175   3.512   1.481 -0.3896 -0.6631  0.4123
   97TMC2    O5 1521   3.103   3.546   1.263  0.1299 -0.0554 -0.3178
   97TMC2    H5 1522   3.111   3.489   1.184 -0.3210 -0.1759 -0.2785
   98MPD2     C 1523   3.705   2.675   1.359  0.2950 -0.3649 -0.7994
   98MPD2    C1 1524   3.574   2.696   1.374  0.2943  0.7098 -0.4063
   98MPD2    C2 1525   3.531   2.827   1.375 -0.0717  0.8013 -0.0748
   98MPD2    C3 1526   3.621   2.928   1.363  0.1103  0.5232 -0.7217
   98MPD2    C4 1527   3.757   2.909   1.347 -0.1436  0.7317 -0.5726
   98MPD2    C5 1528   3.798   2.776   1.343 -0.0659  0.5255 -0.6547
   98MPD2     H 1529   3.426   2.847   1.387 -1.0086 -2.1443 -3.3840
   98MPD2    H1 1530   3.828   2.988   1.327  1.2095  0.5060  3.4126
   98MPD2    H2 1531   3.745   2.575   1.364  0.0737 -0.4626 -0.9400
   98MPD2    H3 1532   3.901   2.745   1.333  0.0379  0.8317 -0.5351
   98MPD2     N 1533   3.576   3.059   1.355 -0.5557 -0.3153  0.1979
   98MPD2    H5 1534   3.648   3.123   1.321  1.2991 -1.2874  2.2333
   98MPD2    N1 1535   3.492   2.583   1.390  0.0947 -0.2665  0.6613
   98MPD2    H7 1536   3.545   2.498   1.409 -0.3234 -0.4717  0.8973
   99TMC2    C1 1537   2.313   4.651   1.672 -0.1741 -0.2376 -0.8908
   99TMC2    C2 1538   2.400   4.714   1.754 -0.2307 -0.7085 -0.5439
   99TMC2    C3 1539   2.358   0.036   1.866  0.5648 -0.2841 -0.4446
   99TMC2    C4 1540   2.182   4.625   1.705  0.1952  0.4150 -0.3513
   99TMC2    C5 1541   2.143   4.682   1.824 -0.8613 -0.4808 -0.5525
   99TMC2    C6 1542   2.232   0.010   1.909  0.6288  0.2773 -0.1740
   99TMC2     C 1543   2.366   4.599   1.547  0.2464 -0.2701  0.3238
   99TMC2     O 1544   2.484   4.573   1.548  0.2043  0.1739 -0.5077
   99TMC2     H 1545   2.502   4.724   1.718  0.4627  1.7214  2.0850
   99TMC2    H1 1546   2.121   4.550   1.656 -1.8686 -0.4211  3.5106
   99TMC2    H2 1547   2.195   0.065   1.995 -1.4404  0.1151 -0.9472
   99TMC2    C7 1548   2.006   4.678   1.869 -0.0935  0.2046  0.0126
   99TMC2    C8 1549   2.460   0.078   1.964  0.1719 -0.3991 -0.0371
   99TMC2    O1 1550   1.988   4.711   1.984  0.3844 -0.3124 -0.0944
   99TMC2    O2 1551   2.553   0.160   1.946 -0.1146 -0.1001 -0.6286
   99TMC2    O5 1552   2.435   0.009   2.080 -0.5077 -0.1481 -0.2658
   99TMC2    H5 1553   2.369   4.676   2.066  1.7157 -2.7783  2.3474
  100MPD2     C 1554   2.452   4.518   1.276  0.2979  0.5361 -0.0298
  100MPD2    C1 1555   2.319   4.514   1.320  0.3872 -0.0879  0.1105
  100MPD2    C2 1556   2.225   4.477   1.227 -0.9938 -0.1419  0.1793
  100MPD2    C3 1557   2.252   4.433   1.099 -0.0555 -0.4224 -0.7186
  100MPD2    C4 1558   2.388   4.416   1.069 -1.0512  0.0997  0.0518
  100MPD2    C5 1559   2.486   4.457   1.155  0.1268 -0.2763 -0.1597
  100MPD2     H 1560   2.129   4.466   1.276 -0.7760 -1.5945  0.2862
  100MPD2    H1 1561   2.427   4.380   0.974 -1.3616 -0.7971  0.2634
  100MPD2    H2 1562   2.542   4.550   1.327  0.2122  0.0423  0.4385
  100MPD2    H3 1563   2.590   4.446   1.129 -0.7919 -2.7683 -2.7351
  100MPD2     N 1564   2.140   4.385   1.030  0.1592 -0.2577 -0.3433
  100MPD2    H5 1565   2.051   4.400   1.078  0.5090 -0.0289  0.2260
  100MPD2    N1 1566   2.276   4.563   1.447  0.2372  0.0101 -0.4975
  100MPD2    H7 1567   2.179   4.570   1.477 -0.6246 -1.8021 -2.9515
  101TMC2    C1 1568   2.335   0.516  13.059  0.4631  0.4925  0.0150
  101TMC2    C2 1569   2.401   0.444  12.958 -0.7591  0.0417  0.4431
  101TMC2    C3 1570   2.440   0.519  12.848 -0.6113 -0.1939 -0.5302
  101TMC2    C4 1571   2.295   0.641  13.048  0.5196 -0.9480 -0.3208
  101TMC2    C5 1572   2.345   0.711  12.943 -0.8618  0.0318  0.4117
  101TMC2    C6 1573   2.413   0.651  12.840 -0.1840 -0.2029  0.4022
  101TMC2     C 1574   2.281   0.453  13.185  0.5692  0.3279 -0.0844
  101TMC2     O 1575   2.183   0.511  13.239 -0.7479 -0.0508  0.3738
  101TMC2     H 1576   2.445   0.347  12.978 -0.9420 -0.7506 -3.0431
  101TMC2    H1 1577   2.241   0.694  13.126  0.7453 -0.2360 -0.6408
  101TMC2    H2 1578   2.466   0.721  12.776  1.2557 -0.4907  1.2686
  101TMC2    C7 1579   2.374   0.851  12.957  0.1244 -0.0296  0.2457
  101TMC2    C8 1580   2.554   0.472  12.773  0.4589  0.4387 -0.2748
  101TMC2    O1 1581   2.372   0.920  12.856  0.0729 -0.1850 -0.2023
  101TMC2    O2 1582   2.616   0.375  12.820 -0.5883 -0.0798  0.0981
  101TMC2    O5 1583   2.553   0.527  12.652 -0.4897 -0.3295  0.1099
  101TMC2    H5 1584   2.481   0.590  12.631 -0.2218  0.4860  1.6442
  102MPD2     C 1585   2.367   0.150  13.358  0.0462 -0.1795 -0.1798
  102MPD2    C1 1586   2.293   0.258  13.325 -0.1250  0.0479  0.1138
  102MPD2    C2 1587   2.173   0.279  13.390  0.6829  0.2121 -0.1865
  102MPD2    C3 1588   2.148   0.207  13.507  0.2516 -0.3086 -0.0190
  102MPD2    C4 1589   2.224   0.096  13.547 -0.8555 -0.0936  0.4126
  102MPD2    C5 1590   2.335   0.069  13.468  0.4994 -0.2905  0.4845
  102MPD2     H 1591   2.103   0.354  13.354  2.5319  2.4323  0.8687
  102MPD2    H1 1592   2.196   0.037  13.634  2.2660 -1.7117  0.3207
  102MPD2    H2 1593   2.458   0.125  13.305  0.5599 -1.3523  1.2496
  102MPD2    H3 1594   2.392   4.716  13.486  0.2770 -0.6185 -0.4696
  102MPD2     N 1595   2.033   0.252  13.570  0.2293  0.0078 -0.1772
  102MPD2    H5 1596   1.972   0.307  13.511 -2.0780 -1.4047  0.8627
  102MPD2    N1 1597   2.344   0.335  13.219  0.6399 -0.4432 -0.3496
  102MPD2    H7 1598   2.422   0.296  13.167  0.1835 -1.2583 -0.4222
  103TMC2    C1 1599   0.424   0.975  12.347  0.2310  0.0132  0.0329
  103TMC2    C2 1600   0.528   0.889  12.375  0.3305  0.4120 -0.3027
  103TMC2    C3 1601   0.596   0.911  12.494 -0.0370 -0.1416 -0.1304
  103TMC2    C4 1602   0.397   1.082  12.422  0.3524 -1.1749  0.4850
  103TMC2    C5 1603   0.469   1.096  12.536 -0.1309  0.0253  0.4761
  103TMC2    C6 1604   0.558   1.007  12.584 -0.4467 -0.6022  0.6852
  103TMC2     C 1605   0.318   0.922  12.264  0.0526  0.4383  0.3739
  103TMC2     O 1606   0.217   0.990  12.269  0.2459 -0.1094 -0.0891
  103TMC2     H 1607   0.555   0.805  12.312  1.3849  0.6679 -0.1826
  103TMC2    H1 1608   0.313   1.146  12.396  2.2962  1.1787 -0.0040
  103TMC2    H2 1609   0.592   1.013  12.687 -3.5196 -1.7711  1.7409
  103TMC2    C7 1610   0.424   1.190  12.633  0.5319  0.0998  0.5487
  103TMC2    C8 1611   0.711   0.835  12.528  0.1652  0.2399  0.0031
  103TMC2    O1 1612   0.438   1.160  12.747  0.1836  0.6100  0.0210
  103TMC2    O2 1613   0.737   0.728  12.472 -0.2322  0.2901 -0.9393
  103TMC2    O5 1614   0.800   0.923  12.581  0.2635  0.2529 -0.7224
  103TMC2    H5 1615   0.767   1.013  12.602 -0.1719 -0.0357 -0.2021
  104MPD2     C 1616   0.263   0.574  12.195  0.2144  0.0419  0.5471
  104MPD2    C1 1617   0.228   0.707  12.204 -0.6726  0.4552  0.1514
  104MPD2    C2 1618   0.106   0.749  12.169 -0.2878 -0.6915  0.3396
  104MPD2    C3 1619   0.004   0.664  12.132 -0.9656  0.0850 -1.2102
  104MPD2    C4 1620   0.034   0.524  12.139 -0.1910 -0.8170  0.7651
  104MPD2    C5 1621   0.167   0.488  12.154 -0.5748 -0.4993  0.2485
  104MPD2     H 1622   0.080   0.854  12.164  1.8068 -0.1227  1.6646
  104MPD2    H1 1623   4.699   0.447  12.119 -0.5927 -0.0715 -0.6326
  104MPD2    H2 1624   0.361   0.539  12.225  0.3396  0.8176  1.0298
  104MPD2    H3 1625   0.202   0.387  12.137  0.5565  0.1625 -1.2915
  104MPD2     N 1626   4.619   0.722  12.090 -0.1704 -0.1418  0.7144
  104MPD2    H5 1627   4.599   0.822  12.095 -2.0705 -0.6029  1.8728
  104MPD2    N1 1628   0.329   0.791  12.247 -0.6173  0.2443 -0.2150
  104MPD2    H7 1629   0.416   0.748  12.277 -0.6666 -1.0155 -1.8434
  105TMC2    C1 1630   1.634   4.656   0.381 -0.0437 -0.2052  0.0095
  105TMC2    C2 1631   1.497   4.669   0.397  0.1639  0.0365  0.6745
  105TMC2    C3 1632   1.463   0.028   0.484  0.3107 -0.0837  0.2886
  105TMC2    C4 1633   1.729   0.005   0.428 -0.4257  0.3395 -0.0788
  105TMC2    C5 1634   1.685   0.099   0.519 -0.3035  0.4940 -0.3725
  105TMC2    C6 1635   1.548   0.122   0.536 -0.5243 -0.3892  0.5183
  105TMC2     C 1636   1.693   4.552   0.291 -0.0762 -0.0288 -0.0796
  105TMC2     O 1637   1.627   4.450   0.260  0.0403 -0.2855 -0.0165
  105TMC2     H 1638   1.430   4.598   0.350 -0.6198  0.0494  1.7939
  105TMC2    H1 1639   1.835   0.002   0.407 -0.0225 -0.2906  2.1106
  105TMC2    H2 1640   1.508   0.206   0.592  2.1925  0.6509  0.8652
  105TMC2    C7 1641   1.768   0.214   0.549  0.3784  0.0358 -0.6418
  105TMC2    C8 1642   1.322   0.053   0.511 -0.6552  0.0411  0.0222
  105TMC2    O1 1643   1.876   0.215   0.487 -0.4822 -0.3917  0.4725
  105TMC2    O2 1644   1.284   0.091   0.621  0.4360 -0.0377 -0.2309
  105TMC2    O5 1645   1.271   0.081   0.393  0.8219  0.4585  0.3664
  105TMC2    H5 1646   1.329   0.072   0.315 -0.9209  3.5918 -1.2676
  106MPD2     C 1647   1.979   4.459  17.617  0.4615  0.1134  0.1184
  106MPD2    C1 1648   2.012   4.583  17.664  1.1421 -0.8342  0.7127
  106MPD2    C2 1649   1.949   4.620   0.035  0.7041  0.3905  0.2420
  106MPD2    C3 1650   1.856   4.543   0.102  0.1142  0.8359  0.3491
  106MPD2    C4 1651   1.830   4.418   0.054 -0.1746  0.2670 -0.6370
  106MPD2    C5 1652   1.904   4.379  17.694 -0.0865 -0.5247  0.1662
  106MPD2     H 1653   1.977   4.713   0.085  0.9234  1.1084 -1.2288
  106MPD2    H1 1654   1.761   4.346   0.097 -0.0192  0.8471  0.5670
  106MPD2    H2 1655   2.025   4.416  17.529  1.5453 -0.4360  0.9544
  106MPD2    H3 1656   1.885   4.278  17.660  0.3685 -0.2777 -0.8183
  106MPD2     N 1657   1.794   4.601   0.212  1.0916  0.0182 -0.0385
  106MPD2    H5 1658   1.824   4.694   0.241  0.5162  0.9556 -2.4974
  106MPD2    N1 1659   2.109   4.671  17.614 -0.4115 -0.2250 -0.5591
  106MPD2    H7 1660   2.128   0.021  17.662 -1.9647  1.2442 -2.6367
  107TMC2    C1 1661   2.554   0.159  11.735  0.4101  0.1485  0.3698
  107TMC2    C2 1662   2.627   0.265  11.773  0.3174  0.7355  0.3545
  107TMC2    C3 1663   2.720   0.319  11.686 -0.2325 -0.4758  0.1485
  107TMC2    C4 1664   2.563   0.113  11.613 -0.5850 -0.4060  0.2912
  107TMC2    C5 1665   2.658   0.165  11.532  0.1184 -0.0909 -0.5604
  107TMC2    C6 1666   2.731   0.275  11.564 -0.1268  0.1162  0.0401
  107TMC2     C 1667   2.468   0.090  11.833 -0.0566  0.3995 -0.5883
  107TMC2     O 1668   2.483   0.107  11.953 -0.5267 -0.6875 -0.2434
  107TMC2     H 1669   2.618   0.302  11.875 -0.7445 -0.9100  0.8444
  107TMC2    H1 1670   2.536   0.008  11.604  5.2606 -1.7234 -2.4446
  107TMC2    H2 1671   2.805   0.317  11.498 -0.6146 -1.7951 -1.7151
  107TMC2    C7 1672   2.672   0.119  11.394 -0.1691 -0.1812 -0.3711
  107TMC2    C8 1673   2.774   0.452  11.711 -0.6895 -0.1157  0.0912
  107TMC2    O1 1674   2.572   0.090  11.331 -0.5961 -1.1140  0.8285
  107TMC2    O2 1675   2.886   0.484  11.664 -0.0874  0.3320  0.2173
  107TMC2    O5 1676   2.662   0.533  11.706  0.1407 -0.1313 -0.5516
  107TMC2    H5 1677   2.573   0.493  11.710  1.1329 -2.1360  1.2156
  108MPD2     C 1678   2.120   4.725  11.768 -0.2190  0.2512  0.7376
  108MPD2    C1 1679   2.237   0.017  11.844  0.0144 -0.0965 -0.2142
  108MPD2    C2 1680   2.216   0.009  11.980 -0.5312 -0.4043  0.3449
  108MPD2    C3 1681   2.099   4.712  12.044 -0.2378 -0.4182  0.0451
  108MPD2    C4 1682   1.992   4.687  11.970  0.8565  0.4068 -0.9595
  108MPD2    C5 1683   1.999   4.696  11.832  0.6054  0.5707 -0.0884
  108MPD2     H 1684   2.298   0.026  12.049  0.3267  1.4934 -1.1514
  108MPD2    H1 1685   1.898   4.665  12.020  1.0679 -1.3636 -1.3529
  108MPD2    H2 1686   2.125   4.732  11.660  0.7541  0.5314  0.8040
  108MPD2    H3 1687   1.914   4.683  11.766 -0.7863  0.3531  1.7509
  108MPD2     N 1688   2.081   4.720  12.185 -0.3882 -0.3183  0.2550
  108MPD2    H5 1689   1.989   4.699  12.221 -1.4796  1.3683 -1.5365
  108MPD2    N1 1690   2.349   0.054  11.777  0.5225 -0.2877  0.0395
  108MPD2    H7 1691   2.341   0.067  11.677  2.1394 -2.4316 -0.3734
  109TMC2    C1 1692   2.721   2.227   1.009  0.2299  0.2745 -0.7540
  109TMC2    C2 1693   2.766   2.292   0.897  0.2776  0.2796  0.0059
  109TMC2    C3 1694   2.906   2.307   0.891  0.1383  0.5122 -0.2209
  109TMC2    C4 1695   2.801   2.171   1.102  0.1516 -0.3377  0.3382
  109TMC2    C5 1696   2.939   2.174   1.085  0.1525  0.0669  0.8777
  109TMC2    C6 1697   2.995   2.252   0.983  0.3288  0.3024 -0.2958
  109TMC2     C 1698   2.580   2.198   1.004  0.2174 -0.5684 -0.2053
  109TMC2     O 1699   2.519   2.257   0.915  0.4066 -0.8108  0.6683
  109TMC2     H 1700   2.697   2.321   0.819  0.2671  0.5995  0.1351
  109TMC2    H1 1701   2.758   2.130   1.193  2.8257  0.7170  2.0593
  109TMC2    H2 1702   3.099   2.282   0.972  0.9522 -1.5192  0.6062
  109TMC2    C7 1703   3.033   2.134   1.189  0.2013 -0.1125  0.2529
  109TMC2    C8 1704   2.953   2.393   0.781 -0.4968  0.6482 -0.6458
  109TMC2    O1 1705   3.149   2.169   1.183 -0.0193 -0.1536  0.3583
  109TMC2    O2 1706   3.038   2.353   0.702  0.4372 -0.5001  0.3065
  109TMC2    O5 1707   2.861   2.498   0.767 -0.0880 -0.2879 -0.7660
  109TMC2    H5 1708   2.812   2.524   0.847 -0.2946 -1.0017 -0.6640
  110MPD2     C 1709   2.142   1.982   1.185  0.3752  0.0732 -0.1949
  110MPD2    C1 1710   2.253   1.928   1.253 -0.8549  0.8060 -0.4466
  110MPD2    C2 1711   2.379   1.968   1.212  0.0405  0.1149  0.1731
  110MPD2    C3 1712   2.403   2.061   1.114 -0.2605 -0.4122  0.4782
  110MPD2    C4 1713   2.295   2.099   1.042  0.4400 -0.4437  0.2341
  110MPD2    C5 1714   2.166   2.064   1.083  0.6353 -0.4049  0.1649
  110MPD2     H 1715   2.467   1.940   1.268  0.3578  0.2131 -0.2789
  110MPD2    H1 1716   2.303   2.180   0.970  0.0977 -1.4826 -0.9840
  110MPD2    H2 1717   2.038   1.959   1.208 -0.9784  3.7567 -2.6810
  110MPD2    H3 1718   2.079   2.104   1.032  0.8170  0.1490  0.2893
  110MPD2     N 1719   2.539   2.096   1.092  0.5285  0.1489  0.0268
  110MPD2    H5 1720   2.607   2.045   1.147  0.8648  0.9414  0.3428
  110MPD2    N1 1721   2.231   1.837   1.364 -0.0791 -0.2002 -0.4379
  110MPD2    H7 1722   2.135   1.829   1.395 -0.2580  0.4987 -0.8211
  111TMC2    C1 1723   2.131   1.480  11.774 -0.8377 -0.2921 -0.0940
  111TMC2    C2 1724   2.081   1.375  11.705  0.8189 -0.7938 -0.1908
  111TMC2    C3 1725   2.165   1.264  11.695  0.7598  0.4136 -0.5674
  111TMC2    C4 1726   2.260   1.485  11.818 -0.7152 -0.0611  0.2708
  111TMC2    C5 1727   2.345   1.380  11.799  0.4151 -0.2104 -0.4539
  111TMC2    C6 1728   2.295   1.266  11.742  0.0064 -1.1860 -0.3480
  111TMC2     C 1729   2.078   1.609  11.729 -0.2750 -0.2444 -0.2428
  111TMC2     O 1730   2.041   1.624  11.611 -0.4634 -0.2839 -0.0186
  111TMC2     H 1731   1.978   1.364  11.675  0.9457 -0.1912 -0.8611
  111TMC2    H1 1732   2.294   1.574  11.869  0.4206 -0.3935  0.1194
  111TMC2    H2 1733   2.349   1.172  11.744  0.6473 -0.8135 -0.2285
  111TMC2    C7 1734   2.481   1.394  11.854  0.0995 -0.8247 -0.2074
  111TMC2    C8 1735   2.102   1.135  11.665 -0.8367 -0.2502  0.0498
  111TMC2    O1 1736   2.571   1.341  11.790 -0.4019 -0.2244 -0.2865
  111TMC2    O2 1737   2.144   1.049  11.586 -0.1081 -0.4803 -0.1234
  111TMC2    O5 1738   1.992   1.118  11.740  0.8955  0.5555  0.6207
  111TMC2    H5 1739   1.997   1.168  11.824 -0.5635  1.5270  0.1407
  112MPD2     C 1740   2.004   2.101  11.797 -0.3245 -0.4184 -0.2160
  112MPD2    C1 1741   2.026   2.030  11.682 -0.3077 -0.0806 -0.1554
  112MPD2    C2 1742   2.052   1.897  11.690 -0.5005  0.7875  0.1203
  112MPD2    C3 1743   2.051   1.834  11.817 -0.7441  0.2746 -0.1477
  112MPD2    C4 1744   2.027   1.908  11.929 -0.1040  0.0601  0.5786
  112MPD2    C5 1745   2.005   2.044  11.918  0.1427  0.0005  0.1284
  112MPD2     H 1746   2.081   1.849  11.597 -0.0793  2.0293 -0.3927
  112MPD2    H1 1747   2.035   1.863  12.027  2.5357 -0.4622  0.0999
  112MPD2    H2 1748   1.977   2.206  11.794  1.3910  0.0315  0.2301
  112MPD2    H3 1749   1.995   2.108  12.004 -1.1958 -0.3481  0.2361
  112MPD2     N 1750   2.082   1.698  11.832  0.8685  0.0372  0.6549
  112MPD2    H5 1751   2.110   1.665  11.923  2.1628  0.3188  0.3680
  112MPD2    N1 1752   2.019   2.083  11.553 -0.2147  0.3349 -0.9034
  112MPD2    H7 1753   2.039   2.015  11.480 -0.8248 -0.2372 -0.5377
  113TMC2    C1 1754   0.676   4.461   0.898 -0.2618  0.1842 -0.1829
  113TMC2    C2 1755   0.584   4.554   0.874  0.0174  0.5055 -0.6982
  113TMC2    C3 1756   0.459   4.513   0.832  0.3560  0.6408  0.2325
  113TMC2    C4 1757   0.644   4.329   0.886  0.1352  0.3880  0.0173
  113TMC2    C5 1758   0.521   4.295   0.842 -0.2327  0.6558  0.5430
  113TMC2    C6 1759   0.425   4.385   0.804 -0.5162 -0.1249  0.1874
  113TMC2     C 1760   0.799   4.506   0.958 -0.1618 -1.1656  0.3963
  113TMC2     O 1761   0.789   4.595   1.042 -0.0715  0.5798  0.2706
  113TMC2     H 1762   0.617   4.655   0.892  0.4996  0.0962  0.7242
  113TMC2    H1 1763   0.714   4.251   0.913  0.5041  0.5699 -0.4149
  113TMC2    H2 1764   0.326   4.348   0.778 -0.1605 -2.3010  1.8995
  113TMC2    C7 1765   0.501   4.160   0.812 -0.8393  0.2252 -0.3046
  113TMC2    C8 1766   0.353   4.610   0.816 -0.6036  0.8927 -0.5198
  113TMC2    O1 1767   0.425   4.133   0.721  0.6887  0.3764  0.3915
  113TMC2    O2 1768   0.326   4.690   0.906 -0.0741  0.0030 -0.2651
  113TMC2    O5 1769   0.335   4.630   0.682 -0.2274 -1.0637 -0.4199
  113TMC2    H5 1770   0.368   4.557   0.625  0.2506 -1.3473  0.2212
  114MPD2     C 1771   1.291   4.421   1.101  0.8766 -0.4468 -0.5895
  114MPD2    C1 1772   1.200   4.503   1.161  0.5691  0.3387 -0.2753
  114MPD2    C2 1773   1.067   4.495   1.118  0.0647  0.4485  0.3305
  114MPD2    C3 1774   1.029   4.421   1.004 -0.6806  0.5263  0.2648
  114MPD2    C4 1775   1.125   4.335   0.944 -0.1876 -0.7518 -0.2272
  114MPD2    C5 1776   1.254   4.344   0.995  0.2828  0.5602  0.1808
  114MPD2     H 1777   0.995   4.558   1.168 -2.3100 -0.9106 -1.3402
  114MPD2    H1 1778   1.107   4.270   0.859 -1.2174  2.1226 -2.2214
  114MPD2    H2 1779   1.393   4.434   1.134 -0.1268 -1.8943  3.1691
  114MPD2    H3 1780   1.325   4.274   0.954 -0.8743 -0.3258 -0.3290
  114MPD2     N 1781   0.900   4.419   0.939 -0.8901  0.4264 -0.1400
  114MPD2    H5 1782   0.893   4.357   0.859  0.3252  0.7998 -0.5396
  114MPD2    N1 1783   1.233   4.596   1.265 -0.3793 -0.3049  0.5845
  114MPD2    H7 1784   1.159   4.650   1.309 -1.2584 -0.6717 -0.4273
  115TMC2    C1 1785   2.166   1.729   0.308  0.0014 -0.2256 -0.0992
  115TMC2    C2 1786   2.281   1.781   0.252 -0.5692  0.4185  0.4332
  115TMC2    C3 1787   2.296   1.914   0.262 -0.4346  0.0595 -0.7113
  115TMC2    C4 1788   2.065   1.801   0.356  0.1181  0.2789 -0.2558
  115TMC2    C5 1789   2.074   1.936   0.365  0.6096 -0.5411  0.2640
  115TMC2    C6 1790   2.192   1.992   0.311  1.0779  0.4690 -0.5253
  115TMC2     C 1791   2.136   1.588   0.259  0.9456 -0.2574  0.0552
  115TMC2     O 1792   2.224   1.542   0.188 -1.0150 -0.5564  0.1755
  115TMC2     H 1793   2.363   1.717   0.221 -1.2378 -1.8583  3.3885
  115TMC2    H1 1794   1.975   1.753   0.393 -0.2691  0.8076 -0.4999
  115TMC2    H2 1795   2.209   2.099   0.316 -0.9567  0.7395  0.5411
  115TMC2    C7 1796   1.963   2.024   0.398 -0.1329  1.0157 -0.2168
  115TMC2    C8 1797   2.417   1.974   0.226 -0.9631  0.4770 -0.0153
  115TMC2    O1 1798   1.873   1.985   0.477 -0.3808 -0.0085  0.1237
  115TMC2    O2 1799   2.518   1.904   0.219  0.2450 -0.0351  0.5235
  115TMC2    O5 1800   2.407   2.100   0.185 -0.1846 -0.1139  0.1343
  115TMC2    H5 1801   2.314   2.128   0.174  0.2857  0.0674 -3.3206
  116MPD2     C 1802   1.835   1.166   0.283  0.0533  0.7704  0.1642
  116MPD2    C1 1803   1.933   1.196   0.192  0.1335 -0.4053 -0.0120
  116MPD2    C2 1804   2.004   1.317   0.203  0.0702  0.5782  0.1803
  116MPD2    C3 1805   1.967   1.401   0.304  0.2028  0.9413 -0.3144
  116MPD2    C4 1806   1.869   1.372   0.391  0.7705  0.2828  0.0290
  116MPD2    C5 1807   1.799   1.254   0.387 -0.7116  0.3715 -0.1387
  116MPD2     H 1808   2.093   1.345   0.148  0.3910 -2.8907 -1.0953
  116MPD2    H1 1809   1.843   1.442   0.470 -1.5653 -1.6181  0.9312
  116MPD2    H2 1810   1.790   1.067   0.277  0.1423  0.7403 -0.0178
  116MPD2    H3 1811   1.729   1.218   0.462  1.5722 -0.0617  1.7782
  116MPD2     N 1812   2.037   1.526   0.330 -0.6643  0.4538  0.5102
  116MPD2    H5 1813   1.987   1.582   0.398 -0.4449  1.8558 -0.4778
  116MPD2    N1 1814   1.958   1.095   0.091 -0.1477 -0.4972  0.2175
  116MPD2    H7 1815   1.898   1.014   0.077  0.4674 -1.1877  1.5992
  117TMC2    C1 1816   0.528   3.604  14.273 -0.3180 -0.0194  0.1226
  117TMC2    C2 1817   0.626   3.538  14.208  0.4055  0.1771 -0.6671
  117TMC2    C3 1818   0.674   3.609  14.104  0.4761 -0.8254  0.1531
  117TMC2    C4 1819   0.488   3.733  14.257 -0.6905  0.5472 -0.3576
  117TMC2    C5 1820   0.561   3.799  14.168  0.0994 -0.0227 -0.0755
  117TMC2    C6 1821   0.655   3.739  14.085 -0.0575  0.2633  0.1581
  117TMC2     C 1822   0.430   3.510  14.329 -1.0485  0.2543  0.2762
  117TMC2     O 1823   0.465   3.396  14.361  0.0094 -0.2985  0.3863
  117TMC2     H 1824   0.656   3.439  14.239  0.0512  0.5066  0.7408
  117TMC2    H1 1825   0.422   3.787  14.323 -0.4507 -0.1260  0.4370
  117TMC2    H2 1826   0.702   3.797  14.007  2.2677  0.9304  2.0374
  117TMC2    C7 1827   0.529   3.940  14.138  0.5424 -0.1510 -0.0224
  117TMC2    C8 1828   0.783   3.550  14.032  0.3025  0.4795  0.7332
  117TMC2    O1 1829   0.621   3.991  14.075 -0.2905 -0.0651  0.0735
  117TMC2    O2 1830   0.860   3.465  14.079  0.3764  0.4831  0.0398
  117TMC2    O5 1831   0.806   3.613  13.910 -0.0123 -0.0382  0.5196
  117TMC2    H5 1832   0.734   3.663  13.867  0.6620  0.9826  0.5915
  118MPD2     C 1833   0.229   4.144  14.185 -0.0606  0.7480  0.0275
  118MPD2    C1 1834   0.361   4.114  14.175  0.1698  0.0678  0.5485
  118MPD2    C2 1835   0.452   4.217  14.154  0.8557 -0.3382 -0.3743
  118MPD2    C3 1836   0.421   4.354  14.155 -0.6878 -0.0209 -0.3380
  118MPD2    C4 1837   0.285   4.378  14.184  0.4764 -0.7245 -0.1647
  118MPD2    C5 1838   0.187   4.279  14.177  0.1361  0.1161 -0.6861
  118MPD2     H 1839   0.557   4.195  14.145  1.2734  1.3617  0.3018
  118MPD2    H1 1840   0.260   4.483  14.196 -2.7584 -1.3872 -1.2523
  118MPD2    H2 1841   0.155   4.065  14.195  0.9747 -0.2317 -0.0915
  118MPD2    H3 1842   0.081   4.294  14.189  0.5754  2.7803 -0.0664
  118MPD2     N 1843   0.527   4.451  14.157  0.2217  0.2081 -0.3168
  118MPD2    H5 1844   0.503   4.545  14.188 -1.2074 -0.1515 -0.3411
  118MPD2    N1 1845   0.398   3.978  14.175  0.4616  0.6112 -0.5730
  118MPD2    H7 1846   0.325   3.908  14.184 -0.1141  1.2137 -0.5456
  119TMC2    C1 1847   2.821   0.673  13.519  0.0714  0.1577  0.0342
  119TMC2    C2 1848   2.799   0.753  13.414 -0.6928 -0.4132  0.4238
  119TMC2    C3 1849   2.718   0.706  13.314  0.0566  0.9130 -0.0225
  119TMC2    C4 1850   2.776   0.546  13.527 -0.1411 -0.3085 -0.0663
  119TMC2    C5 1851   2.707   0.498  13.418 -0.9170  0.0646 -0.0504
  119TMC2    C6 1852   2.667   0.579  13.315 -0.0438  0.4916 -0.2193
  119TMC2     C 1853   2.912   0.711  13.622 -0.0604 -0.3840  0.1978
  119TMC2     O 1854   2.884   0.656  13.728 -0.1017 -0.1675  0.2731
  119TMC2     H 1855   2.857   0.845  13.411  0.1845 -0.9260  1.9607
  119TMC2    H1 1856   2.827   0.474  13.590  0.8445  0.5313  0.0893
  119TMC2    H2 1857   2.605   0.529  13.242 -2.1537  0.7019  1.4092
  119TMC2    C7 1858   2.670   0.351  13.413 -0.3807  0.5167 -0.6868
  119TMC2    C8 1859   2.733   0.771  13.189  0.6896  0.1384 -0.4027
  119TMC2    O1 1860   2.636   0.305  13.304 -0.3256  0.5186  0.2166
  119TMC2    O2 1861   2.806   0.869  13.179 -0.0353  0.2578 -0.4262
  119TMC2    O5 1862   2.676   0.692  13.101 -0.3613 -0.2415  0.3296
  119TMC2    H5 1863   2.687   0.718  13.007  2.2204  0.2321  0.7789
  120MPD2     C 1864   3.352   0.881  13.836 -0.1503 -0.3784  0.2320
  120MPD2    C1 1865   3.248   0.812  13.894 -0.3364 -0.4252 -0.3825
  120MPD2    C2 1866   3.132   0.787  13.818  0.2419  0.1524 -0.5975
  120MPD2    C3 1867   3.130   0.822  13.680  0.5171 -0.5720  0.1698
  120MPD2    C4 1868   3.233   0.892  13.626 -0.6023  0.4768 -0.1686
  120MPD2    C5 1869   3.340   0.918  13.707  0.1077 -0.1144 -0.1809
  120MPD2     H 1870   3.054   0.727  13.865  2.4977 -2.7682 -0.5746
  120MPD2    H1 1871   3.235   0.911  13.520  1.4635 -1.7785 -0.5626
  120MPD2    H2 1872   3.437   0.913  13.896  0.0236 -0.1702 -0.1251
  120MPD2    H3 1873   3.430   0.964  13.668  0.3365  1.8698  2.6941
  120MPD2     N 1874   3.023   0.789  13.589  0.1772 -0.5708 -0.1230
  120MPD2    H5 1875   3.030   0.827  13.495  3.1274 -0.4046  0.1589
  120MPD2    N1 1876   3.270   0.759  14.021  0.3075 -0.1221  0.3368
  120MPD2    H7 1877   3.364   0.763  14.058 -0.2668  0.5516  1.7117
  121TMC2    C1 1878   4.681   1.869  14.303 -0.6188  0.2501 -0.1433
  121TMC2    C2 1879   4.618   1.767  14.361  0.5361  0.0828 -0.6318
  121TMC2    C3 1880   4.490   1.763  14.357  0.0927  0.0927 -0.2424
  121TMC2    C4 1881   4.610   1.979  14.248 -0.1488 -0.0660  0.5851
  121TMC2    C5 1882   4.479   1.980  14.256 -0.0956  0.0855  0.3155
  121TMC2    C6 1883   4.415   1.870  14.314 -0.4266 -0.0637 -0.1672
  121TMC2     C 1884   0.080   1.852  14.279  0.1404  0.5457 -0.2466
  121TMC2     O 1885   0.139   1.772  14.347 -0.4333  0.7254  0.4899
  121TMC2     H 1886   4.672   1.681  14.401 -2.1387 -1.6669 -0.7520
  121TMC2    H1 1887   4.657   2.058  14.190 -0.7573  0.5101  0.8745
  121TMC2    H2 1888   4.306   1.867  14.309 -0.4165  0.2847 -0.7176
  121TMC2    C7 1889   4.401   2.081  14.182  0.1971 -0.1679  0.0975
  121TMC2    C8 1890   4.423   1.671  14.452  0.0810 -0.1548  0.7345
  121TMC2    O1 1891   4.463   2.139  14.094 -0.6044 -0.0959  0.1931
  121TMC2    O2 1892   4.439   1.551  14.467 -0.2198  0.2897 -0.0613
  121TMC2    O5 1893   4.309   1.739  14.499 -0.7048  0.1287  0.5313
  121TMC2    H5 1894   4.302   1.837  14.497 -2.4177 -0.0319 -1.8898
  122MPD2     C 1895   0.335   1.830  14.136 -0.3993 -0.2300 -0.2878
  122MPD2    C1 1896   0.231   1.901  14.091  0.6323 -0.4064  0.8656
  122MPD2    C2 1897   0.239   1.963  13.967 -0.1961  0.1866  0.4458
  122MPD2    C3 1898   0.349   1.947  13.884 -0.1413  0.3418 -0.3803
  122MPD2    C4 1899   0.446   1.860  13.920  0.5858 -0.1868  0.5353
  122MPD2    C5 1900   0.437   1.806  14.044  0.2501  0.1471 -0.0186
  122MPD2     H 1901   0.155   2.019  13.928  2.0376  2.0762 -1.6470
  122MPD2    H1 1902   0.526   1.826  13.855 -0.4224 -0.1279 -0.7354
  122MPD2    H2 1903   0.348   1.769  14.224  0.3470  2.3627  1.4147
  122MPD2    H3 1904   0.520   1.751  14.085  0.1603  0.7982  1.0242
  122MPD2     N 1905   0.341   2.013  13.755 -0.3332 -0.3115  0.2385
  122MPD2    H5 1906   0.407   1.975  13.687  0.3831 -3.7472  2.8901
  122MPD2    N1 1907   0.108   1.909  14.158  0.6810  0.0873 -0.4447
  122MPD2    H7 1908   0.033   1.956  14.109 -0.0674  0.9216  1.4917
  123TMC2    C1 1909   3.133   0.758  10.363  0.0600  0.1280  0.5090
  123TMC2    C2 1910   3.216   0.859  10.324 -0.5616 -0.2224 -0.2052
  123TMC2    C3 1911   3.179   0.934  10.216 -0.2504  0.1477  0.4048
  123TMC2    C4 1912   3.022   0.717  10.294 -0.1328 -0.2261  0.2110
  123TMC2    C5 1913   2.991   0.787  10.176  0.2636  0.6501  0.3955
  123TMC2    C6 1914   3.074   0.891  10.136 -0.2608 -0.1635 -0.1526
  123TMC2     C 1915   3.195   0.657  10.446 -0.0043  0.2946 -0.2526
  123TMC2     O 1916   3.305   0.620  10.413 -0.0290  0.3931 -0.5801
  123TMC2     H 1917   3.314   0.861  10.371 -0.4005 -0.5688 -0.5271
  123TMC2    H1 1918   2.955   0.642  10.332 -2.4155  1.1663 -1.0329
  123TMC2    H2 1919   3.036   0.952  10.055  0.2805  1.7045  1.0110
  123TMC2    C7 1920   2.886   0.747  10.090 -0.0342 -0.4770  0.5669
  123TMC2    C8 1921   3.268   1.032  10.152 -0.5959 -0.2366 -0.5796
  123TMC2    O1 1922   2.803   0.671  10.135 -0.5226 -0.0384  0.0135
  123TMC2    O2 1923   3.277   1.055  10.034 -0.0347  0.6223  0.1501
  123TMC2    O5 1924   3.307   1.112  10.247  0.2119 -0.1587 -0.5974
  123TMC2    H5 1925   3.269   1.086  10.334  0.9117 -3.2350 -1.2129
  124MPD2     C 1926   3.153   0.317  10.835 -0.2466  0.3460  0.2890
  124MPD2    C1 1927   3.037   0.385  10.824  0.6937  0.4842  0.0284
  124MPD2    C2 1928   3.027   0.496  10.737  0.0798  0.6354 -0.3041
  124MPD2    C3 1929   3.131   0.527  10.652 -0.0799 -0.3935  0.3582
  124MPD2    C4 1930   3.242   0.447  10.648 -0.4486  0.4709 -0.6501
  124MPD2    C5 1931   3.244   0.349  10.743 -0.1821 -0.0444  0.5946
  124MPD2     H 1932   2.932   0.548  10.730 -0.7132 -0.8680 -0.6154
  124MPD2    H1 1933   3.323   0.465  10.577  1.0624  1.2177  1.2717
  124MPD2    H2 1934   3.168   0.231  10.900  1.6692 -0.4582 -1.2170
  124MPD2    H3 1935   3.337   0.293  10.740 -0.6144 -0.6408 -2.1969
  124MPD2     N 1936   3.109   0.622  10.551  0.0219  0.2829  0.3101
  124MPD2    H5 1937   3.024   0.678  10.559  0.4825  0.9252  0.7956
  124MPD2    N1 1938   2.924   0.352  10.910 -0.0697  0.3887  0.8234
  124MPD2    H7 1939   2.945   0.274  10.971  1.2489 -1.0835 -1.5042
  125TMC2    C1 1940   4.671   4.113   9.481 -0.1213 -0.6243  0.4080
  125TMC2    C2 1941   4.597   4.208   9.421 -0.5938  0.8611 -0.6079
  125TMC2    C3 1942   4.475   4.168   9.370  0.4869  0.5437 -0.4568
  125TMC2    C4 1943   4.622   3.991   9.515  0.4219 -0.8772 -0.9412
  125TMC2    C5 1944   4.494   3.956   9.473  0.0322 -0.1059 -0.2324
  125TMC2    C6 1945   4.423   4.044   9.393 -0.6006  0.0895  1.0344
  125TMC2     C 1946   0.075   4.146   9.497 -0.0458 -0.2052  0.3007
  125TMC2     O 1947   0.093   4.264   9.511 -0.8455 -0.0882  0.0873
  125TMC2     H 1948   4.641   4.299   9.383  1.3418  0.7728  1.4150
  125TMC2    H1 1949   4.693   3.920   9.555  1.0063 -0.2148 -0.7980
  125TMC2    H2 1950   4.322   4.027   9.357 -0.8321  2.1490  0.6878
  125TMC2    C7 1951   4.458   3.816   9.473 -0.2080  0.2837 -0.0354
  125TMC2    C8 1952   4.390   4.275   9.312  0.3782  1.0764 -0.3441
  125TMC2    O1 1953   4.507   3.745   9.561  0.7571  0.3045  0.3595
  125TMC2    O2 1954   4.401   4.393   9.347 -0.1050 -0.4623 -0.2597
  125TMC2    O5 1955   4.280   4.223   9.242  0.1415  0.0396 -0.0999
  125TMC2    H5 1956   4.289   4.130   9.211  4.8363  0.2572  0.5527
  126MPD1     C 1957   0.577   4.054   9.461  0.3541 -0.2066 -0.1048
  126MPD1    C1 1958   0.513   3.940   9.484  0.5717 -0.0210  0.2591
  126MPD1    C2 1959   0.380   3.942   9.481 -0.4252  0.5425 -0.0203
  126MPD1    C3 1960   0.303   4.056   9.488  0.2654  0.1737 -0.3852
  126MPD1    C4 1961   0.369   4.175   9.474  0.0104 -0.1155  0.3042
  126MPD1    C5 1962   0.504   4.172   9.460 -0.1784 -0.4669 -0.0309
  126MPD1     H 1963   0.327   3.847   9.492  0.2777  0.3481  1.7953
  126MPD1    H1 1964   0.324   4.274   9.474  2.2510  0.9023 -1.3480
  126MPD1    H2 1965   0.684   4.061   9.444  1.0970  0.0057  4.6822
  126MPD1    H3 1966   0.553   4.266   9.443 -1.4366  0.3927  1.1452
  126MPD1     N 1967   0.164   4.041   9.495 -0.3700 -0.2219 -0.1292
  126MPD1    H5 1968   0.125   3.948   9.490  1.1004 -0.9644  2.4280
  126MPD1    N1 1969   0.579   3.819   9.489  0.5744 -0.4991 -0.0357
  126MPD1    H6 1970   0.670   3.838   9.530  1.5842 -3.2067 -1.0078
  126MPD1    H7 1971   0.526   3.760   9.552 -0.1651 -0.5903 -0.7390
  127TMC2    C1 1972   4.212   1.362  10.253 -0.5434  0.9678  0.0700
  127TMC2    C2 1973   4.248   1.316  10.381  0.0584 -0.6432  0.6043
  127TMC2    C3 1974   4.168   1.223  10.446 -0.3101 -0.7544  0.6839
  127TMC2    C4 1975   4.114   1.306  10.182 -0.3214  0.0897 -0.5518
  127TMC2    C5 1976   4.032   1.224  10.253  0.4775 -0.2394 -0.4588
  127TMC2    C6 1977   4.050   1.183  10.387 -0.8456  0.6348  0.0671
  127TMC2     C 1978   4.299   1.461  10.194  0.1459 -0.3365 -0.3340
  127TMC2     O 1979   4.394   1.499  10.258  0.0860  0.2662 -0.5096
  127TMC2     H 1980   4.342   1.358  10.416 -0.2874 -0.4689  1.3010
  127TMC2    H1 1981   4.094   1.336  10.079  0.5400 -0.3290 -0.8378
  127TMC2    H2 1982   3.997   1.103  10.438 -2.6068  0.4829 -1.9468
  127TMC2    C7 1983   3.926   1.162  10.169 -0.2417  1.2126 -0.1252
  127TMC2    C8 1984   4.218   1.137  10.550 -0.7680 -0.0152 -0.0579
  127TMC2    O1 1985   3.896   1.213  10.067 -0.7622  0.0731  0.6051
  127TMC2    O2 1986   4.215   1.015  10.541 -0.1198  0.0147  0.6479
  127TMC2    O5 1987   4.314   1.213  10.608  0.1409  0.0701  0.6067
  127TMC2    H5 1988   4.292   1.307  10.592 -0.6069 -0.2300 -0.1098
  128MPD2     C 1989   4.213   1.685   9.920  0.0612 -0.3008 -0.4117
  128MPD2    C1 1990   4.307   1.633  10.017  0.1355 -0.3672 -0.7506
  128MPD2    C2 1991   4.428   1.696  10.048  0.1730  0.3016 -1.0580
  128MPD2    C3 1992   4.462   1.812   9.980  0.0320  0.1802 -0.7757
  128MPD2    C4 1993   4.378   1.866   9.886  0.1246  0.5552 -0.0021
  128MPD2    C5 1994   4.254   1.801   9.854 -0.0082 -0.3433  0.5709
  128MPD2     H 1995   4.491   1.678  10.134 -1.8359 -1.6785 -0.0175
  128MPD2    H1 1996   4.396   1.955   9.827 -0.3087  0.4023 -0.3660
  128MPD2    H2 1997   4.114   1.644   9.901 -0.5086  1.2007 -0.7177
  128MPD2    H3 1998   4.194   1.841   9.772 -0.5093 -0.9109  0.6610
  128MPD2     N 1999   4.593   1.866  10.002 -0.0648  0.2571 -1.1736
  128MPD2    H5 2000   4.664   1.804  10.040 -1.7186 -0.2256  1.1916
  128MPD2    N1 2001   4.250   1.519  10.081  0.1445 -0.0118  0.3248
  128MPD2    H7 2002   4.162   1.489  10.041 -0.5460  0.8365  1.1884
  129TMC2    C1 2003   3.973   1.107   1.893  0.8154  0.0285 -0.1293
  129TMC2    C2 2004   3.916   1.233   1.929  0.5146 -0.5429  0.3618
  129TMC2    C3 2005   3.800   1.222   1.993 -0.4165  0.0664 -0.1989
  129TMC2    C4 2006   3.928   0.983   1.927 -0.6741 -0.3320 -0.2115
  129TMC2    C5 2007   3.810   0.985   1.995 -0.0878 -0.0631 -0.9287
  129TMC2    C6 2008   3.745   1.103   2.026  0.3208  0.1698  0.2493
  129TMC2     C 2009   4.077   1.110   1.793  1.0070  0.2666  0.1327
  129TMC2     O 2010   4.154   1.017   1.798 -0.2463 -0.4096 -0.4725
  129TMC2     H 2011   3.970   1.327   1.921  1.8322 -1.2325  1.2204
  129TMC2    H1 2012   3.980   0.895   1.891 -0.6802 -0.7780  0.8659
  129TMC2    H2 2013   3.653   1.104   2.084 -1.2794 -1.0202 -2.2937
  129TMC2    C7 2014   3.747   0.864   2.045  0.1527 -0.4792 -0.9600
  129TMC2    C8 2015   3.735   1.329   2.061 -0.1364  0.0242  0.1450
  129TMC2    O1 2016   3.624   0.859   2.054 -0.1309 -0.2439 -0.3861
  129TMC2    O2 2017   3.613   1.331   2.083  0.0521  0.5259  0.6965
  129TMC2    O5 2018   3.833   1.379   2.135 -0.3372 -0.4381  0.6225
  129TMC2    H5 2019   3.919   1.337   2.117  0.6778  1.3836  1.2536
  130MPD2     C 2020   4.306   1.190   1.636 -0.3635  0.2447 -0.4923
  130MPD2    C1 2021   4.204   1.273   1.682 -0.0609 -0.1239  0.1149
  130MPD2    C2 2022   4.209   1.404   1.654 -0.1304 -0.5535  0.4638
  130MPD2    C3 2023   4.314   1.461   1.587  1.0944 -0.5055  0.5190
  130MPD2    C4 2024   4.418   1.378   1.546 -0.0860 -0.6290  0.0039
  130MPD2    C5 2025   4.413   1.242   1.567  0.0919 -0.4166 -0.4484
  130MPD2     H 2026   4.125   1.462   1.688  0.8819  1.2075 -0.0712
  130MPD2    H1 2027   4.507   1.408   1.492 -0.4479 -2.4565 -1.5833
  130MPD2    H2 2028   4.291   1.083   1.639 -0.5465  0.2466 -1.2189
  130MPD2    H3 2029   4.491   1.172   1.537 -0.3888 -1.3629  0.5189
  130MPD2     N 2030   4.321   1.600   1.578  0.6936  0.0715 -1.0306
  130MPD2    H5 2031   4.238   1.643   1.618  0.0396 -0.9699 -1.2591
  130MPD2    N1 2032   4.077   1.220   1.715  0.5777  0.1960  0.3577
  130MPD2    H7 2033   3.999   1.285   1.720 -0.0102 -0.0899 -4.8788
  131TMC2    C1 2034   2.821   1.004  10.574 -0.4105 -0.4041  0.3003
  131TMC2    C2 2035   2.718   1.092  10.606 -0.5889  0.4953  0.3097
  131TMC2    C3 2036   2.765   1.222  10.623 -0.4822 -0.1309  0.4432
  131TMC2    C4 2037   2.951   1.042  10.552  0.2553  0.0753  0.5899
  131TMC2    C5 2038   2.979   1.170  10.573  0.6335  0.2167 -0.2378
  131TMC2    C6 2039   2.892   1.267  10.606 -0.4425 -0.3324 -0.0512
  131TMC2     C 2040   2.796   0.861  10.566  0.2462 -0.0028 -0.7430
  131TMC2     O 2041   2.888   0.783  10.583  0.7152  0.1862 -0.5475
  131TMC2     H 2042   2.619   1.066  10.641  0.1874  0.5064  2.5441
  131TMC2    H1 2043   3.027   0.969  10.529 -0.6344  0.2856 -3.0552
  131TMC2    H2 2044   2.906   1.374  10.618 -0.2340 -0.4697  0.9634
  131TMC2    C7 2045   3.117   1.203  10.536  0.0396  0.8485  0.2375
  131TMC2    C8 2046   2.666   1.326  10.626 -0.1307  0.4440  0.1819
  131TMC2    O1 2047   3.180   1.116  10.475 -0.2477 -0.0801 -0.2245
  131TMC2    O2 2048   2.699   1.442  10.661  0.2200  0.4658 -0.1767
  131TMC2    O5 2049   2.584   1.307  10.521  0.1828 -0.5104 -0.2002
  131TMC2    H5 2050   2.595   1.218  10.480 -0.6311 -0.4799 -0.4714
  132MPD2     C 2051   2.521   0.704  10.391 -0.2257 -0.8513 -0.0083
  132MPD2    C1 2052   2.619   0.713  10.474 -0.1361 -0.1569 -0.2087
  132MPD2    C2 2053   2.657   0.605  10.549 -0.5798  0.2786 -0.4490
  132MPD2    C3 2054   2.574   0.493  10.550  0.1578 -0.6904  0.2257
  132MPD2    C4 2055   2.469   0.484  10.457  0.2407  0.0187  0.5868
  132MPD2    C5 2056   2.456   0.589  10.371 -0.0388 -0.4209  1.0125
  132MPD2     H 2057   2.727   0.629  10.627  0.4510  0.1868 -1.3406
  132MPD2    H1 2058   2.399   0.401  10.455 -0.7405  0.7889  2.8846
  132MPD2    H2 2059   2.488   0.793  10.339  0.4424 -0.4600  0.2407
  132MPD2    H3 2060   2.382   0.585  10.292  1.2136 -0.5733 -0.1729
  132MPD2     N 2061   2.590   0.399  10.647  0.0830  0.4080 -0.3004
  132MPD2    H5 2062   2.671   0.428  10.701 -1.0239  2.4328  0.2963
  132MPD2    N1 2063   2.672   0.840  10.507 -0.2053  0.2251  0.7575
  132MPD2    H7 2064   2.641   0.922  10.456 -1.2101 -1.2181 -0.9116
  133TMC2    C1 2065   2.469   2.315  10.094  0.4711 -0.2038  0.1379
  133TMC2    C2 2066   2.531   2.303   9.971 -0.2333 -0.1772 -0.2003
  133TMC2    C3 2067   2.576   2.417   9.917 -0.1453  0.5577  0.0282
  133TMC2    C4 2068   2.465   2.426  10.171  0.2802  0.2330 -0.1307
  133TMC2    C5 2069   2.537   2.528  10.125  0.3849 -0.3417  0.7165
  133TMC2    C6 2070   2.575   2.530   9.994 -1.0077 -0.9398  0.2956
  133TMC2     C 2071   2.364   2.215  10.109  0.1699 -0.1178  0.3327
  133TMC2     O 2072   2.366   2.114  10.040 -0.0691  0.4117 -0.5822
  133TMC2     H 2073   2.525   2.210   9.916 -0.9346  1.1328 -2.3135
  133TMC2    H1 2074   2.428   2.416  10.273  1.2329 -0.1742  0.1799
  133TMC2    H2 2075   2.607   2.622   9.944 -3.3156  0.4824  1.4481
  133TMC2    C7 2076   2.582   2.638  10.207 -0.3624 -0.1996 -0.0360
  133TMC2    C8 2077   2.679   2.400   9.819  0.0316  0.2216  0.4418
  133TMC2    O1 2078   2.629   2.732  10.144  0.4033 -0.5676  0.1491
  133TMC2    O2 2079   2.692   2.290   9.765 -0.7827 -0.2441 -0.1796
  133TMC2    O5 2080   2.706   2.515   9.752  0.1703  0.2133  0.0853
  133TMC2    H5 2081   2.646   2.592   9.767  0.6680  1.1017 -2.6445
  134MPD2     C 2082   2.004   2.263  10.180  0.2668  0.0605  0.3368
  134MPD2    C1 2083   2.124   2.192  10.169  0.2434 -1.2898 -0.5406
  134MPD2    C2 2084   2.124   2.051  10.162  0.2693 -0.0698  0.3883
  134MPD2    C3 2085   2.006   1.988  10.157  0.1025  0.4422  1.0327
  134MPD2    C4 2086   1.892   2.065  10.159  0.2411 -0.9354  0.3797
  134MPD2    C5 2087   1.891   2.203  10.170  0.3810  0.4391  0.0465
  134MPD2     H 2088   2.217   1.996  10.163  0.5960  0.4829  0.9969
  134MPD2    H1 2089   1.796   2.017  10.142 -0.1046  0.0306 -0.3917
  134MPD2    H2 2090   2.008   2.371  10.192 -0.5144  0.3467 -1.8411
  134MPD2    H3 2091   1.796   2.250  10.193 -0.8838 -2.3128  0.4115
  134MPD2     N 2092   1.988   1.850  10.125 -0.1083  0.0851  0.2318
  134MPD2    H5 2093   1.890   1.825  10.121 -0.4179  1.4454 -0.6725
  134MPD2    N1 2094   2.245   2.268  10.166  0.9967  0.1226 -0.4316
  134MPD2    H7 2095   2.247   2.369  10.172  1.5968  0.0778  0.2045
  135TMC2    C1 2096   4.535   3.478  10.230  0.4219  0.1508 -0.1837
  135TMC2    C2 2097   4.598   3.353  10.258  0.1997 -0.6294  0.4511
  135TMC2    C3 2098   4.516   3.268  10.327 -0.8511  0.1681 -0.3763
  135TMC2    C4 2099   4.416   3.514  10.287  0.0211  0.7456  0.8345
  135TMC2    C5 2100   4.345   3.413  10.362 -0.3480  0.0972 -0.1926
  135TMC2    C6 2101   4.391   3.289  10.381  0.4785 -0.2839  0.9963
  135TMC2     C 2102   4.596   3.582  10.147 -0.0148  0.2914 -0.1159
  135TMC2     O 2103   4.607   3.692  10.190  0.0542  0.0777 -0.1755
  135TMC2     H 2104   4.698   3.323  10.232 -0.4288 -0.5805 -1.9760
  135TMC2    H1 2105   4.372   3.611  10.263  0.4103  0.9357  0.8922
  135TMC2    H2 2106   4.358   3.224  10.462 -0.1797  0.5663  1.4096
  135TMC2    C7 2107   4.218   3.458  10.416 -0.3069 -1.1389  0.9021
  135TMC2    C8 2108   4.570   3.133  10.346  0.2604  0.6297 -0.1374
  135TMC2    O1 2109   4.196   3.577  10.413  0.0996 -0.0497  0.3186
  135TMC2    O2 2110   4.686   3.115  10.313  0.1097  0.3790 -0.0467
  135TMC2    O5 2111   4.469   3.048  10.325  0.0508 -0.2885 -0.6819
  135TMC2    H5 2112   4.376   3.080  10.331  0.7615  2.1385 -2.6102
  136MPD2     C 2113   0.048   3.726   9.955  0.2696 -0.0526 -0.2883
  136MPD2    C1 2114   4.714   3.609   9.919 -0.8885 -0.7587 -0.0522
  136MPD2    C2 2115   4.714   3.555   9.793 -0.4905 -0.1886  0.1488
  136MPD2    C3 2116   0.048   3.615   9.691  0.4753  0.5361  0.0921
  136MPD2    C4 2117   0.117   3.733   9.724  0.0198  0.9799  0.5322
  136MPD2    C5 2118   0.122   3.784   9.852  0.5547  0.7245 -0.3054
  136MPD2     H 2119   4.654   3.465   9.779 -1.2717  0.4364 -0.5861
  136MPD2    H1 2120   0.168   3.804   9.660  1.6043 -1.4560 -0.8940
  136MPD2    H2 2121   0.052   3.759  10.058 -1.1630 -2.9729  0.6850
  136MPD2    H3 2122   0.194   3.861   9.877 -0.2943  1.3256  0.2857
  136MPD2     N 2123   0.046   3.573   9.555 -0.1917  0.1534 -0.2364
  136MPD2    H5 2124   4.723   3.496   9.530 -1.9426  1.2690  0.5401
  136MPD2    N1 2125   4.627   3.541  10.018 -0.1515 -0.1657  0.4310
  136MPD2    H7 2126   4.584   3.451   9.999 -0.6515  0.5868 -1.9544
  137TMC2    C1 2127   3.812   1.781   9.341  0.6121 -0.3769  0.0991
  137TMC2    C2 2128   3.838   1.765   9.213  0.4959  0.4290  0.0821
  137TMC2    C3 2129   3.736   1.760   9.125 -0.0673 -0.4910 -0.0765
  137TMC2    C4 2130   3.681   1.795   9.388  0.0104 -1.0033  0.2214
  137TMC2    C5 2131   3.580   1.783   9.304 -0.5744  0.0851  0.3447
  137TMC2    C6 2132   3.607   1.768   9.171 -0.5724 -1.1640  0.5623
  137TMC2     C 2133   3.914   1.831   9.431 -0.3978 -0.2253  0.1324
  137TMC2     O 2134   3.874   1.854   9.542  0.2066 -0.1934  0.1953
  137TMC2     H 2135   3.929   1.731   9.166  0.4599 -0.2263  0.4951
  137TMC2    H1 2136   3.669   1.812   9.494  1.4377  0.8587  0.1032
  137TMC2    H2 2137   3.515   1.765   9.114  1.2018 -1.2668 -2.3198
  137TMC2    C7 2138   3.461   1.865   9.334  0.1911 -0.2389  0.2936
  137TMC2    C8 2139   3.765   1.718   8.991 -0.0736 -0.1496 -0.3027
  137TMC2    O1 2140   3.391   1.906   9.237 -0.5326  0.3664  0.2164
  137TMC2    O2 2141   3.818   1.612   8.963  0.1198  0.4343  0.2699
  137TMC2    O5 2142   3.674   1.791   8.917 -0.7538 -0.5211 -0.2599
  137TMC2    H5 2143   3.624   1.853   8.973  0.2996 -0.2725  0.3992
  138MPD2     C 2144   4.256   1.946   9.387 -0.0079 -0.2423 -0.2021
  138MPD2    C1 2145   4.133   1.941   9.443 -0.0029 -0.5514 -0.1358
  138MPD2    C2 2146   4.109   2.023   9.559  0.0170  0.6589  0.4917
  138MPD2    C3 2147   4.198   2.117   9.601  0.2883  0.7478  0.2778
  138MPD2    C4 2148   4.325   2.119   9.544 -0.2908  0.0591  0.5479
  138MPD2    C5 2149   4.349   2.031   9.445  0.7378 -0.0230 -0.8205
  138MPD2     H 2150   4.019   2.021   9.618  1.7992  2.1273  3.2529
  138MPD2    H1 2151   4.402   2.191   9.570 -0.6387  0.7088 -0.2085
  138MPD2    H2 2152   4.278   1.883   9.302 -0.9101 -1.6951  0.6398
  138MPD2    H3 2153   4.440   2.050   9.388  1.5351 -1.9220 -0.1933
  138MPD2     N 2154   4.157   2.205   9.705 -0.0182 -0.2171  0.7244
  138MPD2    H5 2155   4.064   2.191   9.741 -1.0917  1.3301 -1.4444
  138MPD2    N1 2156   4.039   1.853   9.382 -0.2831  0.3161  0.0773
  138MPD2    H7 2157   4.070   1.813   9.294  1.9278 -0.6209  1.2942
  139TMC2    C1 2158   4.473   0.248  13.404  0.0546 -0.0785 -0.0893
  139TMC2    C2 2159   4.464   0.325  13.291 -0.4920 -0.0502 -0.7122
  139TMC2    C3 2160   4.343   0.368  13.253  0.1973 -0.3557 -0.0424
  139TMC2    C4 2161   4.362   0.193  13.458  0.3027 -0.2189  0.0532
  139TMC2    C5 2162   4.240   0.229  13.410 -0.4659  0.3808 -0.0290
  139TMC2    C6 2163   4.228   0.320  13.309  0.0347  0.0928  0.4987
  139TMC2     C 2164   4.593   0.215  13.480 -0.2871 -0.4215  0.5122
  139TMC2     O 2165   4.592   0.116  13.548 -0.2503  0.0829 -0.0982
  139TMC2     H 2166   4.560   0.354  13.249 -0.4945  1.1664  0.1381
  139TMC2    H1 2167   4.372   0.126  13.543 -0.9956  1.3986  1.4933
  139TMC2    H2 2168   4.130   0.360  13.283  0.3824 -0.8024 -2.1822
  139TMC2    C7 2169   4.122   0.203  13.510  0.0858  0.1958  0.1595
  139TMC2    C8 2170   4.324   0.473  13.159  0.4874  0.5366 -0.0499
  139TMC2    O1 2171   4.029   0.279  13.494 -0.0212  0.7024 -0.3171
  139TMC2    O2 2172   4.227   0.499  13.088 -0.3447 -0.2483 -0.5186
  139TMC2    O5 2173   4.451   0.535  13.147  0.1861  0.2265 -0.3208
  139TMC2    H5 2174   4.504   0.532  13.230  1.2671  2.2840 -0.9460
  140MPD2     C 2175   0.165   0.400  13.474  0.6551 -0.1738  0.6160
  140MPD2    C1 2176   0.089   0.288  13.503  0.4420 -0.4423 -0.4050
  140MPD2    C2 2177   0.134   0.181  13.578  0.2837 -0.6031  0.4814
  140MPD2    C3 2178   0.263   0.187  13.628 -0.0889 -0.3760  0.1801
  140MPD2    C4 2179   0.329   0.306  13.614 -0.6256  0.0160 -0.1624
  140MPD2    C5 2180   0.288   0.407  13.527  0.4378  0.6134 -0.8168
  140MPD2     H 2181   0.072   0.095  13.596 -1.5546  0.9975  1.6904
  140MPD2    H1 2182   0.427   0.321  13.657 -0.7275  0.5347 -0.1103
  140MPD2    H2 2183   0.138   0.489  13.419  2.5658  0.4937  0.7652
  140MPD2    H3 2184   0.357   0.488  13.510  0.4865  1.2827  2.4862
  140MPD2     N 2185   0.317   0.067  13.688 -0.2364 -0.1720  0.3267
  140MPD2    H5 2186   0.252   4.729  13.705  0.7625 -0.9306  0.7389
  140MPD2    N1 2187   4.700   0.295  13.444 -0.1353  0.8871  0.2256
  140MPD2    H7 2188   4.677   0.385  13.403 -2.1766  0.5865  0.7114
  141TMC2    C1 2189   0.445   1.159  14.190 -0.0747 -0.3949  0.0546
  141TMC2    C2 2190   0.481   1.050  14.257  0.3288 -0.1547 -0.5878
  141TMC2    C3 2191   0.579   1.073  14.351  0.4465 -0.5212  0.2247
  141TMC2    C4 2192   0.503   1.288  14.203  0.1981 -0.4706 -0.4311
  141TMC2    C5 2193   0.606   1.300  14.288  0.2613 -0.1154  0.1590
  141TMC2    C6 2194   0.648   1.191  14.356 -0.0573  0.4319 -0.2977
  141TMC2     C 2195   0.382   1.145  14.060  0.1984  0.2107 -0.2119
  141TMC2     O 2196   0.305   1.235  14.023  0.2668  0.1695  0.0606
  141TMC2     H 2197   0.425   0.957  14.263 -1.4402  0.7778 -3.0896
  141TMC2    H1 2198   0.471   1.371  14.141 -0.3963 -0.4735 -0.1307
  141TMC2    H2 2199   0.732   1.197  14.425 -0.1016 -0.7318 -0.1346
  141TMC2    C7 2200   0.698   1.409  14.267 -0.2347 -0.2817 -0.1543
  141TMC2    C8 2201   0.605   0.973  14.449 -0.2633 -0.5140  0.0956
  141TMC2    O1 2202   0.700   1.473  14.161  0.2485 -0.0977  0.0391
  141TMC2    O2 2203   0.710   0.972  14.513 -0.6338  0.3911  0.4277
  141TMC2    O5 2204   0.486   0.943  14.504 -0.1961  0.6281 -0.3761
  141TMC2    H5 2205   0.410   1.003  14.486  0.7366  1.0447 -2.9684
  142TMC2    C1 2206   2.043   0.606   9.937  1.0016 -0.3863 -0.1149
  142TMC2    C2 2207   1.978   0.658   9.833 -0.6713 -0.1518 -0.2468
  142TMC2    C3 2208   2.063   0.731   9.745  0.2904 -0.6932  0.7004
  142TMC2    C4 2209   2.178   0.616   9.958 -0.6821 -0.1978 -0.8529
  142TMC2    C5 2210   2.256   0.685   9.872 -0.4111  0.0436 -0.7987
  142TMC2    C6 2211   2.198   0.743   9.760 -0.2859  0.3974 -0.2113
  142TMC2     C 2212   1.974   0.534  10.041  0.0952 -0.2677  0.8106
  142TMC2     O 2213   2.034   0.466  10.123  0.3009 -0.1827 -0.2391
  142TMC2     H 2214   1.880   0.622   9.804 -0.2139 -1.5202 -0.1006
  142TMC2    H1 2215   2.215   0.580  10.053 -0.8225  2.0556  0.0756
  142TMC2    H2 2216   2.249   0.807   9.688 -0.1178  1.4317  0.8357
  142TMC2    C7 2217   2.397   0.696   9.893 -0.5408 -0.5771 -0.7469
  142TMC2    C8 2218   2.004   0.797   9.631  0.0850  0.0124  0.9968
  142TMC2    O1 2219   2.442   0.641   9.998  0.0811 -0.1010 -0.1855
  142TMC2    O2 2220   2.047   0.770   9.521 -0.1587  0.5887  0.2851
  142TMC2    O5 2221   1.875   0.822   9.659 -0.0600 -0.9060 -0.1537
  142TMC2    H5 2222   1.886   0.837   9.756  2.7195 -4.0923  0.0113
  143MPD2     C 2223   1.516   0.398  10.241  0.8911 -0.1809 -0.7026
  143MPD2    C1 2224   1.644   0.370  10.283 -0.0544 -0.1810  0.1182
  143MPD2    C2 2225   1.755   0.420  10.214  0.2244 -0.2543 -0.0209
  143MPD2    C3 2226   1.729   0.492  10.096 -0.2670  0.1425  0.1757
  143MPD2    C4 2227   1.598   0.524  10.062 -0.8026  0.0080  0.3688
  143MPD2    C5 2228   1.494   0.478  10.134 -0.5677  0.5754  0.1915
  143MPD2     H 2229   1.853   0.391  10.251  0.3561  0.9387  0.5492
  143MPD2    H1 2230   1.585   0.570   9.965  1.0605  2.9582  1.5298
  143MPD2    H2 2231   1.427   0.366  10.295  1.2553 -0.6106 -0.3625
  143MPD2    H3 2232   1.393   0.503  10.105 -0.9745 -1.7144 -0.3615
  143MPD2     N 2233   1.835   0.541  10.019  0.2118 -0.7335  0.2681
  143MPD2    H5 2234   1.802   0.619   9.962  0.4946  0.0775  1.2236
  143MPD2    N1 2235   1.646   0.277  10.391  1.2411 -0.6330 -0.2780
  143MPD2    H7 2236   1.555   0.262  10.434  0.8765  1.3482 -0.3764
  144TMC2    C1 2237   1.344   3.250   0.871 -0.1268 -0.5085  0.0592
  144TMC2    C2 2238   1.398   3.125   0.858  0.1237  0.0674  0.0136
  144TMC2    C3 2239   1.517   3.110   0.918  0.1514  0.5295 -0.3470
  144TMC2    C4 2240   1.396   3.352   0.947 -0.3412 -0.3596 -0.4263
  144TMC2    C5 2241   1.519   3.327   1.001 -0.1457 -0.4921  0.1131
  144TMC2    C6 2242   1.581   3.206   0.989 -1.0379  0.7753  0.6834
  144TMC2     C 2243   1.214   3.267   0.810  0.4644 -0.3345  0.4227
  144TMC2     O 2244   1.180   3.164   0.755 -0.6746  0.3022 -0.3441
  144TMC2     H 2245   1.346   3.035   0.827 -0.5250  0.4775 -0.0904
  144TMC2    H1 2246   1.343   3.446   0.959  2.2376  0.9356  0.6803
  144TMC2    H2 2247   1.674   3.187   1.042  0.3837 -0.9449 -2.4038
  144TMC2    C7 2248   1.598   3.441   1.049 -0.4799 -0.6305 -0.2944
  144TMC2    C8 2249   1.590   2.992   0.883 -0.7297  0.9537  0.1532
  144TMC2    O1 2250   1.713   3.417   1.081 -0.2958  0.7563 -0.1212
  144TMC2    O2 2251   1.533   2.893   0.842 -0.3385 -0.4081 -0.5026
  144TMC2    O5 2252   1.720   3.004   0.917  0.4672  0.2829 -0.0754
  144TMC2    H5 2253   1.747   3.094   0.947  1.2837  0.4861 -1.4109
  145MPD2     C 2254   0.804   3.497   0.591  0.4352  0.3662 -0.1176
  145MPD2    C1 2255   0.872   3.382   0.565 -0.5903  0.2361 -0.0116
  145MPD2    C2 2256   0.986   3.341   0.639  0.4062 -0.2366  0.1302
  145MPD2    C3 2257   1.040   3.419   0.740  0.0445  0.3495 -0.3469
  145MPD2    C4 2258   0.972   3.542   0.758 -0.0753  0.2203  0.5166
  145MPD2    C5 2259   0.854   3.570   0.689  0.0929 -0.1677 -0.1938
  145MPD2     H 2260   1.038   3.254   0.599 -0.2964 -1.2617  1.4225
  145MPD2    H1 2261   1.000   3.615   0.833 -0.9427  1.0114  0.0698
  145MPD2    H2 2262   0.713   3.516   0.536 -0.0079  0.8965  0.7881
  145MPD2    H3 2263   0.796   3.658   0.715  0.0131  0.0260 -1.0339
  145MPD2     N 2264   1.153   3.388   0.815 -0.0041 -0.9309  0.3784
  145MPD2    H5 2265   1.193   3.460   0.875 -1.5491 -1.5826  2.1774
  145MPD2    N1 2266   0.829   3.286   0.469 -0.5050 -0.4361  0.2298
  145MPD2    H7 2267   0.886   3.206   0.444  1.4601  1.2347 -0.5708
  146TMC2    C1 2268   2.395   2.107  12.753 -0.0529 -0.1087 -0.0023
  146TMC2    C2 2269   2.334   2.075  12.634 -0.7721 -0.2888  0.3351
  146TMC2    C3 2270   2.387   1.975  12.558 -0.6375  0.2251 -0.4457
  146TMC2    C4 2271   2.510   2.046  12.787 -0.1491  0.2970 -0.5006
  146TMC2    C5 2272   2.562   1.958  12.706  0.2739  0.0610 -0.5652
  146TMC2    C6 2273   2.508   1.912  12.585  0.1464  0.6890 -0.8322
  146TMC2     C 2274   2.305   2.175  12.858 -0.1526  0.5053  0.0524
  146TMC2     O 2275   2.214   2.242  12.813  0.2502 -0.8086 -0.3138
  146TMC2     H 2276   2.254   2.142  12.603  0.2922  0.6815 -0.3437
  146TMC2    H1 2277   2.568   2.083  12.870 -2.3415  1.3283  0.5644
  146TMC2    H2 2278   2.554   1.836  12.522 -0.9614 -1.0119  0.4019
  146TMC2    C7 2279   2.698   1.914  12.736  0.2798  0.3042 -0.1226
  146TMC2    C8 2280   2.325   1.937  12.434 -0.3244 -0.4311 -0.7300
  146TMC2    O1 2281   2.771   1.894  12.636 -0.7075 -0.1435  0.3265
  146TMC2    O2 2282   2.268   2.015  12.364 -0.2069  0.0543 -0.7787
  146TMC2    O5 2283   2.312   1.801  12.436 -0.4011  0.2339 -0.5130
  146TMC2    H5 2284   2.320   1.763  12.527  0.7060 -1.7687 -1.4541
  147MPD2     C 2285   3.097   1.875  13.027  0.6592 -0.4325  0.0562
  147MPD2    C1 2286   2.989   1.841  13.110 -0.3684 -0.4580 -0.5559
  147MPD2    C2 2287   2.869   1.848  13.046 -0.6242 -0.1674 -0.2488
  147MPD2    C3 2288   2.850   1.894  12.919  0.4807  0.3623  0.0808
  147MPD2    C4 2289   2.957   1.925  12.841  0.1103  0.4027 -0.7233
  147MPD2    C5 2290   3.080   1.915  12.896  0.1933  0.9131  0.1656
  147MPD2     H 2291   2.780   1.812  13.097 -0.3471  0.0499  0.4000
  147MPD2    H1 2292   2.951   1.976  12.746 -0.6611 -0.2563 -1.0263
  147MPD2    H2 2293   3.201   1.874  13.058  0.3595 -3.5927  0.9768
  147MPD2    H3 2294   3.166   1.939  12.833  0.3529  0.7689  0.3277
  147MPD2     N 2295   2.720   1.903  12.867  0.8962  0.4127 -0.7003
  147MPD2    H5 2296   2.638   1.887  12.923 -0.6598 -2.6896 -3.8698
  147MPD2    N1 2297   3.013   1.811  13.238 -0.7529  0.4413  0.5761
  147MPD2    H7 2298   3.109   1.791  13.266 -0.9392  0.6408  1.3677
  148TMC2    C1 2299   2.191   1.539  11.024  0.5157  0.7650  0.4215
  148TMC2    C2 2300   2.264   1.641  11.070 -0.1987 -0.0939 -0.1584
  148TMC2    C3 2301   2.396   1.614  11.096  0.6100 -0.2095  0.3948
  148TMC2    C4 2302   2.237   1.412  11.011 -0.2767 -0.3757 -0.1163
  148TMC2    C5 2303   2.364   1.385  11.050  0.6493  0.1569 -0.7430
  148TMC2    C6 2304   2.441   1.489  11.078  0.1547  0.1288  0.3484
  148TMC2     C 2305   2.059   1.574  10.971  0.0142 -0.0978  0.4104
  148TMC2     O 2306   2.030   1.692  10.945  0.6643 -0.0000 -0.0656
  148TMC2     H 2307   2.234   1.743  11.086  2.6220  0.7423 -0.2657
  148TMC2    H1 2308   2.180   1.328  10.972 -0.6320  0.5971 -1.6831
  148TMC2    H2 2309   2.548   1.475  11.095  0.4446  1.1126 -0.6457
  148TMC2    C7 2310   2.417   1.253  11.046  0.5854 -0.4920 -0.2331
  148TMC2    C8 2311   2.474   1.719  11.158 -0.2987  0.2303  0.2448
  148TMC2    O1 2312   2.334   1.164  11.036 -0.1167 -0.0653  0.0561
  148TMC2    O2 2313   2.417   1.806  11.227  0.0989 -0.3244  0.1815
  148TMC2    O5 2314   2.573   1.744  11.065  0.2028  0.3214 -0.1211
  148TMC2    H5 2315   2.576   1.680  10.991 -1.0566 -0.9389  0.9150
  149MPD2     C 2316   1.826   1.586  10.781  0.7757 -0.0141 -0.3323
  149MPD2    C1 2317   1.887   1.473  10.833  0.2709 -0.4095 -0.2292
  149MPD2    C2 2318   1.864   1.346  10.778 -0.8707  0.3862  0.0019
  149MPD2    C3 2319   1.784   1.337  10.658 -0.3082  0.0863 -0.5502
  149MPD2    C4 2320   1.716   1.452  10.613  0.2187 -0.1850 -0.9297
  149MPD2    C5 2321   1.736   1.571  10.675  1.0370  1.5487 -0.2951
  149MPD2     H 2322   1.911   1.253  10.807  0.5079  0.6274 -1.4326
  149MPD2    H1 2323   1.667   1.448  10.517 -0.4844 -1.8838 -0.5089
  149MPD2    H2 2324   1.836   1.682  10.829  0.2523 -0.8633  1.4889
  149MPD2    H3 2325   1.696   1.657  10.623  0.4139  0.4632 -1.6059
  149MPD2     N 2326   1.771   1.215  10.581 -0.0687 -0.0251  0.5729
  149MPD2    H5 2327   1.701   1.222  10.508  0.6406 -0.2907 -0.1299
  149MPD2    N1 2328   1.984   1.463  10.931 -0.2887 -0.0110  0.4431
  149MPD2    H7 2329   2.013   1.373  10.966 -2.3462  0.1065  2.4365
  150TMC2    C1 2330   4.502   0.667  12.437 -0.4815 -0.4560 -0.6215
  150TMC2    C2 2331   4.459   0.788  12.389 -0.1498  0.2838 -0.4137
  150TMC2    C3 2332   4.541   0.895  12.410  0.5954 -0.6879 -0.2717
  150TMC2    C4 2333   4.623   0.635  12.486 -0.4957  0.4147  0.1424
  150TMC2    C5 2334   4.706   0.747  12.506 -0.1707  0.1194 -1.0138
  150TMC2    C6 2335   4.662   0.876  12.470 -0.6660  0.4202 -0.3465
  150TMC2     C 2336   4.430   0.551  12.387  0.6877 -0.6627  0.3485
  150TMC2     O 2337   4.489   0.456  12.338 -0.1219 -0.1839  0.2625
  150TMC2     H 2338   4.370   0.793  12.328 -0.0057  1.3635 -0.5377
  150TMC2    H1 2339   4.645   0.530  12.504 -0.2815  0.4209 -0.0841
  150TMC2    H2 2340   4.725   0.963  12.485  0.6603 -0.3200 -1.6239
  150TMC2    C7 2341   0.109   0.740  12.547 -0.1979 -0.4721 -0.0130
  150TMC2    C8 2342   4.537   0.994  12.309 -0.0362  0.6351 -0.6176
  150TMC2    O1 2343   0.168   0.845  12.564 -0.6747 -0.4864  0.3824
  150TMC2    O2 2344   4.608   0.997  12.212  0.0554 -0.3464  0.0376
  150TMC2    O5 2345   4.415   1.035  12.301 -0.5720  0.0717 -0.0364
  150TMC2    H5 2346   4.381   1.026  12.393  2.3022  3.0437  1.3281
  151MPD2     C 2347   3.973   0.343  12.255  0.2489  0.1566 -0.5378
  151MPD2    C1 2348   3.953   0.454  12.345 -0.6833 -0.0038  0.1131
  151MPD2    C2 2349   4.059   0.525  12.405 -0.8227 -0.1059 -0.5717
  151MPD2    C3 2350   4.188   0.492  12.359  0.5681  0.3616 -0.0695
  151MPD2    C4 2351   4.204   0.390  12.271  0.1172 -0.4740 -0.0341
  151MPD2    C5 2352   4.102   0.307  12.223 -0.3327  0.7894 -0.4308
  151MPD2     H 2353   4.054   0.613  12.467 -0.8559  0.3550 -1.2274
  151MPD2    H1 2354   4.303   0.364  12.233  0.5156  0.1400  0.5749
  151MPD2    H2 2355   3.891   0.287  12.211 -1.2464  0.5499  1.7910
  151MPD2    H3 2356   4.123   0.231  12.149 -2.9125  0.8622 -1.2157
  151MPD2     N 2357   4.299   0.567  12.415  0.6884 -0.1910 -0.3029
  151MPD2    H5 2358   4.276   0.642  12.479  0.3751 -2.3197  2.0986
  151MPD2    N1 2359   3.819   0.493  12.351 -0.2326  0.1664  0.2271
  151MPD2    H7 2360   3.742   0.431  12.328  0.0043 -0.5805  1.3764
  152TMC2    C1 2361   4.063   0.296  12.662  0.1446  0.0230 -0.1580
  152TMC2    C2 2362   4.114   0.199  12.577  0.9827 -0.3376  0.2711
  152TMC2    C3 2363   4.246   0.185  12.562 -0.5224 -0.3105 -0.2255
  152TMC2    C4 2364   4.145   0.390  12.723  0.5497  0.1034 -0.0153
  152TMC2    C5 2365   4.287   0.370  12.712  0.1547 -0.2777 -0.0035
  152TMC2    C6 2366   4.334   0.273  12.626 -0.0797 -0.6693 -0.2903
  152TMC2     C 2367   3.922   0.324  12.681  0.0564 -0.0248 -0.1998
  152TMC2     O 2368   3.887   0.439  12.703 -0.0295  0.0339 -0.7505
  152TMC2     H 2369   4.055   0.153  12.498  0.5120  0.9946 -0.1522
  152TMC2    H1 2370   4.110   0.474  12.782  0.6255  1.3829 -1.8231
  152TMC2    H2 2371   4.440   0.269  12.603  0.1053  0.8550  0.2900
  152TMC2    C7 2372   4.374   0.477  12.759 -0.4041  0.3894 -0.6675
  152TMC2    C8 2373   4.300   0.099  12.459  0.0998 -0.3591  0.2953
  152TMC2    O1 2374   4.316   0.583  12.770 -0.3825 -0.0238  0.0246
  152TMC2    O2 2375   4.400   0.116  12.393  0.2112  0.5403  0.0125
  152TMC2    O5 2376   4.240   4.720  12.475 -0.5514  0.4785  0.4240
  152TMC2    H5 2377   4.173   4.728  12.546 -2.4535  2.6314 -1.6156
  153MPD2     C 2378   3.619   0.140  12.577 -0.1267 -0.0704  0.2811
  153MPD2    C1 2379   3.694   0.240  12.633  0.1451  0.4685  0.1209
  153MPD2    C2 2380   3.623   0.342  12.696  0.2683 -0.2997  0.2857
  153MPD2    C3 2381   3.490   0.355  12.676  0.2190  0.6553 -0.0512
  153MPD2    C4 2382   3.422   0.250  12.634 -0.0372  0.1152  0.1625
  153MPD2    C5 2383   3.489   0.141  12.584 -0.4247 -0.0920  0.2122
  153MPD2     H 2384   3.685   0.410  12.754 -0.4678  2.2643 -1.9433
  153MPD2    H1 2385   3.314   0.253  12.641  0.0449  2.8363 -0.0031
  153MPD2    H2 2386   3.676   0.058  12.533 -0.9954  0.0752 -1.1248
  153MPD2    H3 2387   3.431   0.055  12.552  0.8162 -1.3156  1.2506
  153MPD2     N 2388   3.427   0.474  12.720  1.0449  0.4213  0.5891
  153MPD2    H5 2389   3.484   0.546  12.762  1.0210  1.7988 -1.7248
  153MPD2    N1 2390   3.838   0.228  12.634  0.2939 -0.1193 -0.4029
  153MPD2    H7 2391   3.879   0.140  12.604  1.2552  0.4862 -0.8831
  154TMC2    C1 2392   1.303   0.089   0.988 -0.9511 -0.0643  0.0565
  154TMC2    C2 2393   1.356   0.144   1.099  1.2491  0.3272  0.4007
  154TMC2    C3 2394   1.485   0.116   1.135  0.0745 -0.0021  0.0953
  154TMC2    C4 2395   1.378   0.012   0.910  0.0615 -0.1878 -0.1537
  154TMC2    C5 2396   1.504   4.721   0.949 -0.5989  0.0105  0.3443
  154TMC2    C6 2397   1.562   0.029   1.063 -0.1614 -1.0628 -0.0867
  154TMC2     C 2398   1.160   0.103   0.972  0.1388  0.0705  0.3144
  154TMC2     O 2399   1.100   0.124   1.079 -0.1261 -0.2722  0.3081
  154TMC2     H 2400   1.307   0.221   1.156 -0.1845  1.9025 -2.9602
  154TMC2    H1 2401   1.335   4.707   0.820  0.1743  0.3934 -0.4840
  154TMC2    H2 2402   1.643   4.718   1.115  0.0779 -0.6250 -0.0413
  154TMC2    C7 2403   1.578   4.641   0.856 -0.9289  0.2602 -0.6131
  154TMC2    C8 2404   1.531   0.179   1.258  0.0839  1.2411 -0.0269
  154TMC2    O1 2405   1.511   4.587   0.767  0.3287  0.3641 -0.4967
  154TMC2    O2 2406   1.448   0.235   1.329  0.1173 -0.0958  0.3272
  154TMC2    O5 2407   1.653   0.131   1.287  0.5746 -0.4136  0.2079
  154TMC2    H5 2408   1.696   0.132   1.199  1.7370 -1.6841  0.7603
  155MPD2     C 2409   0.947   0.069   0.672 -0.3741 -0.2642  0.4676
  155MPD2    C1 2410   0.973   0.091   0.805 -0.1788 -0.0830  0.2973
  155MPD2    C2 2411   0.874   0.137   0.889 -0.4352 -0.2727  0.8574
  155MPD2    C3 2412   0.750   0.165   0.834 -0.4578  0.3300  0.0714
  155MPD2    C4 2413   0.724   0.139   0.702  0.1427  0.1999 -0.0161
  155MPD2    C5 2414   0.819   0.080   0.623  0.0317  0.0840 -0.0722
  155MPD2     H 2415   0.894   0.150   0.995  1.2675 -0.5410  0.5585
  155MPD2    H1 2416   0.627   0.163   0.659  0.8166 -0.5764 -1.9476
  155MPD2    H2 2417   1.022   0.041   0.600 -1.8353  0.1229 -1.1978
  155MPD2    H3 2418   0.791   0.061   0.520 -0.7040 -0.1081  0.1608
  155MPD2     N 2419   0.654   0.199   0.933 -0.1126  1.1790  1.0099
  155MPD2    H5 2420   0.689   0.188   1.027 -0.0542  1.3471  1.0069
  155MPD2    N1 2421   1.113   0.086   0.846  0.1771  0.7758 -0.0467
  155MPD2    H7 2422   1.176   0.056   0.772 -1.9370  1.9349 -2.3418
  156TMC2    C1 2423   4.161   2.950  11.495  0.8871  0.0894  0.2375
  156TMC2    C2 2424   4.203   2.848  11.416  0.7960  0.4562 -0.3259
  156TMC2    C3 2425   4.204   2.858  11.282  0.0870  0.1039  0.2607
  156TMC2    C4 2426   4.104   3.067  11.443  0.1248  0.0098  0.3159
  156TMC2    C5 2427   4.119   3.074  11.306 -0.1055 -0.1821 -0.4225
  156TMC2    C6 2428   4.167   2.977  11.223  0.2684 -1.0332  0.1588
  156TMC2     C 2429   4.183   2.937  11.639 -0.1680  0.2266 -0.5165
  156TMC2     O 2430   4.123   3.020  11.708  0.0053 -0.3692 -0.3414
  156TMC2     H 2431   4.232   2.754  11.462 -1.4152 -0.5971 -1.1006
  156TMC2    H1 2432   4.085   3.152  11.508  2.0816  0.9520 -0.3570
  156TMC2    H2 2433   4.174   3.002  11.118  0.6386  1.1954  0.7349
  156TMC2    C7 2434   4.056   3.182  11.240 -0.2048  0.4424  0.4284
  156TMC2    C8 2435   4.207   2.741  11.198  0.0271 -0.8884  0.7720
  156TMC2    O1 2436   3.996   3.153  11.135 -0.1401  0.1649 -0.2002
  156TMC2    O2 2437   4.182   2.743  11.078  0.1791  0.0875 -0.3127
  156TMC2    O5 2438   4.196   2.623  11.267  0.6655 -0.0767 -0.0720
  156TMC2    H5 2439   4.216   2.610  11.362  3.6369  0.1897 -0.6522
  157MPD2     C 2440   4.303   2.648  11.828  0.2287  0.4563  0.2111
  157MPD2    C1 2441   4.241   2.763  11.810  0.6020  0.1493  0.0715
  157MPD2    C2 2442   4.197   2.836  11.917 -0.5073 -0.2533  0.1707
  157MPD2    C3 2443   4.218   2.791  12.050  0.5261  0.0544 -0.4048
  157MPD2    C4 2444   4.281   2.671  12.057 -0.2897 -0.2724  0.6811
  157MPD2    C5 2445   4.317   2.595  11.949 -0.4630 -0.2444  0.4408
  157MPD2     H 2446   4.155   2.936  11.910 -1.1382 -0.4815  0.7095
  157MPD2    H1 2447   4.306   2.633  12.156 -0.4549  1.6909  1.4683
  157MPD2    H2 2448   4.361   2.592  11.755  1.3184  0.8592  0.7667
  157MPD2    H3 2449   4.373   2.503  11.959  0.9763  0.7274  1.4648
  157MPD2     N 2450   4.168   2.871  12.158  0.7849  0.5863  1.0279
  157MPD2    H5 2451   4.116   2.956  12.141  1.6517  0.7999 -0.5614
  157MPD2    N1 2452   4.244   2.819  11.675 -0.1583  0.1092 -0.2025
  157MPD2    H7 2453   4.289   2.760  11.606  0.6528 -1.3162  1.5472
  158TMC2    C1 2454   4.098   1.497  13.785  0.1975  0.5888 -0.3719
  158TMC2    C2 2455   4.033   1.594  13.716  0.0715  0.2197  0.1822
  158TMC2    C3 2456   3.899   1.608  13.731 -0.2440  0.4001 -0.2657
  158TMC2    C4 2457   4.029   1.423  13.880 -0.3140 -0.2496 -0.3014
  158TMC2    C5 2458   3.904   1.468  13.914 -0.1206  0.7052 -0.6045
  158TMC2    C6 2459   3.831   1.551  13.833 -0.3792  0.2059  0.3203
  158TMC2     C 2460   4.243   1.501  13.790 -0.1667 -0.4622  0.2644
  158TMC2     O 2461   4.285   1.610  13.764 -0.4836  0.9452  0.4191
  158TMC2     H 2462   4.098   1.654  13.653 -0.2582 -0.6760 -1.0114
  158TMC2    H1 2463   4.081   1.346  13.937  1.7268  0.1515 -1.6046
  158TMC2    H2 2464   3.731   1.583  13.858 -0.0391 -0.3421  2.3312
  158TMC2    C7 2465   3.811   1.395  13.995 -0.3663  0.6810 -0.0780
  158TMC2    C8 2466   3.820   1.707  13.648 -0.3338  0.9500 -0.9333
  158TMC2    O1 2467   3.712   1.453  14.037  0.3001  0.1495 -0.1971
  158TMC2    O2 2468   3.747   1.791  13.696  0.3735  0.0690  0.2983
  158TMC2    O5 2469   3.880   1.715  13.525 -0.0633  0.4289 -0.0597
  158TMC2    H5 2470   3.941   1.639  13.516  0.9455  0.9818  2.0527
  159MPD2     C 2471   4.692   1.345  13.983 -0.7067  0.5137 -0.0017
  159MPD2    C1 2472   4.622   1.240  13.941  0.0421  0.3621  0.1574
  159MPD2    C2 2473   4.489   1.252  13.902 -0.1607  0.6095 -0.1007
  159MPD2    C3 2474   4.434   1.385  13.893 -0.2793 -0.0141  0.2643
  159MPD2    C4 2475   4.511   1.493  13.915 -0.4897 -0.1234 -0.8874
  159MPD2    C5 2476   4.643   1.471  13.970  0.7281  0.7901  0.7072
  159MPD2     H 2477   4.426   1.164  13.895 -1.5848  1.5868  0.3435
  159MPD2    H1 2478   4.483   1.597  13.903 -0.0476 -0.0470 -1.2303
  159MPD2    H2 2479   0.051   1.334  14.030  0.0065  0.5239 -1.4677
  159MPD2    H3 2480   4.708   1.553  13.999  0.1960  1.4930 -0.1111
  159MPD2     N 2481   4.303   1.389  13.843  0.2775  0.2184 -0.3793
  159MPD2    H5 2482   4.249   1.303  13.852  0.2228  0.6186  3.0747
  159MPD2    N1 2483   4.689   1.116  13.947 -0.0076  0.3540  0.3350
  159MPD2    H7 2484   0.038   1.115  13.999  0.8041 -0.1268 -1.0199
  160TMC2    C1 2485   4.724   3.523   1.710 -0.2162 -0.0800 -0.4625
  160TMC2    C2 2486   0.068   3.435   1.777  0.5925  0.5083  0.1709
  160TMC2    C3 2487   0.192   3.420   1.725 -0.2195 -0.0148 -0.2457
  160TMC2    C4 2488   0.025   3.585   1.592 -0.4566  0.2225  0.8433
  160TMC2    C5 2489   0.157   3.572   1.560  0.3605  0.0482 -0.4092
  160TMC2    C6 2490   0.251   3.494   1.628 -0.0263 -0.1795 -0.8865
  160TMC2     C 2491   4.577   3.521   1.731 -0.0170 -0.1518  0.5296
  160TMC2     O 2492   4.521   3.416   1.767  0.2634  0.1795  0.1762
  160TMC2     H 2493   0.043   3.387   1.871 -1.0933 -0.1664 -0.6268
  160TMC2    H1 2494   4.702   3.639   1.521 -1.7492 -0.2001  1.6448
  160TMC2    H2 2495   0.354   3.487   1.597  0.3380 -1.8232  0.7352
  160TMC2    C7 2496   0.211   3.635   1.442  0.3382  0.7040 -0.1042
  160TMC2    C8 2497   0.285   3.351   1.814 -0.2802 -0.0617 -0.5035
  160TMC2    O1 2498   0.288   3.577   1.365 -0.7688 -0.4091 -0.8237
  160TMC2    O2 2499   0.408   3.362   1.795  0.0373 -0.2924 -0.5088
  160TMC2    O5 2500   0.231   3.242   1.867  0.2778  0.2273  0.2831
  160TMC2    H5 2501   0.133   3.238   1.866  0.3117  0.5402 -3.1255
  161MPD2     C 2502   4.285   3.592   1.709 -0.2774 -0.2047 -0.2554
  161MPD2    C1 2503   4.389   3.682   1.685 -0.4142  0.3310 -0.6813
  161MPD2    C2 2504   4.356   3.804   1.641 -0.4244 -0.0543  0.2232
  161MPD2    C3 2505   4.223   3.836   1.614  0.2787  0.2722 -0.0087
  161MPD2    C4 2506   4.122   3.746   1.634 -0.1528  0.0314  0.8233
  161MPD2    C5 2507   4.159   3.621   1.671  0.5193 -0.5764 -0.3772
  161MPD2     H 2508   4.432   3.876   1.610  1.2958 -1.9761 -0.0017
  161MPD2    H1 2509   4.021   3.756   1.594 -0.7269 -0.5197  2.1142
  161MPD2    H2 2510   4.301   3.495   1.755 -2.2298 -1.0201 -1.3211
  161MPD2    H3 2511   4.086   3.542   1.685 -1.8363  1.9521  1.5540
  161MPD2     N 2512   4.184   3.957   1.559  0.4442  0.0747 -0.0568
  161MPD2    H5 2513   4.089   3.978   1.527 -0.1828 -0.2812  1.5934
  161MPD2    N1 2514   4.524   3.645   1.693 -0.5386  0.2108 -0.4548
  161MPD2    H7 2515   4.589   3.719   1.671 -0.3064  0.1055 -0.1033
  162TMC2    C1 2516   2.804   1.032   1.401 -0.4447  0.3279  0.1522
  162TMC2    C2 2517   2.715   1.122   1.352  0.0681  0.1029 -0.6243
  162TMC2    C3 2518   2.610   1.156   1.428  0.1590  0.5794 -0.5116
  162TMC2    C4 2519   2.788   0.962   1.516  0.6229  0.5701 -0.0741
  162TMC2    C5 2520   2.681   0.992   1.590  0.7230 -0.2656 -0.2087
  162TMC2    C6 2521   2.593   1.095   1.555 -0.4541  0.1224 -0.3798
  162TMC2     C 2522   2.937   1.041   1.352 -0.4888 -0.1796 -0.8410
  162TMC2     O 2523   2.944   1.078   1.236  0.0661 -0.4031 -0.7723
  162TMC2     H 2524   2.730   1.178   1.260  2.2308  2.3592  1.1027
  162TMC2    H1 2525   2.847   0.873   1.532  0.8893  1.0957  1.8854
  162TMC2    H2 2526   2.519   1.128   1.628 -0.3703 -0.9110  0.1691
  162TMC2    C7 2527   2.654   0.921   1.718  0.0736 -0.3124  0.3552
  162TMC2    C8 2528   2.541   1.278   1.400  1.1480  0.0031 -0.1652
  162TMC2    O1 2529   2.544   0.942   1.771  0.9605 -0.0648  0.4420
  162TMC2    O2 2530   2.591   1.363   1.327 -0.1686 -0.1590  0.6717
  162TMC2    O5 2531   2.410   1.266   1.426  0.2566  0.6685 -0.5531
  162TMC2    H5 2532   2.385   1.176   1.455  1.0405  0.3600 -0.8283
  163MPD2     C 2533   3.428   0.901   1.313 -0.0159 -0.3010 -0.9530
  163MPD2    C1 2534   3.345   0.939   1.218 -0.8422  0.6319  0.1251
  163MPD2    C2 2535   3.219   0.985   1.258  0.0458 -1.0695 -0.2945
  163MPD2    C3 2536   3.171   0.973   1.388  0.8634 -0.0670 -0.4133
  163MPD2    C4 2537   3.268   0.931   1.483 -0.2827  1.0362  0.0746
  163MPD2    C5 2538   3.392   0.902   1.446 -0.6928 -0.1763  0.4705
  163MPD2     H 2539   3.157   1.016   1.175  1.1681 -1.1463 -1.1623
  163MPD2    H1 2540   3.236   0.924   1.586  2.4911 -2.6387  0.6878
  163MPD2    H2 2541   3.527   0.864   1.289  0.3305 -0.5512  0.8705
  163MPD2    H3 2542   3.464   0.870   1.521  1.0829  1.2828 -0.5973
  163MPD2     N 2543   3.037   0.986   1.430 -0.2569 -0.8305  0.1643
  163MPD2    H5 2544   3.023   0.962   1.528  0.5299 -0.6271  0.3279
  163MPD2    N1 2545   3.395   0.944   1.087 -0.0508 -0.2199 -0.2402
  163MPD2    H7 2546   3.482   0.901   1.059  0.2603  1.2457 -1.5161
  164TMC2    C1 2547   2.688   0.754  11.397 -0.0938  0.5268  0.1396
  164TMC2    C2 2548   2.789   0.778  11.483 -0.1739  0.3587  0.5402
  164TMC2    C3 2549   2.797   0.909  11.537 -0.1736  0.0451 -0.6868
  164TMC2    C4 2550   2.599   0.853  11.355  0.4135 -0.0706 -0.4083
  164TMC2    C5 2551   2.617   0.986  11.401 -0.5668 -0.7515  0.1344
  164TMC2    C6 2552   2.712   1.012  11.494  0.2960 -0.3203  1.1546
  164TMC2     C 2553   2.715   0.653  11.301  0.1072  0.5980 -0.4232
  164TMC2     O 2554   2.664   0.543  11.309  0.0888 -0.7110 -0.2930
  164TMC2     H 2555   2.845   0.691  11.514 -0.9340 -0.3570 -0.0946
  164TMC2    H1 2556   2.530   0.839  11.273  2.6363  2.4990 -2.7081
  164TMC2    H2 2557   2.720   1.107  11.545 -1.8003  1.5110 -1.9147
  164TMC2    C7 2558   2.511   1.084  11.373  0.2737  0.3455  0.6931
  164TMC2    C8 2559   2.894   0.945  11.636  0.1856  0.4754  0.1917
  164TMC2    O1 2560   2.396   1.046  11.355 -0.0670 -0.3841 -0.0738
  164TMC2    O2 2561   2.865   1.036  11.714  0.2372 -0.3373  0.4941
  164TMC2    O5 2562   2.982   0.846  11.658 -0.7458 -0.5567  0.0393
  164TMC2    H5 2563   2.995   0.784  11.583 -1.5040 -0.6944  0.0238
  165TMC2    C1 2564   4.181   3.329   1.421  0.4818 -0.7179 -0.1476
  165TMC2    C2 2565   4.190   3.341   1.283 -0.3106 -0.6337 -0.4317
  165TMC2    C3 2566   4.311   3.347   1.227  0.0871  0.3508  0.2982
  165TMC2    C4 2567   4.292   3.294   1.492  0.0319 -0.3399 -0.1587
  165TMC2    C5 2568   4.413   3.310   1.429 -0.0623 -0.2109  1.1338
  165TMC2    C6 2569   4.428   3.340   1.298  0.0858  0.2400 -1.2260
  165TMC2     C 2570   4.050   3.341   1.475 -0.0377 -0.0614 -0.1109
  165TMC2     O 2571   3.966   3.402   1.412  0.4002 -0.4715 -0.5945
  165TMC2     H 2572   4.105   3.371   1.223  1.1895  0.1409 -2.1924
  165TMC2    H1 2573   4.278   3.272   1.598 -1.8045  1.1286 -0.0982
  165TMC2    H2 2574   4.516   3.337   1.235  0.0218 -0.2743 -1.2931
  165TMC2    C7 2575   4.518   3.237   1.498  0.8052 -0.2654  0.0983
  165TMC2    C8 2576   4.321   3.360   1.086  0.0038 -0.3330 -0.3710
  165TMC2    O1 2577   4.481   3.162   1.590  0.0757 -0.1390 -0.1952
  165TMC2    O2 2578   4.394   3.437   1.036  0.0479 -0.0475 -0.0917
  165TMC2    O5 2579   4.227   3.290   1.022  0.2225  0.4339 -0.2072
  165TMC2    H5 2580   4.178   3.218   1.067  0.2166  0.2909 -0.4437
  166MPD2     C 2581   3.660   3.176   1.768 -0.0113  0.2067 -0.1773
  166MPD2    C1 2582   3.769   3.106   1.809 -0.4962  0.6525 -0.7672
  166MPD2    C2 2583   3.895   3.124   1.747 -0.2124 -0.6156  0.0553
  166MPD2    C3 2584   3.896   3.222   1.642  0.2100  0.0947 -0.4872
  166MPD2    C4 2585   3.779   3.296   1.605  0.1579  0.5488 -0.3239
  166MPD2    C5 2586   3.663   3.267   1.666  0.4772  0.2964  0.4513
  166MPD2     H 2587   3.981   3.069   1.783  0.4311 -0.1091 -0.7129
  166MPD2    H1 2588   3.785   3.380   1.537  0.7317  0.1228 -0.7944
  166MPD2    H2 2589   3.562   3.162   1.812 -0.1211  2.6625  0.3403
  166MPD2    H3 2590   3.575   3.329   1.651 -0.1573 -1.2515 -2.1490
  166MPD2     N 2591   4.024   3.250   1.584 -0.4746  0.7908  0.5049
  166MPD2    H5 2592   4.100   3.186   1.605  0.2351  0.7660 -2.0743
  166MPD2    N1 2593   3.747   3.005   1.902 -0.2947 -0.0509  0.7476
  166MPD2    H7 2594   3.654   2.968   1.920 -0.2921  0.5380  1.9960
  167TMC2    C1 2595   2.763   4.716  13.084 -0.6660  0.6003  0.0414
  167TMC2    C2 2596   2.836   4.620  13.138 -0.7969  0.4252  0.2983
  167TMC2    C3 2597   2.955   4.650  13.190 -0.6004  0.0995  0.1915
  167TMC2    C4 2598   2.809   0.107  13.084 -0.2494  0.6257  0.7042
  167TMC2    C5 2599   2.925   0.143  13.152  0.3477 -0.1257 -0.2908
  167TMC2    C6 2600   3.001   0.041  13.195  0.6241 -0.5841 -0.1703
  167TMC2     C 2601   2.636   4.682  13.042  0.8092  0.6911  0.1889
  167TMC2     O 2602   2.573   4.602  13.114  0.2321 -0.6143 -0.1914
  167TMC2     H 2603   2.817   4.514  13.126  0.5752  0.3273 -0.9815
  167TMC2    H1 2604   2.761   0.188  13.030 -0.0465 -0.9650 -1.8647
  167TMC2    H2 2605   3.105   0.066  13.216  0.0889  1.1508  0.3872
  167TMC2    C7 2606   2.982   0.270  13.140  0.7807  0.1119  0.0888
  167TMC2    C8 2607   3.053   4.558  13.125 -0.3324 -0.1615  0.4686
  167TMC2    O1 2608   3.075   0.298  13.214  0.2991 -0.0995 -0.5262
  167TMC2    O2 2609   3.031   4.478  13.036  0.2900 -0.6730  0.3172
  167TMC2    O5 2610   3.172   4.575  13.190 -0.2922 -0.2483 -0.7194
  167TMC2    H5 2611   3.157   4.628  13.272  1.2072  1.9951 -1.8781
  168MPD2     C 2612   2.355   0.046  13.002  0.0674  1.1610 -0.1277
  168MPD2    C1 2613   2.463   0.075  12.920 -0.1505 -0.1528  0.3136
  168MPD2    C2 2614   2.436   0.142  12.800  0.1474 -0.1765 -0.4921
  168MPD2    C3 2615   2.310   0.190  12.767 -0.0396 -0.3833 -0.0171
  168MPD2    C4 2616   2.207   0.169  12.860 -0.4855 -0.9984 -0.3512
  168MPD2    C5 2617   2.233   0.105  12.977 -0.3954  0.1387  0.1178
  168MPD2     H 2618   2.521   0.161  12.735  3.3002 -1.0487  3.3969
  168MPD2    H1 2619   2.107   0.201  12.834 -0.6505  0.5589  2.2081
  168MPD2    H2 2620   2.376   4.727  13.091 -1.6165 -0.3104 -0.6661
  168MPD2    H3 2621   2.159   0.095  13.055 -0.3671 -2.2789 -0.1709
  168MPD2     N 2622   2.274   0.257  12.649  0.3229 -0.5374 -0.6387
  168MPD2    H5 2623   2.176   0.281  12.641  0.0530 -0.4233  2.9731
  168MPD2    N1 2624   2.599   0.037  12.947 -0.2553 -0.0725 -0.4780
  168MPD2    H7 2625   2.675   0.090  12.904  0.8126 -0.1447  1.3020
  169MPD1     C 2626   3.122   0.811   9.379 -0.1192  0.1494 -0.2094
  169MPD1    C1 2627   3.152   0.694   9.444 -0.2348 -0.3642 -0.1252
  169MPD1    C2 2628   3.262   0.687   9.524  0.1017 -0.0756 -0.5874
  169MPD1    C3 2629   3.342   0.801   9.554 -0.5127 -0.1677 -0.0312
  169MPD1    C4 2630   3.307   0.923   9.490  0.2247 -0.1749 -0.1920
  169MPD1    C5 2631   3.197   0.925   9.398 -0.4174 -0.3784  0.0653
  169MPD1     H 2632   3.294   0.594   9.570  1.6315  0.0766 -1.3630
  169MPD1    H1 2633   3.361   1.016   9.501 -0.3604  0.2583 -0.9599
  169MPD1    H2 2634   3.044   0.818   9.304  0.7971 -0.8954 -1.2374
  169MPD1    H3 2635   3.153   1.013   9.351  2.1312  0.0861 -1.4892
  169MPD1     N 2636   3.448   0.790   9.635  0.1699  0.1710 -0.4706
  169MPD1    H5 2637   3.457   0.700   9.680 -0.4258  1.3983  2.1007
  169MPD1    N1 2638   3.083   0.579   9.392 -0.2872 -0.2575  0.2912
  169MPD1    H6 2639   2.992   0.612   9.363 -0.5808 -1.5661 -0.2954
  169MPD1    H7 2640   3.058   0.510   9.463 -2.4246  0.2217 -0.0160
  170MPD1     C 2641   3.846   3.452  13.187  0.7238  0.5285  0.1759
  170MPD1    C1 2642   3.896   3.349  13.265  0.2361 -0.7561 -0.1407
  170MPD1    C2 2643   3.797   3.261  13.315 -0.1816  0.7243 -0.3745
  170MPD1    C3 2644   3.662   3.298  13.310  0.4705 -0.5645 -0.3802
  170MPD1    C4 2645   3.620   3.413  13.244 -0.1507 -0.0276  0.0648
  170MPD1    C5 2646   3.713   3.486  13.184  0.5602 -0.2468  0.2445
  170MPD1     H 2647   3.833   3.166  13.352 -0.3260  0.3393 -1.2364
  170MPD1    H1 2648   3.515   3.440  13.246 -0.0080  0.4275  1.5884
  170MPD1    H2 2649   3.916   3.515  13.133  1.7707 -0.3110  0.5437
  170MPD1    H3 2650   3.681   3.572  13.126 -0.7169 -1.3545 -0.6807
  170MPD1     N 2651   3.555   3.220  13.362  0.3725 -0.5079 -0.0072
  170MPD1    H5 2652   3.462   3.245  13.331  0.0148 -2.3395 -0.4221
  170MPD1    N1 2653   4.024   3.309  13.240 -0.2268  0.1832  0.1335
  170MPD1    H6 2654   4.077   3.267  13.317  1.8525  1.0031 -0.8578
  170MPD1    H7 2655   4.079   3.389  13.210  1.5432 -1.2460 -0.4868
  171MPD1     C 2656   1.736   4.363  15.528 -0.2815 -0.1415  0.2023
  171MPD1    C1 2657   1.638   4.266  15.535 -0.1692  0.3444  0.4077
  171MPD1    C2 2658   1.653   4.176  15.637 -0.0516  0.0732 -0.9013
  171MPD1    C3 2659   1.767   4.169  15.718 -0.9125  0.1452  0.4940
  171MPD1    C4 2660   1.867   4.254  15.692  0.0892  1.0912  0.2545
  171MPD1    C5 2661   1.850   4.363  15.607  0.3958  0.4368  0.4269
  171MPD1     H 2662   1.576   4.101  15.651  0.0771 -0.6731 -4.2598
  171MPD1    H1 2663   1.959   4.246  15.748  0.8452  0.5167 -1.0650
  171MPD1    H2 2664   1.728   4.451  15.465 -1.3972  1.8084  3.1030
  171MPD1    H3 2665   1.928   4.437  15.596  1.4076 -0.9218 -1.4634
  171MPD1     N 2666   1.788   4.062  15.810 -0.0459  0.3147  0.3645
  171MPD1    H5 2667   1.886   4.042  15.831 -0.0210 -0.9981 -1.0008
  171MPD1    N1 2668   1.517   4.266  15.461  0.6872 -0.5916  0.0964
  171MPD1    H6 2669   1.455   4.186  15.474 -1.0360  0.6661 -0.3325
  171MPD1    H7 2670   1.525   4.292  15.363 -1.1773  1.1072  0.3831
  172MPD1     C 2671   1.264   2.832   0.427 -0.0767 -0.1139 -0.3617
  172MPD1    C1 2672   1.183   2.907   0.341 -0.8419 -0.1226  0.4916
  172MPD1    C2 2673   1.211   3.037   0.335  0.0949 -0.1986 -0.0024
  172MPD1    C3 2674   1.298   3.105   0.421 -1.0712 -0.2987  0.2991
  172MPD1    C4 2675   1.366   3.028   0.513  0.2317 -0.2417  0.5176
  172MPD1    C5 2676   1.351   2.890   0.512  0.4018 -0.1120  0.1887
  172MPD1     H 2677   1.179   3.098   0.250  1.2992  1.9254  1.0617
  172MPD1    H1 2678   1.426   3.083   0.583  0.8451 -1.2524  0.7787
  172MPD1    H2 2679   1.249   2.725   0.418 -1.0659  0.0728 -0.9690
  172MPD1    H3 2680   1.389   2.837   0.599  2.3968  0.7255 -0.1793
  172MPD1     N 2681   1.318   3.250   0.423 -0.6409 -0.7578 -0.5156
  172MPD1    H5 2682   1.395   3.289   0.477 -0.3293  0.8794 -2.1615
  172MPD1    N1 2683   1.116   2.852   0.232  0.0516  0.0853  0.8506
  172MPD1    H6 2684   1.081   2.758   0.252 -2.8126  0.9917  0.1133
  172MPD1    H7 2685   1.040   2.907   0.195 -2.1987 -2.2183  2.0304
  173MPD1     C 2686   2.673   3.317  13.927 -1.4906  0.1611 -0.3944
  173MPD1    C1 2687   2.558   3.332  13.996 -0.2600 -0.0063 -0.4825
  173MPD1    C2 2688   2.575   3.313  14.134 -0.2105  0.2954  0.9341
  173MPD1    C3 2689   2.697   3.294  14.194 -0.6914  0.5916 -0.1466
  173MPD1    C4 2690   2.808   3.302  14.117 -0.6895  0.1428 -0.7201
  173MPD1    C5 2691   2.796   3.298  13.982  0.2068 -0.4136 -0.8678
  173MPD1     H 2692   2.494   3.311  14.206 -0.0764 -0.8352  1.0666
  173MPD1    H1 2693   2.908   3.297  14.158 -1.2964 -0.7185  0.6553
  173MPD1    H2 2694   2.676   3.328  13.819  2.4719 -1.3189 -0.4399
  173MPD1    H3 2695   2.874   3.285  13.908 -2.0311  0.8365 -3.4089
  173MPD1     N 2696   2.700   3.289  14.338  0.2271  0.0438  0.0458
  173MPD1    H5 2697   2.611   3.303  14.386  1.4123  4.2704  0.9928
  173MPD1    N1 2698   2.434   3.345  13.930 -0.1002  0.0944 -0.2886
  173MPD1    H6 2699   2.430   3.408  13.851 -0.2226  1.1871  0.5901
  173MPD1    H7 2700   2.377   3.378  14.008 -0.8539 -0.5026 -0.5955
  174MPD1     C 2701   3.057   2.784  15.233  0.1436 -0.5749 -0.9563
  174MPD1    C1 2702   3.138   2.850  15.148  0.0951 -0.4279 -0.4449
  174MPD1    C2 2703   3.081   2.942  15.059 -0.1339  0.9176 -0.2485
  174MPD1    C3 2704   2.946   2.948  15.037 -0.0310  0.4119 -0.1213
  174MPD1    C4 2705   2.863   2.884  15.125  0.0687  0.0133  0.5807
  174MPD1    C5 2706   2.920   2.806  15.224  0.2065  0.5908  0.1920
  174MPD1     H 2707   3.150   3.001  15.000  1.7435  1.2390  2.2934
  174MPD1    H1 2708   2.755   2.888  15.121  0.2384  0.5679 -2.7639
  174MPD1    H2 2709   3.097   2.711  15.302  0.8667 -0.2116 -0.9920
  174MPD1    H3 2710   2.855   2.757  15.297 -0.7568  1.0792 -0.3403
  174MPD1     N 2711   2.888   3.035  14.938 -0.5281  0.1270 -0.3546
  174MPD1    H5 2712   2.787   3.033  14.931 -0.5442 -0.8029  0.0573
  174MPD1    N1 2713   3.276   2.864  15.163 -0.2221  0.6187 -0.1925
  174MPD1    H6 2714   3.319   2.774  15.183 -0.4763  0.8605  1.4059
  174MPD1    H7 2715   3.308   2.889  15.069  1.6244 -0.9849 -0.0090
  175MPD1     C 2716   1.102   4.540  15.226  0.1015 -0.3172 -0.1794
  175MPD1    C1 2717   0.968   4.506  15.248  0.0867  0.0861  0.0981
  175MPD1    C2 2718   0.932   4.455  15.370 -0.0050  0.0432  0.3244
  175MPD1    C3 2719   1.024   4.421  15.467  0.7007  0.4434 -0.5626
  175MPD1    C4 2720   1.160   4.457  15.444 -0.0663  0.3610 -0.1880
  175MPD1    C5 2721   1.192   4.510  15.317 -0.9188  0.6335 -0.2907
  175MPD1     H 2722   0.825   4.445  15.384 -0.1285 -0.4162 -0.8671
  175MPD1    H1 2723   1.253   4.437  15.496 -1.3694 -0.9688  1.6235
  175MPD1    H2 2724   1.134   4.587  15.134  1.6556  0.8674  0.9645
  175MPD1    H3 2725   1.295   4.534  15.294 -0.7087  0.8561  0.8787
  175MPD1     N 2726   0.990   4.373  15.594 -0.3211  0.6591  0.3367
  175MPD1    H5 2727   1.069   4.374  15.658 -0.8436  0.5014  0.9780
  175MPD1    N1 2728   0.868   4.574  15.175 -0.0646  0.1660  0.2307
  175MPD1    H6 2729   0.898   4.601  15.082  1.9605 -3.0908 -0.0844
  175MPD1    H7 2730   0.779   4.526  15.183 -0.4010  1.0265  1.6760
  176MPD1     C 2731   3.169   1.027  17.260  0.2782 -0.8899  0.6287
  176MPD1    C1 2732   3.184   1.134  17.177 -1.1417 -0.7508 -0.0480
  176MPD1    C2 2733   3.153   1.258  17.230  0.4218 -0.1932 -0.5853
  176MPD1    C3 2734   3.117   1.273  17.363 -0.4360 -0.2964 -0.1528
  176MPD1    C4 2735   3.115   1.163  17.447  0.3059  0.3219  0.1799
  176MPD1    C5 2736   3.141   1.041  17.391 -0.6933 -0.1986 -0.8981
  176MPD1     H 2737   3.158   1.345  17.166 -3.4605  0.8159  0.4511
  176MPD1    H1 2738   3.086   1.160  17.552  3.9501  1.3433  1.2262
  176MPD1    H2 2739   3.156   0.927  17.221 -0.8641 -0.4812 -0.0708
  176MPD1    H3 2740   3.158   0.951  17.449 -0.6164  0.3971  0.0085
  176MPD1     N 2741   3.075   1.406  17.401  0.6481 -0.1688  0.1867
  176MPD1    H5 2742   3.063   1.470  17.324  1.6327 -1.7776 -1.3009
  176MPD1    N1 2743   3.199   1.106  17.040  0.6108 -0.0543  0.9249
  176MPD1    H6 2744   3.263   1.167  16.990  0.2353 -0.4195 -0.0073
  176MPD1    H7 2745   3.253   1.020  17.034  2.1572  1.2102 -3.5430
  177MPD1     C 2746   0.730   1.585  10.287 -0.3769 -0.6260  0.3188
  177MPD1    C1 2747   0.759   1.639  10.159  1.2918  0.1364  0.0361
  177MPD1    C2 2748   0.675   1.733  10.103  0.1099 -0.2177 -0.4933
  177MPD1    C3 2749   0.552   1.759  10.165 -0.0010 -0.3009  0.3654
  177MPD1    C4 2750   0.526   1.707  10.293 -0.2422 -0.8335  0.2956
  177MPD1    C5 2751   0.611   1.615  10.348  0.2513 -0.1613 -0.0226
  177MPD1     H 2752   0.697   1.769  10.002 -0.4670 -0.4845 -0.7154
  177MPD1    H1 2753   0.437   1.740  10.344 -1.6503  1.8322 -3.8386
  177MPD1    H2 2754   0.810   1.525  10.330  2.0073  1.9334 -0.5426
  177MPD1    H3 2755   0.598   1.575  10.448 -0.8051 -0.3720 -0.2377
  177MPD1     N 2756   0.455   1.840  10.094 -0.1932  0.2561  0.2357
  177MPD1    H5 2757   0.494   1.887  10.013  0.1244  0.9903  0.8143
  177MPD1    N1 2758   0.849   1.572  10.078 -0.6014  0.0496  0.3136
  177MPD1    H6 2759   0.935   1.541  10.124 -0.4137 -0.3987 -0.3422
  177MPD1    H7 2760   0.874   1.636  10.003  1.7282  1.0732  1.9545
  178MPD1     C 2761   3.107   3.069  17.392  0.6935 -0.1031 -0.5941
  178MPD1    C1 2762   3.242   3.070  17.383  0.0076  0.0239  0.3891
  178MPD1    C2 2763   3.315   2.950  17.400 -0.2372  0.2823  0.3320
  178MPD1    C3 2764   3.248   2.843  17.450  0.7354 -0.7178 -0.2628
  178MPD1    C4 2765   3.112   2.852  17.480  0.2384 -0.0239 -0.1654
  178MPD1    C5 2766   3.047   2.965  17.450  0.3690 -0.7522 -0.7629
  178MPD1     H 2767   3.417   2.942  17.364 -0.5226 -0.0446 -0.4078
  178MPD1    H1 2768   3.059   2.766  17.519 -0.3725  0.0529 -0.8085
  178MPD1    H2 2769   3.047   3.149  17.351  0.6447 -0.2912 -0.8915
  178MPD1    H3 2770   2.939   2.958  17.440  0.3296 -0.2434 -0.6903
  178MPD1     N 2771   3.306   2.722  17.481 -0.3254 -0.7817  0.4311
  178MPD1    H5 2772   3.242   2.659  17.528 -1.2237  1.2577  1.9823
  178MPD1    N1 2773   3.300   3.189  17.332  0.0725  0.2389  0.0064
  178MPD1    H6 2774   3.401   3.173  17.330  0.1285  0.5692  0.3681
  178MPD1    H7 2775   3.282   3.181  17.232 -2.1064 -1.5478  0.5574
  179MPD1     C 2776   2.393   0.657  16.169 -0.3328 -0.0141 -1.1992
  179MPD1    C1 2777   2.380   0.590  16.053  0.3146 -0.2060 -0.3153
  179MPD1    C2 2778   2.455   0.482  16.036  0.5038  0.1018  0.1653
  179MPD1    C3 2779   2.556   0.440  16.123 -0.0345  0.0306  0.0161
  179MPD1    C4 2780   2.569   0.510  16.235 -0.1121 -0.4532 -0.0896
  179MPD1    C5 2781   2.493   0.619  16.256 -0.2011 -0.4372 -0.5431
  179MPD1     H 2782   2.432   0.412  15.956 -0.7148 -0.9548  1.4270
  179MPD1    H1 2783   2.644   0.485  16.310 -1.6933  1.7871  2.2166
  179MPD1    H2 2784   2.320   0.730  16.200 -0.4835 -0.9559  0.6786
  179MPD1    H3 2785   2.512   0.683  16.342 -1.2626 -2.3857  1.1585
  179MPD1     N 2786   2.648   0.334  16.093 -0.0114 -0.1240 -0.4831
  179MPD1    H5 2787   2.712   0.306  16.167 -2.8781 -1.6574  1.3913
  179MPD1    N1 2788   2.269   0.620  15.970 -0.0424 -0.3596 -0.5261
  179MPD1    H6 2789   2.281   0.566  15.885 -0.5544 -0.9638 -0.2141
  179MPD1    H7 2790   2.240   0.717  15.958  0.6988  0.1048  1.4719
  180MPD1     C 2791   2.536   2.711  15.528  0.1429 -0.4608 -0.0321
  180MPD1    C1 2792   2.461   2.613  15.582 -0.5035 -0.4113 -0.3493
  180MPD1    C2 2793   2.441   2.492  15.519 -0.6341  0.1385  0.0129
  180MPD1    C3 2794   2.508   2.470  15.399 -0.1038  0.8372  0.8513
  180MPD1    C4 2795   2.590   2.569  15.347  0.7226  0.1442 -0.0383
  180MPD1    C5 2796   2.610   2.689  15.415 -0.0427 -0.4229 -0.0948
  180MPD1     H 2797   2.378   2.414  15.560 -1.7226  1.1983  0.3612
  180MPD1    H1 2798   2.632   2.561  15.247  1.5106 -0.0448  0.3067
  180MPD1    H2 2799   2.557   2.801  15.585 -0.4710 -0.2723 -0.1072
  180MPD1    H3 2800   2.668   2.772  15.377 -1.2824  0.2822 -0.4651
  180MPD1     N 2801   2.473   2.356  15.327 -0.0678 -0.5329 -0.0612
  180MPD1    H5 2802   2.418   2.280  15.365 -0.5742 -0.5916 -0.9063
  180MPD1    N1 2803   2.416   2.620  15.716 -0.3027 -0.3681  0.2957
  180MPD1    H6 2804   2.332   2.563  15.728  0.9530 -1.8208  2.1294
  180MPD1    H7 2805   2.389   2.714  15.745  0.5739  0.0346 -0.1950
  181MPD1     C 2806   1.816   4.179  10.404 -0.4732  0.3346 -0.0241
  181MPD1    C1 2807   1.767   4.234  10.286 -0.2039  0.3402  0.2332
  181MPD1    C2 2808   1.642   4.213  10.240  1.0064 -0.2632  0.1712
  181MPD1    C3 2809   1.565   4.123  10.309  0.0598  0.5781 -0.3281
  181MPD1    C4 2810   1.614   4.062  10.424  0.1317  0.5380  0.6614
  181MPD1    C5 2811   1.737   4.095  10.467 -0.0968  0.8107 -0.7789
  181MPD1     H 2812   1.614   4.269  10.152 -2.1012  0.8802  1.8906
  181MPD1    H1 2813   1.545   4.005  10.485 -2.4651  0.3442 -2.4537
  181MPD1    H2 2814   1.911   4.209  10.446 -0.1061 -0.2259 -0.4604
  181MPD1    H3 2815   1.760   4.046  10.561 -2.8541  1.2139  0.0993
  181MPD1     N 2816   1.434   4.082  10.274  0.1252 -0.5627 -0.0813
  181MPD1    H5 2817   1.388   4.009  10.327  0.7186 -0.9912 -0.1608
  181MPD1    N1 2818   1.860   4.292  10.201 -0.1382 -0.0642  0.3336
  181MPD1    H6 2819   1.800   4.341  10.135 -1.7400 -1.8861  0.4350
  181MPD1    H7 2820   1.911   4.358  10.259 -1.2083  0.1272  1.0587
  182MPD1     C 2821   0.926   2.803   1.783  0.3614 -0.4770 -0.1713
  182MPD1    C1 2822   0.882   2.691   1.720  0.1446  0.2177 -0.0618
  182MPD1    C2 2823   0.784   2.702   1.624 -1.1422  0.3148 -0.0869
  182MPD1    C3 2824   0.740   2.828   1.578  0.1778  0.2261  0.4064
  182MPD1    C4 2825   0.780   2.941   1.647  0.5290  0.4882 -0.2565
  182MPD1    C5 2826   0.873   2.928   1.748  0.1889 -0.1715  0.3097
  182MPD1     H 2827   0.743   2.618   1.569 -0.2217  0.3136 -0.7794
  182MPD1    H1 2828   0.745   3.037   1.614  1.9312  0.2720 -2.3999
  182MPD1    H2 2829   0.983   2.795   1.875  1.8313  0.5917 -0.9806
  182MPD1    H3 2830   0.915   3.010   1.805 -3.7989  1.7057  0.5707
  182MPD1     N 2831   0.655   2.843   1.466  0.4478 -0.1729 -0.2068
  182MPD1    H5 2832   0.606   2.932   1.460  0.2583 -0.0045  3.9861
  182MPD1    N1 2833   0.928   2.567   1.768  0.2036 -0.0764  0.3612
  182MPD1    H6 2834   1.024   2.574   1.803  0.4033  2.3812 -0.6422
  182MPD1    H7 2835   0.921   2.492   1.701  0.2300  1.7335 -1.6670
  183MPD1     C 2836   0.262   2.014   9.259  1.0506  0.2351 -0.2338
  183MPD1    C1 2837   0.383   2.059   9.216 -0.0958 -0.1700 -0.2830
  183MPD1    C2 2838   0.396   2.191   9.180  0.0734  0.5353 -0.4570
  183MPD1    C3 2839   0.281   2.273   9.164  0.4132 -0.3239 -0.1885
  183MPD1    C4 2840   0.160   2.214   9.181  0.3151 -0.0557 -0.4046
  183MPD1    C5 2841   0.146   2.087   9.234  0.1691 -0.9206 -0.4168
  183MPD1     H 2842   0.497   2.229   9.175  0.2879 -0.0630 -0.6573
  183MPD1    H1 2843   0.074   2.280   9.175 -0.5368 -1.0360  1.1670
  183MPD1    H2 2844   0.259   1.915   9.304 -0.1949  0.8027  0.9193
  183MPD1    H3 2845   0.049   2.046   9.256  0.1369 -1.7517 -2.0579
  183MPD1     N 2846   0.296   2.408   9.133 -0.6998 -0.0229  0.0949
  183MPD1    H5 2847   0.389   2.446   9.128 -0.8654  0.2336 -0.9331
  183MPD1    N1 2848   0.500   1.994   9.258 -0.2891 -0.7543 -0.3544
  183MPD1    H6 2849   0.572   2.018   9.190 -1.3925 -1.0496 -1.6258
  183MPD1    H7 2850   0.489   1.893   9.253  2.3500 -0.9721 -1.9129
  184MPD1     C 2851   0.178   1.401  10.943  0.7696 -0.7258  0.1877
  184MPD1    C1 2852   0.059   1.367  10.890 -0.5654  0.7334 -0.5030
  184MPD1    C2 2853   0.004   1.443  10.787 -0.2535 -0.5295  0.0900
  184MPD1    C3 2854   0.074   1.552  10.744 -0.0336  0.1223 -0.0335
  184MPD1    C4 2855   0.195   1.585  10.806  0.5334  0.4302  0.0336
  184MPD1    C5 2856   0.245   1.507  10.907 -0.8553 -0.4353  0.5689
  184MPD1     H 2857   4.649   1.397  10.754  0.1499 -1.3780  0.1312
  184MPD1    H1 2858   0.256   1.665  10.769  1.8331 -1.0697 -1.0429
  184MPD1    H2 2859   0.233   1.342  11.015 -0.2967 -0.6524  1.0672
  184MPD1    H3 2860   0.340   1.542  10.945 -0.4376 -0.8189 -0.1180
  184MPD1     N 2861   0.009   1.638  10.648 -0.3107  0.0409  0.4572
  184MPD1    H5 2862   0.050   1.722  10.608  0.7033  0.2477  1.9352
  184MPD1    N1 2863   0.018   1.235  10.924  0.5429 -0.0674 -0.2212
  184MPD1    H6 2864   0.046   1.215  11.020  0.6914 -0.4693 -0.3475
  184MPD1    H7 2865   4.662   1.197  10.921  1.1693 -1.4443 -2.6049
  185MPD1     C 2866   3.828   1.611  10.206  0.1183 -0.6889 -0.6737
  185MPD1    C1 2867   3.910   1.693  10.131 -0.6553 -0.1726  0.5891
  185MPD1    C2 2868   4.032   1.733  10.191  0.3991 -0.3563 -0.2511
  185MPD1    C3 2869   4.068   1.694  10.316 -0.0762 -0.2365  0.0820
  185MPD1    C4 2870   3.995   1.599  10.376  0.5737 -0.0632  0.2499
  185MPD1    C5 2871   3.870   1.565  10.324 -0.3544 -0.1433 -0.4058
  185MPD1     H 2872   4.098   1.788  10.125  0.7744  0.0639  0.4718
  185MPD1    H1 2873   4.022   1.565  10.475  0.3907  0.8670  0.6209
  185MPD1    H2 2874   3.741   1.558  10.168  0.0441 -1.2787  0.3269
  185MPD1    H3 2875   3.818   1.489  10.380 -1.3936  0.7736 -0.1321
  185MPD1     N 2876   4.188   1.733  10.376 -0.4713 -0.0572  0.6339
  185MPD1    H5 2877   4.208   1.698  10.469 -2.6081 -0.7513  0.8278
  185MPD1    N1 2878   3.881   1.708   9.998  0.2746 -0.4501  0.0741
  185MPD1    H6 2879   3.916   1.797   9.963  0.6699 -1.0153 -0.9819
  185MPD1    H7 2880   3.782   1.715   9.979  0.4673 -1.6068 -1.3885
  186MPD1     C 2881   3.974   0.448  15.849  0.1216  0.1249 -0.1575
  186MPD1    C1 2882   3.924   0.395  15.971 -0.1058  0.3406 -0.1861
  186MPD1    C2 2883   3.867   0.479  16.067 -0.9635  0.1820  0.8270
  186MPD1    C3 2884   3.854   0.616  16.044  0.0648 -0.1272 -0.0014
  186MPD1    C4 2885   3.908   0.667  15.924  1.0405 -0.8526  0.4640
  186MPD1    C5 2886   3.971   0.585  15.830  0.1706 -0.7681  0.1389
  186MPD1     H 2887   3.832   0.437  16.161  1.3172 -0.9128  1.1836
  186MPD1    H1 2888   3.901   0.775  15.917 -2.7635 -1.0796  0.8109
  186MPD1    H2 2889   4.012   0.382  15.772 -0.1065  1.1101 -1.1087
  186MPD1    H3 2890   4.005   0.621  15.733  1.6855  2.3419  1.7891
  186MPD1     N 2891   3.822   0.708  16.148  0.7704 -0.4153  0.4292
  186MPD1    H5 2892   3.855   0.804  16.143 -1.1520  0.3390  2.0953
  186MPD1    N1 2893   3.915   0.255  15.990  0.0298 -0.4692 -0.1288
  186MPD1    H6 2894   3.989   0.220  15.929 -1.0365 -0.2925 -1.5146
  186MPD1    H7 2895   3.925   0.233  16.089  2.1450 -0.8715 -0.4252
  187MPD1     C 2896   2.868   2.668   0.380 -0.3705  0.8592 -0.3261
  187MPD1    C1 2897   2.846   2.540   0.350 -0.1030  0.0867  0.2761
  187MPD1    C2 2898   2.766   2.511   0.241 -0.5005 -0.9329  0.7063
  187MPD1    C3 2899   2.688   2.611   0.183 -0.1479  0.6932  0.1881
  187MPD1    C4 2900   2.710   2.742   0.226  0.1028  0.7999  1.3771
  187MPD1    C5 2901   2.800   2.770   0.323 -0.1633 -0.2705 -0.6172
  187MPD1     H 2902   2.761   2.407   0.212  0.6071  0.0717 -3.1118
  187MPD1    H1 2903   2.660   2.829   0.186  0.0715 -0.1187 -0.5507
  187MPD1    H2 2904   2.947   2.688   0.451  0.9368 -0.2493 -1.4660
  187MPD1    H3 2905   2.820   2.874   0.349 -0.7440 -0.2168 -0.3989
  187MPD1     N 2906   2.600   2.590   0.073  0.2216 -0.5773  0.1138
  187MPD1    H5 2907   2.568   2.668   0.017 -1.8067 -1.9730 -0.6933
  187MPD1    N1 2908   2.937   2.440   0.398  0.4907  0.1719  0.9920
  187MPD1    H6 2909   2.961   2.463   0.494  1.5977 -1.7091  1.1718
  187MPD1    H7 2910   2.903   2.344   0.404 -1.2577  0.7278  0.1008
  188MPD1     C 2911   2.160   3.023  11.140  0.2046  0.6300 -0.1580
  188MPD1    C1 2912   2.256   2.929  11.142 -0.1098 -0.3642 -0.3359
  188MPD1    C2 2913   2.241   2.819  11.060 -0.0501 -0.1960  0.6395
  188MPD1    C3 2914   2.135   2.810  10.972  0.2428 -0.3364 -0.6401
  188MPD1    C4 2915   2.041   2.913  10.973 -0.3213  0.4058 -0.5766
  188MPD1    C5 2916   2.057   3.021  11.053  0.2262  0.1942 -0.1875
  188MPD1     H 2917   2.319   2.744  11.066  1.9433  1.7112 -1.3878
  188MPD1    H1 2918   1.959   2.917  10.903 -1.0634  0.2226  0.2937
  188MPD1    H2 2919   2.176   3.123  11.180  0.1837  1.0116 -1.1096
  188MPD1    H3 2920   1.993   3.108  11.042  0.0447  0.1485  0.5409
  188MPD1     N 2921   2.124   2.705  10.882  0.2637 -0.3070  0.3860
  188MPD1    H5 2922   2.045   2.701  10.818  2.0453 -0.0678 -1.8413
  188MPD1    N1 2923   2.374   2.958  11.203  0.0402 -0.3453  0.0765
  188MPD1    H6 2924   2.426   2.876  11.233  1.2854  0.5050  0.2502
  188MPD1    H7 2925   2.354   3.024  11.277 -0.5469 -0.9655  0.4739
  189MPD1     C 2926   4.707   3.208   0.612  0.0474  0.0576 -0.3235
  189MPD1    C1 2927   4.638   3.169   0.725  0.9528  0.1977 -0.0472
  189MPD1    C2 2928   4.567   3.263   0.800  0.9391 -0.6957 -0.1716
  189MPD1    C3 2929   4.553   3.388   0.737 -0.0246  0.6334 -0.3789
  189MPD1    C4 2930   4.612   3.419   0.617 -0.5272  0.2353  1.6160
  189MPD1    C5 2931   4.691   3.330   0.553  0.3868  0.1326  0.1584
  189MPD1     H 2932   4.524   3.255   0.899 -1.5421  0.0142 -1.1916
  189MPD1    H1 2933   4.608   3.516   0.568 -3.3471 -1.0857 -0.7672
  189MPD1    H2 2934   0.032   3.135   0.561  0.9670  0.7508 -0.1945
  189MPD1    H3 2935   0.007   3.360   0.464 -4.3650  0.8924 -2.4432
  189MPD1     N 2936   4.478   3.487   0.798  0.6765  0.2519 -0.9214
  189MPD1    H5 2937   4.425   3.460   0.880  1.2464 -0.9079 -0.9378
  189MPD1    N1 2938   4.660   3.044   0.774  0.0609 -0.2002  0.3668
  189MPD1    H6 2939   4.699   2.981   0.703 -1.1360  0.8966 -1.2601
  189MPD1    H7 2940   4.570   3.001   0.795 -1.1058  0.7182 -2.7879
  190MPD1     C 2941   2.407   2.240  15.929 -0.1391  0.6509 -1.0511
  190MPD1    C1 2942   2.456   2.213  16.054 -0.1329  0.2411  0.3362
  190MPD1    C2 2943   2.589   2.164  16.067 -0.4341  0.6178  0.4831
  190MPD1    C3 2944   2.666   2.152  15.952  0.1600 -0.0579  0.5069
  190MPD1    C4 2945   2.618   2.193  15.828 -0.1678 -0.4655  0.0740
  190MPD1    C5 2946   2.489   2.228  15.818  0.9422 -0.4182 -0.2662
  190MPD1     H 2947   2.627   2.130  16.163  0.1282 -1.0151 -0.3275
  190MPD1    H1 2948   2.672   2.174  15.736  0.6698  0.2510  0.4202
  190MPD1    H2 2949   2.302   2.257  15.910 -0.0439  1.2707 -1.0204
  190MPD1    H3 2950   2.454   2.243  15.716  1.0413 -1.7540 -0.4936
  190MPD1     N 2951   2.793   2.087  15.965  0.2416 -0.0247  0.2892
  190MPD1    H5 2952   2.824   2.064  16.059  2.5596  0.6386 -0.3175
  190MPD1    N1 2953   2.370   2.201  16.161  0.1438  0.3061  0.5771
  190MPD1    H6 2954   2.284   2.252  16.146 -0.5501 -0.0598  3.3699
  190MPD1    H7 2955   2.412   2.226  16.250  2.9088 -1.3403 -0.2696
  191MPD1     C 2956   1.718   3.708  11.908  0.5467  0.0545 -1.0144
  191MPD1    C1 2957   1.691   3.644  12.025  0.2343  0.1108  0.0020
  191MPD1    C2 2958   1.757   3.686  12.136 -0.0524 -0.0417  0.1789
  191MPD1    C3 2959   1.827   3.808  12.136 -0.0946  0.1670  0.1284
  191MPD1    C4 2960   1.845   3.874  12.016 -0.2046  0.2882 -0.3345
  191MPD1    C5 2961   1.790   3.819  11.900  0.3798 -0.4313 -0.5612
  191MPD1     H 2962   1.754   3.632  12.230 -3.5668  0.8101  0.5711
  191MPD1    H1 2963   1.891   3.972  12.017 -1.8999  1.1015 -1.4734
  191MPD1    H2 2964   1.677   3.657  11.821  2.4146  0.2769 -2.0131
  191MPD1    H3 2965   1.821   3.865  11.807  1.0077  0.5367  0.1284
  191MPD1     N 2966   1.879   3.854  12.259  0.6897 -0.3202  0.0380
  191MPD1    H5 2967   1.868   3.790  12.337  3.2807 -0.6511  0.1220
  191MPD1    N1 2968   1.622   3.521  12.016  0.4908 -0.1341  0.1855
  191MPD1    H6 2969   1.552   3.520  11.943  0.4353  0.9301  0.2143
  191MPD1    H7 2970   1.583   3.478  12.100  0.3805 -0.9708 -0.2995
  192MPD1     C 2971   1.731   4.154  13.201 -0.1667 -0.1457 -0.2529
  192MPD1    C1 2972   1.670   4.055  13.124  0.1683  0.1464  0.0647
  192MPD1    C2 2973   1.739   4.018  13.007 -0.1197 -0.3694 -0.5735
  192MPD1    C3 2974   1.862   4.074  12.975 -0.0185 -0.0549  0.6153
  192MPD1    C4 2975   1.921   4.170  13.057 -0.6335  0.2779 -0.1498
  192MPD1    C5 2976   1.857   4.205  13.170 -0.1470  0.0149 -0.2422
  192MPD1     H 2977   1.697   3.940  12.945 -0.0152 -0.1398 -0.9313
  192MPD1    H1 2978   2.022   4.208  13.043 -0.9065  1.2241  0.4508
  192MPD1    H2 2979   1.688   4.185  13.296 -0.0401 -0.9314  0.0611
  192MPD1    H3 2980   1.918   4.275  13.226 -1.3808  1.3268 -0.5556
  192MPD1     N 2981   1.934   4.043  12.854 -0.2075 -0.6144 -0.6235
  192MPD1    H5 2982   2.027   4.085  12.856 -0.0260 -1.0979  2.1583
  192MPD1    N1 2983   1.537   4.011  13.146 -0.0497 -0.0392 -0.5809
  192MPD1    H6 2984   1.525   4.011  13.247  0.9161 -0.3826 -0.4613
  192MPD1    H7 2985   1.519   3.921  13.102 -0.6370  1.0821 -2.6170
  193MPD1     C 2986   1.619   3.810  16.509 -0.8578 -0.6512 -0.1592
  193MPD1    C1 2987   1.588   3.886  16.620  0.1314 -0.3010  0.1673
  193MPD1    C2 2988   1.690   3.959  16.680  0.5042  0.2293  0.1993
  193MPD1    C3 2989   1.815   3.965  16.623 -0.8101  0.0175  0.2563
  193MPD1    C4 2990   1.844   3.889  16.510  0.5579  0.3777 -0.1847
  193MPD1    C5 2991   1.748   3.811  16.455 -0.1054  0.0632  0.3140
  193MPD1     H 2992   1.672   4.004  16.777 -2.2677  0.1324 -0.2780
  193MPD1    H1 2993   1.943   3.892  16.464  1.3126  0.5155  1.4457
  193MPD1    H2 2994   1.539   3.752  16.464  0.1927 -2.6081  0.4956
  193MPD1    H3 2995   1.777   3.747  16.372 -0.0197 -0.9040  1.0890
  193MPD1     N 2996   1.926   4.030  16.688 -0.0979 -0.7954 -0.1647
  193MPD1    H5 2997   2.017   4.016  16.645 -0.3223  1.4529 -1.3443
  193MPD1    N1 2998   1.474   3.870  16.695 -0.1623  0.7230 -0.5453
  193MPD1    H6 2999   1.388   3.851  16.644  0.5383  0.5139 -1.6627
  193MPD1    H7 3000   1.454   3.948  16.756 -0.6163  1.4495 -1.6155
  194MPD1     C 3001   4.623   1.199  16.862 -0.2623  0.1022 -0.4733
  194MPD1    C1 3002   4.670   1.150  16.983  0.8911  0.3908 -0.0320
  194MPD1    C2 3003   0.006   1.034  16.981 -0.6220 -0.0990  0.1072
  194MPD1    C3 3004   4.731   0.939  16.875 -0.3961 -0.6237  0.3383
  194MPD1    C4 3005   4.680   0.984  16.759 -0.4889 -0.1005 -0.3083
  194MPD1    C5 3006   4.639   1.115  16.755 -0.9370 -0.8361 -0.7062
  194MPD1     H 3007   0.039   1.001  17.079  1.1310  1.1861 -0.0491
  194MPD1    H1 3008   4.672   0.921  16.672 -2.3367 -0.7260  0.2978
  194MPD1    H2 3009   4.585   1.297  16.838  0.6179  0.1701 -1.5719
  194MPD1    H3 3010   4.607   1.148  16.657  0.3807  0.5592 -0.6669
  194MPD1     N 3011   0.024   0.800  16.891  0.0068 -0.0993 -0.0853
  194MPD1    H5 3012   0.007   0.732  16.818  0.8735 -2.2404  1.7113
  194MPD1    N1 3013   4.689   1.241  17.086  0.2114 -0.0236  0.0025
  194MPD1    H6 3014   4.626   1.321  17.082  2.4936  1.7066 -1.6185
  194MPD1    H7 3015   4.692   1.196  17.178 -1.3849  0.1490  0.1326
  195MPD1     C 3016   2.028   2.987   0.258  0.3772 -0.1952 -0.0869
  195MPD1    C1 3017   2.131   2.929   0.194  0.6542  0.6613  0.4431
  195MPD1    C2 3018   2.170   2.801   0.231  0.3413  0.0221 -0.0459
  195MPD1    C3 3019   2.123   2.751   0.351  0.9598  0.1842  0.2964
  195MPD1    C4 3020   2.018   2.812   0.419  0.0471  0.0212 -0.0395
  195MPD1    C5 3021   1.964   2.924   0.365 -0.2781  0.0787  0.3047
  195MPD1     H 3022   2.255   2.758   0.180 -0.7005 -0.2123 -1.5693
  195MPD1    H1 3023   1.969   2.768   0.506  1.8406  0.4465  1.1740
  195MPD1    H2 3024   2.000   3.089   0.234  1.8230  0.4497  0.9828
  195MPD1    H3 3025   1.881   2.965   0.422 -1.0402 -2.0158  0.7154
  195MPD1     N 3026   2.175   2.630   0.400 -0.2523  0.0506 -0.9745
  195MPD1    H5 3027   2.137   2.596   0.488  0.0295 -1.1594 -1.3145
  195MPD1    N1 3028   2.210   3.009   0.107  0.1438 -0.3169 -0.1815
  195MPD1    H6 3029   2.275   2.972   0.038  0.0835 -2.7532  1.0549
  195MPD1    H7 3030   2.153   3.079   0.060  1.1709  0.4372 -0.3182
  196MPD1     C 3031   1.720   2.508  17.435 -0.1260  0.0635 -0.0432
  196MPD1    C1 3032   1.730   2.369  17.439 -0.0856  0.7503  0.8093
  196MPD1    C2 3033   1.691   2.320  17.562  0.7229 -0.0361 -0.7630
  196MPD1    C3 3034   1.635   2.393  17.669 -0.1346  0.2669  0.4233
  196MPD1    C4 3035   1.627   2.527  17.657 -0.0108 -0.8376 -0.0354
  196MPD1    C5 3036   1.671   2.582  17.538 -0.1764 -0.4192 -0.3143
  196MPD1     H 3037   1.703   2.212  17.564  2.0912  0.1094 -0.8594
  196MPD1    H1 3038   1.598   2.594  17.737  0.1956 -0.8732  0.0698
  196MPD1    H2 3039   1.741   2.563  17.344  0.0484 -2.1388 -1.3076
  196MPD1    H3 3040   1.662   2.689  17.519 -0.1677  0.0246  2.1795
  196MPD1     N 3041   1.591   2.327   0.032  1.1422  0.0369  0.4656
  196MPD1    H5 3042   1.550   2.384   0.106  1.2484  0.4852  0.1773
  196MPD1    N1 3043   1.743   2.291  17.324 -0.3118 -0.1428 -0.2479
  196MPD1    H6 3044   1.785   2.200  17.342  0.4870  0.6863  2.0856
  196MPD1    H7 3045   1.799   2.343  17.257  1.4125 -2.8478 -0.8998
  197MPD1     C 3046   0.930   3.635  17.640 -0.0861  0.0344 -0.7054
  197MPD1    C1 3047   1.020   3.716  17.697  0.4888  0.8251 -0.4219
  197MPD1    C2 3048   1.058   3.829  17.628  0.1097  0.0176 -0.1874
  197MPD1    C3 3049   1.021   3.842  17.485  0.0304  0.8060 -0.4116
  197MPD1    C4 3050   0.942   3.743  17.435 -0.7260  0.3082  0.6766
  197MPD1    C5 3051   0.891   3.638  17.512  0.4132 -0.0535 -0.4254
  197MPD1     H 3052   1.116   3.905  17.679 -1.0740 -0.1900  1.4453
  197MPD1    H1 3053   0.910   3.750  17.332  1.3375  0.3438  0.0380
  197MPD1    H2 3054   0.893   3.549  17.696 -0.5261  0.2408 -0.6790
  197MPD1    H3 3055   0.837   3.557  17.465  1.6807 -1.4191  0.4773
  197MPD1     N 3056   1.060   3.959  17.413 -0.9092  0.0924  0.2516
  197MPD1    H5 3057   1.061   3.956  17.311 -0.3270 -0.2787  0.2711
  197MPD1    N1 3058   1.068   3.706   0.081  0.1018  0.4989 -0.0951
  197MPD1    H6 3059   1.055   3.609   0.111  0.4322  0.1486 -1.1064
  197MPD1    H7 3060   1.165   3.733   0.075  0.0812  0.6021  0.0245
  198MPD1     C 3061   2.149   3.053  16.025 -0.3462  0.0082  0.1845
  198MPD1    C1 3062   2.217   2.974  16.114 -0.0456 -0.1537 -0.0470
  198MPD1    C2 3063   2.350   2.997  16.146 -0.2341 -0.0648  0.3242
  198MPD1    C3 3064   2.412   3.096  16.078  0.0006 -0.7093 -0.1690
  198MPD1    C4 3065   2.341   3.173  15.985  0.3545 -0.6656 -0.1337
  198MPD1    C5 3066   2.206   3.156  15.966  0.8780  0.7891 -0.5016
  198MPD1     H 3067   2.396   2.926  16.214  0.5785  1.0678  0.9545
  198MPD1    H1 3068   2.386   3.261  15.941  0.4786 -0.6263  0.0696
  198MPD1    H2 3069   2.044   3.035  16.005 -0.9501 -1.7600  4.8090
  198MPD1    H3 3070   2.144   3.225  15.911 -1.0053 -1.2740 -0.9689
  198MPD1     N 3071   2.545   3.114  16.106 -0.2567 -0.4774  0.2089
  198MPD1    H5 3072   2.578   3.054  16.181 -0.4211 -0.8760 -0.0399
  198MPD1    N1 3073   2.153   2.878  16.190  0.5634 -0.4329  0.8351
  198MPD1    H6 3074   2.223   2.810  16.220  1.7531  0.4646  0.1128
  198MPD1    H7 3075   2.090   2.831  16.125 -0.6908  1.9365  0.3667
  199MPD1     C 3076   0.145   0.824  10.563  0.5025  0.4033  0.3366
  199MPD1    C1 3077   0.125   0.761  10.690  0.0762 -0.5244 -0.1618
  199MPD1    C2 3078   0.024   0.659  10.694 -0.2385 -0.2473  0.1565
  199MPD1    C3 3079   4.681   0.644  10.580  0.1524  0.0359 -0.3367
  199MPD1    C4 3080   4.700   0.716  10.464 -0.0728 -0.7808  0.2084
  199MPD1    C5 3081   0.064   0.805  10.453 -0.3881  0.3001  0.7324
  199MPD1     H 3082   0.024   0.595  10.781  0.5695  0.8997  0.9949
  199MPD1    H1 3083   4.641   0.700  10.374  0.9056  2.0243 -0.9347
  199MPD1    H2 3084   0.222   0.900  10.551 -0.3424  1.2040 -0.0820
  199MPD1    H3 3085   0.082   0.860  10.361 -1.1845  0.6682  0.7971
  199MPD1     N 3086   4.580   0.543  10.567  0.2945  0.2501 -0.1507
  199MPD1    H5 3087   4.528   0.537  10.480  1.4243 -0.7943 -0.7553
  199MPD1    N1 3088   0.221   0.773  10.790 -0.7065  0.2967 -0.3360
  199MPD1    H6 3089   0.187   0.754  10.885 -0.2066 -0.7322 -0.3609
  199MPD1    H7 3090   0.251   0.870  10.786 -0.0131  0.2520  3.0539
  200MPD1     C 3091   4.138   3.486  14.225  0.1343  0.2542 -0.5332
  200MPD1    C1 3092   4.221   3.529  14.326  0.1149 -1.1279 -0.6975
  200MPD1    C2 3093   4.199   3.659  14.374 -0.2669  0.2248  0.4898
  200MPD1    C3 3094   4.079   3.725  14.359  0.3750  0.2387  0.8644
  200MPD1    C4 3095   3.986   3.666  14.280  0.3393 -0.0872 -0.0105
  200MPD1    C5 3096   4.016   3.549  14.214  0.5064  0.6762 -0.0463
  200MPD1     H 3097   4.280   3.706  14.428  1.2189 -2.0692  0.2868
  200MPD1    H1 3098   3.887   3.707  14.263  0.1385 -0.7779 -0.5033
  200MPD1    H2 3099   4.152   3.395  14.168  0.6481  0.3178 -0.5061
  200MPD1    H3 3100   3.945   3.530  14.134  0.3639 -0.4857  0.3547
  200MPD1     N 3101   4.056   3.847  14.423  0.4132 -0.0728  0.2153
  200MPD1    H5 3102   4.136   3.890  14.469 -0.9183  1.5301  1.0248
  200MPD1    N1 3103   4.351   3.471  14.340 -0.2790  0.1646 -0.4521
  200MPD1    H6 3104   4.345   3.371  14.323 -0.5628  0.3358 -1.3566
  200MPD1    H7 3105   4.399   3.500  14.424 -2.6466 -0.7300  1.2332
  201MPD1     C 3106   0.905   2.802  12.925  0.1426  0.5771  0.2443
  201MPD1    C1 3107   1.011   2.754  12.855 -0.1887  0.1368 -0.1023
  201MPD1    C2 3108   1.127   2.708  12.918 -0.5666 -0.1632  0.0047
  201MPD1    C3 3109   1.123   2.689  13.053 -0.0569  0.2252  0.9453
  201MPD1    C4 3110   1.009   2.729  13.124  0.4993  0.4902 -0.1335
  201MPD1    C5 3111   0.901   2.786  13.059 -0.4852  0.2372 -0.7259
  201MPD1     H 3112   1.216   2.691  12.859 -0.0908 -0.2865  0.7723
  201MPD1    H1 3113   0.998   2.711  13.230  1.3719  1.5848  0.1524
  201MPD1    H2 3114   0.827   2.854  12.871  1.7846  0.8141 -1.8718
  201MPD1    H3 3115   0.825   2.831  13.122  0.5811 -2.1430  2.2827
  201MPD1     N 3116   1.240   2.635  13.109 -0.1074 -0.0886 -0.5229
  201MPD1    H5 3117   1.317   2.607  13.049 -0.2598 -1.2156 -0.1827
  201MPD1    N1 3118   1.015   2.780  12.714  0.1577  0.9154  0.2851
  201MPD1    H6 3119   0.923   2.776  12.669  0.7661 -0.0296 -0.8721
  201MPD1    H7 3120   1.084   2.721  12.669 -0.6151 -0.0891  0.4179
  202MPD1     C 3121   0.895   1.619   9.635  0.5601 -0.2784 -0.1378
  202MPD1    C1 3122   0.825   1.733   9.591 -0.6625  0.2664  0.6263
  202MPD1    C2 3123   0.904   1.849   9.579 -0.9931  0.0917 -0.7345
  202MPD1    C3 3124   1.044   1.846   9.578  0.1321 -0.0179 -0.0625
  202MPD1    C4 3125   1.108   1.733   9.607 -0.5632  0.0825  0.0708
  202MPD1    C5 3126   1.031   1.619   9.634 -0.3205 -0.5023 -0.0276
  202MPD1     H 3127   0.853   1.941   9.604 -1.3861 -0.6216  1.1027
  202MPD1    H1 3128   1.215   1.721   9.607 -0.4833  0.7757  1.2318
  202MPD1    H2 3129   0.842   1.530   9.667 -2.0981  0.7071 -1.8508
  202MPD1    H3 3130   1.078   1.530   9.676  1.0206 -0.1627 -0.8333
  202MPD1     N 3131   1.121   1.959   9.563  0.0415 -0.3957 -0.7236
  202MPD1    H5 3132   1.219   1.955   9.586  0.8413  1.5752 -3.7594
  202MPD1    N1 3133   0.689   1.739   9.630 -0.1501  0.8410 -0.0492
  202MPD1    H6 3134   0.628   1.808   9.586  0.7398  1.1400 -0.8117
  202MPD1    H7 3135   0.640   1.651   9.613  1.7564 -0.0577 -0.9327
  203MPD1     C 3136   0.004   3.850  12.937 -0.1167  0.7819 -0.9387
  203MPD1    C1 3137   0.049   3.796  12.819 -0.3086 -0.0825 -0.4781
  203MPD1    C2 3138   0.050   3.656  12.794  0.5299 -0.0500 -0.4665
  203MPD1    C3 3139   0.007   3.570  12.898 -0.5207 -0.0644  0.0498
  203MPD1    C4 3140   4.715   3.627  13.021  0.2696  0.7343 -0.1002
  203MPD1    C5 3141   4.715   3.762  13.041  0.2567 -0.0045 -0.0753
  203MPD1     H 3142   0.079   3.600  12.705  1.2422 -1.7376  0.8291
  203MPD1    H1 3143   4.687   3.571  13.109  1.3554  0.2112 -0.0894
  203MPD1    H2 3144   0.003   3.958  12.944 -1.1920  0.7671 -0.8859
  203MPD1    H3 3145   4.695   3.803  13.139  0.4040  0.2102 -0.1344
  203MPD1     N 3146   4.734   3.434  12.858  0.0706 -0.4958 -0.1736
  203MPD1    H5 3147   0.024   3.406  12.764 -1.8603 -1.6312 -0.4248
  203MPD1    N1 3148   0.047   3.879  12.707 -0.0865  0.0720 -0.0363
  203MPD1    H6 3149   0.104   3.853  12.627  1.5848  1.7343  0.6116
  203MPD1    H7 3150   0.061   3.976  12.737 -3.5150  1.3110 -2.5691
  204MPD1     C 3151   4.556   0.100  17.580  0.1284  0.5014  0.5123
  204MPD1    C1 3152   4.617   0.045  17.476  0.3705  0.6591  0.8173
  204MPD1    C2 3153   4.631   4.650  17.484  0.5790  0.1389 -0.2714
  204MPD1    C3 3154   4.582   4.570  17.584  0.2062 -0.2967  0.2815
  204MPD1    C4 3155   4.510   4.624  17.685 -0.2625 -0.2164  0.1954
  204MPD1    C5 3156   4.506   0.030  17.683 -0.4436 -1.0301 -0.0278
  204MPD1     H 3157   4.681   4.607  17.398  1.0804 -1.2228  0.6901
  204MPD1    H1 3158   4.460   4.563   0.010 -0.3175 -0.9465 -0.4471
  204MPD1    H2 3159   4.544   0.208  17.573 -1.7321  0.1398 -1.8167
  204MPD1    H3 3160   4.454   0.081   0.014 -0.0915  0.5956 -0.8312
  204MPD1     N 3161   4.608   4.427  17.576  0.3824 -0.1218 -0.2627
  204MPD1    H5 3162   4.667   4.399  17.498  0.3034 -0.0324 -0.3554
  204MPD1    N1 3163   4.658   0.118  17.360  0.3061  0.8745  0.8826
  204MPD1    H6 3164   0.002   0.088  17.307  0.4798 -0.6096  2.0011
  204MPD1    H7 3165   4.661   0.217  17.380  3.6666  1.1182 -0.7789
  205MPD1     C 3166   4.584   2.621  17.444  0.2936 -0.2032 -0.4128
  205MPD1    C1 3167   4.674   2.709  17.503 -0.4368 -0.1108  0.4714
  205MPD1    C2 3168   4.627   2.791  17.605  0.4545 -0.7219  1.0014
  205MPD1    C3 3169   4.494   2.792  17.644 -0.4370 -0.3149  0.1556
  205MPD1    C4 3170   4.407   2.708  17.577 -0.7973 -0.6195 -0.0350
  205MPD1    C5 3171   4.453   2.619  17.485 -0.2805  0.3297  0.0762
  205MPD1     H 3172   4.692   2.870  17.642  0.9103 -0.8668  0.5092
  205MPD1    H1 3173   4.301   2.725  17.597 -0.4449  1.7281 -0.1288
  205MPD1    H2 3174   4.611   2.546  17.371  0.8279 -0.6204  0.2172
  205MPD1    H3 3175   4.378   2.562  17.432  2.0238 -0.4402 -2.3318
  205MPD1     N 3176   4.442   2.884  17.741 -0.0181 -0.2004  1.1960
  205MPD1    H5 3177   4.343   2.890   0.015 -0.1127  1.0782  0.4887
  205MPD1    N1 3178   0.073   2.707  17.469  0.1077 -0.7124  0.4164
  205MPD1    H6 3179   0.106   2.804  17.471  1.0863 -1.0405  0.2654
  205MPD1    H7 3180   0.091   2.673  17.375 -2.4875 -1.2451  0.1258
  206MPD1     C 3181   0.434   1.272  16.777 -0.5117  0.2978  0.5946
  206MPD1    C1 3182   0.328   1.184  16.775 -1.1727 -0.4033 -0.9521
  206MPD1    C2 3183   0.267   1.163  16.655 -0.0970  0.0810  0.2243
  206MPD1    C3 3184   0.285   1.248  16.549  0.4418  0.0209 -0.1111
  206MPD1    C4 3185   0.377   1.343  16.555 -0.0565  0.3052  0.3170
  206MPD1    C5 3186   0.461   1.351  16.669 -0.5089  0.7120 -0.2495
  206MPD1     H 3187   0.200   1.078  16.650  1.0221 -0.7651 -0.4574
  206MPD1    H1 3188   0.387   1.411  16.471 -1.1568 -2.3098 -1.9081
  206MPD1    H2 3189   0.486   1.296  16.869  3.0877  2.1929 -1.9381
  206MPD1    H3 3190   0.542   1.422  16.684 -0.8538  0.9497  0.4444
  206MPD1     N 3191   0.214   1.246  16.428  0.4776 -0.4019  0.0266
  206MPD1    H5 3192   0.231   1.320  16.360  0.4298 -0.2196  0.2142
  206MPD1    N1 3193   0.311   1.102  16.884 -0.7709 -0.0293  0.0106
  206MPD1    H6 3194   0.334   1.139  16.976  1.2203 -0.4335 -0.3287
  206MPD1    H7 3195   0.215   1.068  16.887 -0.5977 -0.4500  0.6285
  207MPD1     C 3196   0.988   4.734  10.793 -0.5094  0.1203 -0.4904
  207MPD1    C1 3197   1.078   0.054  10.878  0.4417 -0.6703  0.6050
  207MPD1    C2 3198   1.210   0.036  10.849 -0.8103 -0.1723  0.7188
  207MPD1    C3 3199   1.252   0.008  10.721  0.5359 -0.7254  0.4566
  207MPD1    C4 3200   1.158   4.701  10.629 -0.5085  0.2103 -0.1872
  207MPD1    C5 3201   1.031   4.696  10.671  0.6677  0.9794  0.3181
  207MPD1     H 3202   1.284   0.072  10.919 -0.0686 -2.5935  1.1916
  207MPD1    H1 3203   1.178   4.681  10.524 -0.0391 -2.0724  0.3477
  207MPD1    H2 3204   0.886   0.005  10.828  0.1802 -3.3613  2.4596
  207MPD1    H3 3205   0.957   4.657  10.602  2.2089  0.6064 -1.1106
  207MPD1     N 3206   1.390   0.003  10.690 -0.5729 -0.4541  0.0660
  207MPD1    H5 3207   1.421   0.017  10.594 -2.3733  0.6854 -0.3594
  207MPD1    N1 3208   1.042   0.092  11.014 -0.5662 -0.4891  0.1708
  207MPD1    H6 3209   0.950   0.129  11.037 -0.8646 -1.3666  0.3794
  207MPD1    H7 3210   1.108   0.161  11.050  2.2464 -3.9036  1.5832
  208MPD1     C 3211   4.050   1.691   1.332 -1.1142  0.5281 -0.4911
  208MPD1    C1 3212   4.001   1.815   1.361 -0.1016 -0.1507 -0.3656
  208MPD1    C2 3213   4.063   1.931   1.312 -0.5993  0.8352 -0.4899
  208MPD1    C3 3214   4.165   1.912   1.223 -0.6410  0.4703 -0.0983
  208MPD1    C4 3215   4.215   1.787   1.194 -0.2733  0.2440 -0.4279
  208MPD1    C5 3216   4.159   1.672   1.251  0.3796 -0.0036 -0.5258
  208MPD1     H 3217   4.025   2.031   1.331  2.0856  2.1038 -1.7489
  208MPD1    H1 3218   4.287   1.761   1.118  0.6219 -0.2823  0.5987
  208MPD1    H2 3219   4.006   1.596   1.363 -0.5676  0.7515  0.9953
  208MPD1    H3 3220   4.191   1.574   1.219  1.5409  0.5266 -1.0297
  208MPD1     N 3221   4.213   2.025   1.162 -0.3528 -0.4583 -0.0005
  208MPD1    H5 3222   4.153   2.107   1.161  1.5842  0.9538  0.0135
  208MPD1    N1 3223   3.878   1.827   1.433 -0.9223 -0.1793 -0.9296
  208MPD1    H6 3224   3.849   1.749   1.492  0.9631 -0.5271 -0.4408
  208MPD1    H7 3225   3.870   1.919   1.474  1.4183 -0.6352  0.5498
  209MPD1     C 3226   3.230   4.355  11.155  0.0040  0.3460 -0.8078
  209MPD1    C1 3227   3.133   4.299  11.074 -0.5875  0.1316  0.1193
  209MPD1    C2 3228   3.000   4.321  11.110 -0.0510  1.0343 -0.2834
  209MPD1    C3 3229   2.965   4.394  11.221  0.0270 -0.4161 -0.0576
  209MPD1    C4 3230   3.067   4.459  11.287 -0.0675  0.1840  0.0625
  209MPD1    C5 3231   3.197   4.438  11.254 -0.0362  0.4896 -0.2148
  209MPD1     H 3232   2.924   4.273  11.050 -0.9404  2.3478 -0.2147
  209MPD1    H1 3233   3.049   4.527  11.369 -1.0679  2.1253 -1.7610
  209MPD1    H2 3234   3.336   4.331  11.148 -0.2278 -0.8238 -0.3553
  209MPD1    H3 3235   3.276   4.486  11.311 -0.0807  2.3447 -1.7060
  209MPD1     N 3236   2.825   4.413  11.255 -0.4440 -0.9044  0.1426
  209MPD1    H5 3237   2.761   4.385  11.181 -0.5704  0.1575 -0.1491
  209MPD1    N1 3238   3.166   4.202  10.975 -0.5379 -0.5137 -0.0517
  209MPD1    H6 3239   3.112   4.204  10.889 -0.7382  0.1156  0.0891
  209MPD1    H7 3240   3.262   4.193  10.945 -1.1544 -1.3689 -1.7670
  210MPD1     C 3241   1.981   4.254  11.895  0.3013  0.2721 -0.1451
  210MPD1    C1 3242   2.109   4.285  11.945 -0.3258 -0.0742 -0.3284
  210MPD1    C2 3243   2.190   4.353  11.855 -0.3692 -0.4981 -0.7583
  210MPD1    C3 3244   2.148   4.395  11.726  0.1023 -0.4293  0.9701
  210MPD1    C4 3245   2.015   4.375  11.694 -0.0241  0.5012  0.1264
  210MPD1    C5 3246   1.932   4.305  11.780  0.6217  0.4781 -0.1509
  210MPD1     H 3247   2.293   4.367  11.884 -0.3349 -0.0193 -1.1184
  210MPD1    H1 3248   1.980   4.405  11.595 -0.2900 -1.0978 -0.2740
  210MPD1    H2 3249   1.914   4.196  11.958 -0.8428 -0.8366 -2.4020
  210MPD1    H3 3250   1.831   4.279  11.749 -0.0361  0.9435  1.6248
  210MPD1     N 3251   2.236   4.435  11.618 -0.1252  0.2878 -0.0475
  210MPD1    H5 3252   2.193   4.458  11.529 -1.4819  1.0840  0.8062
  210MPD1    N1 3253   2.161   4.209  12.054  0.1306 -0.4866  0.2884
  210MPD1    H6 3254   2.242   4.250  12.100 -0.3985 -1.1308  1.7920
  210MPD1    H7 3255   2.086   4.182  12.117 -0.5816  0.4885 -0.1328
  211MPD1     C 3256   4.550   2.920  15.304  0.1105  0.5001 -0.6784
  211MPD1    C1 3257   4.445   2.991  15.367 -0.4936 -0.3844 -0.7999
  211MPD1    C2 3258   4.467   3.039  15.495  0.1057 -0.0916 -0.0262
  211MPD1    C3 3259   4.585   3.017  15.563 -0.3822 -0.0497 -0.3297
  211MPD1    C4 3260   4.685   2.947  15.502  0.3826  0.2555  0.0768
  211MPD1    C5 3261   4.664   2.899  15.372  0.3740 -0.2271  0.1951
  211MPD1     H 3262   4.393   3.105  15.539  1.2450 -1.6564  4.2306
  211MPD1    H1 3263   0.043   2.929  15.549 -0.4794  0.9898  2.1277
  211MPD1    H2 3264   4.551   2.900  15.198  0.3161  2.0240 -0.9688
  211MPD1    H3 3265   0.008   2.844  15.326  0.4001  1.4358 -1.7144
  211MPD1     N 3266   4.591   3.078  15.690  0.4732 -0.0882  0.4144
  211MPD1    H5 3267   4.513   3.135  15.724  0.8355  0.0016  1.1046
  211MPD1    N1 3268   4.324   3.012  15.300 -0.3589 -0.0070 -0.6979
  211MPD1    H6 3269   4.292   2.943  15.232  1.7788 -1.7908  0.1034
  211MPD1    H7 3270   4.244   3.029  15.360 -1.2783  0.2573 -2.0028
  212MPD1     C 3271   4.295   2.103  16.869  0.5322 -0.6310 -0.1334
  212MPD1    C1 3272   4.318   1.992  16.784  0.3308  0.2998 -0.3810
  212MPD1    C2 3273   4.307   1.864  16.830 -0.2030  0.1216  0.5059
  212MPD1    C3 3274   4.315   1.842  16.962 -0.0343 -0.0964 -0.3423
  212MPD1    C4 3275   4.320   1.948  17.047  0.4628 -0.3497  0.6019
  212MPD1    C5 3276   4.298   2.074  17.001 -0.4553 -0.7280 -0.2419
  212MPD1     H 3277   4.289   1.789  16.753  0.9383 -1.0941  1.4189
  212MPD1    H1 3278   4.335   1.938  17.153 -0.1287 -4.1659  0.3074
  212MPD1    H2 3279   4.280   2.207  16.843 -1.4835 -0.7181  0.6720
  212MPD1    H3 3280   4.288   2.154  17.073  1.2334 -0.2797 -0.5086
  212MPD1     N 3281   4.300   1.714  17.017 -0.2395  0.2002 -0.3500
  212MPD1    H5 3282   4.297   1.713  17.118 -1.3719  4.1524 -0.3495
  212MPD1    N1 3283   4.303   2.022  16.644 -0.0400 -0.4448  0.2319
  212MPD1    H6 3284   4.338   1.954  16.576 -1.5936  1.8906 -2.9078
  212MPD1    H7 3285   4.352   2.111  16.635  1.5674 -1.2716  0.8334
  213MPD1     C 3286   2.645   1.787  15.647  0.1827  0.0177 -0.6593
  213MPD1    C1 3287   2.530   1.725  15.704 -0.0453 -0.4988 -0.9368
  213MPD1    C2 3288   2.424   1.806  15.699  0.0487 -0.7559 -0.4756
  213MPD1    C3 3289   2.410   1.911  15.606  0.0730 -0.1251  0.1094
  213MPD1    C4 3290   2.524   1.948  15.532 -0.1273 -0.0257  0.6536
  213MPD1    C5 3291   2.641   1.889  15.561 -0.4633  0.6837 -0.6354
  213MPD1     H 3292   2.336   1.782  15.758  0.1019  1.3581  0.4438
  213MPD1    H1 3293   2.516   2.020  15.451  0.5588 -0.5850  0.0894
  213MPD1    H2 3294   2.745   1.749  15.661 -0.2641 -1.4211 -1.4084
  213MPD1    H3 3295   2.732   1.908  15.506  1.0238  0.3647  1.7390
  213MPD1     N 3296   2.277   1.965  15.589  0.1349 -0.0981  0.1427
  213MPD1    H5 3297   2.202   1.920  15.640  0.0144 -0.3875 -0.2824
  213MPD1    N1 3298   2.549   1.642  15.815 -0.5153 -0.2068 -0.4235
  213MPD1    H6 3299   2.464   1.589  15.833 -1.8778  1.5738 -1.6812
  213MPD1    H7 3300   2.627   1.577  15.806 -0.0866  0.4724 -1.4669
  214MPD1     C 3301   1.496   1.714  15.005 -0.9397 -0.1641 -0.1731
  214MPD1    C1 3302   1.558   1.657  15.111 -0.0582  0.1699 -0.3670
  214MPD1    C2 3303   1.654   1.734  15.176 -1.0160  0.7573  0.4199
  214MPD1    C3 3304   1.687   1.868  15.142  0.9169  0.1627 -0.0248
  214MPD1    C4 3305   1.624   1.924  15.032 -0.3415 -0.4659  0.2927
  214MPD1    C5 3306   1.533   1.844  14.965 -0.0881 -0.7782  0.0763
  214MPD1     H 3307   1.705   1.682  15.257 -0.4407  2.1510  0.9482
  214MPD1    H1 3308   1.656   2.020  14.994  1.9971 -1.8484 -1.2233
  214MPD1    H2 3309   1.427   1.664  14.938 -0.7782 -2.1417  1.1496
  214MPD1    H3 3310   1.469   1.881  14.885  3.6345  1.7807 -1.6963
  214MPD1     N 3311   1.785   1.941  15.207 -0.1403  0.0163  0.7140
  214MPD1    H5 3312   1.787   2.038  15.177  0.1086 -0.3059 -0.3230
  214MPD1    N1 3313   1.531   1.517  15.145 -0.1040 -0.0269  0.0865
  214MPD1    H6 3314   1.528   1.493  15.244  1.3835  0.4231  0.2366
  214MPD1    H7 3315   1.441   1.487  15.109  0.5923 -0.4895 -1.2998
  215MPD1     C 3316   2.804   3.545  11.087 -0.3480 -0.6203  0.0046
  215MPD1    C1 3317   2.837   3.618  11.204 -0.4592  0.1380 -0.4911
  215MPD1    C2 3318   2.738   3.673  11.276 -0.2675  0.1715 -0.8206
  215MPD1    C3 3319   2.602   3.653  11.249  0.1269 -0.4632 -0.8059
  215MPD1    C4 3320   2.570   3.593  11.131  0.3539  0.4263 -0.1088
  215MPD1    C5 3321   2.670   3.538  11.053 -0.2984  0.4593  0.4939
  215MPD1     H 3322   2.756   3.720  11.372  0.3813 -0.3110 -0.7118
  215MPD1    H1 3323   2.467   3.581  11.099  0.7837 -0.7236 -1.0753
  215MPD1    H2 3324   2.870   3.492  11.019  1.1629 -2.1026  2.6347
  215MPD1    H3 3325   2.648   3.481  10.964 -0.4329  1.7994 -0.3319
  215MPD1     N 3326   2.511   3.698  11.345 -0.4413  0.1590  0.1408
  215MPD1    H5 3327   2.542   3.746  11.429  0.6159 -1.6904  0.7892
  215MPD1    N1 3328   2.967   3.602  11.257 -0.2193  0.7890  0.6447
  215MPD1    H6 3329   3.040   3.580  11.189 -1.3571 -0.7445 -0.0799
  215MPD1    H7 3330   2.985   3.684  11.314 -3.5243  2.3280 -0.5068
  216MPD1     C 3331   4.622   1.335  17.434 -0.9634 -0.0620  0.2206
  216MPD1    C1 3332   4.484   1.327  17.439 -0.5394 -0.2905 -0.7454
  216MPD1    C2 3333   4.419   1.206  17.421 -0.6234  0.0541 -0.6924
  216MPD1    C3 3334   4.492   1.094  17.392 -0.0987 -0.1246  0.4980
  216MPD1    C4 3335   4.633   1.102  17.391 -0.0873  0.6310 -0.2937
  216MPD1    C5 3336   4.693   1.222  17.413 -0.0202 -0.3001 -0.3029
  216MPD1     H 3337   4.311   1.209  17.412 -0.5608  0.4805 -1.3192
  216MPD1    H1 3338   4.704   1.022  17.381 -3.6320 -2.7989  1.8045
  216MPD1    H2 3339   4.666   1.429  17.465  0.0196 -0.6192  0.5186
  216MPD1    H3 3340   0.063   1.226  17.411  0.0023 -0.2513  0.8060
  216MPD1     N 3341   4.419   0.975  17.373 -0.6219 -0.7663  0.4252
  216MPD1    H5 3342   4.318   0.982  17.386 -0.5226 -1.2746  1.4774
  216MPD1    N1 3343   4.403   1.444  17.444  0.5435  0.5687 -0.1898
  216MPD1    H6 3344   4.314   1.418  17.485 -0.2618  0.2686 -2.1933
  216MPD1    H7 3345   4.443   1.525  17.491  2.0579  0.0264 -0.5487
  217MPD1     C 3346   4.300   3.925   8.782  0.3985  0.0591 -0.3293
  217MPD1    C1 3347   4.260   3.810   8.834  0.2551  0.3915  0.2276
  217MPD1    C2 3348   4.352   3.736   8.903 -0.7001  0.2494  0.0137
  217MPD1    C3 3349   4.468   3.792   8.951 -0.5110  0.0130  0.0839
  217MPD1    C4 3350   4.505   3.920   8.911  0.2911 -0.2676 -0.2412
  217MPD1    C5 3351   4.416   3.985   8.827  0.1792  0.2195 -0.0333
  217MPD1     H 3352   4.320   3.639   8.939  3.9430 -0.2973  2.6115
  217MPD1    H1 3353   4.600   3.966   8.939 -0.0351  0.0283  0.3924
  217MPD1    H2 3354   4.232   3.978   8.714  0.6077  3.1354  1.8502
  217MPD1    H3 3355   4.451   4.078   8.784 -0.0264 -0.4819 -1.7385
  217MPD1     N 3356   4.557   3.725   9.038  0.3166 -0.0564  0.0802
  217MPD1    H5 3357   4.627   3.783   9.083 -1.5746  0.0955  2.8110
  217MPD1    N1 3358   4.141   3.757   8.788  0.4614  0.7778  0.5082
  217MPD1    H6 3359   4.070   3.817   8.747 -3.2087 -1.8388  2.9488
  217MPD1    H7 3360   4.086   3.700   8.852  0.7939  2.7250  2.5367
  218MPD1     C 3361   2.188   4.069  13.314 -0.1566  0.2832 -0.1273
  218MPD1    C1 3362   2.152   3.948  13.358 -0.1157 -0.1199 -0.2294
  218MPD1    C2 3363   2.125   3.844  13.267 -0.5821 -0.0799  0.0119
  218MPD1    C3 3364   2.164   3.856  13.136  0.1687 -0.1477  0.0271
  218MPD1    C4 3365   2.216   3.978  13.095 -0.1403 -0.9006  1.1185
  218MPD1    C5 3366   2.222   4.084  13.183  0.2538  0.1894  0.4776
  218MPD1     H 3367   2.087   3.748  13.302 -0.7428  0.5568  1.5462
  218MPD1    H1 3368   2.250   3.999  12.994  1.2175 -0.2675  1.7035
  218MPD1    H2 3369   2.187   4.154  13.382  2.2354  0.4241 -0.2377
  218MPD1    H3 3370   2.249   4.181  13.142 -1.8197 -0.0812 -1.5540
  218MPD1     N 3371   2.150   3.746  13.049  0.0587 -0.4902  0.4993
  218MPD1    H5 3372   2.093   3.669  13.083  1.7308 -1.6231  0.6978
  218MPD1    N1 3373   2.103   3.937  13.487 -0.0299 -0.0990  0.0493
  218MPD1    H6 3374   2.155   3.992  13.555  0.7464 -0.0520 -0.5827
  218MPD1    H7 3375   2.106   3.839  13.514 -1.3149 -0.0418  0.4114
  219MPD1     C 3376   1.638   3.264  12.226 -0.2906  0.0633  0.2796
  219MPD1    C1 3377   1.608   3.362  12.317 -1.2360 -0.2004  0.0704
  219MPD1    C2 3378   1.711   3.408  12.393 -0.5134 -0.3807  0.3796
  219MPD1    C3 3379   1.835   3.354  12.395  0.0249 -0.1103  0.0072
  219MPD1    C4 3380   1.856   3.243  12.320  0.0401 -0.0216  0.7253
  219MPD1    C5 3381   1.759   3.198  12.236  0.6800 -0.5177 -0.1344
  219MPD1     H 3382   1.691   3.482  12.469 -0.6429 -0.0110 -0.0142
  219MPD1    H1 3383   1.956   3.203  12.309  0.1160  0.0695  1.0794
  219MPD1    H2 3384   1.569   3.231  12.149 -0.1104  1.0184 -0.2904
  219MPD1    H3 3385   1.783   3.113  12.174  1.0848  1.4907 -2.7339
  219MPD1     N 3386   1.943   3.391  12.482 -0.2165  0.3741 -0.6368
  219MPD1    H5 3387   2.027   3.335  12.476 -0.6076 -0.3000  0.0749
  219MPD1    N1 3388   1.496   3.442  12.289 -0.4914  1.0399 -0.1254
  219MPD1    H6 3389   1.423   3.388  12.242  0.6477 -3.3620  3.2366
  219MPD1    H7 3390   1.460   3.488  12.372 -1.1722 -0.1303  0.2297
  220MPD1     C 3391   1.624   4.733  10.159 -0.8361 -0.6327 -0.1057
  220MPD1    C1 3392   1.499   4.730  10.211  0.4533  0.2801  0.3881
  220MPD1    C2 3393   1.468   4.644  10.316  0.6379 -0.0666 -0.9680
  220MPD1    C3 3394   1.570   4.581  10.389 -0.6398  0.4079 -0.4699
  220MPD1    C4 3395   1.700   4.610  10.342 -0.0566 -0.0523 -0.2626
  220MPD1    C5 3396   1.731   4.676  10.227 -0.4913 -0.5686  0.0078
  220MPD1     H 3397   1.366   4.627  10.347  0.6119  0.1284 -0.9502
  220MPD1    H1 3398   1.787   4.567  10.392 -0.9504 -0.0281  1.3069
  220MPD1    H2 3399   1.656   0.054  10.074  2.0970 -1.5323  0.3825
  220MPD1    H3 3400   1.833   4.673  10.190 -0.4981 -1.1761  0.0346
  220MPD1     N 3401   1.534   4.495  10.499  0.0570 -0.2442 -0.1637
  220MPD1    H5 3402   1.440   4.475  10.531  0.2712 -0.7778  0.1420
  220MPD1    N1 3403   1.400   0.054  10.136  0.5170 -0.1700 -0.3066
  220MPD1    H6 3404   1.330   0.098  10.196  1.2800  1.1584 -0.3800
  220MPD1    H7 3405   1.441   0.133  10.087  0.0363 -0.0575 -0.5280
  221MPD1     C 3406   4.367   3.347  17.234  0.5179 -0.1213  0.0588
  221MPD1    C1 3407   4.264   3.256  17.202 -0.2395 -0.2443 -0.1471
  221MPD1    C2 3408   4.281   3.192  17.082  0.3724  0.0023 -0.2414
  221MPD1    C3 3409   4.398   3.209  17.007  0.3554 -0.0160  0.4305
  221MPD1    C4 3410   4.497   3.294  17.043 -0.1609  0.2719  0.0106
  221MPD1    C5 3411   4.478   3.367  17.156  0.1366  0.0055  0.2626
  221MPD1     H 3412   4.197   3.141  17.036  1.6329  0.5081 -3.0746
  221MPD1    H1 3413   4.588   3.319  16.990  0.7410  0.3711  1.6002
  221MPD1    H2 3414   4.355   3.389  17.334  1.4163  1.6386 -0.5733
  221MPD1    H3 3415   4.555   3.429  17.198 -0.3825  1.8260 -1.4909
  221MPD1     N 3416   4.415   3.137  16.888 -0.4063  0.2310 -0.5523
  221MPD1    H5 3417   4.500   3.162  16.839 -0.5166  4.0108  1.1321
  221MPD1    N1 3418   4.146   3.238  17.273 -0.8660  0.2662 -0.2718
  221MPD1    H6 3419   4.126   3.138  17.274 -2.0565  0.5000 -0.3566
  221MPD1    H7 3420   4.161   3.257  17.372  1.4062  0.6029 -0.6857
  222MPD1     C 3421   2.725   1.887   0.857 -0.4924 -0.1265 -0.3026
  222MPD1    C1 3422   2.746   1.801   0.960 -0.1287  0.0754 -0.5309
  222MPD1    C2 3423   2.870   1.803   1.020  0.4319  0.0370 -0.3465
  222MPD1    C3 3424   2.980   1.861   0.956  0.4148 -0.9068 -0.0880
  222MPD1    C4 3425   2.965   1.941   0.844  0.0858 -0.1739  0.0315
  222MPD1    C5 3426   2.832   1.951   0.798  0.7927 -0.4894  0.0183
  222MPD1     H 3427   2.897   1.753   1.112 -1.0649 -0.8209 -0.3839
  222MPD1    H1 3428   3.043   1.986   0.784  1.0063 -2.0837 -0.2202
  222MPD1    H2 3429   2.632   1.900   0.802  0.2010 -1.8813 -1.8955
  222MPD1    H3 3430   2.813   2.021   0.717 -0.8104 -1.4051 -0.3778
  222MPD1     N 3431   3.112   1.861   1.011 -0.4195  0.0329 -0.4389
  222MPD1    H5 3432   3.186   1.915   0.968  0.5933 -0.9487  0.0522
  222MPD1    N1 3433   2.638   1.739   1.029  0.0187  0.3844  0.7779
  222MPD1    H6 3434   2.556   1.724   0.970  0.1522 -1.0171  0.9502
  222MPD1    H7 3435   2.661   1.653   1.078 -3.3697 -2.2126 -2.0918
  223MPD1     C 3436   3.344   1.502   1.909  0.5102  0.6085  0.4581
  223MPD1    C1 3437   3.238   1.500   1.823  0.3854 -0.2344  0.5735
  223MPD1    C2 3438   3.259   1.556   1.703 -0.7823  0.2825  0.2096
  223MPD1    C3 3439   3.379   1.611   1.660 -0.4116  0.2409  0.1804
  223MPD1    C4 3440   3.485   1.604   1.744  0.6223  0.3825  0.1883
  223MPD1    C5 3441   3.468   1.556   1.872  0.4888  0.3199  0.5338
  223MPD1     H 3442   3.180   1.559   1.629  0.0713 -1.6759 -0.7996
  223MPD1    H1 3443   3.580   1.653   1.722  1.3112  0.6860  3.7672
  223MPD1    H2 3444   3.333   1.469   2.011 -1.9526  1.6197  0.5100
  223MPD1    H3 3445   3.550   1.562   1.942  0.3385  1.2233  0.6272
  223MPD1     N 3446   3.374   1.678   1.534  0.4344  0.2147  0.7445
  223MPD1    H5 3447   3.290   1.692   1.478 -1.1041 -1.6094  2.6226
  223MPD1    N1 3448   3.111   1.471   1.867 -0.1468 -0.0167 -0.0060
  223MPD1    H6 3449   3.115   1.395   1.934  1.1909  1.0055  1.0813
  223MPD1    H7 3450   3.060   1.435   1.787  0.4568  1.5988 -1.1387
  224MPD1     C 3451   1.667   2.910  10.621 -0.2526 -0.4140  0.1706
  224MPD1    C1 3452   1.590   2.798  10.590 -0.2568  0.2350 -0.1977
  224MPD1    C2 3453   1.511   2.806  10.478  0.3834 -0.4163  0.5875
  224MPD1    C3 3454   1.507   2.912  10.395  0.3935 -0.0815 -0.2482
  224MPD1    C4 3455   1.586   3.023  10.426  0.3205 -0.3516  0.0318
  224MPD1    C5 3456   1.668   3.017  10.538 -0.3014  0.4925 -0.0754
  224MPD1     H 3457   1.450   2.720  10.453 -1.7043  0.7539  1.7023
  224MPD1    H1 3458   1.598   3.108  10.360  2.4308  1.0259  2.2165
  224MPD1    H2 3459   1.740   2.904  10.701 -0.9192  0.6993  0.8445
  224MPD1    H3 3460   1.731   3.101  10.563  0.5907 -0.0294 -0.5637
  224MPD1     N 3461   1.408   2.929  10.295  0.3662 -0.3597  0.4649
  224MPD1    H5 3462   1.394   3.022  10.256  1.8948  0.1290  1.0848
  224MPD1    N1 3463   1.621   2.677  10.649  0.0011  0.1709  0.2798
  224MPD1    H6 3464   1.654   2.696  10.744 -1.0864 -0.5610  0.8057
  224MPD1    H7 3465   1.562   2.594  10.646  0.6044 -0.1540 -2.7581
  225MPD1     C 3466   2.040   4.343  12.413 -0.6624  0.1844  0.1702
  225MPD1    C1 3467   1.938   4.366  12.326 -0.2033  0.9603  0.0070
  225MPD1    C2 3468   1.811   4.346  12.369 -0.0488 -0.1155 -0.4502
  225MPD1    C3 3469   1.778   4.305  12.495 -0.5420 -0.3303  0.0096
  225MPD1    C4 3470   1.874   4.294  12.587 -0.9100  0.0416 -0.2199
  225MPD1    C5 3471   2.008   4.313  12.549  0.2925  0.0161 -0.3462
  225MPD1     H 3472   1.733   4.376  12.300  1.0968  0.7854 -1.3550
  225MPD1    H1 3473   1.851   4.264  12.688  0.9200 -2.1312 -0.4427
  225MPD1    H2 3474   2.136   4.372  12.370  0.1265 -1.5872  0.7205
  225MPD1    H3 3475   2.083   4.296  12.626 -1.1523  0.6827  1.2186
  225MPD1     N 3476   1.647   4.278  12.537  0.1987  0.1552 -0.3545
  225MPD1    H5 3477   1.630   4.279  12.637  1.9584 -1.9447 -0.0417
  225MPD1    N1 3478   1.961   4.415  12.198 -0.2356 -0.2977 -0.1220
  225MPD1    H6 3479   1.895   4.377  12.131 -0.1421 -1.2658  0.3347
  225MPD1    H7 3480   2.053   4.390  12.163 -0.1072 -1.8463  1.3208
  226MPD1     C 3481   4.042   4.068   8.290  0.3719  0.8269  0.2117
  226MPD1    C1 3482   4.002   3.951   8.357  0.5499 -0.0853 -0.8280
  226MPD1    C2 3483   4.110   3.871   8.400 -0.2554  0.0920 -0.0083
  226MPD1    C3 3484   4.243   3.903   8.389 -0.3414 -0.3030  0.0926
  226MPD1    C4 3485   4.277   4.023   8.324 -0.4827 -0.4640 -0.1686
  226MPD1    C5 3486   4.175   4.097   8.266 -0.4339  0.2693  0.0120
  226MPD1     H 3487   4.086   3.778   8.451  3.5879 -0.5286  0.6782
  226MPD1    H1 3488   4.377   4.063   8.309  0.3140 -2.1292  0.7014
  226MPD1    H2 3489   3.965   4.135   8.256  0.6418  1.1207  0.1790
  226MPD1    H3 3490   4.198   4.182   8.202 -1.5318  1.0253  0.6366
  226MPD1     N 3491   4.333   3.823   8.457 -0.2797  0.4157  0.0808
  226MPD1    H5 3492   4.289   3.737   8.487  1.3925  0.0178  1.4290
  226MPD1    N1 3493   3.875   3.898   8.344  0.1182 -0.1182 -0.2204
  226MPD1    H6 3494   3.859   3.824   8.412 -0.1165  0.0850 -0.0550
  226MPD1    H7 3495   3.803   3.970   8.344  2.5406  2.3407 -0.5047
  227MPD1     C 3496   0.374   3.683   9.189  0.1534 -0.1495  0.0175
  227MPD1    C1 3497   0.360   3.565   9.130  0.0622 -0.4167 -0.4918
  227MPD1    C2 3498   0.283   3.552   9.015 -0.6408  0.2421  0.0586
  227MPD1    C3 3499   0.221   3.665   8.964 -0.2735  0.0719 -0.9441
  227MPD1    C4 3500   0.252   3.790   9.015 -0.2260  0.2665 -0.4593
  227MPD1    C5 3501   0.321   3.794   9.133 -0.6431  0.4716 -0.2206
  227MPD1     H 3502   0.269   3.449   8.984  0.7342  0.3999 -1.0592
  227MPD1    H1 3503   0.211   3.882   8.973 -1.1533  0.3622  0.6456
  227MPD1    H2 3504   0.438   3.691   9.276  0.6476 -0.0295 -0.3637
  227MPD1    H3 3505   0.334   3.895   9.172 -0.6866 -0.7635  3.0324
  227MPD1     N 3506   0.143   3.643   8.849  0.0556 -0.6747 -0.1204
  227MPD1    H5 3507   0.137   3.548   8.814 -0.9432 -0.9133  0.6908
  227MPD1    N1 3508   0.449   3.459   9.171  0.4159 -0.1410 -0.0945
  227MPD1    H6 3509   0.464   3.454   9.272  2.7029  1.3257 -0.3622
  227MPD1    H7 3510   0.434   3.362   9.147  1.0366  0.3372 -2.4213
  228MPD1     C 3511   3.310   2.390  13.849 -0.1432 -0.1524 -0.1422
  228MPD1    C1 3512   3.250   2.390  13.719 -0.1542  0.0458  0.7012
  228MPD1    C2 3513   3.221   2.263  13.663 -0.3045  0.6355  0.3488
  228MPD1    C3 3514   3.224   2.143  13.728 -0.0379 -0.1354  0.1608
  228MPD1    C4 3515   3.283   2.147  13.850 -0.2834 -0.1686  0.0589
  228MPD1    C5 3516   3.325   2.262  13.907 -0.1036  0.0602  0.0033
  228MPD1     H 3517   3.187   2.258  13.560 -0.7942 -1.7225  0.6379
  228MPD1    H1 3518   3.292   2.057  13.910  2.2743 -0.6313 -1.0301
  228MPD1    H2 3519   3.353   2.483  13.884  2.5524 -1.8077  0.9420
  228MPD1    H3 3520   3.380   2.251  14.000  0.1913 -0.5946 -0.2452
  228MPD1     N 3521   3.186   2.022  13.672 -0.0919  0.0435  0.3926
  228MPD1    H5 3522   3.141   2.035  13.582 -0.3083 -1.0225  0.3459
  228MPD1    N1 3523   3.254   2.503  13.637 -0.4041  0.0539  0.3874
  228MPD1    H6 3524   3.175   2.511  13.574 -0.6295  3.6794  1.1511
  228MPD1    H7 3525   3.257   2.591  13.689 -2.3647 -0.8601  2.0909
  229MPD1     C 3526   2.695   0.880  14.989  0.7705 -0.2931  0.3260
  229MPD1    C1 3527   2.733   0.780  14.896 -0.2999 -0.3360 -0.0738
  229MPD1    C2 3528   2.822   0.684  14.954  0.4039 -0.7289 -0.4386
  229MPD1    C3 3529   2.848   0.678  15.087  0.3528  0.0082  0.0546
  229MPD1    C4 3530   2.783   0.759  15.176  0.0201  0.2652 -0.2737
  229MPD1    C5 3531   2.711   0.858  15.126 -0.4236  0.1109 -0.1499
  229MPD1     H 3532   2.846   0.604  14.885  0.8141 -2.0027  1.1881
  229MPD1    H1 3533   2.823   0.767  15.277 -3.6528  2.9850  0.9507
  229MPD1    H2 3534   2.618   0.950  14.961  0.4894 -0.1413  1.4742
  229MPD1    H3 3535   2.672   0.939  15.187 -0.6605 -1.2209  1.4654
  229MPD1     N 3536   2.941   0.584  15.140  0.1590  0.0308  0.0095
  229MPD1    H5 3537   2.947   0.575  15.241  1.8821  1.3600  0.0217
  229MPD1    N1 3538   2.681   0.779  14.764 -0.5089  0.1115 -0.0835
  229MPD1    H6 3539   2.667   0.870  14.721 -0.3169 -0.7456 -1.9379
  229MPD1    H7 3540   2.715   0.708  14.700 -1.5309 -0.9959  0.6007
  230MPD1     C 3541   3.108   0.376  16.023  0.6961 -0.3510 -0.0021
  230MPD1    C1 3542   3.207   0.294  15.980  0.1535 -0.0752  0.6529
  230MPD1    C2 3543   3.249   0.302  15.850  0.6831  0.4128  0.3802
  230MPD1    C3 3544   3.174   0.376  15.758 -0.0463 -0.2535 -0.0106
  230MPD1    C4 3545   3.071   0.455  15.804 -0.3190 -0.3303  0.0706
  230MPD1    C5 3546   3.036   0.450  15.933 -0.2501  0.6436 -0.0577
  230MPD1     H 3547   3.330   0.242  15.810  1.1048 -0.2151  2.1692
  230MPD1    H1 3548   3.015   0.515  15.734 -2.7558 -2.3891  0.2766
  230MPD1    H2 3549   3.074   0.385  16.126  0.9904 -0.3436  0.0921
  230MPD1    H3 3550   2.951   0.509  15.963  1.0297  2.1114  0.6785
  230MPD1     N 3551   3.210   0.372  15.619  0.1549  0.2291  0.6702
  230MPD1    H5 3552   3.287   0.309  15.598 -0.7589 -1.1056  1.3079
  230MPD1    N1 3553   3.291   0.231  16.078  0.4802  0.2903 -0.4527
  230MPD1    H6 3554   3.218   0.210  16.146  0.5859 -0.5062 -0.5888
  230MPD1    H7 3555   3.324   0.147  16.032 -4.8904 -1.4884 -1.1367
  231MPD1     C 3556   1.548   2.335  15.737 -0.1517 -0.5776  0.4328
  231MPD1    C1 3557   1.479   2.338  15.615 -0.7060  0.8839 -0.4044
  231MPD1    C2 3558   1.531   2.426  15.514  0.2611 -0.0742  0.3070
  231MPD1    C3 3559   1.630   2.514  15.543  0.0039  0.2199  0.8588
  231MPD1    C4 3560   1.688   2.513  15.666  0.2298  0.3453  0.4110
  231MPD1    C5 3561   1.647   2.426  15.761 -0.4953 -0.3546  0.2367
  231MPD1     H 3562   1.472   2.426  15.423 -0.6432 -2.2780  0.8937
  231MPD1    H1 3563   1.773   2.567  15.706  0.1226  1.1178 -0.4195
  231MPD1    H2 3564   1.520   2.268  15.818 -1.1643  1.2684  1.6101
  231MPD1    H3 3565   1.690   2.424  15.861  0.4839  1.8832 -0.1476
  231MPD1     N 3566   1.686   2.595  15.433 -0.1823 -0.0253 -0.2577
  231MPD1    H5 3567   1.643   2.596  15.340  0.6511 -1.5124 -0.6556
  231MPD1    N1 3568   1.376   2.245  15.585  0.8022  0.3740  0.0577
  231MPD1    H6 3569   1.324   2.258  15.498 -1.1291 -2.1161  0.8416
  231MPD1    H7 3570   1.310   2.220  15.659  2.4733  0.3233  1.5189
  232MPD1     C 3571   3.885   4.660   0.450 -0.6199  0.2262  0.3798
  232MPD1    C1 3572   3.807   0.035   0.425  0.3536  1.2994  0.1992
  232MPD1    C2 3573   3.688   0.006   0.362 -0.5693  0.5801  0.8844
  232MPD1    C3 3574   3.649   4.611   0.330 -0.0474 -0.7768 -0.0153
  232MPD1    C4 3575   3.730   4.509   0.363  0.3218  0.3044  0.4513
  232MPD1    C5 3576   3.846   4.532   0.419  1.0794 -0.2051 -0.0801
  232MPD1     H 3577   3.622   0.090   0.338  0.5231  0.8352 -1.2137
  232MPD1    H1 3578   3.717   4.407   0.331  1.5427  1.3439 -3.3242
  232MPD1    H2 3579   3.979   4.669   0.504 -1.7907 -1.4621  2.7180
  232MPD1    H3 3580   3.917   4.454   0.442 -0.2502 -1.0464  1.1175
  232MPD1     N 3581   3.526   4.583   0.264  0.0494  0.3252 -0.0946
  232MPD1    H5 3582   3.474   4.666   0.240  1.2012  1.0061 -0.2631
  232MPD1    N1 3583   3.850   0.168   0.456 -0.0822  0.2476  0.1673
  232MPD1    H6 3584   3.770   0.227   0.479 -2.1753 -2.2781 -0.5474
  232MPD1    H7 3585   3.917   0.172   0.533  2.2227 -1.0584 -1.7696
  233MPD1     C 3586   3.559   2.573   1.760 -0.2750  0.2113  0.4611
  233MPD1    C1 3587   3.619   2.693   1.728 -0.6307 -0.0229  0.4076
  233MPD1    C2 3588   3.762   2.697   1.704 -0.0172  0.4319  0.4692
  233MPD1    C3 3589   3.838   2.578   1.715 -0.0114 -0.7600 -0.2417
  233MPD1    C4 3590   3.775   2.465   1.762 -0.6399  0.3867  0.5288
  233MPD1    C5 3591   3.636   2.461   1.784 -0.0730 -0.0621  0.6413
  233MPD1     H 3592   3.812   2.790   1.680 -1.7917  1.5200  1.0803
  233MPD1    H1 3593   3.836   2.376   1.775 -0.7889 -0.0076 -1.5088
  233MPD1    H2 3594   3.452   2.567   1.781 -0.2122 -2.8909 -0.0650
  233MPD1    H3 3595   3.590   2.364   1.800 -1.6544  0.9544  2.1841
  233MPD1     N 3596   3.977   2.563   1.687 -0.2772  0.0481 -0.3214
  233MPD1    H5 3597   4.024   2.475   1.703 -2.0856 -0.7742  0.5298
  233MPD1    N1 3598   3.547   2.813   1.748  0.4207 -0.9996 -0.2829
  233MPD1    H6 3599   3.582   2.897   1.703 -1.1983  0.0651  0.4748
  233MPD1    H7 3600   3.450   2.800   1.718  0.2339 -2.6869  1.0667
  234MPD1     C 3601   0.017   1.783   9.677  0.3561 -0.4716  0.7429
  234MPD1    C1 3602   0.154   1.806   9.681 -0.1317 -0.1298 -0.8973
  234MPD1    C2 3603   0.200   1.924   9.628  0.0466 -0.2838 -0.1558
  234MPD1    C3 3604   0.122   2.030   9.590 -0.5154  0.0017 -0.3702
  234MPD1    C4 3605   4.726   2.010   9.602 -0.0802  0.8451  0.6688
  234MPD1    C5 3606   4.675   1.890   9.648 -0.2618 -0.0837  0.2995
  234MPD1     H 3607   0.308   1.934   9.624 -0.1435  1.9054  0.3566
  234MPD1    H1 3608   4.653   2.078   9.560 -0.3624 -0.1629 -0.4686
  234MPD1    H2 3609   4.708   1.696   9.722 -1.2742 -1.0907 -2.1890
  234MPD1    H3 3610   4.568   1.878   9.649 -0.0017 -2.5207 -0.0589
  234MPD1     N 3611   0.183   2.149   9.560  0.3690  1.0993  0.4251
  234MPD1    H5 3612   0.284   2.151   9.562  0.3789  0.9966 -0.0528
  234MPD1    N1 3613   0.243   1.701   9.723 -0.1261  0.2006  0.2923
  234MPD1    H6 3614   0.340   1.727   9.740 -1.0159  1.4719  3.3471
  234MPD1    H7 3615   0.202   1.639   9.793 -0.9961 -0.1938 -0.5598
  235MPD1     C 3616   2.194   0.486  11.564  0.3757  0.3447 -0.3713
  235MPD1    C1 3617   2.333   0.479  11.587  0.3330 -0.0871 -0.2822
  235MPD1    C2 3618   2.405   0.448  11.477  0.3190 -0.3720 -0.2452
  235MPD1    C3 3619   2.355   0.409  11.354 -0.8486 -0.1877  0.4818
  235MPD1    C4 3620   2.218   0.403  11.344 -0.4647 -0.6888  0.3542
  235MPD1    C5 3621   2.136   0.445  11.448 -0.3746 -0.0958 -0.1218
  235MPD1     H 3622   2.513   0.451  11.484  0.1973  0.8033  1.2912
  235MPD1    H1 3623   2.168   0.370  11.254  0.0118  1.4464 -0.6888
  235MPD1    H2 3624   2.130   0.517  11.646  1.2866  1.2837 -0.0214
  235MPD1    H3 3625   2.028   0.439  11.442 -0.1892 -0.7767 -2.8242
  235MPD1     N 3626   2.439   0.380  11.243 -0.5969  0.5345  0.4471
  235MPD1    H5 3627   2.538   0.388  11.262 -0.6985 -2.4494  2.1686
  235MPD1    N1 3628   2.396   0.485  11.715  0.2581 -0.6721 -0.2564
  235MPD1    H6 3629   2.374   0.402  11.770  0.5580  0.1649  1.1338
  235MPD1    H7 3630   2.357   0.554  11.779  0.8261  1.5238 -2.3374
  236MPD1     C 3631   1.141   1.098  10.042 -0.7421  0.0453  0.0827
  236MPD1    C1 3632   1.208   0.977  10.012  0.4264 -0.4456 -0.2503
  236MPD1    C2 3633   1.322   0.945  10.089 -0.8276  1.4281 -0.2694
  236MPD1    C3 3634   1.378   1.036  10.176  0.4690 -0.0869  0.6021
  236MPD1    C4 3635   1.318   1.164  10.192  0.6171 -0.1453  0.6295
  236MPD1    C5 3636   1.198   1.188  10.130 -0.5355 -0.1521  0.5076
  236MPD1     H 3637   1.363   0.846  10.073 -0.8302  1.2169  0.9902
  236MPD1    H1 3638   1.348   1.240  10.264  0.5517 -3.2163  3.8788
  236MPD1    H2 3639   1.056   1.142   9.990 -1.4514  0.3454  1.4929
  236MPD1    H3 3640   1.139   1.275  10.154 -0.5515  0.5467 -2.1137
  236MPD1     N 3641   1.499   1.006  10.245  0.3184 -0.3327 -0.4404
  236MPD1    H5 3642   1.526   1.073  10.315 -0.8477 -2.0146  1.6173
  236MPD1    N1 3643   1.145   0.876   9.941 -0.0614  0.2779 -0.2262
  236MPD1    H6 3644   1.084   0.913   9.868 -0.4334 -0.5974 -0.3650
  236MPD1    H7 3645   1.211   0.804   9.911  0.3868  1.8538 -3.0481
  237MPD1     C 3646   2.023   3.858  15.531 -0.4285 -0.1755  0.3858
  237MPD1    C1 3647   1.917   3.931  15.490 -0.0912 -0.0488 -0.2099
  237MPD1    C2 3648   1.795   3.871  15.477  0.8069 -0.0588  0.6341
  237MPD1    C3 3649   1.782   3.735  15.499  0.3232 -0.1465  0.8425
  237MPD1    C4 3650   1.893   3.660  15.545  0.4361 -0.4029  0.3087
  237MPD1    C5 3651   2.011   3.726  15.561  0.0709  0.2549  0.2184
  237MPD1     H 3652   1.723   3.937  15.429  1.5708  1.4138  1.4782
  237MPD1    H1 3653   1.895   3.552  15.555 -1.2251 -0.4584  0.0993
  237MPD1    H2 3654   2.120   3.906  15.538 -0.3074 -0.1889 -1.2461
  237MPD1    H3 3655   2.100   3.675  15.598  0.6984  1.2161  0.0282
  237MPD1     N 3656   1.655   3.673  15.481  0.1122 -0.0189  0.1729
  237MPD1    H5 3657   1.642   3.576  15.508  0.3100 -0.4427 -1.2171
  237MPD1    N1 3658   1.931   4.063  15.440  0.1832  0.0933  0.2664
  237MPD1    H6 3659   1.853   4.115  15.480  0.7555  0.4106  0.9679
  237MPD1    H7 3660   2.018   4.106  15.472  0.0106 -0.6586  1.7507
  238MPD1     C 3661   3.948   2.066  15.427 -0.8639 -0.0440  0.6572
  238MPD1    C1 3662   3.903   1.976  15.334 -0.9393  0.2307  0.3690
  238MPD1    C2 3663   3.787   2.006  15.274  1.3905  0.2535 -0.3339
  238MPD1    C3 3664   3.691   2.085  15.346 -0.0338  0.3561 -0.0584
  238MPD1    C4 3665   3.735   2.162  15.450 -0.5540 -0.3503 -0.2319
  238MPD1    C5 3666   3.864   2.158  15.488 -0.1921  0.1227  0.4421
  238MPD1     H 3667   3.742   1.947  15.194 -1.1149 -2.2491  2.8917
  238MPD1    H1 3668   3.667   2.239  15.484  1.1444  0.8388  0.5314
  238MPD1    H2 3669   4.048   2.062  15.467 -0.0603 -2.4880 -1.5689
  238MPD1    H3 3670   3.893   2.232  15.562 -0.9853  0.0124  0.8650
  238MPD1     N 3671   3.563   2.100  15.299  0.0045  0.1273 -0.4000
  238MPD1    H5 3672   3.489   2.135  15.360  0.9097 -0.6742  1.1387
  238MPD1    N1 3673   4.002   1.890  15.275 -0.3307 -0.3765  0.1517
  238MPD1    H6 3674   3.968   1.803  15.234 -2.5095 -0.8277  2.8502
  238MPD1    H7 3675   4.070   1.872  15.348  0.6046 -1.6235 -1.0590
  239MPD1     C 3676   3.668   3.239  15.050 -0.1107  0.2636  0.4762
  239MPD1    C1 3677   3.693   3.255  14.916  0.3135  0.5899  0.7468
  239MPD1    C2 3678   3.585   3.295  14.831 -0.3783 -0.1350  0.1892
  239MPD1    C3 3679   3.461   3.295  14.877 -0.7402 -0.0527  0.0238
  239MPD1    C4 3680   3.436   3.260  15.007 -0.0800  0.0507  0.6646
  239MPD1    C5 3681   3.539   3.231  15.095  0.2260  0.3790 -0.4193
  239MPD1     H 3682   3.603   3.308  14.725  0.3995  2.8710  0.7080
  239MPD1    H1 3683   3.338   3.266  15.054  0.3510  1.0679  1.4273
  239MPD1    H2 3684   3.745   3.206  15.119  0.3331  0.2528 -0.0335
  239MPD1    H3 3685   3.519   3.195  15.195  2.5414  2.8519  0.9176
  239MPD1     N 3686   3.348   3.346  14.805 -0.4262  0.3062 -0.3353
  239MPD1    H5 3687   3.254   3.335  14.840 -0.7546 -0.2831 -1.4182
  239MPD1    N1 3688   3.825   3.268  14.872 -0.5152  0.5629 -0.5849
  239MPD1    H6 3689   3.896   3.208  14.915 -0.3137  0.4489 -1.0704
  239MPD1    H7 3690   3.833   3.264  14.770 -0.2739  0.3753 -0.5610
  240MPD1     C 3691   3.356   3.034  14.397  0.2310  0.5603  0.1573
  240MPD1    C1 3692   3.366   3.059  14.531 -0.2169 -0.4316  0.4019
  240MPD1    C2 3693   3.279   3.000  14.620  0.3535  0.3834 -1.0137
  240MPD1    C3 3694   3.163   2.938  14.576  0.5476  0.3793  0.3095
  240MPD1    C4 3695   3.144   2.925  14.437 -0.3518  0.3475 -0.0008
  240MPD1    C5 3696   3.240   2.979  14.355  0.5572  0.3009 -0.3920
  240MPD1     H 3697   3.294   3.004  14.728 -0.9409 -0.5208 -0.7990
  240MPD1    H1 3698   3.062   2.868  14.394  1.0213 -1.9172  0.4169
  240MPD1    H2 3699   3.427   3.073  14.325 -0.6626  0.4982 -0.7482
  240MPD1    H3 3700   3.226   2.955  14.250 -1.1333 -1.6510  0.2964
  240MPD1     N 3701   3.082   2.857  14.665  0.0123  0.3975  0.2815
  240MPD1    H5 3702   3.105   2.874  14.763  1.2109 -1.7601  0.3725
  240MPD1    N1 3703   3.485   3.109  14.578  0.9648  0.1744  0.1292
  240MPD1    H6 3704   3.522   3.184  14.520 -1.0658 -0.2504 -1.7068
  240MPD1    H7 3705   3.470   3.143  14.672 -0.4446 -2.7647  0.9805
  241MPD1     C 3706   3.078   2.289  15.486  0.3897  0.0794  0.3767
  241MPD1    C1 3707   3.165   2.350  15.401 -0.1009 -0.0477  0.9988
  241MPD1    C2 3708   3.113   2.417  15.287  0.0688 -0.1828  0.0208
  241MPD1    C3 3709   2.975   2.421  15.256 -0.2814 -0.0186  0.6624
  241MPD1    C4 3710   2.890   2.356  15.345  0.2833  0.4410  0.3691
  241MPD1    C5 3711   2.945   2.283  15.451  0.2428 -0.6239 -0.4873
  241MPD1     H 3712   3.175   2.462  15.211 -1.9659  0.5495 -1.2047
  241MPD1    H1 3713   2.783   2.344  15.334  0.2229  1.1314  0.2213
  241MPD1    H2 3714   3.107   2.230  15.572 -3.0452 -1.2383  0.6480
  241MPD1    H3 3715   2.873   2.220  15.501  1.9914  0.0186  2.8455
  241MPD1     N 3716   2.923   2.476  15.138 -0.4910  0.3774 -0.7020
  241MPD1    H5 3717   2.822   2.488  15.136 -0.7128 -1.1582  1.7052
  241MPD1    N1 3718   3.296   2.376  15.450 -0.1326 -0.2667 -0.2025
  241MPD1    H6 3719   3.336   2.294  15.495  1.3789  1.6997  2.0044
  241MPD1    H7 3720   3.363   2.414  15.383  0.9517  2.3763  2.3869
  242MPD1     C 3721   2.245   1.028  16.357 -1.3714 -0.4234 -0.1277
  242MPD1    C1 3722   2.167   1.003  16.247  0.6743  0.5419  0.2581
  242MPD1    C2 3723   2.231   0.984  16.130  0.0273  0.1726  0.4735
  242MPD1    C3 3724   2.362   1.010  16.103 -0.3340 -0.2895 -0.4345
  242MPD1    C4 3725   2.435   1.054  16.213  0.1117 -0.1846 -0.1394
  242MPD1    C5 3726   2.378   1.062  16.337 -0.2436 -0.2180  0.3828
  242MPD1     H 3727   2.169   0.951  16.047  1.6205  2.6812 -1.6969
  242MPD1    H1 3728   2.542   1.072  16.210 -0.0008  0.6696  1.1018
  242MPD1    H2 3729   2.200   1.030  16.455 -1.7719  2.4570 -0.3738
  242MPD1    H3 3730   2.442   1.086  16.421  2.1607 -0.6641 -1.3052
  242MPD1     N 3731   2.431   0.992  15.982  0.0700  0.2120  0.3618
  242MPD1    H5 3732   2.531   1.010  15.982  0.2808 -1.0235 -3.4120
  242MPD1    N1 3733   2.032   0.976  16.258  0.1612  0.5591  1.0525
  242MPD1    H6 3734   1.990   1.019  16.340 -2.4040 -0.7106  0.3720
  242MPD1    H7 3735   1.971   1.006  16.183  0.0302  0.0150  0.9463
  243MPD1     C 3736   4.060   4.690  17.554  0.4931  0.2959 -0.1244
  243MPD1    C1 3737   4.191   4.684  17.497 -0.0385 -0.3033  0.0857
  243MPD1    C2 3738   4.231   4.562  17.448  0.3630 -0.2005 -0.1783
  243MPD1    C3 3739   4.156   4.447  17.462 -0.1846 -0.5633  0.6061
  243MPD1    C4 3740   4.040   4.454  17.531  0.3296 -0.4300 -0.6402
  243MPD1    C5 3741   3.998   4.573  17.581  0.4062  0.2230 -0.6123
  243MPD1     H 3742   4.326   4.560  17.396  0.9324 -2.9378  0.9656
  243MPD1    H1 3743   3.990   4.360  17.552  1.3927 -0.5671  1.3005
  243MPD1    H2 3744   4.011   0.042  17.589 -1.6664 -1.1805  0.6849
  243MPD1    H3 3745   3.902   4.569  17.630  0.1759  0.6998 -1.0216
  243MPD1     N 3746   4.205   4.324  17.405 -0.1537 -0.4845  0.3330
  243MPD1    H5 3747   4.286   4.336  17.344 -1.1353 -2.2793 -1.3041
  243MPD1    N1 3748   4.263   0.064  17.469 -0.0441  0.1077 -0.3239
  243MPD1    H6 3749   4.361   0.036  17.471  0.0792  0.5344 -0.4599
  243MPD1    H7 3750   4.250   0.133  17.543  1.0915 -1.1777  1.0810
  244MPD1     C 3751   4.233   3.328  17.651 -0.4345  0.2195 -0.0137
  244MPD1    C1 3752   4.124   3.414  17.647 -0.3399  0.1713 -0.0180
  244MPD1    C2 3753   4.140   3.538  17.599 -0.4814  0.0784 -0.2126
  244MPD1    C3 3754   4.270   3.577  17.564 -0.0205  0.1395  0.0221
  244MPD1    C4 3755   4.369   3.485  17.549  0.7574 -0.1809  0.3370
  244MPD1    C5 3756   4.355   3.356  17.599  0.3390  0.6744  0.2994
  244MPD1     H 3757   4.061   3.613  17.606 -0.4044  0.1585 -0.1990
  244MPD1    H1 3758   4.467   3.509  17.509  1.0636 -0.6309  0.8030
  244MPD1    H2 3759   4.230   3.229  17.694  0.4645 -0.8118 -2.3531
  244MPD1    H3 3760   4.432   3.282  17.583  0.8725  1.7470 -2.1499
  244MPD1     N 3761   4.281   3.709  17.518 -0.2673  1.0192 -0.2165
  244MPD1    H5 3762   4.195   3.763  17.519 -1.5337 -1.0222  0.1640
  244MPD1    N1 3763   4.002   3.381  17.703 -0.5839 -0.0414 -0.6489
  244MPD1    H6 3764   3.924   3.428  17.658 -1.5631  0.2971  1.4129
  244MPD1    H7 3765   3.992   3.280  17.694 -1.2069 -0.1338  1.0046
  245MPD1     C 3766   0.932   0.301  13.306  0.1159  0.8625  0.9994
  245MPD1    C1 3767   0.968   0.296  13.437  0.2661 -0.3780 -0.5186
  245MPD1    C2 3768   1.022   0.406  13.498  0.1450  0.4466  0.3350
  245MPD1    C3 3769   1.046   0.518  13.424  0.5212 -0.8481  0.1373
  245MPD1    C4 3770   1.036   0.515  13.289 -0.0310 -0.5270  0.1908
  245MPD1    C5 3771   0.973   0.407  13.226 -0.6442  0.3488 -0.0192
  245MPD1     H 3772   1.036   0.413  13.605  0.6526  1.2635  0.2133
  245MPD1    H1 3773   1.065   0.600  13.229  0.0048 -1.2993 -0.8902
  245MPD1    H2 3774   0.881   0.219  13.256 -1.3784  1.9891  0.6831
  245MPD1    H3 3775   0.942   0.406  13.122  2.7162 -1.4806 -0.9932
  245MPD1     N 3776   1.103   0.622  13.492 -0.0764 -0.3442 -0.3503
  245MPD1    H5 3777   1.124   0.608  13.590 -1.3587  1.9277  0.2626
  245MPD1    N1 3778   0.935   0.183  13.510 -0.4556 -0.2924  0.2978
  245MPD1    H6 3779   0.995   0.167  13.591 -0.0741 -2.8073 -0.4788
  245MPD1    H7 3780   0.926   0.097  13.457 -3.8773  1.6919 -2.3182
  246MPD1     C 3781   2.615   2.926  10.638  0.4577  0.8778  1.2151
  246MPD1    C1 3782   2.556   2.807  10.667  0.3787  0.0643  0.1687
  246MPD1    C2 3783   2.539   2.716  10.566  0.4013  0.4025  0.8844
  246MPD1    C3 3784   2.575   2.739  10.434  0.1474  0.2760  0.1133
  246MPD1    C4 3785   2.647   2.860  10.409  0.8025  0.0292  0.6397
  246MPD1    C5 3786   2.661   2.947  10.509 -0.3941  0.3152  0.3438
  246MPD1     H 3787   2.491   2.622  10.589 -2.5266  1.5484 -0.6348
  246MPD1    H1 3788   2.677   2.898  10.312  0.6223 -2.2232 -0.3055
  246MPD1    H2 3789   2.623   3.008  10.709 -0.2697  0.0522  2.2584
  246MPD1    H3 3790   2.698   3.044  10.479 -0.0389  0.3709  0.9714
  246MPD1     N 3791   2.553   2.635  10.340  0.1907  0.6042 -0.7863
  246MPD1    H5 3792   2.497   2.557  10.374 -0.1553  2.0841  1.9780
  246MPD1    N1 3793   2.498   2.795  10.792 -1.0830  0.1832  0.1699
  246MPD1    H6 3794   2.484   2.699  10.821 -1.2753  0.2487  0.2962
  246MPD1    H7 3795   2.544   2.841  10.871 -4.1725 -0.0942  2.1157
  247MPD1     C 3796   0.700   0.571  16.985 -0.0620  0.4325  0.1385
  247MPD1    C1 3797   0.750   0.597  16.859 -0.1745  0.5356  0.6213
  247MPD1    C2 3798   0.739   0.498  16.758 -0.3316  0.1563  0.6865
  247MPD1    C3 3799   0.654   0.392  16.766 -0.1529  0.6687  0.1534
  247MPD1    C4 3800   0.595   0.375  16.893 -0.3140 -0.0312 -0.4266
  247MPD1    C5 3801   0.618   0.456  17.000  0.2279  0.3338  0.2480
  247MPD1     H 3802   0.799   0.512  16.669 -1.3650  1.9565  0.2678
  247MPD1    H1 3803   0.514   0.305  16.909  1.4884 -2.1207 -0.5125
  247MPD1    H2 3804   0.721   0.631  17.073  5.2868  2.8107 -2.7476
  247MPD1    H3 3805   0.572   0.436  17.096 -0.5066 -0.4691 -0.2783
  247MPD1     N 3806   0.630   0.293  16.665 -0.2949  0.3570  0.1269
  247MPD1    H5 3807   0.584   0.207  16.691 -1.0913  1.3528  1.9767
  247MPD1    N1 3808   0.839   0.704  16.842  0.2711 -0.4206  0.1292
  247MPD1    H6 3809   0.847   0.722  16.743 -2.8142  1.9045  0.3280
  247MPD1    H7 3810   0.815   0.792  16.887 -0.0569 -0.9324  0.9713
  248MPD1     C 3811   2.014   4.494   0.631 -0.2027 -0.0567 -0.1499
  248MPD1    C1 3812   2.047   4.572   0.732  0.1466  0.3611 -0.4405
  248MPD1    C2 3813   1.947   4.631   0.805  0.1143 -0.1911 -0.4051
  248MPD1    C3 3814   1.818   4.594   0.790  0.2352  0.5850  0.5536
  248MPD1    C4 3815   1.787   4.507   0.686  0.6399  0.0784  0.6548
  248MPD1    C5 3816   1.886   4.462   0.603  0.0509 -0.4349 -0.0325
  248MPD1     H 3817   1.966   4.698   0.888  2.6801 -1.7965  0.2910
  248MPD1    H1 3818   1.687   4.471   0.669  0.4097  0.3881  1.3382
  248MPD1    H2 3819   2.094   4.453   0.571 -1.9166 -3.0158 -0.4303
  248MPD1    H3 3820   1.871   4.376   0.540  0.9813  0.6296 -1.7075
  248MPD1     N 3821   1.720   4.659   0.871  0.1029 -0.4859  0.8778
  248MPD1    H5 3822   1.759   4.716   0.945  0.6814 -2.2427  1.9378
  248MPD1    N1 3823   2.177   4.623   0.743  0.4508 -0.1637 -0.6112
  248MPD1    H6 3824   2.251   4.563   0.707  0.3035 -1.4744  1.2593
  248MPD1    H7 3825   2.195   4.663   0.834  1.4988  0.0066 -0.8952
  249MPD1     C 3826   4.388   0.030   9.971  0.7059  0.1900 -0.3705
  249MPD1    C1 3827   4.446   4.644   9.964  0.1942  0.1629  0.7366
  249MPD1    C2 3828   4.367   4.539   9.994 -0.3736 -0.3515 -0.3744
  249MPD1    C3 3829   4.238   4.550  10.049 -0.6719  0.0655  0.8708
  249MPD1    C4 3830   4.188   4.674  10.063 -0.2445 -0.7159  0.1994
  249MPD1    C5 3831   4.260   0.045  10.033  0.4901  0.7325 -0.2179
  249MPD1     H 3832   4.419   4.443   9.995 -0.2712 -0.2772  0.6077
  249MPD1    H1 3833   4.089   4.690  10.103 -1.0157 -0.9586 -1.6487
  249MPD1    H2 3834   4.434   0.120   9.931 -0.8902  1.3481  0.4000
  249MPD1    H3 3835   4.220   0.145  10.048  1.7683  1.3404 -0.8768
  249MPD1     N 3836   4.160   4.437  10.088 -0.3842  0.4809 -0.6417
  249MPD1    H5 3837   4.192   4.346  10.055 -1.8940 -1.0497  2.0955
  249MPD1    N1 3838   4.562   4.623   9.888 -0.3723  0.0238  0.1925
  249MPD1    H6 3839   4.609   4.542   9.928  2.1691  0.9224 -0.9608
  249MPD1    H7 3840   4.632   4.696   9.878 -0.7612  0.5523  1.3203
  250MPD2     C 3841   4.650   3.862  13.475 -0.6119 -0.0264 -0.7761
  250MPD2    C1 3842   4.544   3.958  13.485 -0.4655 -0.0954 -0.5133
  250MPD2    C2 3843   4.435   3.934  13.401 -0.1958 -1.2958  0.0914
  250MPD2    C3 3844   4.434   3.833  13.307 -0.5605  0.2548 -0.7318
  250MPD2    C4 3845   4.523   3.728  13.318  0.2546  0.3255  0.2164
  250MPD2    C5 3846   4.631   3.752  13.394 -0.4540 -0.3268 -0.4293
  250MPD2     H 3847   4.350   4.002  13.393  1.1708  0.5609  1.4796
  250MPD2    H1 3848   4.518   3.639  13.256  0.3820  0.1631  0.4381
  250MPD2    H2 3849   0.010   3.870  13.520 -0.9243 -1.7762  0.2119
  250MPD2    H3 3850   4.717   3.686  13.397  1.4238  2.0885 -1.2792
  250MPD2     N 3851   4.344   3.828  13.202  0.1740  0.5179 -0.0693
  250MPD2    H5 3852   4.363   3.767  13.123  2.4416  0.1445  0.7812
  250MPD2    N1 3853   4.569   4.071  13.560 -0.0835  0.3176 -0.2028
  250MPD2    H7 3854   4.659   4.079  13.607 -1.5893 -4.0691  3.4057
  251TMC3    C1 3855   4.528   4.306  13.566  0.5266 -0.4508  0.1253
  251TMC3    C2 3856   4.444   4.400  13.520  0.3895 -0.0965  0.4178
  251TMC3    C3 3857   4.489   4.509  13.450  0.3903 -0.5563  0.3410
  251TMC3    C4 3858   4.662   4.326  13.551 -0.4272 -0.1821  0.4988
  251TMC3    C5 3859   4.705   4.436  13.479 -0.2526  0.6053 -0.4356
  251TMC3    C6 3860   4.619   4.536  13.435  0.5897 -0.0364 -0.3407
  251TMC3     C 3861   4.477   4.171  13.575  0.3718  0.1890  0.0901
  251TMC3     O 3862   4.356   4.157  13.547  0.6046 -0.8233  0.5170
  251TMC3     H 3863   4.336   4.391  13.521  0.3448  0.6800  1.9946
  251TMC3    H1 3864   4.733   4.246  13.570  0.5222  0.5614  0.0706
  251TMC3    H2 3865   4.648   4.635  13.401  0.6051  0.6638  1.6745
  251TMC3    C7 3866   0.109   4.461  13.467 -0.5987  0.1086 -0.2245
  251TMC3    C8 3867   4.377   4.593  13.395  0.0015 -0.1132  0.3675
  251TMC3    O1 3868   0.177   4.389  13.539 -0.2965 -0.5151  0.2600
  251TMC3    O2 3869   4.276   4.609  13.464  0.0420  0.0847  0.3188
  252TMC3    C1 3870   3.668   0.823   9.729  0.6503 -0.4856  0.2999
  252TMC3    C2 3871   3.766   0.918   9.745  0.2579 -0.0347  0.0224
  252TMC3    C3 3872   3.870   0.884   9.827 -0.3740  0.8756 -0.7056
  252TMC3    C4 3873   3.672   0.693   9.780  0.1472  0.2825  0.0883
  252TMC3    C5 3874   3.773   0.668   9.867 -0.3748  0.3319  0.2457
  252TMC3    C6 3875   3.875   0.764   9.895 -0.1015 -0.1449  0.1266
  252TMC3     C 3876   3.551   0.879   9.661  0.0768 -0.3234  0.0632
  252TMC3     O 3877   3.572   0.990   9.607  0.0963  0.0421  0.4722
  252TMC3     H 3878   3.761   1.010   9.688  1.3551  0.1516  0.2255
  252TMC3    H1 3879   3.589   0.625   9.767  0.9594 -0.3254 -1.9041
  252TMC3    H2 3880   3.955   0.745   9.966 -0.1116 -1.0588 -0.1131
  252TMC3    C7 3881   3.765   0.532   9.933 -0.6546  0.5323 -0.7945
  252TMC3    C8 3882   3.980   0.980   9.829  0.2967  0.4636  0.6075
  252TMC3    O1 3883   3.668   0.464   9.900  0.1035  0.8791  0.5056
  252TMC3    O2 3884   3.987   1.057   9.737 -0.0822 -0.2045  0.2853
  253MPD2     C 3885   1.309   4.040  15.402 -0.3623  0.0968 -0.4919
  253MPD2    C1 3886   1.172   4.040  15.396  0.1818 -0.1608  0.4846
  253MPD2    C2 3887   1.096   3.993  15.500 -0.1822  0.0664  0.1278
  253MPD2    C3 3888   1.154   3.961  15.621  0.4232 -1.2764  0.6955
  253MPD2    C4 3889   1.288   3.956  15.624 -0.6751  0.8134 -0.0829
  253MPD2    C5 3890   1.368   3.993  15.518 -0.1153  0.1381 -0.2995
  253MPD2     H 3891   0.989   3.984  15.488  0.1737 -2.6981 -1.0223
  253MPD2    H1 3892   1.337   3.925  15.716 -2.0187 -1.2331 -0.0428
  253MPD2    H2 3893   1.379   4.055  15.321  0.7677  1.6214  0.7673
  253MPD2    H3 3894   1.472   3.968  15.534 -0.7952 -1.2740  1.8955
  253MPD2     N 3895   1.082   3.911  15.724 -0.3073 -0.0412  0.4098
  253MPD2    H5 3896   1.149   3.908  15.800  0.0545 -0.3145  0.0821
  253MPD2    N1 3897   1.098   4.075  15.283 -0.3586 -0.2817 -0.0743
  253MPD2    H7 3898   0.997   4.077  15.294 -0.2807  1.0707  0.3566
  254TMC3    C1 3899   0.920   3.884  15.879  0.7786 -0.3070  0.2657
  254TMC3    C2 3900   0.797   3.917  15.922  0.2492 -0.4966  0.2823
  254TMC3    C3 3901   0.783   3.918  16.064  0.0695  0.0928  0.7189
  254TMC3    C4 3902   1.028   3.837  15.958  0.3069  0.0467 -0.0200
  254TMC3    C5 3903   1.004   3.834  16.096  1.0065  0.2796 -0.1779
  254TMC3    C6 3904   0.886   3.881  16.148 -0.1282 -0.6864  0.1694
  254TMC3     C 3905   0.950   3.914  15.741 -0.1741  0.3010  0.6074
  254TMC3     O 3906   0.863   3.953  15.665  0.2648  0.0715  0.6564
  254TMC3     H 3907   0.729   3.968  15.855  1.5382 -0.5476 -1.0710
  254TMC3    H1 3908   1.116   3.789  15.917 -0.4150  0.8819 -2.5631
  254TMC3    H2 3909   0.874   3.889  16.255 -1.8949  0.0652 -0.0929
  254TMC3    C7 3910   1.081   3.765  16.197 -0.4985 -0.1142 -0.7017
  254TMC3    C8 3911   0.682   3.994  16.125  0.1691  0.4475  0.0598
  254TMC3    O1 3912   1.015   3.714  16.287 -0.8365  0.2129  0.0531
  254TMC3    O2 3913   0.719   4.063  16.221 -0.0777  0.0130  0.1996
  255MPD2     C 3914   3.599   2.297  10.519 -0.0108  0.0182  0.0636
  255MPD2    C1 3915   3.680   2.411  10.529 -0.2041  0.2614 -0.2815
  255MPD2    C2 3916   3.784   2.425  10.438  0.2197 -0.6815  1.3166
  255MPD2    C3 3917   3.798   2.331  10.333 -1.1987 -0.1971 -0.2789
  255MPD2    C4 3918   3.705   2.229  10.313  0.8987  0.3223  0.8501
  255MPD2    C5 3919   3.619   2.208  10.414  0.5818 -0.1813  0.2618
  255MPD2     H 3920   3.853   2.509  10.444 -3.4945  2.5787 -1.0582
  255MPD2    H1 3921   3.702   2.151  10.238 -0.4803  1.4496 -0.2794
  255MPD2    H2 3922   3.521   2.278  10.592  0.4700 -0.2235  0.5064
  255MPD2    H3 3923   3.568   2.113  10.406 -2.1190  1.3017  0.1179
  255MPD2     N 3924   3.902   2.359  10.242  0.3246  0.0446  0.3914
  255MPD2    H5 3925   3.959   2.439  10.267 -0.4330  0.7294 -0.1010
  255MPD2    N1 3926   3.652   2.504  10.634  0.2529  0.2682  0.4772
  255MPD2    H7 3927   3.578   2.485  10.700 -0.7193 -0.5172 -0.8321
  256TMC3    C1 3928   3.643   2.727  10.725  0.1670 -0.5310 -1.0057
  256TMC3    C2 3929   3.686   2.852  10.693  1.0664 -0.3677  0.2921
  256TMC3    C3 3930   3.588   2.950  10.672  0.5797 -0.4789 -0.8281
  256TMC3    C4 3931   3.505   2.708  10.748  0.1216 -0.5885 -0.7959
  256TMC3    C5 3932   3.415   2.803  10.719 -0.4395 -0.3889  0.0219
  256TMC3    C6 3933   3.455   2.928  10.690 -0.0543 -0.4716 -0.2673
  256TMC3     C 3934   3.719   2.624  10.652 -0.1208 -0.6971 -0.0931
  256TMC3     O 3935   3.816   2.663  10.592  0.2384 -0.1801  0.4387
  256TMC3     H 3936   3.792   2.867  10.675  0.8832 -0.2917 -0.7514
  256TMC3    H1 3937   3.473   2.605  10.753  0.2869 -0.5578  0.8449
  256TMC3    H2 3938   3.387   3.005  10.655 -0.9626 -1.2580 -0.2322
  256TMC3    C7 3939   3.310   2.745  10.641  0.1068 -0.5642  1.0998
  256TMC3    C8 3940   3.638   3.083  10.674 -0.0760  0.2495 -0.0585
  256TMC3    O1 3941   3.264   2.638  10.682 -0.4203  0.4185 -0.2867
  256TMC3    O2 3942   3.566   3.158  10.741 -0.3014  0.0766 -0.0399
  257MPD2     C 3943   2.683   3.320  13.405  0.5745 -0.3818  0.0736
  257MPD2    C1 3944   2.795   3.397  13.389 -0.4103  0.2323  0.0960
  257MPD2    C2 3945   2.915   3.346  13.436  0.4131 -0.5906 -0.1257
  257MPD2    C3 3946   2.926   3.206  13.455  0.5071 -0.4917  0.1842
  257MPD2    C4 3947   2.814   3.130  13.445  0.3137 -0.2222  0.5014
  257MPD2    C5 3948   2.694   3.186  13.418 -0.1735 -0.3613  0.6190
  257MPD2     H 3949   2.996   3.404  13.477  0.3956  0.6768 -1.8901
  257MPD2    H1 3950   2.820   3.027  13.479 -1.9257 -0.4199  0.2855
  257MPD2    H2 3951   2.584   3.359  13.383  0.2193 -0.2786  1.8298
  257MPD2    H3 3952   2.605   3.124  13.416  0.3915 -1.0614 -2.7685
  257MPD2     N 3953   3.062   3.157  13.479  0.3922 -0.3098 -0.8128
  257MPD2    H5 3954   3.137   3.223  13.499 -0.7475  0.9089 -0.6041
  257MPD2    N1 3955   2.781   3.531  13.352 -0.2264  0.3485 -0.0632
  257MPD2    H7 3956   2.686   3.562  13.336 -1.1386 -1.1331  2.3969
  258TMC3    C1 3957   3.234   3.016  13.555  0.2140 -0.0223  0.7637
  258TMC3    C2 3958   3.335   3.087  13.484  0.3069  0.3193 -0.3878
  258TMC3    C3 3959   3.468   3.046  13.504 -0.6485  0.9616 -0.3707
  258TMC3    C4 3960   3.270   2.912  13.631 -0.3806 -0.9637 -0.2484
  258TMC3    C5 3961   3.405   2.893  13.658 -0.5839  0.2856  0.3151
  258TMC3    C6 3962   3.506   2.961  13.603 -0.6078  0.6130  0.9794
  258TMC3     C 3963   3.092   3.028  13.528  0.6142 -1.1004  0.4423
  258TMC3     O 3964   3.008   2.945  13.560 -0.1402 -0.2573  0.1777
  258TMC3     H 3965   3.309   3.155  13.403  0.4850  0.1544 -0.5822
  258TMC3    H1 3966   3.196   2.873  13.699 -0.2284 -1.7792 -0.5588
  258TMC3    H2 3967   3.609   2.941  13.630 -0.3661  1.8386  0.9646
  258TMC3    C7 3968   3.410   2.835  13.792 -0.6341 -0.2077  0.2848
  258TMC3    C8 3969   3.581   3.121  13.451 -0.3186 -1.0771 -0.0564
  258TMC3    O1 3970   3.339   2.734  13.805  0.0847  0.3532 -0.2672
  258TMC3    O2 3971   3.690   3.077  13.477  0.2221 -0.1892  0.1330
  259MPD2     C 3972   2.276   0.651   0.905 -0.5712 -0.0216  0.5620
  259MPD2    C1 3973   2.327   0.519   0.887 -0.1866 -0.0233 -0.0799
  259MPD2    C2 3974   2.371   0.480   0.763 -0.0260 -0.1683 -0.0678
  259MPD2    C3 3975   2.347   0.560   0.652  0.4096  0.1092 -0.4670
  259MPD2    C4 3976   2.295   0.685   0.675  0.1582 -0.4709  0.4010
  259MPD2    C5 3977   2.254   0.730   0.798 -0.8579 -0.2451 -0.2039
  259MPD2     H 3978   2.406   0.380   0.739  0.7689  0.2361 -0.5780
  259MPD2    H1 3979   2.276   0.760   0.599 -2.1756 -0.1741  1.2794
  259MPD2    H2 3980   2.247   0.684   1.003  0.2505  0.5427  0.6100
  259MPD2    H3 3981   2.201   0.824   0.792 -1.3412 -0.4733  0.5801
  259MPD2     N 3982   2.379   0.515   0.523  0.1115 -0.7918 -0.4680
  259MPD2    H5 3983   2.405   0.417   0.523  0.7446 -0.6228 -0.0806
  259MPD2    N1 3984   2.330   0.437   1.002 -0.1778  0.0308 -0.2548
  259MPD2    H7 3985   2.269   0.466   1.077 -1.3220 -0.8539 -0.8505
  260TMC3    C1 3986   2.461   0.525   0.303  0.9920 -0.0803 -0.1309
  260TMC3    C2 3987   2.569   0.582   0.239 -0.5992  0.0491 -0.4865
  260TMC3    C3 3988   2.616   0.522   0.138 -1.1420 -0.0472  0.4252
  260TMC3    C4 3989   2.411   0.400   0.269 -0.2791  0.2344 -0.5769
  260TMC3    C5 3990   2.461   0.340   0.157  0.0841 -0.0931 -0.0874
  260TMC3    C6 3991   2.564   0.402   0.095  0.3044 -0.9682 -0.5564
  260TMC3     C 3992   2.415   0.599   0.421  0.0508 -0.0218 -0.1159
  260TMC3     O 3993   2.422   0.719   0.411 -0.5078  0.0701 -0.5105
  260TMC3     H 3994   2.616   0.670   0.280 -1.9075  0.5777 -0.1152
  260TMC3    H1 3995   2.328   0.353   0.321  0.6782  1.0313  1.6646
  260TMC3    H2 3996   2.597   0.367  17.747  0.9964  1.9080 -1.3715
  260TMC3    C7 3997   2.467   0.197   0.153  0.4999  0.1882  0.2239
  260TMC3    C8 3998   2.753   0.548   0.109  0.2286 -0.0934 -0.8884
  260TMC3    O1 3999   2.559   0.149   0.092  0.7794 -0.1030 -0.6267
  260TMC3    O2 4000   2.803   0.639   0.166  0.0365  0.1068  0.6400
  261MPD2     C 4001   3.551   3.982  12.831  0.7635 -0.2323 -0.3935
  261MPD2    C1 4002   3.658   3.980  12.743 -0.7591  0.3783  0.6732
  261MPD2    C2 4003   3.638   3.996  12.606 -0.0527  0.2675 -0.3724
  261MPD2    C3 4004   3.514   4.032  12.557 -0.3887  0.1804  0.0179
  261MPD2    C4 4005   3.410   4.052  12.649  0.7633 -0.2243 -0.1421
  261MPD2    C5 4006   3.431   4.024  12.785 -0.1881 -0.2335  0.4141
  261MPD2     H 4007   3.721   3.991  12.535 -0.4591  0.5288 -0.8674
  261MPD2    H1 4008   3.308   4.079  12.621  0.4508 -3.1175 -1.8025
  261MPD2    H2 4009   3.561   3.963  12.937  1.0975  2.1156 -0.0079
  261MPD2    H3 4010   3.349   4.020  12.855  0.0441 -0.6066  0.6660
  261MPD2     N 4011   3.504   4.068  12.418  0.0741 -0.1520 -0.0612
  261MPD2    H5 4012   3.589   4.056  12.365  1.6246  1.7587  1.9796
  261MPD2    N1 4013   3.793   3.963  12.776 -0.1874  0.6992  0.5591
  261MPD2    H7 4014   3.867   3.956  12.707  0.3648  0.2747  1.1980
  262TMC3    C1 4015   3.415   4.205  12.244  0.6006  0.6875  0.8614
  262TMC3    C2 4016   3.391   4.336  12.272  0.1412 -0.3426  0.2317
  262TMC3    C3 4017   3.461   4.424  12.203  0.1616  0.3039 -0.8384
  262TMC3    C4 4018   3.511   4.159  12.159  0.7219 -0.3387  0.2825
  262TMC3    C5 4019   3.575   4.261  12.092  0.1226 -1.1877 -0.0255
  262TMC3    C6 4020   3.556   4.394  12.109  0.0775  0.0405  0.2599
  262TMC3     C 4021   3.389   4.121  12.353 -0.8133 -0.3054 -0.6098
  262TMC3     O 4022   3.270   4.123  12.388 -0.3215 -0.3284 -0.0257
  262TMC3     H 4023   3.334   4.367  12.360 -2.3904 -1.4921 -1.0081
  262TMC3    H1 4024   3.496   4.061  12.116 -5.0260 -0.4544  2.5013
  262TMC3    H2 4025   3.612   4.463  12.048  0.4454 -0.7721 -0.3156
  262TMC3    C7 4026   3.635   4.228  11.968 -0.4184  0.0099 -0.5355
  262TMC3    C8 4027   3.459   4.566  12.231 -0.0584  0.4392 -0.4471
  262TMC3    O1 4028   3.616   4.299  11.871 -0.3486 -0.3709  0.2817
  262TMC3    O2 4029   3.543   4.636  12.176  0.3184  0.0204 -0.3800
  263MPD2     C 4030   4.636   3.528  11.870 -0.0702 -0.2070  0.5598
  263MPD2    C1 4031   0.000   3.491  11.783  0.4770  0.9765  0.3065
  263MPD2    C2 4032   0.056   3.585  11.692  0.4593  0.4446  0.2906
  263MPD2    C3 4033   0.009   3.711  11.692 -0.2706 -0.0620 -0.3981
  263MPD2    C4 4034   4.648   3.749  11.777 -0.2540 -0.4732 -0.1492
  263MPD2    C5 4035   4.586   3.656  11.856  0.8404  0.2080  0.3636
  263MPD2     H 4036   0.133   3.546  11.626 -0.6954  0.9141 -1.3444
  263MPD2    H1 4037   4.607   3.847  11.755 -1.9509 -0.4211  3.2003
  263MPD2    H2 4038   4.596   3.460  11.944 -2.6654 -0.4092 -1.0326
  263MPD2    H3 4039   4.502   3.692  11.915  0.9970  1.1048  0.0464
  263MPD2     N 4040   0.066   3.796  11.591 -0.1379 -0.1074 -0.4031
  263MPD2    H5 4041   0.135   3.763  11.524 -0.8074 -0.0559 -1.1225
  263MPD2    N1 4042   0.036   3.356  11.783  0.4337 -0.7463  0.1056
  263MPD2    H7 4043   4.737   3.296  11.856  1.4660 -0.2796  0.9966
  264TMC3    C1 4044   0.132   3.993  11.474  0.2611  0.1874  0.0010
  264TMC3    C2 4045   0.198   4.109  11.497  0.5687 -0.0561 -0.2119
  264TMC3    C3 4046   0.292   4.152  11.403 -0.3551 -0.3249  0.0555
  264TMC3    C4 4047   0.165   3.913  11.368 -0.3554 -0.1821 -0.6326
  264TMC3    C5 4048   0.252   3.959  11.277 -0.1984  0.1187 -0.3612
  264TMC3    C6 4049   0.319   4.076  11.293  0.6209  0.2608  0.1676
  264TMC3     C 4050   0.053   3.935  11.584 -0.1104  0.8345 -0.3261
  264TMC3     O 4051   0.009   4.010  11.671 -0.6668 -0.1555  0.1946
  264TMC3     H 4052   0.183   4.167  11.587 -0.4491 -2.1866  0.9952
  264TMC3    H1 4053   0.116   3.819  11.347  0.8075 -0.8988 -0.1135
  264TMC3    H2 4054   0.383   4.118  11.216  1.5847 -1.2396  0.1475
  264TMC3    C7 4055   0.280   3.892  11.151  0.2920 -0.5579 -0.5102
  264TMC3    C8 4056   0.376   4.269  11.423 -0.6590 -0.2671 -0.4338
  264TMC3    O1 4057   0.318   3.962  11.061 -0.1562  0.5708 -0.3247
  264TMC3    O2 4058   0.480   4.274  11.355  0.2258  0.1259  0.3553
  265MPD2     C 4059   1.862   3.242  15.801  0.3473  0.3737  0.3492
  265MPD2    C1 4060   1.950   3.355  15.789 -0.3361 -0.8299  0.1706
  265MPD2    C2 4061   2.061   3.337  15.706 -0.5256  0.7618 -0.5155
  265MPD2    C3 4062   2.089   3.219  15.646  0.6977 -0.6023 -0.4220
  265MPD2    C4 4063   2.009   3.109  15.666 -0.5073  0.4641 -0.2802
  265MPD2    C5 4064   1.892   3.122  15.740  0.5354 -0.1988 -0.8384
  265MPD2     H 4065   2.134   3.413  15.683  2.0406 -1.2100  1.2688
  265MPD2    H1 4066   2.033   3.005  15.648  0.9291  0.7747 -0.2125
  265MPD2    H2 4067   1.773   3.246  15.864  1.7541 -0.6812  2.4312
  265MPD2    H3 4068   1.822   3.040  15.746  0.4949  0.0461  1.8088
  265MPD2     N 4069   2.204   3.196  15.567 -0.4177  0.4996 -0.3985
  265MPD2    H5 4070   2.211   3.103  15.529  1.9906  0.5027  0.0442
  265MPD2    N1 4071   1.923   3.472  15.853  0.3411  0.2044  0.0986
  265MPD2    H7 4072   2.004   3.534  15.855  0.2579  0.2603  1.5855
  266TMC3    C1 4073   1.799   3.638  15.968 -0.0355 -0.4601  0.1485
  266TMC3    C2 4074   1.894   3.669  16.060  0.3297 -0.7576  1.2659
  266TMC3    C3 4075   1.932   3.798  16.088 -1.0636 -0.0494  0.4081
  266TMC3    C4 4076   1.721   3.740  15.915  0.1472 -0.3397  0.3915
  266TMC3    C5 4077   1.755   3.868  15.948 -0.2740  0.3355 -0.1752
  266TMC3    C6 4078   1.856   3.901  16.041 -0.2247  0.5041 -0.7617
  266TMC3     C 4079   1.797   3.504  15.908 -0.1311 -0.3316 -0.3667
  266TMC3     O 4080   1.688   3.462  15.875  0.2884  0.4715 -0.4424
  266TMC3     H 4081   1.965   3.590  16.082  1.1866  0.3833  2.6290
  266TMC3    H1 4082   1.654   3.720  15.833  1.0060 -1.5394 -0.0246
  266TMC3    H2 4083   1.878   4.006  16.054 -0.6354  0.8414 -2.6944
  266TMC3    C7 4084   1.699   3.972  15.863  0.9123  0.9555 -0.2880
  266TMC3    C8 4085   2.038   3.827  16.185 -0.4899 -0.7955 -0.4818
  266TMC3    O1 4086   1.578   3.963  15.847  0.1876 -0.1646  0.6609
  266TMC3    O2 4087   2.098   3.725  16.224  0.0543  0.2917 -0.2853
  267MPD2     C 4088   4.324   0.633   0.398  0.4249  0.3084 -0.7031
  267MPD2    C1 4089   4.353   0.523   0.313 -0.1548  0.5728  0.9127
  267MPD2    C2 4090   4.314   0.536   0.180 -0.2545 -0.2710 -0.5258
  267MPD2    C3 4091   4.262   0.654   0.126  0.8978 -0.5048 -0.1056
  267MPD2    C4 4092   4.241   0.759   0.214 -0.8566 -0.0287 -0.3042
  267MPD2    C5 4093   4.270   0.749   0.351  0.5547 -0.3579  0.0567
  267MPD2     H 4094   4.330   0.451   0.114  0.2439  0.6528 -1.5952
  267MPD2    H1 4095   4.200   0.852   0.178  0.7306  0.6335 -0.3825
  267MPD2    H2 4096   4.338   0.624   0.505  0.3005 -0.6942 -0.7758
  267MPD2    H3 4097   4.254   0.827   0.424 -0.4770 -0.4306 -0.0931
  267MPD2     N 4098   4.248   0.667  17.733  0.5251 -0.7010  0.5090
  267MPD2    H5 4099   4.223   0.762  17.707  2.5067 -1.1028 -2.8894
  267MPD2    N1 4100   4.422   0.412   0.357  0.2381  0.2700  0.0247
  267MPD2    H7 4101   4.459   0.406   0.451  0.9988 -2.2948 -0.4544
  268TMC3    C1 4102   4.566   0.226   0.339  0.6882  0.4852 -0.2561
  268TMC3    C2 4103   4.651   0.186   0.238  0.3787 -0.8141 -0.0987
  268TMC3    C3 4104   0.025   0.123   0.279  0.6334 -0.5965  0.2469
  268TMC3    C4 4105   4.575   0.209   0.474 -0.2388 -0.3127 -0.0639
  268TMC3    C5 4106   4.694   0.148   0.507 -0.5583  0.5099  0.4968
  268TMC3    C6 4107   0.043   0.095   0.412 -0.1363  0.7597  0.0598
  268TMC3     C 4108   4.446   0.294   0.283  0.0196 -0.1618  0.2960
  268TMC3     O 4109   4.398   0.255   0.180 -0.4596  0.5855  0.1520
  268TMC3     H 4110   4.632   0.201   0.133 -0.5655 -2.2022 -0.1241
  268TMC3    H1 4111   4.496   0.236   0.544  0.6537  2.2605 -0.0660
  268TMC3    H2 4112   0.136   0.047   0.443 -0.5200 -1.4306 -2.1068
  268TMC3    C7 4113   4.734   0.128   0.641  0.5975  0.0193 -0.2091
  268TMC3    C8 4114   0.144   0.131   0.192 -0.2642 -0.2077  0.4355
  268TMC3    O1 4115   0.036   0.015   0.667  0.0819 -0.1074  0.3019
  268TMC3    O2 4116   0.251   0.115   0.250 -0.4157 -0.6072 -0.2718
  269MPD2     C 4117   0.298   4.314  15.482 -0.0429  0.3771 -0.4357
  269MPD2    C1 4118   0.182   4.312  15.556 -0.4438 -0.1380  0.7183
  269MPD2    C2 4119   0.107   4.433  15.552 -0.3123  0.4873 -0.0286
  269MPD2    C3 4120   0.139   4.535  15.460 -0.7020 -0.3301 -0.3296
  269MPD2    C4 4121   0.248   4.524  15.381 -1.5783 -0.4055 -0.3332
  269MPD2    C5 4122   0.332   4.419  15.394  0.2867  0.2189 -0.0876
  269MPD2     H 4123   0.008   4.429  15.595 -0.0549 -1.4039  0.3831
  269MPD2    H1 4124   0.268   4.599  15.305  0.8840 -0.1675  0.5492
  269MPD2    H2 4125   0.361   4.229  15.460  1.8431  1.4593  0.7274
  269MPD2    H3 4126   0.425   4.414  15.339  2.0373 -0.0645  2.8758
  269MPD2     N 4127   0.062   4.655  15.462  0.2618  0.3893  0.7510
  269MPD2    H5 4128   4.719   4.655  15.523  0.2251  0.0122  0.7029
  269MPD2    N1 4129   0.149   4.198  15.624  0.1953  0.1008 -0.1296
  269MPD2    H7 4130   0.214   4.121  15.619  2.9882  2.3510  1.4348
  270TMC3    C1 4131   0.004   4.044  15.750 -0.4185 -0.3442  0.1576
  270TMC3    C2 4132   4.605   4.013  15.766 -0.3350  0.1862  0.1683
  270TMC3    C3 4133   4.574   3.889  15.815 -0.0662 -0.4346  0.6550
  270TMC3    C4 4134   0.102   3.945  15.775  0.3180  0.5248 -0.4970
  270TMC3    C5 4135   0.067   3.829  15.838 -0.2027 -0.8665  0.1350
  270TMC3    C6 4136   4.673   3.799  15.854 -0.2110 -0.6967  0.1922
  270TMC3     C 4137   0.034   4.177  15.702 -0.1571 -0.6763  0.5490
  270TMC3     O 4138   4.674   4.251  15.704 -0.3487 -0.3008  0.2000
  270TMC3     H 4139   4.528   4.084  15.738 -2.5350 -1.5760  1.7778
  270TMC3    H1 4140   0.202   3.967  15.738 -0.7898  2.3607 -2.4234
  270TMC3    H2 4141   4.646   3.705  15.900  1.2745 -0.6141  1.2173
  270TMC3    C7 4142   0.142   3.714  15.785  0.2435  0.0982 -0.1358
  270TMC3    C8 4143   4.484   3.820  15.729  0.7060  0.0527 -0.3156
  270TMC3    O1 4144   0.262   3.716  15.780 -0.3458 -0.6034 -0.0796
  270TMC3    O2 4145   4.529   3.715  15.685 -0.1743 -0.3188 -0.2890
  271MPD2     C 4146   3.681   3.325  14.347 -0.2381  0.2226 -0.5918
  271MPD2    C1 4147   3.701   3.452  14.391  0.6072 -0.3293 -0.0040
  271MPD2    C2 4148   3.616   3.546  14.344  0.0757  0.5045  0.7402
  271MPD2    C3 4149   3.516   3.519  14.243  0.0958 -0.1737  0.2817
  271MPD2    C4 4150   3.509   3.392  14.198  0.1497  0.0185  0.0448
  271MPD2    C5 4151   3.589   3.296  14.249  0.3344 -0.4387 -0.7112
  271MPD2     H 4152   3.626   3.649  14.377 -2.2913  0.1602  2.6035
  271MPD2    H1 4153   3.442   3.367  14.117  0.6614 -1.9557  0.2460
  271MPD2    H2 4154   3.746   3.241  14.371 -2.3160 -1.0541  0.5979
  271MPD2    H3 4155   3.585   3.200  14.199  1.1071 -1.3050  0.9032
  271MPD2     N 4156   3.428   3.616  14.191  0.0572  0.1203  0.0745
  271MPD2    H5 4157   3.357   3.585  14.126 -0.3597 -0.4027  0.7743
  271MPD2    N1 4158   3.799   3.491  14.479  0.9001  0.4799 -0.4574
  271MPD2    H7 4159   3.821   3.590  14.488  0.4994  0.7997 -3.0912
  272TMC3    C1 4160   3.976   3.492  14.622 -0.6722  1.0242 -0.0715
  272TMC3    C2 4161   4.099   3.437  14.638  1.0612  0.6023 -0.0934
  272TMC3    C3 4162   4.199   3.515  14.700  0.1022  0.4467 -0.1695
  272TMC3    C4 4163   3.942   3.620  14.659  0.0040  0.0895  0.9574
  272TMC3    C5 4164   4.039   3.690  14.727 -0.0394 -0.4832 -0.1120
  272TMC3    C6 4165   4.165   3.639  14.737 -0.6715  0.2283 -0.5968
  272TMC3     C 4166   3.877   3.410  14.554 -0.1879  0.6606 -0.7082
  272TMC3     O 4167   3.864   3.289  14.563  0.2425 -0.0202  0.3178
  272TMC3     H 4168   4.117   3.344  14.586 -0.2218  0.2138  0.1767
  272TMC3    H1 4169   3.838   3.648  14.653 -0.2318 -0.8358  0.6670
  272TMC3    H2 4170   4.239   3.688  14.798 -0.0487 -1.6232  0.1284
  272TMC3    C7 4171   4.003   3.811  14.792 -0.3945  0.9862  0.2377
  272TMC3    C8 4172   4.337   3.485  14.677 -0.3365  0.1969  0.4546
  272TMC3    O1 4173   3.886   3.840  14.793  0.3719  0.3128  0.5990
  272TMC3    O2 4174   4.402   3.585  14.647  0.3095 -0.1253 -0.0132
  273MPD2     C 4175   0.665   1.855  11.537 -0.2632  0.3997  0.1953
  273MPD2    C1 4176   0.708   1.971  11.601 -0.3896  0.1497 -0.7310
  273MPD2    C2 4177   0.726   2.089  11.538  0.0234 -0.6951 -0.8619
  273MPD2    C3 4178   0.697   2.090  11.404 -0.4341 -0.1158  0.5813
  273MPD2    C4 4179   0.653   1.982  11.343 -0.3610  0.7894  0.9243
  273MPD2    C5 4180   0.639   1.858  11.403  0.4396  0.3052  0.2466
  273MPD2     H 4181   0.748   2.179  11.595  1.0377 -1.7570  0.4277
  273MPD2    H1 4182   0.637   1.989  11.236 -2.5802 -0.6208  1.1716
  273MPD2    H2 4183   0.659   1.759  11.586  0.7887 -0.2044 -0.8727
  273MPD2    H3 4184   0.625   1.772  11.339  0.2722 -0.6556  1.5947
  273MPD2     N 4185   0.713   2.207  11.321  0.2241 -0.0862  0.1402
  273MPD2    H5 4186   0.676   2.209  11.226  1.5029  1.2472 -0.3424
  273MPD2    N1 4187   0.738   1.973  11.740 -0.2692  0.5879  0.2750
  273MPD2    H7 4188   0.737   2.057  11.796 -2.5645  0.5179  0.3419
  274TMC3    C1 4189   0.755   2.434  11.269 -0.1068  0.5447  0.5975
  274TMC3    C2 4190   0.663   2.438  11.166  0.0560 -0.0556 -0.3236
  274TMC3    C3 4191   0.654   2.557  11.097  0.4056  0.0475  0.8295
  274TMC3    C4 4192   0.837   2.539  11.293  0.5369 -0.7736 -0.7017
  274TMC3    C5 4193   0.815   2.657  11.230  0.0544 -0.0401  0.4192
  274TMC3    C6 4194   0.731   2.665  11.124  0.0017 -0.0967  0.6229
  274TMC3     C 4195   0.770   2.324  11.361  0.4652  0.1905  0.0900
  274TMC3     O 4196   0.845   2.346  11.456  0.9332  0.2061  0.2071
  274TMC3     H 4197   0.592   2.357  11.156  0.8043 -0.3179 -3.3717
  274TMC3    H1 4198   0.909   2.535  11.373  0.2977 -1.0621 -0.4996
  274TMC3    H2 4199   0.712   2.765  11.088 -0.4525 -1.2948 -2.4153
  274TMC3    C7 4200   0.768   2.752  11.328 -0.4136  0.5541  0.1886
  274TMC3    C8 4201   0.540   2.576  11.006  0.2496  0.0735 -0.2212
  274TMC3    O1 4202   0.656   2.799  11.310 -0.3026 -0.1819 -0.0331
  274TMC3    O2 4203   0.449   2.495  11.023 -0.1224 -0.0538  0.2482
  275MPD2     C 4204   1.056   4.371  14.450  0.8194 -0.2656 -0.1655
  275MPD2    C1 4205   1.001   4.503  14.446 -0.5066 -0.3564  0.2613
  275MPD2    C2 4206   0.863   4.517  14.461  0.7610 -0.7962  0.5814
  275MPD2    C3 4207   0.787   4.408  14.498 -0.2421  0.2668 -0.3473
  275MPD2    C4 4208   0.846   4.281  14.520  0.3406  0.3995 -0.0551
  275MPD2    C5 4209   0.981   4.263  14.496  0.2256  0.3804 -0.3627
  275MPD2     H 4210   0.811   4.612  14.452  0.0812 -1.1182  1.1097
  275MPD2    H1 4211   0.786   4.202  14.564 -0.0500 -0.4212 -2.0217
  275MPD2    H2 4212   1.161   4.347  14.445  0.7290 -0.3930 -1.3668
  275MPD2    H3 4213   1.031   4.169  14.517 -1.1871 -0.1890  0.4765
  275MPD2     N 4214   0.647   4.417  14.509 -0.4686 -0.8015 -0.4734
  275MPD2    H5 4215   0.605   4.331  14.542 -2.6291  0.8293  0.9678
  275MPD2    N1 4216   1.068   4.620  14.418  0.0888 -0.4403 -0.0023
  275MPD2    H7 4217   1.013   4.706  14.420 -0.0362 -0.5159 -0.1609
  276TMC3    C1 4218   1.223   0.048  14.432 -0.4510  0.5221 -0.7529
  276TMC3    C2 4219   1.112   0.123  14.429 -0.1457 -0.3792  0.3451
  276TMC3    C3 4220   1.110   0.225  14.518  0.5766  0.5336 -0.2916
  276TMC3    C4 4221   1.330   0.079  14.512  0.0870  0.2083 -0.1679
  276TMC3    C5 4222   1.325   0.182  14.598  0.2792 -0.2417  0.4232
  276TMC3    C6 4223   1.205   0.258  14.605  0.2347  0.7204 -0.0088
  276TMC3     C 4224   1.205   4.641  14.417  0.0045  0.1193  0.0511
  276TMC3     O 4225   1.297   4.565  14.442  0.0567 -0.4264 -0.4669
  276TMC3     H 4226   1.034   0.108  14.355 -1.9950 -2.4105  2.7179
  276TMC3    H1 4227   1.414   0.009  14.512 -1.1543 -1.2820 -1.2679
  276TMC3    H2 4228   1.182   0.334  14.678  0.6542  0.8967 -0.0570
  276TMC3    C7 4229   1.399   0.190  14.721  0.2859  0.0244  0.7747
  276TMC3    C8 4230   0.986   0.233  14.574  0.5043 -0.4332  0.3821
  276TMC3    O1 4231   1.369   0.289  14.790 -0.3077  0.6261  0.2026
  276TMC3    O2 4232   0.917   0.330  14.559  0.1643  0.6503  0.3031
  277MPD2     C 4233   2.424   3.601  13.171  0.5512 -0.1242 -0.3145
  277MPD2    C1 4234   2.432   3.675  13.287 -0.2502 -0.4240 -0.4657
  277MPD2    C2 4235   2.401   3.607  13.409  0.4473  0.7479 -0.3962
  277MPD2    C3 4236   2.359   3.478  13.411  0.2227 -0.2269 -0.0230
  277MPD2    C4 4237   2.346   3.404  13.298 -0.2108  0.0549  0.2733
  277MPD2    C5 4238   2.379   3.471  13.179  0.4942 -0.7888  0.2403
  277MPD2     H 4239   2.400   3.657  13.505 -0.1291 -1.4335  0.7411
  277MPD2    H1 4240   2.297   3.307  13.298 -0.0937 -0.0005 -3.0480
  277MPD2    H2 4241   2.444   3.647  13.075 -1.5749 -0.1824 -0.7940
  277MPD2    H3 4242   2.375   3.411  13.089  0.1139 -1.2830  0.5883
  277MPD2     N 4243   2.334   3.421  13.544  0.2882  0.2370 -0.5126
  277MPD2    H5 4244   2.324   3.491  13.616 -1.7197 -1.1621  0.5487
  277MPD2    N1 4245   2.484   3.807  13.271  0.0619 -0.2567 -0.0258
  277MPD2    H7 4246   2.484   3.847  13.178  0.8188 -0.2004  0.0036
  278TMC3    C1 4247   2.206   3.277  13.682 -0.3621 -0.2028 -0.1806
  278TMC3    C2 4248   2.180   3.144  13.711 -0.1847 -0.4133 -0.4443
  278TMC3    C3 4249   2.058   3.104  13.766 -0.2851  0.2029  0.7559
  278TMC3    C4 4250   2.119   3.374  13.726  0.1814  0.5175  0.0809
  278TMC3    C5 4251   1.997   3.328  13.776 -0.0111 -0.2537  0.6695
  278TMC3    C6 4252   1.971   3.197  13.801  0.7664  0.4055  0.5141
  278TMC3     C 4253   2.300   3.293  13.571  0.0777  0.2423  0.5479
  278TMC3     O 4254   2.332   3.190  13.507  0.5644 -0.4052 -0.3456
  278TMC3     H 4255   2.251   3.066  13.684  0.7608  0.2005  0.2846
  278TMC3    H1 4256   2.134   3.477  13.696  1.0993  0.2921 -0.2380
  278TMC3    H2 4257   1.872   3.159  13.826  1.0691 -1.9754 -1.8564
  278TMC3    C7 4258   1.952   3.422  13.879  0.1119  0.1771  0.3483
  278TMC3    C8 4259   2.047   2.968  13.809 -0.2190  0.0651  0.5382
  278TMC3    O1 4260   1.983   3.542  13.865  0.2844  0.5931 -0.1919
  278TMC3    O2 4261   2.153   2.915  13.832 -0.5066  0.7384  0.2984
  279MPD2     C 4262   1.727   3.981   0.275 -0.2044 -0.1532 -0.1549
  279MPD2    C1 4263   1.673   3.859   0.248 -0.0186 -0.0509  0.2347
  279MPD2    C2 4264   1.671   3.804   0.123  0.1099  0.1805 -0.2221
  279MPD2    C3 4265   1.736   3.862   0.012  0.2375 -1.4156 -0.1618
  279MPD2    C4 4266   1.779   3.991   0.038 -0.7517  0.3488 -0.1223
  279MPD2    C5 4267   1.780   4.046   0.164 -0.5466  0.2162  0.6341
  279MPD2     H 4268   1.620   3.712   0.097  0.7062 -0.4515  0.8164
  279MPD2    H1 4269   1.835   4.053  17.719 -0.3544  0.2358  0.1019
  279MPD2    H2 4270   1.718   4.030   0.371 -2.7695 -0.9561  0.0219
  279MPD2    H3 4271   1.828   4.142   0.175 -0.5437  0.2596  0.2163
  279MPD2     N 4272   1.752   3.805  17.635  0.3663  0.8644 -0.2741
  279MPD2    H5 4273   1.817   3.841  17.566  1.2552 -1.8240 -0.8076
  279MPD2    N1 4274   1.597   3.792   0.354  0.0419  0.0553 -0.1703
  279MPD2    H7 4275   1.590   3.832   0.448  0.6238  0.7556 -0.4272
  280TMC3    C1 4276   1.440   3.633   0.422 -0.6105  0.0532 -1.0590
  280TMC3    C2 4277   1.400   3.503   0.406  0.1190  0.1221 -0.1030
  280TMC3    C3 4278   1.265   3.480   0.409  0.5357  0.3924  0.4219
  280TMC3    C4 4279   1.357   3.737   0.461  0.1909 -0.4890  1.1793
  280TMC3    C5 4280   1.219   3.705   0.457 -0.1081 -0.0242  0.3971
  280TMC3    C6 4281   1.172   3.583   0.430  0.2004  0.4760  0.4363
  280TMC3     C 4282   1.552   3.663   0.342 -0.1296 -0.0535  0.2353
  280TMC3     O 4283   1.606   3.566   0.288 -0.1323 -0.0145 -0.1389
  280TMC3     H 4284   1.454   3.430   0.346  1.1350 -0.5022  1.5771
  280TMC3    H1 4285   1.382   3.842   0.462  0.2806 -0.4947 -1.0430
  280TMC3    H2 4286   1.065   3.565   0.429  0.9070 -3.4917 -2.4766
  280TMC3    C7 4287   1.129   3.814   0.470  0.0627 -1.1563  0.8442
  280TMC3    C8 4288   1.226   3.341   0.379 -0.0830 -0.0792  0.1260
  280TMC3    O1 4289   1.166   3.901   0.548 -0.1040 -0.1214 -0.2211
  280TMC3    O2 4290   1.115   3.328   0.343  0.5797 -0.3177 -0.0654
  281TMC3    C1 4291   0.484   4.654  13.758  0.3619 -0.8717 -0.3019
  281TMC3    C2 4292   0.567   4.605  13.664 -0.1189  0.1366 -0.2956
  281TMC3    C3 4293   0.560   4.471  13.632 -1.2577 -0.9935  0.1294
  281TMC3    C4 4294   0.388   4.578  13.821  0.0663 -0.2691 -0.2498
  281TMC3    C5 4295   0.390   4.446  13.795  0.1185  0.2955  0.2038
  281TMC3    C6 4296   0.474   4.390  13.706  0.4755  0.4921 -0.9733
  281TMC3     C 4297   0.448   0.052  13.728  0.8978 -0.0401 -0.8325
  281TMC3     O 4298   0.542   0.129  13.726  0.0734  0.3983  0.9076
  281TMC3     H 4299   0.614   4.677  13.598  0.7530  0.7739  1.0342
  281TMC3    H1 4300   0.315   4.616  13.891 -0.8095  0.0469 -1.3425
  281TMC3    H2 4301   0.472   4.285  13.679  1.6588  0.6092 -1.5473
  281TMC3    C7 4302   0.261   4.385  13.831 -0.0656  0.5020 -0.2204
  281TMC3    C8 4303   0.637   4.425  13.514  0.6934 -0.2911 -0.2710
  281TMC3    O1 4304   0.168   4.464  13.854 -0.0363  0.1941 -0.1250
  281TMC3    O2 4305   0.723   4.344  13.544  0.9552  0.1886  0.4409
  282MPD2     C 4306   2.200   0.591  15.367  0.1680 -0.4724 -0.4714
  282MPD2    C1 4307   2.079   0.656  15.376  0.9869 -1.1453  0.4443
  282MPD2    C2 4308   2.004   0.677  15.262 -0.0242 -0.2767 -0.1273
  282MPD2    C3 4309   2.056   0.651  15.130 -0.3835 -1.0044 -0.1319
  282MPD2    C4 4310   2.170   0.582  15.126  0.5041  0.1960  0.5762
  282MPD2    C5 4311   2.239   0.545  15.241 -0.3456  0.7479  0.5088
  282MPD2     H 4312   1.904   0.718  15.272  0.1224 -0.4537  2.0451
  282MPD2    H1 4313   2.226   0.554  15.038 -1.2502  2.2651 -1.2108
  282MPD2    H2 4314   2.261   0.568  15.453  0.2027  0.9030 -0.1204
  282MPD2    H3 4315   2.330   0.487  15.229 -0.5167  0.7569 -0.9177
  282MPD2     N 4316   1.980   0.670  15.014  0.2013  0.5609 -0.3792
  282MPD2    H5 4317   1.895   0.725  15.015 -0.0988  0.0941 -0.1655
  282MPD2    N1 4318   2.017   0.694  15.497 -0.7613 -0.1388  0.1445
  282MPD2    H7 4319   1.944   0.763  15.483  2.1205  2.7070 -0.8924
  283TMC3    C1 4320   1.960   0.701  15.720  0.5337  0.6025  0.2142
  283TMC3    C2 4321   1.989   0.823  15.763 -0.4200 -0.6767 -0.2409
  283TMC3    C3 4322   1.926   0.858  15.877  0.3051  1.0591 -0.1500
  283TMC3    C4 4323   1.880   0.611  15.784  0.2406 -0.6844 -0.6546
  283TMC3    C5 4324   1.811   0.652  15.902 -0.4670  0.4865 -0.3575
  283TMC3    C6 4325   1.844   0.771  15.953 -0.7055 -0.0237  0.2041
  283TMC3     C 4326   2.051   0.650  15.627 -0.2050  0.5753  0.5228
  283TMC3     O 4327   2.136   0.561  15.653  0.1423  0.1871  0.0957
  283TMC3     H 4328   2.066   0.883  15.717  0.0117 -1.5724 -0.7010
  283TMC3    H1 4329   1.851   0.521  15.731 -3.3833 -2.2946  4.1160
  283TMC3    H2 4330   1.794   0.800  16.044  1.4241  0.0308  1.3666
  283TMC3    C7 4331   1.715   0.566  15.965  0.2342  0.5870  0.5331
  283TMC3    C8 4332   1.921   0.995  15.920 -0.3122 -0.1348  1.0306
  283TMC3    O1 4333   1.670   0.605  16.073 -0.4219 -0.2194  0.6973
  283TMC3    O2 4334   1.853   1.016  16.020 -0.2651 -0.4069  0.1983
  284MPD2     C 4335   4.358   4.540  11.783  0.1854 -1.2634 -0.1200
  284MPD2    C1 4336   4.483   4.601  11.789  0.0563 -0.1164 -0.2573
  284MPD2    C2 4337   4.591   4.550  11.866 -0.7067 -0.9063 -0.2277
  284MPD2    C3 4338   4.567   4.440  11.937  0.1311 -0.5449 -0.0507
  284MPD2    C4 4339   4.447   4.378  11.929 -0.8985 -0.2304  0.4655
  284MPD2    C5 4340   4.338   4.419  11.850 -0.4993 -0.6913 -0.0498
  284MPD2     H 4341   4.686   4.600  11.875 -0.1628 -2.5450  3.4006
  284MPD2    H1 4342   4.428   4.294  11.995  0.1811 -0.1206  0.9164
  284MPD2    H2 4343   4.278   4.577  11.720  0.5630 -0.3252 -0.0454
  284MPD2    H3 4344   4.241   4.371  11.862 -1.8377  2.1136  0.5580
  284MPD2     N 4345   4.668   4.401  12.028 -0.2274  0.1724  1.1577
  284MPD2    H5 4346   0.014   4.458  12.021  0.0334 -0.4556 -0.9738
  284MPD2    N1 4347   4.508   4.723  11.722  0.7148  0.3568  0.0554
  284MPD2    H7 4348   4.605   0.014  11.716  1.7096 -2.9111 -0.0156
  285TMC3    C1 4349   4.469   0.179  11.606  0.4338 -1.5462  0.0760
  285TMC3    C2 4350   4.592   0.165  11.548 -0.1667  0.3155  0.0599
  285TMC3    C3 4351   4.665   0.279  11.527  0.2224 -0.4197  0.3207
  285TMC3    C4 4352   4.414   0.302  11.628  0.5080 -0.0025 -0.1941
  285TMC3    C5 4353   4.487   0.414  11.587 -0.7924  0.0726  0.5858
  285TMC3    C6 4354   4.620   0.405  11.537  0.2818  0.1255  0.0449
  285TMC3     C 4355   4.411   0.066  11.679  0.1254 -0.6497  0.4793
  285TMC3     O 4356   4.288   0.064  11.700 -0.3690 -0.1025  0.4770
  285TMC3     H 4357   4.633   0.067  11.528  0.1861  0.6461 -0.8557
  285TMC3    H1 4358   4.325   0.311  11.689  1.0768  1.5044  0.4063
  285TMC3    H2 4359   4.678   0.491  11.508 -1.5674  0.7632 -1.7987
  285TMC3    C7 4360   4.447   0.538  11.630 -0.1867 -0.7341  0.3128
  285TMC3    C8 4361   0.062   0.253  11.481  0.0111  0.1117 -0.2931
  285TMC3    O1 4362   4.540   0.616  11.652  0.3278  0.2628 -0.3335
  285TMC3    O2 4363   0.088   0.155  11.418  0.0070  0.1327  0.3332
  286MPD2     C 4364   1.146   3.285   1.581  0.0859 -0.1698  0.7110
  286MPD2    C1 4365   1.027   3.245   1.530 -0.7032 -0.1787  0.4038
  286MPD2    C2 4366   1.018   3.122   1.480  0.0780  0.4057  0.1177
  286MPD2    C3 4367   1.121   3.031   1.477  0.5937  0.8180 -0.3887
  286MPD2    C4 4368   1.241   3.066   1.526  0.2966 -0.8725  0.0118
  286MPD2    C5 4369   1.254   3.197   1.577  0.0234 -0.3744  0.4226
  286MPD2     H 4370   0.926   3.080   1.440  0.6858  0.9030 -1.7942
  286MPD2    H1 4371   1.324   2.996   1.541  1.0292 -0.3390 -1.5829
  286MPD2    H2 4372   1.168   3.381   1.626 -1.6413 -0.4225  2.0559
  286MPD2    H3 4373   1.346   3.236   1.619  0.4469  0.3711 -1.1865
  286MPD2     N 4374   1.110   2.899   1.430 -0.4391 -0.1210  0.4287
  286MPD2    H5 4375   1.192   2.840   1.418 -0.2561 -0.0777  1.4737
  286MPD2    N1 4376   0.910   3.324   1.524  0.3155 -0.6047 -0.0374
  286MPD2    H7 4377   0.824   3.288   1.484 -0.7227  1.9714 -0.0943
  287TMC3    C1 4378   1.030   2.714   1.317  0.3810 -0.2929  0.0443
  287TMC3    C2 4379   0.950   2.664   1.217  0.0541  0.4820  0.0823
  287TMC3    C3 4380   0.975   2.540   1.170  0.0683  0.0609 -0.5868
  287TMC3    C4 4381   1.111   2.635   1.394 -0.8124  0.0548  0.9019
  287TMC3    C5 4382   1.127   2.501   1.351 -0.3849 -0.3726 -0.1313
  287TMC3    C6 4383   1.067   2.453   1.233  0.2798 -0.4387  0.1016
  287TMC3     C 4384   1.007   2.852   1.351 -0.5598 -0.2264  0.5749
  287TMC3     O 4385   0.942   2.923   1.272  0.2078  0.3793  0.2951
  287TMC3     H 4386   0.882   2.728   1.163 -1.8409 -0.4716  1.3425
  287TMC3    H1 4387   1.161   2.679   1.479  1.3962 -1.7567  0.5191
  287TMC3    H2 4388   1.066   2.346   1.211 -1.7036 -0.3386 -0.2584
  287TMC3    C7 4389   1.232   2.429   1.421  0.1267 -0.6773 -0.1358
  287TMC3    C8 4390   0.919   2.514   1.038  0.0497  1.1564  0.1409
  287TMC3    O1 4391   1.263   2.476   1.533  0.4479  0.5360 -0.2663
  287TMC3    O2 4392   0.827   2.587   1.000 -0.1768 -0.0701 -0.5738
  288TMC3    C1 4393   2.861   3.179  14.755 -0.0627  0.0278 -0.6840
  288TMC3    C2 4394   2.751   3.238  14.814 -0.4887  0.2924  0.5029
  288TMC3    C3 4395   2.681   3.330  14.743  0.6395  0.5860  0.6505
  288TMC3    C4 4396   2.890   3.201  14.620 -0.3585  0.2665  1.1490
  288TMC3    C5 4397   2.798   3.268  14.549  0.2619 -0.5764 -0.0590
  288TMC3    C6 4398   2.694   3.338  14.600 -0.8141  0.1842  0.4238
  288TMC3     C 4399   2.954   3.101  14.835 -0.5841  0.0271  0.3874
  288TMC3     O 4400   3.073   3.114  14.809 -0.0418 -0.2570 -0.4206
  288TMC3     H 4401   2.731   3.217  14.918  0.9117  1.8453  1.0707
  288TMC3    H1 4402   2.982   3.164  14.578 -0.5767  0.9690  0.0291
  288TMC3    H2 4403   2.633   3.416  14.555  0.3499 -0.1093 -1.6806
  288TMC3    C7 4404   2.815   3.270  14.406  0.8071  0.4420  0.3489
  288TMC3    C8 4405   2.548   3.364  14.790 -1.1186 -0.1555 -0.0003
  288TMC3    O1 4406   2.920   3.224  14.368 -1.1452 -0.2348 -0.1374
  288TMC3    O2 4407   2.494   3.459  14.743  0.1999  0.1585  0.0013
  289MPD2     C 4408   2.441   2.234  14.830  0.5149 -0.0129  0.2788
  289MPD2    C1 4409   2.450   2.350  14.762  0.6267 -0.0651  0.7636
  289MPD2    C2 4410   2.366   2.387  14.656  0.3837 -0.0452 -0.2374
  289MPD2    C3 4411   2.281   2.290  14.609 -0.6533 -0.0551 -0.4723
  289MPD2    C4 4412   2.283   2.165  14.669 -0.2714 -0.5454  0.3007
  289MPD2    C5 4413   2.362   2.142  14.779 -0.5284  0.6912  0.1279
  289MPD2     H 4414   2.369   2.487  14.614  1.3282 -0.2081 -0.5469
  289MPD2    H1 4415   2.234   2.075  14.634  1.5170 -1.1457 -0.7077
  289MPD2    H2 4416   2.501   2.204  14.916 -0.2148 -0.2394  0.7082
  289MPD2    H3 4417   2.365   2.041  14.818  0.9205  0.2473 -1.1470
  289MPD2     N 4418   2.196   2.311  14.499  0.1001 -0.3524  0.5201
  289MPD2    H5 4419   2.132   2.239  14.467  0.1132  0.1060 -0.5526
  289MPD2    N1 4420   2.553   2.437  14.805  0.0148  0.2054  0.0564
  289MPD2    H7 4421   2.621   2.400  14.871  1.6388 -1.0755 -2.3625
  290TMC3    C1 4422   2.087   2.415  14.327 -0.9052 -0.1921  0.1949
  290TMC3    C2 4423   2.085   2.503  14.226  0.0571  0.6408  0.5036
  290TMC3    C3 4424   1.991   2.503  14.128  0.3949 -0.1756 -0.7006
  290TMC3    C4 4425   1.996   2.311  14.330  0.0226 -0.0634 -0.4798
  290TMC3    C5 4426   1.923   2.289  14.214  0.1564 -0.4533  0.7092
  290TMC3    C6 4427   1.921   2.385  14.117 -0.2398 -0.0229 -0.0317
  290TMC3     C 4428   2.191   2.432  14.425 -0.5863 -0.6311  0.0353
  290TMC3     O 4429   2.262   2.532  14.430 -0.0923  0.1179  0.7871
  290TMC3     H 4430   2.147   2.591  14.236  0.1275  0.9239 -2.4080
  290TMC3    H1 4431   1.981   2.249  14.418  1.2822 -0.5284 -0.5970
  290TMC3    H2 4432   1.848   2.377  14.037  1.3187  0.3752 -1.5072
  290TMC3    C7 4433   1.801   2.209  14.218  0.1253  0.8421 -0.0924
  290TMC3    C8 4434   1.905   2.616  14.148  0.3716  1.2394  0.2572
  290TMC3    O1 4435   1.715   2.230  14.134 -0.5774 -0.2263 -0.2597
  290TMC3    O2 4436   1.788   2.591  14.167 -0.4555  0.3124 -0.1729
  291MPD2     C 4437   1.711   2.196   0.937  0.4090 -0.3001  0.8586
  291MPD2    C1 4438   1.800   2.096   0.900 -0.0530  0.4690 -0.1927
  291MPD2    C2 4439   1.909   2.125   0.818 -0.1169 -0.5478  0.1639
  291MPD2    C3 4440   1.933   2.256   0.774 -0.5702  0.2684  0.6101
  291MPD2    C4 4441   1.841   2.359   0.812  0.2422 -0.1271  0.5670
  291MPD2    C5 4442   1.731   2.324   0.889  0.1964 -0.0089 -0.0499
  291MPD2     H 4443   1.971   2.040   0.792 -0.8642 -1.1193  0.2459
  291MPD2    H1 4444   1.850   2.465   0.791 -0.4894 -0.1821 -0.0338
  291MPD2    H2 4445   1.629   2.180   1.006  0.8842 -1.4148  1.1671
  291MPD2    H3 4446   1.663   2.403   0.919 -1.0005 -1.0125 -0.1137
  291MPD2     N 4447   2.039   2.284   0.688  0.5155  0.0146  0.0914
  291MPD2    H5 4448   2.049   2.377   0.649  1.5886 -1.1047 -2.3454
  291MPD2    N1 4449   1.790   1.965   0.946 -0.1247  0.2887 -0.2776
  291MPD2    H7 4450   1.862   1.895   0.930 -0.9311 -1.0565  2.0045
  292TMC3    C1 4451   1.680   1.783   1.047  0.1457  0.4377 -0.5995
  292TMC3    C2 4452   1.622   1.767   1.166 -0.1745  0.0547 -0.4900
  292TMC3    C3 4453   1.620   1.637   1.207 -0.7369 -0.2852  0.2441
  292TMC3    C4 4454   1.731   1.683   0.967 -0.2679  0.2376  0.2160
  292TMC3    C5 4455   1.713   1.555   1.012  0.0885  0.3579 -0.1884
  292TMC3    C6 4456   1.658   1.529   1.137  0.3073 -0.5567 -0.3098
  292TMC3     C 4457   1.675   1.915   1.000  0.1300  0.4699 -0.0707
  292TMC3     O 4458   1.574   1.981   1.021 -0.3975  0.1316  0.0069
  292TMC3     H 4459   1.590   1.851   1.227 -1.5964 -1.0447  0.2825
  292TMC3    H1 4460   1.765   1.712   0.868 -0.6760  1.4969  0.4491
  292TMC3    H2 4461   1.667   1.432   1.185  1.8290 -0.7921 -1.0414
  292TMC3    C7 4462   1.785   1.450   0.935  0.5411 -0.8668  0.4341
  292TMC3    C8 4463   1.620   1.613   1.349  0.2533 -0.7778 -0.2588
  292TMC3    O1 4464   1.768   1.331   0.965 -0.7718  1.0421  0.2563
  292TMC3    O2 4465   1.679   1.695   1.415 -0.3742 -0.2034  0.4311
  293MPD2     C 4466   3.116   3.747  12.795  0.2081  0.8134  0.9316
  293MPD2    C1 4467   3.032   3.686  12.883 -0.2372  0.3929  0.4358
  293MPD2    C2 4468   3.071   3.651  13.019  0.4068  0.1482 -0.3567
  293MPD2    C3 4469   3.202   3.684  13.048  0.3269  0.0003 -0.0309
  293MPD2    C4 4470   3.290   3.728  12.953 -0.1950  0.4589 -0.2985
  293MPD2    C5 4471   3.248   3.751  12.828 -0.0675 -0.8823 -0.0373
  293MPD2     H 4472   2.995   3.616  13.089  0.8468  0.6428  0.3646
  293MPD2    H1 4473   3.392   3.758  12.976 -0.5338  1.3114  0.1010
  293MPD2    H2 4474   3.083   3.761  12.693 -1.6396  1.2560  1.5885
  293MPD2    H3 4475   3.319   3.803  12.765 -0.2129 -0.2471  0.3207
  293MPD2     N 4476   3.250   3.656  13.183  0.6025  0.1211  0.7556
  293MPD2    H5 4477   3.182   3.608  13.242  0.3749 -1.9300 -1.1518
  293MPD2    N1 4478   2.901   3.652  12.827  0.7972  0.3023 -0.1659
  293MPD2    H7 4479   2.881   3.684  12.733  1.6220 -0.7792 -0.7139
  294TMC3    C1 4480   2.683   3.572  12.822  0.6760 -0.0404 -0.0790
  294TMC3    C2 4481   2.610   3.458  12.851 -0.0014 -0.9694  0.0961
  294TMC3    C3 4482   2.503   3.435  12.773  0.1274  0.1949  0.2237
  294TMC3    C4 4483   2.658   3.650  12.715 -0.5543  0.6098 -0.1592
  294TMC3    C5 4484   2.553   3.619  12.642 -0.0572  0.3532  0.0693
  294TMC3    C6 4485   2.473   3.513  12.665 -0.0588  0.2527 -0.1655
  294TMC3     C 4486   2.802   3.577  12.894  0.3713  1.0586  0.5502
  294TMC3     O 4487   2.808   3.519  13.003  0.1905 -0.2847 -0.3026
  294TMC3     H 4488   2.636   3.402  12.940 -0.5874 -1.2697  0.0775
  294TMC3    H1 4489   2.699   3.750  12.714 -1.2725  0.9309  1.9049
  294TMC3    H2 4490   2.383   3.502  12.606 -2.0427 -3.2812  3.5480
  294TMC3    C7 4491   2.506   3.710  12.542 -0.0609 -0.3988 -0.2207
  294TMC3    C8 4492   2.431   3.309  12.789  0.0442  0.1809 -0.4399
  294TMC3    O1 4493   2.388   3.712  12.521 -0.1008 -0.3019  0.2389
  294TMC3    O2 4494   2.445   3.259  12.900 -0.0419 -0.0625 -0.7878
  295MPD2     C 4495   4.516   2.549   1.203  0.1264  0.2331  0.9701
  295MPD2    C1 4496   4.386   2.507   1.230 -0.0835 -0.3247  0.6204
  295MPD2    C2 4497   4.361   2.385   1.291  0.3451  0.2183 -0.8982
  295MPD2    C3 4498   4.464   2.304   1.334 -0.1173 -0.3147 -0.0485
  295MPD2    C4 4499   4.594   2.338   1.309 -0.3967 -0.2516 -0.3411
  295MPD2    C5 4500   4.617   2.459   1.238  0.3315  0.1752  0.5027
  295MPD2     H 4501   4.258   2.350   1.292 -0.1290  1.6238 -0.3738
  295MPD2    H1 4502   4.679   2.276   1.337 -0.4126 -0.3942 -0.6114
  295MPD2    H2 4503   4.543   2.637   1.146  0.6358  0.3371  1.3685
  295MPD2    H3 4504   4.721   2.474   1.212  0.5523  0.9443  1.8289
  295MPD2     N 4505   4.434   2.177   1.392  0.1726  0.4023 -0.1904
  295MPD2    H5 4506   4.519   2.129   1.420  1.1161  2.5312  0.5424
  295MPD2    N1 4507   4.273   2.572   1.183  0.1960 -0.2845  0.4117
  295MPD2    H7 4508   4.185   2.527   1.205  0.0165 -0.2928 -0.3101
  296TMC3    C1 4509   4.307   2.029   1.529 -0.3180 -0.0791 -0.3515
  296TMC3    C2 4510   4.246   2.041   1.647  0.0135  0.7255  0.6795
  296TMC3    C3 4511   4.261   1.929   1.726 -0.3302  0.0021  0.2582
  296TMC3    C4 4512   4.380   1.917   1.482  0.2430 -0.4316  0.0142
  296TMC3    C5 4513   4.390   1.815   1.572  0.2872  0.2292 -0.0701
  296TMC3    C6 4514   4.331   1.812   1.693 -0.2932 -0.6422  0.2828
  296TMC3     C 4515   4.304   2.142   1.440 -0.6579 -0.0067  0.3724
  296TMC3     O 4516   4.201   2.210   1.446  0.2739  0.3088  0.2839
  296TMC3     H 4517   4.185   2.128   1.666 -0.9523  0.8162 -2.8044
  296TMC3    H1 4518   4.409   1.911   1.377 -0.7479 -0.1187 -0.2759
  296TMC3    H2 4519   4.354   1.730   1.760  0.0507 -1.3482 -0.7065
  296TMC3    C7 4520   4.413   1.684   1.526  0.4443 -0.3459  0.2177
  296TMC3    C8 4521   4.209   1.933   1.856 -0.4005  0.3455  0.1418
  296TMC3    O1 4522   4.506   1.658   1.448  0.4380  0.7702 -0.7576
  296TMC3    O2 4523   4.223   1.829   1.922 -0.5198 -0.5702  0.4281
  297MPD2     C 4524   1.032   4.092  16.415 -0.0108 -0.8735  0.6294
  297MPD2    C1 4525   1.095   4.143  16.301 -0.1828 -0.3954 -0.6136
  297MPD2    C2 4526   1.225   4.181  16.309  0.1333 -0.8519  0.7478
  297MPD2    C3 4527   1.295   4.158  16.424  0.7100  0.0344  0.1991
  297MPD2    C4 4528   1.232   4.098  16.529  0.6431  0.3745 -0.2258
  297MPD2    C5 4529   1.097   4.076  16.527  0.3758  0.7510 -0.3636
  297MPD2     H 4530   1.270   4.236  16.227 -0.9995  0.7499  1.1883
  297MPD2    H1 4531   1.283   4.062  16.617  0.4361  1.4103  0.3147
  297MPD2    H2 4532   0.926   4.068  16.417 -0.5067  1.3177  1.0518
  297MPD2    H3 4533   1.040   4.040  16.612 -1.5528  0.3921 -1.8039
  297MPD2     N 4534   1.433   4.195  16.426 -0.0720 -0.4472 -1.3513
  297MPD2    H5 4535   1.466   4.221  16.334  0.3063 -0.9845 -1.3613
  297MPD2    N1 4536   1.011   4.167  16.184  0.4226  0.6411 -0.0918
  297MPD2    H7 4537   0.913   4.144  16.190  0.2072  1.7630  0.5829
  298TMC3    C1 4538   0.951   4.269  15.986  1.2395  0.4444 -0.4702
  298TMC3    C2 4539   0.972   4.278  15.852 -0.2331 -0.1213  0.3751
  298TMC3    C3 4540   0.856   4.291  15.776  0.0202  0.0997 -0.2164
  298TMC3    C4 4541   0.838   4.304  16.051  0.0628 -0.0343  0.2279
  298TMC3    C5 4542   0.740   4.339  15.968 -0.5285  0.1301  0.0172
  298TMC3    C6 4543   0.740   4.323  15.839 -0.8048  0.1601  0.4139
  298TMC3     C 4544   1.060   4.219  16.069  0.5023 -0.1326  0.4591
  298TMC3     O 4545   1.175   4.213  16.027  0.2318 -0.7848  0.6224
  298TMC3     H 4546   1.064   4.243  15.807 -1.6667 -0.9346 -1.9497
  298TMC3    H1 4547   0.825   4.315  16.158  0.2952  0.9556  0.1560
  298TMC3    H2 4548   0.656   4.352  15.776 -0.3221 -0.8273 -0.6980
  298TMC3    C7 4549   0.609   4.365  16.033 -0.7048  0.5057 -0.2705
  298TMC3    C8 4550   0.865   4.331  15.633  0.1534 -0.5451 -0.5319
  298TMC3    O1 4551   0.606   4.375  16.157 -0.2648 -0.0565  0.0739
  298TMC3    O2 4552   0.762   4.322  15.570  0.4414 -0.1615 -0.7763
  299MPD2     C 4553   1.107   4.320  11.020  0.6907 -0.2665  0.2339
  299MPD2    C1 4554   1.206   4.394  10.955 -0.7830 -0.1333  0.1131
  299MPD2    C2 4555   1.204   4.396  10.819 -0.9924  0.8669  0.0796
  299MPD2    C3 4556   1.122   4.305  10.747 -0.7075  0.2784 -0.2542
  299MPD2    C4 4557   1.035   4.229  10.814 -0.9392  0.3048 -0.1091
  299MPD2    C5 4558   1.020   4.247  10.951 -0.0791 -0.4327 -0.1665
  299MPD2     H 4559   1.270   4.457  10.758  1.3177 -0.9001  0.8257
  299MPD2    H1 4560   0.970   4.156  10.767  1.3011 -1.1031 -1.0349
  299MPD2    H2 4561   1.093   4.341  11.126 -1.0855 -1.6620  0.2595
  299MPD2    H3 4562   0.953   4.191  11.016 -1.1015 -0.0943 -0.9336
  299MPD2     N 4563   1.095   4.308  10.611 -0.0967 -0.2677 -1.0149
  299MPD2    H5 4564   1.019   4.250  10.577 -0.0407 -0.6377 -0.4971
  299MPD2    N1 4565   1.301   4.479  11.019 -0.1942  0.0060  0.5203
  299MPD2    H7 4566   1.364   4.532  10.960 -0.2715  0.1572  0.5728
  300TMC3    C1 4567   1.127   4.329  10.384  0.5727 -0.3397 -0.3037
  300TMC3    C2 4568   1.115   4.441  10.307 -0.2462 -0.7421  0.9708
  300TMC3    C3 4569   0.999   4.463  10.229 -0.4968 -0.2728  0.2404
  300TMC3    C4 4570   1.031   4.236  10.377  0.3380  0.1838 -0.1555
  300TMC3    C5 4571   0.930   4.257  10.290 -0.5969 -0.4790 -0.1340
  300TMC3    C6 4572   0.908   4.366  10.218 -0.1337 -0.3250 -0.3293
  300TMC3     C 4573   1.177   4.363  10.510  0.1847 -0.3819 -0.5391
  300TMC3     O 4574   1.277   4.432  10.517 -0.0423  0.2332  0.2632
  300TMC3     H 4575   1.185   4.524  10.311  0.7258 -1.4541 -1.1878
  300TMC3    H1 4576   1.038   4.145  10.436  0.5168  0.0741 -0.3428
  300TMC3    H2 4577   0.810   4.380  10.174 -0.2408 -0.3253 -0.0937
  300TMC3    C7 4578   0.811   4.219  10.362 -0.2471  0.2965  0.4715
  300TMC3    C8 4579   0.942   4.598  10.253 -0.3766 -0.1389 -0.2337
  300TMC3    O1 4580   0.789   4.100  10.359 -0.3353  0.0306  0.4017
  300TMC3    O2 4581   1.019   4.684  10.296 -0.4954 -0.4338  0.4482
  301MPD2     C 4582   4.260   0.207   1.798 -0.3275  0.2908 -0.3918
  301MPD2    C1 4583   4.129   0.166   1.771  0.9027 -0.0592  0.0255
  301MPD2    C2 4584   4.105   0.033   1.737 -0.5936  0.9474  0.0336
  301MPD2    C3 4585   4.208   4.685   1.747  0.2569 -0.4662 -0.0218
  301MPD2    C4 4586   4.337   4.723   1.768 -0.1371  0.0568  0.2638
  301MPD2    C5 4587   4.359   0.112   1.799  0.0359  0.2617  1.3341
  301MPD2     H 4588   4.005   4.738   1.713 -0.2086  0.8920 -1.4892
  301MPD2    H1 4589   4.414   4.647   1.772 -1.3241 -1.0410  2.0305
  301MPD2    H2 4590   4.289   0.310   1.812  0.8327  0.1980 -2.1573
  301MPD2    H3 4591   4.459   0.144   1.825  0.3170  0.6217 -0.2534
  301MPD2     N 4592   4.185   4.543   1.729 -0.5495  0.3506  0.2048
  301MPD2    H5 4593   4.263   4.484   1.702 -1.8999 -0.0249 -2.8442
  301MPD2    N1 4594   4.015   0.252   1.754 -0.0366 -0.1258 -0.4276
  301MPD2    H7 4595   3.924   0.208   1.743 -0.4872  0.7935 -0.4340
  302TMC3    C1 4596   4.065   4.364   1.631 -0.4647  0.3200  0.2782
  302TMC3    C2 4597   4.175   4.283   1.633 -0.1572  0.3880 -0.0702
  302TMC3    C3 4598   4.181   4.184   1.538  0.0894 -0.1311 -0.0599
  302TMC3    C4 4599   3.971   4.356   1.534 -0.2308  0.3083  0.2490
  302TMC3    C5 4600   3.984   4.258   1.439  1.1430 -0.0534  0.3823
  302TMC3    C6 4601   4.083   4.166   1.443 -0.4942  0.9731  0.3589
  302TMC3     C 4602   4.062   4.482   1.718  0.1538 -0.4618 -0.0400
  302TMC3     O 4603   3.954   4.529   1.741  0.2993  0.1927 -0.5432
  302TMC3     H 4604   4.253   4.298   1.706  1.1108  0.3948 -1.4418
  302TMC3    H1 4605   3.911   4.445   1.520  0.7713  0.7253 -1.4399
  302TMC3    H2 4606   4.090   4.090   1.367  0.1944  0.9334  0.4661
  302TMC3    C7 4607   3.929   4.283   1.300  0.0286  1.2404  0.0910
  302TMC3    C8 4608   4.259   4.071   1.576 -0.1219  0.1152  0.5893
  302TMC3    O1 4609   3.998   4.258   1.203  0.1680 -0.0227  0.4343
  302TMC3    O2 4610   4.360   4.099   1.645  0.2246  0.4763  0.4473
  303MPD2     C 4611   3.550   3.706  10.740 -0.1479 -0.4467 -0.1353
  303MPD2    C1 4612   3.558   3.679  10.605  0.0991 -0.8162 -0.0387
  303MPD2    C2 4613   3.664   3.735  10.528 -0.3395  0.5642  0.2255
  303MPD2    C3 4614   3.771   3.799  10.593 -0.0015 -0.2313 -0.9796
  303MPD2    C4 4615   3.752   3.829  10.727  0.3434  0.0314 -0.2039
  303MPD2    C5 4616   3.643   3.786  10.797 -0.3263 -0.7088 -0.2117
  303MPD2     H 4617   3.667   3.704  10.424 -4.3612  0.0217  0.2580
  303MPD2    H1 4618   3.822   3.887  10.786 -1.2705  0.3355  1.4165
  303MPD2    H2 4619   3.465   3.675  10.800  0.3604 -2.4866 -0.4850
  303MPD2    H3 4620   3.632   3.800  10.904 -3.3084  0.1616 -0.6161
  303MPD2     N 4621   3.884   3.853  10.523 -0.0108  0.1507 -0.2882
  303MPD2    H5 4622   3.942   3.919  10.573  0.9383  0.0466 -1.2570
  303MPD2    N1 4623   3.457   3.596  10.541 -0.5656  0.5399  0.0095
  303MPD2    H7 4624   3.389   3.545  10.597 -1.6254  3.7950  1.6699
  304TMC3    C1 4625   3.339   3.489  10.371  0.5169  0.2555 -0.2282
  304TMC3    C2 4626   3.269   3.505  10.252 -0.2641 -0.6019  0.3977
  304TMC3    C3 4627   3.202   3.408  10.183 -0.0693  1.3969  0.2435
  304TMC3    C4 4628   3.354   3.363  10.422 -0.1022 -0.5258  0.4608
  304TMC3    C5 4629   3.284   3.263  10.360 -0.3277 -0.6170 -0.4260
  304TMC3    C6 4630   3.214   3.284  10.246  0.4448 -0.2802  0.2957
  304TMC3     C 4631   3.438   3.585  10.404 -0.6967  0.6549  0.5158
  304TMC3     O 4632   3.494   3.639  10.311 -0.4551 -0.0372 -0.1372
  304TMC3     H 4633   3.264   3.606  10.213 -2.0084 -0.4020  1.1417
  304TMC3    H1 4634   3.427   3.349  10.501  0.0408 -1.1139  0.2187
  304TMC3    H2 4635   3.173   3.191  10.209 -0.3350 -0.3982  1.4590
  304TMC3    C7 4636   3.362   3.143  10.346  0.3740 -0.5575 -0.0588
  304TMC3    C8 4637   3.224   3.405  10.044  0.6244 -0.3732 -0.0828
  304TMC3    O1 4638   3.408   3.094  10.448 -0.0832  0.5492 -0.0667
  304TMC3    O2 4639   3.219   3.292  10.001 -0.8432  0.0233 -0.1488
  305MPD2     C 4640   1.855   0.895  14.249 -0.7473  0.0546  0.3596
  305MPD2    C1 4641   1.918   0.774  14.273 -0.5489  0.1277 -0.5928
  305MPD2    C2 4642   1.873   0.662  14.203  0.2774 -0.1166 -0.0535
  305MPD2    C3 4643   1.768   0.672  14.109  0.2282 -0.0858 -0.3480
  305MPD2    C4 4644   1.718   0.801  14.085 -0.6997 -0.5497  0.2547
  305MPD2    C5 4645   1.764   0.911  14.151 -0.4206  0.0746 -0.2638
  305MPD2     H 4646   1.923   0.567  14.216 -0.5824 -0.5517  0.0485
  305MPD2    H1 4647   1.647   0.803  14.004 -2.5419  0.0154  1.8907
  305MPD2    H2 4648   1.878   0.987  14.302 -0.3744  0.7803 -1.0394
  305MPD2    H3 4649   1.727   1.007  14.118  2.4333  0.9582 -0.8666
  305MPD2     N 4650   1.724   0.563  14.034 -0.2645 -0.6689 -0.8238
  305MPD2    H5 4651   1.647   0.578  13.970 -0.5682 -0.5805 -0.4396
  305MPD2    N1 4652   2.038   0.778  14.349  0.2433 -0.6141  0.3372
  305MPD2    H7 4653   2.040   0.861  14.408  1.2951  0.6149 -1.4285
  306TMC3    C1 4654   2.221   0.709  14.469  0.9458 -0.0936 -0.3352
  306TMC3    C2 4655   2.331   0.634  14.475  0.3067  0.6937 -0.0659
  306TMC3    C3 4656   2.399   0.621  14.592 -0.2134  0.2918  0.0195
  306TMC3    C4 4657   2.173   0.780  14.581  0.1526  0.5191  0.3172
  306TMC3    C5 4658   2.250   0.770  14.697 -0.0346  0.2073 -0.4177
  306TMC3    C6 4659   2.369   0.696  14.701 -0.4552  0.3204  0.5298
  306TMC3     C 4660   2.133   0.682  14.358  0.1879  0.5856 -0.5613
  306TMC3     O 4661   2.159   0.588  14.292 -0.3933  0.2167  0.1808
  306TMC3     H 4662   2.360   0.565  14.397  1.2387  0.7094  0.2726
  306TMC3    H1 4663   2.076   0.829  14.582  1.7569  3.6896 -0.4872
  306TMC3    H2 4664   2.438   0.710  14.783  1.0371 -2.9584 -0.1783
  306TMC3    C7 4665   2.233   0.881  14.791  0.0571  0.5602 -0.1256
  306TMC3    C8 4666   2.523   0.553  14.601  0.1861  0.0129  0.0407
  306TMC3    O1 4667   2.143   0.960  14.769 -0.8187 -0.2866  0.0097
  306TMC3    O2 4668   2.589   0.548  14.498 -0.0004 -0.4711 -0.0407
  307MPD2     C 4669   0.322   3.385   0.901  0.2657  0.0939  0.0392
  307MPD2    C1 4670   0.250   3.463   0.813  0.1572 -0.4943  0.2314
  307MPD2    C2 4671   0.150   3.543   0.871  0.6521 -0.0353  0.2298
  307MPD2    C3 4672   0.121   3.534   1.003 -0.1492  0.0060 -0.5605
  307MPD2    C4 4673   0.189   3.448   1.082  0.4671  0.0848 -0.2165
  307MPD2    C5 4674   0.293   3.379   1.032 -0.6488 -0.8174  0.2627
  307MPD2     H 4675   0.091   3.605   0.805 -1.1650 -2.1164 -0.1281
  307MPD2    H1 4676   0.168   3.434   1.188  0.7064  0.7481 -0.0844
  307MPD2    H2 4677   0.412   3.336   0.865  0.1793  1.0728 -1.5407
  307MPD2    H3 4678   0.350   3.317   1.100  0.8264  0.2790  0.0065
  307MPD2     N 4679   0.015   3.617   1.049  0.7848 -0.2706  0.3157
  307MPD2    H5 4680   4.735   3.701   0.995 -1.0969 -0.4037  0.7208
  307MPD2    N1 4681   0.271   3.479   0.673 -0.2535 -0.1528  0.0984
  307MPD2    H7 4682   0.225   3.559   0.630  3.4920  2.2301  0.4687
  308TMC3    C1 4683   4.419   3.809   1.305  0.2410 -1.1486 -0.4640
  308TMC3    C2 4684   4.445   3.938   1.267 -0.5929 -0.4827  0.0551
  308TMC3    C3 4685   4.566   3.961   1.199 -0.6462 -1.0687  0.1122
  308TMC3    C4 4686   4.506   3.706   1.272 -0.0429  0.8785  0.1707
  308TMC3    C5 4687   4.615   3.732   1.193  0.5841  0.0771  0.0744
  308TMC3    C6 4688   4.646   3.857   1.145  0.7309  0.2311 -0.6910
  308TMC3     C 4689   4.285   3.760   1.303  0.1335 -0.4562 -0.0661
  308TMC3     O 4690   4.277   3.640   1.330  0.2511  0.4190 -0.0111
  308TMC3     H 4691   4.381   4.023   1.288  0.2483  0.0499  0.4666
  308TMC3    H1 4692   4.492   3.601   1.294  1.6543  0.9851  1.7723
  308TMC3    H2 4693   0.008   3.874   1.105  1.1843 -0.6458  0.0718
  308TMC3    C7 4694   4.692   3.608   1.172  0.3289 -1.0161 -0.2668
  308TMC3    C8 4695   4.599   4.093   1.166 -0.0926  0.2827  0.4667
  308TMC3    O1 4696   4.685   3.513   1.248  0.3531 -0.5727  0.7811
  308TMC3    O2 4697   4.553   4.167   1.254  0.3825 -0.2288  0.0402
  309MPD2     C 4698   4.089   3.747  17.069  0.1502  0.1435 -0.0700
  309MPD2    C1 4699   4.040   3.866  17.017  0.4782 -0.4971  0.4041
  309MPD2    C2 4700   3.970   3.942  17.114  0.1996 -0.1033  0.1076
  309MPD2    C3 4701   3.961   3.911  17.252 -0.1431 -0.0136 -0.0992
  309MPD2    C4 4702   4.032   3.804  17.296 -0.5987  0.1802 -0.3339
  309MPD2    C5 4703   4.091   3.728  17.206  0.2845 -0.2577 -0.6246
  309MPD2     H 4704   3.917   4.031  17.085  0.9585  0.4022  0.2576
  309MPD2    H1 4705   4.026   3.774  17.400  0.3099  2.2861  0.3246
  309MPD2    H2 4706   4.157   3.684  17.012  0.2151  2.3894 -2.4575
  309MPD2    H3 4707   4.133   3.635  17.244  1.0422  0.9901  1.5664
  309MPD2     N 4708   3.908   3.986  17.357 -0.0557  0.0527  0.6830
  309MPD2    H5 4709   3.923   3.940  17.447  1.0164 -0.0912  0.4270
  309MPD2    N1 4710   4.058   3.909  16.885 -0.0502 -0.2360 -0.1328
  309MPD2    H7 4711   3.998   3.985  16.855 -3.2094 -2.5846  0.2171
  310TMC3    C1 4712   4.127   3.889  16.653 -0.1941  0.2800  0.3988
  310TMC3    C2 4713   4.054   4.004  16.627  0.0389 -0.0682  0.3267
  310TMC3    C3 4714   4.054   4.035  16.495  1.0284 -0.5575 -0.1234
  310TMC3    C4 4715   4.196   3.816  16.560 -0.7371 -0.4459 -0.2480
  310TMC3    C5 4716   4.198   3.853  16.432  0.3459  0.0661 -0.0513
  310TMC3    C6 4717   4.121   3.966  16.400 -0.1331 -0.2199 -0.6728
  310TMC3     C 4718   4.127   3.838  16.785 -0.3196 -0.8363  0.0302
  310TMC3     O 4719   4.214   3.751  16.802  0.3600 -0.0904 -0.2732
  310TMC3     H 4720   4.003   4.067  16.700 -1.8084  1.7415 -2.5646
  310TMC3    H1 4721   4.241   3.720  16.580 -0.3244 -0.3080 -0.5058
  310TMC3    H2 4722   4.135   4.002  16.299 -0.4299  0.6857 -0.3994
  310TMC3    C7 4723   4.237   3.747  16.328  0.2052  0.2669  0.1196
  310TMC3    C8 4724   3.971   4.146  16.447  0.6159  0.2478 -0.3633
  310TMC3    O1 4725   4.300   3.646  16.366 -0.1436 -0.6199 -0.0474
  310TMC3    O2 4726   3.874   4.176  16.515  0.3946  0.0010 -0.1312
  311MPD2     C 4727   1.005   0.368  12.710  0.1924 -0.4313  0.4243
  311MPD2    C1 4728   0.982   0.490  12.773 -0.4295 -0.7126 -0.3605
  311MPD2    C2 4729   0.890   0.499  12.879  0.3716  0.1496 -0.0321
  311MPD2    C3 4730   0.824   0.388  12.913  0.4164 -0.0106 -0.0067
  311MPD2    C4 4731   0.848   0.264  12.855 -0.4161  0.1653 -0.1039
  311MPD2    C5 4732   0.931   0.260  12.750 -0.5246 -0.7464 -0.5170
  311MPD2     H 4733   0.870   0.590  12.935  0.8041  0.8859 -1.0801
  311MPD2    H1 4734   0.791   0.176  12.886 -1.5229  0.0514 -2.4760
  311MPD2    H2 4735   1.071   0.353  12.626 -0.2161 -4.6953  0.8464
  311MPD2    H3 4736   0.945   0.166  12.697 -0.3117 -0.8753 -0.2382
  311MPD2     N 4737   0.715   0.400  13.004  0.5040 -0.1530  0.2434
  311MPD2    H5 4738   0.698   0.487  13.052  1.2721  1.0005 -1.5864
  311MPD2    N1 4739   1.048   0.611  12.746  0.9454  0.2117  0.0795
  311MPD2    H7 4740   1.027   0.696  12.797 -0.0867  1.0918 -1.8151
  312TMC3    C1 4741   0.552   0.343  13.150 -0.2484 -0.4814  0.2310
  312TMC3    C2 4742   0.419   0.315  13.134  1.5357 -0.1687 -0.5471
  312TMC3    C3 4743   0.331   0.406  13.168  0.4240 -0.5829 -0.2290
  312TMC3    C4 4744   0.596   0.453  13.216  0.6127  0.3290  0.1278
  312TMC3    C5 4745   0.505   0.547  13.254  0.2139  0.5803  0.3519
  312TMC3    C6 4746   0.373   0.523  13.230 -0.0204 -0.5378  0.6488
  312TMC3     C 4747   0.638   0.299  13.047 -0.9299  0.6265 -0.5518
  312TMC3     O 4748   0.610   0.190  12.996 -0.4033  0.1197  0.2063
  312TMC3     H 4749   0.391   0.216  13.098  2.5985  0.2215 -2.3947
  312TMC3    H1 4750   0.701   0.467  13.242  0.5937  1.5600 -0.4849
  312TMC3    H2 4751   0.301   0.591  13.273 -0.2705 -0.8173  0.6689
  312TMC3    C7 4752   0.524   0.638  13.359 -0.5538 -0.2254 -0.2265
  312TMC3    C8 4753   0.218   0.409  13.085  0.1935  0.2112  0.5415
  312TMC3    O1 4754   0.465   0.742  13.376 -0.3078  0.4869  0.7694
  312TMC3    O2 4755   0.176   0.295  13.061  0.1207  0.7521  0.5176
  313MPD2     C 4756   0.342   4.571  11.050 -0.0334 -0.2598 -0.4498
  313MPD2    C1 4757   0.243   4.621  10.972  0.3780  0.2093 -0.4860
  313MPD2    C2 4758   0.181   4.544  10.875 -0.9376 -0.3358 -0.3584
  313MPD2    C3 4759   0.242   4.422  10.841  0.6301  0.1999  0.1671
  313MPD2    C4 4760   0.346   4.368  10.914  0.3255 -0.3956  0.2817
  313MPD2    C5 4761   0.383   4.441  11.021 -0.1188  0.1380 -0.0472
  313MPD2     H 4762   0.101   4.590  10.819 -0.4341  0.4551 -0.4380
  313MPD2    H1 4763   0.397   4.276  10.888  0.9316  0.0663 -0.1610
  313MPD2    H2 4764   0.394   4.625  11.129  1.6086  0.0689 -1.7533
  313MPD2    H3 4765   0.463   4.407  11.087 -0.2016 -0.2782 -0.1634
  313MPD2     N 4766   0.201   4.353  10.724 -0.7025  0.4589 -0.0261
  313MPD2    H5 4767   0.127   4.399  10.672  0.0949  1.3747 -0.3298
  313MPD2    N1 4768   0.204   0.013  11.015 -0.1491 -0.4191  0.1272
  313MPD2    H7 4769   0.262   0.058  11.085 -2.7730  3.3545 -0.1069
  314TMC3    C1 4770   0.057   0.196  11.039  0.2855 -0.3128 -0.1768
  314TMC3    C2 4771   0.151   0.287  11.076 -0.0213 -0.8228  0.6914
  314TMC3    C3 4772   0.101   0.402  11.130  0.0787 -0.4368  0.0512
  314TMC3    C4 4773   4.658   0.219  11.049  0.3143 -0.7311  0.4368
  314TMC3    C5 4774   4.616   0.339  11.102 -0.9318  0.4004 -0.1025
  314TMC3    C6 4775   4.704   0.434  11.143  0.1747  0.4410  0.3249
  314TMC3     C 4776   0.092   0.076  10.972 -0.1306 -0.6835  0.0355
  314TMC3     O 4777   0.024   0.042  10.878 -0.5065 -0.6764  0.5437
  314TMC3     H 4778   0.256   0.262  11.062  0.0274 -0.0930 -0.3166
  314TMC3    H1 4779   4.584   0.151  11.009 -0.5380  0.8522 -0.6609
  314TMC3    H2 4780   4.671   0.531  11.178 -1.0302  0.4407 -0.8554
  314TMC3    C7 4781   4.483   0.394  11.067  0.0498  0.0524  0.2528
  314TMC3    C8 4782   0.192   0.515  11.157  0.1171  0.2898  0.3560
  314TMC3    O1 4783   4.395   0.312  11.040 -0.0595 -0.2011 -0.1255
  314TMC3    O2 4784   0.156   0.585  11.252  0.0644  1.1785 -1.0832
  315MPD2     C 4785   0.442   3.303  17.513 -0.0590  0.5442 -0.6811
  315MPD2    C1 4786   0.500   3.363  17.619  0.0241 -0.2429  0.7434
  315MPD2    C2 4787   0.526   3.498  17.616  0.1254 -0.4621 -0.9370
  315MPD2    C3 4788   0.502   3.573  17.501 -0.2997  0.0242 -0.6963
  315MPD2    C4 4789   0.438   3.520  17.392  0.3337  0.4701  0.0666
  315MPD2    C5 4790   0.423   3.381  17.399 -0.0913  0.4470 -0.0387
  315MPD2     H 4791   0.561   3.550  17.703 -0.4056 -0.1937 -0.8850
  315MPD2    H1 4792   0.411   3.569  17.300 -0.1235 -1.9581 -1.1056
  315MPD2    H2 4793   0.430   3.197  17.496  3.8475  0.2527 -1.6819
  315MPD2    H3 4794   0.376   3.335  17.313  0.7041 -0.8951  0.2404
  315MPD2     N 4795   0.540   3.711  17.493  0.2817  0.3534 -0.3807
  315MPD2    H5 4796   0.585   3.735  17.581  1.3054 -0.7431 -0.6102
  315MPD2    N1 4797   0.550   3.279  17.730 -0.2150 -0.0264 -0.4432
  315MPD2    H7 4798   0.606   3.330   0.049  0.2896 -0.3386 -0.6212
  316TMC3    C1 4799   0.602   3.927  17.412  0.0951 -0.0279  0.3876
  316TMC3    C2 4800   0.666   3.957  17.531 -0.2467 -0.0699 -0.7276
  316TMC3    C3 4801   0.714   4.088  17.544 -0.1071 -0.0034  0.0296
  316TMC3    C4 4802   0.588   4.021  17.311  0.9512  0.0707 -0.6403
  316TMC3    C5 4803   0.632   4.145  17.331  0.7071 -0.1174 -0.8141
  316TMC3    C6 4804   0.686   4.185  17.452 -0.1085  0.3763 -0.8719
  316TMC3     C 4805   0.528   3.802  17.390  0.5461  0.2860 -0.6867
  316TMC3     O 4806   0.473   3.797  17.285  0.1158 -0.1953  0.2180
  316TMC3     H 4807   0.676   3.880  17.607 -1.6351  0.0414 -0.4242
  316TMC3    H1 4808   0.555   3.993  17.212  0.2828 -1.6034  0.0521
  316TMC3    H2 4809   0.720   4.285  17.477  0.2484 -0.2486  1.1401
  316TMC3    C7 4810   0.641   4.242  17.222 -0.0454  0.6834  0.9180
  316TMC3    C8 4811   0.802   4.128  17.648  0.4446 -0.8242 -0.4059
  316TMC3    O1 4812   0.717   4.338  17.224 -0.3240 -0.8139 -0.3561
  316TMC3    O2 4813   0.863   4.234  17.640 -0.3985 -0.6194 -0.2438
  317MPD2     C 4814   2.174   2.297  13.099  0.4810 -0.9848  0.1175
  317MPD2    C1 4815   2.281   2.202  13.105 -0.4111  0.5086 -0.7901
  317MPD2    C2 4816   2.343   2.182  13.228  0.0946  0.0404 -0.1786
  317MPD2    C3 4817   2.311   2.256  13.341 -0.9151  0.0716 -0.9890
  317MPD2    C4 4818   2.209   2.351  13.330  0.2108 -0.1349 -0.2901
  317MPD2    C5 4819   2.137   2.363  13.212  0.0775 -0.4634  0.0760
  317MPD2     H 4820   2.423   2.110  13.239  1.2910  1.7581  2.6093
  317MPD2    H1 4821   2.180   2.417  13.412 -0.2758  0.1394 -0.6789
  317MPD2    H2 4822   2.110   2.302  13.011 -0.2113 -1.9741  0.5560
  317MPD2    H3 4823   2.057   2.435  13.204 -0.8530 -1.5931 -0.8487
  317MPD2     N 4824   2.379   2.242  13.459 -0.9227  0.2546 -0.3958
  317MPD2    H5 4825   2.442   2.163  13.460  2.0735  2.6584  1.2325
  317MPD2    N1 4826   2.338   2.145  12.990  0.4164 -0.3146 -0.0574
  317MPD2    H7 4827   2.417   2.082  13.002 -0.1072 -1.2838 -1.7407
  318TMC3    C1 4828   2.428   2.227  13.677  0.2450  0.3254  0.3209
  318TMC3    C2 4829   2.415   2.094  13.681  0.2786 -0.1437 -0.4531
  318TMC3    C3 4830   2.457   2.028  13.789  0.1828  0.1146 -0.0177
  318TMC3    C4 4831   2.492   2.302  13.774 -0.0686 -0.6583 -0.5575
  318TMC3    C5 4832   2.558   2.227  13.873  0.1068 -1.0905  0.4037
  318TMC3    C6 4833   2.533   2.096  13.884 -0.7966  0.0448  0.6058
  318TMC3     C 4834   2.353   2.305  13.581 -0.1070 -0.5906 -0.1257
  318TMC3     O 4835   2.297   2.412  13.611  0.2245  0.0837  0.2456
  318TMC3     H 4836   2.362   2.042  13.603  1.1854 -2.5244  0.5238
  318TMC3    H1 4837   2.521   2.406  13.769  1.9315 -1.1507  0.8277
  318TMC3    H2 4838   2.573   2.039  13.967 -1.5858 -0.8219  0.3880
  318TMC3    C7 4839   2.670   2.293  13.940 -0.1703  0.1270 -0.0552
  318TMC3    C8 4840   2.424   1.887  13.819  0.1972  0.6748  0.2374
  318TMC3    O1 4841   2.672   2.419  13.939 -0.1667  0.3084  0.3670
  318TMC3    O2 4842   2.488   1.824  13.906  0.0666  0.1190 -0.1220
  319MPD2     C 4843   3.537   3.586  16.710 -0.7668 -0.2351  0.2503
  319MPD2    C1 4844   3.468   3.528  16.815  0.1134  0.3485  0.1976
  319MPD2    C2 4845   3.338   3.482  16.792  0.5519 -0.3861  0.1049
  319MPD2    C3 4846   3.276   3.484  16.669 -0.7330  0.2341  0.0574
  319MPD2    C4 4847   3.352   3.550  16.575 -0.0157  0.3833  0.6736
  319MPD2    C5 4848   3.476   3.598  16.593 -0.3427 -0.0632  0.5018
  319MPD2     H 4849   3.285   3.424  16.867  1.7666 -1.4078  0.1685
  319MPD2    H1 4850   3.325   3.556  16.470  2.4939 -0.3214 -0.0023
  319MPD2    H2 4851   3.638   3.623  16.722 -0.7839 -0.1654  0.1831
  319MPD2    H3 4852   3.530   3.647  16.513 -0.3079  0.9811  1.1599
  319MPD2     N 4853   3.149   3.429  16.639  0.0835  0.0698 -0.0756
  319MPD2    H5 4854   3.112   3.457  16.549 -0.6945 -0.8873 -0.0527
  319MPD2    N1 4855   3.535   3.499  16.939  0.1301 -0.3955 -0.1185
  319MPD2    H7 4856   3.484   3.440  17.004  2.1946 -1.5622  0.4251
  320TMC3    C1 4857   2.936   3.308  16.691 -0.7909  0.0353  0.4856
  320TMC3    C2 4858   2.873   3.347  16.581  0.1499  0.7942 -1.0007
  320TMC3    C3 4859   2.752   3.285  16.549 -0.4557 -0.3152 -0.2427
  320TMC3    C4 4860   2.887   3.202  16.770  0.5341 -0.3025  0.5318
  320TMC3    C5 4861   2.774   3.129  16.726  0.2245  0.5707  0.7233
  320TMC3    C6 4862   2.701   3.174  16.622 -0.3641 -0.6168  0.0575
  320TMC3     C 4863   3.072   3.356  16.727  0.2044 -0.5596 -0.6311
  320TMC3     O 4864   3.089   3.337  16.848  0.6245 -0.0815 -0.2533
  320TMC3     H 4865   2.905   3.442  16.540 -0.0104  0.0744 -2.7637
  320TMC3    H1 4866   2.949   3.153  16.845  1.0124  1.8138  1.4994
  320TMC3    H2 4867   2.629   3.115  16.567 -0.6444 -1.4559  1.3329
  320TMC3    C7 4868   2.759   2.984  16.763  0.1439  0.1915 -0.0339
  320TMC3    C8 4869   2.673   3.351  16.445 -0.3484  0.7856 -0.0757
  320TMC3    O1 4870   2.854   2.920  16.812 -0.5893  0.3598  0.4675
  320TMC3    O2 4871   2.737   3.434  16.383 -0.5896  0.2407  0.0091
  321TMC3    C1 4872   3.698   3.507  17.128 -0.2992 -0.0708 -0.2101
  321TMC3    C2 4873   3.687   3.369  17.147  0.1200 -0.2351  1.5150
  321TMC3    C3 4874   3.745   3.318  17.256  0.0342 -0.1817 -0.3795
  321TMC3    C4 4875   3.771   3.587  17.209 -0.6927 -0.0204  0.2266
  321TMC3    C5 4876   3.833   3.531  17.320  0.3389  0.0162  0.3815
  321TMC3    C6 4877   3.828   3.393  17.336 -0.8144 -0.1461 -0.5447
  321TMC3     C 4878   3.656   3.559  16.991 -0.0580 -0.6913  0.5596
  321TMC3     O 4879   3.733   3.639  16.940  0.0634 -0.2227 -0.1503
  321TMC3     H 4880   3.615   3.311  17.090 -0.1905  0.8837  0.7664
  321TMC3    H1 4881   3.792   3.689  17.182 -4.0901  0.0979 -1.8745
  321TMC3    H2 4882   3.888   3.350  17.415  0.0028  0.3856 -0.8824
  321TMC3    C7 4883   3.802   3.590  17.447 -0.2029  0.2594  0.4528
  321TMC3    C8 4884   3.667   3.222  17.330 -0.0269  0.1239 -0.1811
  321TMC3    O1 4885   3.823   3.518  17.544 -0.2057  0.1893 -0.9824
  321TMC3    O2 4886   3.587   3.146  17.278 -0.0070 -0.2765  0.8465
  322MPD2     C 4887   2.263   4.619  13.850 -0.4989  0.1811  0.0327
  322MPD2    C1 4888   2.234   4.568  13.971 -0.0782  0.3882 -0.3107
  322MPD2    C2 4889   2.202   4.431  13.982  0.2065 -0.5223  0.0052
  322MPD2    C3 4890   2.209   4.345  13.874  0.1254 -0.1250  0.4211
  322MPD2    C4 4891   2.248   4.400  13.752 -0.4484  0.1326  0.6640
  322MPD2    C5 4892   2.288   4.531  13.752  0.3737  0.2207 -0.1865
  322MPD2     H 4893   2.170   4.380  14.072 -0.5154  1.3540  0.8273
  322MPD2    H1 4894   2.260   4.336  13.665 -0.5401 -0.2713  0.9451
  322MPD2    H2 4895   2.285   4.725  13.849  1.4493 -0.2455 -1.3210
  322MPD2    H3 4896   2.338   4.561  13.661 -0.5365  0.8884 -0.4692
  322MPD2     N 4897   2.166   4.213  13.884  0.4638  0.3996  0.5242
  322MPD2    H5 4898   2.133   4.184  13.975  0.1451 -0.4456  0.1328
  322MPD2    N1 4899   2.230   4.656  14.081 -0.0767  0.4370 -0.2906
  322MPD2    H7 4900   2.280   0.005  14.067 -0.5483  0.7468 -0.0393
  323TMC3    C1 4901   2.229   4.698  14.315 -0.1255  0.1546  0.1322
  323TMC3    C2 4902   2.286   0.084  14.310 -0.1324 -0.4022  1.1273
  323TMC3    C3 4903   2.357   0.140  14.413  0.9262  0.3722  0.5366
  323TMC3    C4 4904   2.239   4.629  14.432 -0.3333 -0.1404  0.5789
  323TMC3    C5 4905   2.318   4.686  14.534  0.1503  0.4217 -0.2046
  323TMC3    C6 4906   2.372   0.073  14.525  0.3429  0.2001 -0.3617
  323TMC3     C 4907   2.175   4.626  14.204  0.9189 -0.4327 -0.3214
  323TMC3     O 4908   2.112   4.524  14.227  0.0612  0.0989  0.1649
  323TMC3     H 4909   2.275   0.144  14.220 -1.0599 -4.1913 -1.3208
  323TMC3    H1 4910   2.200   4.528  14.435  0.4381 -0.4589 -0.2704
  323TMC3    H2 4911   2.444   0.104  14.599 -0.3647  0.7895  0.0853
  323TMC3    C7 4912   2.387   4.588  14.613  0.0392 -0.6008 -0.3193
  323TMC3    C8 4913   2.460   0.230  14.368  0.0047  0.0691 -0.1662
  323TMC3    O1 4914   2.384   4.475  14.568 -0.2501 -0.5287  0.0243
  323TMC3    O2 4915   2.568   0.203  14.428 -0.0886  0.6553  0.5321
  324MPD2     C 4916   3.810   1.016  14.447 -0.4343  0.4664 -0.1039
  324MPD2    C1 4917   3.810   1.107  14.552  0.0918 -0.5954 -0.3091
  324MPD2    C2 4918   3.703   1.118  14.638  0.2146  0.5062 -0.6464
  324MPD2    C3 4919   3.582   1.046  14.626  0.2684 -0.3608 -0.6491
  324MPD2    C4 4920   3.593   0.953  14.526  0.3452 -0.0323 -0.0687
  324MPD2    C5 4921   3.702   0.941  14.438  0.8084 -0.0045  0.0881
  324MPD2     H 4922   3.717   1.178  14.728  0.6977 -0.8827  0.2117
  324MPD2    H1 4923   3.512   0.885  14.502 -0.8587  1.3339  0.1516
  324MPD2    H2 4924   3.889   0.997  14.375 -1.1108 -1.5340 -0.3157
  324MPD2    H3 4925   3.686   0.885  14.347  2.0518 -0.2038 -0.0108
  324MPD2     N 4926   3.467   1.060  14.710 -0.1077 -0.2833  0.1983
  324MPD2    H5 4927   3.388   1.001  14.685  0.8362 -0.6212 -1.9617
  324MPD2    N1 4928   3.912   1.202  14.578  0.8894  0.4431  0.2376
  324MPD2    H7 4929   3.885   1.275  14.643  3.0671  0.2184  1.4124
  325TMC3    C1 4930   3.312   1.196  14.831  0.0927  0.0269  0.3386
  325TMC3    C2 4931   3.213   1.110  14.796 -0.3316 -0.6486  0.1522
  325TMC3    C3 4932   3.085   1.161  14.806 -0.3827  0.0890  0.7009
  325TMC3    C4 4933   3.288   1.323  14.869  0.5799 -0.0365 -0.2358
  325TMC3    C5 4934   3.166   1.370  14.886 -0.6504  0.2272  0.0231
  325TMC3    C6 4935   3.058   1.286  14.862  0.0168  0.2044 -0.1779
  325TMC3     C 4936   3.453   1.173  14.789  0.6188 -0.3081 -0.0350
  325TMC3     O 4937   3.534   1.252  14.832  0.4087  0.4641 -0.0189
  325TMC3     H 4938   3.229   1.007  14.766  0.7807 -0.3658 -0.2129
  325TMC3    H1 4939   3.367   1.392  14.893 -0.0709  0.8021 -0.4883
  325TMC3    H2 4940   2.964   1.340  14.853  0.3108  0.6824 -0.4047
  325TMC3    C7 4941   3.146   1.503  14.837  0.1311  0.0974 -0.5644
  325TMC3    C8 4942   2.980   1.090  14.745  0.0182  0.1702  0.2925
  325TMC3    O1 4943   3.222   1.534  14.744  0.8716 -0.1348  0.4267
  325TMC3    O2 4944   3.007   1.006  14.656 -0.2077  0.0892  0.2127
  326MPD2     C 4945   0.004   3.067  11.212 -0.3304 -0.0239 -0.1539
  326MPD2    C1 4946   0.033   3.024  11.088  1.3504 -0.1784  0.7226
  326MPD2    C2 4947   0.148   3.054  11.027 -0.0003 -0.1664  0.1587
  326MPD2    C3 4948   0.243   3.122  11.100  0.5249  0.4605  0.5292
  326MPD2    C4 4949   0.215   3.158  11.233  0.5684 -0.3045 -1.0468
  326MPD2    C5 4950   0.097   3.123  11.286  0.1075  0.3020  0.6983
  326MPD2     H 4951   0.154   3.018  10.925 -0.5346  1.6187 -0.5165
  326MPD2    H1 4952   0.288   3.222  11.281 -0.7447 -1.3789  2.3771
  326MPD2    H2 4953   4.646   3.041  11.254 -1.1172  1.3581 -1.0829
  326MPD2    H3 4954   0.075   3.163  11.384 -0.3386  1.2107  0.2224
  326MPD2     N 4955   0.367   3.155  11.042  0.4079  0.4347 -0.4933
  326MPD2    H5 4956   0.426   3.203  11.108  0.7730 -1.0509  0.2667
  326MPD2    N1 4957   4.675   2.948  11.018 -0.4471 -0.0850 -0.1999
  326MPD2    H7 4958   4.712   2.923  10.926  1.2126 -0.5183  0.5859
  327TMC3    C1 4959   4.509   2.806  10.944 -0.7425  0.1018  0.8804
  327TMC3    C2 4960   4.408   2.866  10.889 -0.4260 -0.6601 -0.7226
  327TMC3    C3 4961   4.407   2.883  10.754 -0.1627  0.3077  0.2721
  327TMC3    C4 4962   4.605   2.747  10.873 -0.8056  0.4621 -0.5692
  327TMC3    C5 4963   4.603   2.762  10.734 -0.5739  0.2487 -0.9291
  327TMC3    C6 4964   4.499   2.821  10.675 -0.3967  0.4784  0.1761
  327TMC3     C 4965   4.559   2.889  11.054 -0.3194  0.3712 -0.1315
  327TMC3     O 4966   4.500   2.890  11.162 -0.1284  0.0409 -0.3723
  327TMC3     H 4967   4.351   2.919  10.965  1.1125 -1.4709  0.9765
  327TMC3    H1 4968   4.694   2.714  10.925 -1.3471  1.4848  1.0080
  327TMC3    H2 4969   4.494   2.838  10.568  1.3642  1.2783  0.2229
  327TMC3    C7 4970   4.733   2.752  10.659  0.1730 -0.0116  0.4320
  327TMC3    C8 4971   4.372   3.012  10.713 -0.2500 -0.1109  0.0392
  327TMC3    O1 4972   4.735   2.793  10.540  0.4667 -0.1112  0.0329
  327TMC3    O2 4973   4.452   3.071  10.647  0.2092  0.3287  0.3453
  328MPD2     C 4974   2.795   2.224  17.336  1.0092  0.0018 -0.0626
  328MPD2    C1 4975   2.757   2.092  17.322 -0.2227 -1.1546 -0.2772
  328MPD2    C2 4976   2.631   2.057  17.287  0.4238  0.7436  0.2252
  328MPD2    C3 4977   2.542   2.151  17.245 -0.1090  0.4421 -0.0882
  328MPD2    C4 4978   2.584   2.282  17.236  0.4254 -0.3602 -0.3095
  328MPD2    C5 4979   2.705   2.320  17.289  0.0153  0.3178 -0.3147
  328MPD2     H 4980   2.604   1.953  17.300  2.5522  0.3256  1.3528
  328MPD2    H1 4981   2.512   2.360  17.215  1.4761 -0.0787 -2.8347
  328MPD2    H2 4982   2.893   2.241  17.377  0.8016 -0.4661  0.6260
  328MPD2    H3 4983   2.732   2.425  17.291  1.4919 -0.0850  0.6437
  328MPD2     N 4984   2.414   2.131  17.196 -0.0979 -0.5341 -0.5168
  328MPD2    H5 4985   2.363   2.219  17.199  1.1660  0.2211 -1.0466
  328MPD2    N1 4986   2.846   1.998  17.376 -0.5815  0.0635 -0.4793
  328MPD2    H7 4987   2.928   2.037  17.422 -1.9805  2.1006  0.2695
  329TMC3    C1 4988   2.911   1.784  17.473  1.0374  0.0072 -0.2102
  329TMC3    C2 4989   2.929   1.847  17.589 -0.2423  0.0567 -0.3682
  329TMC3    C3 4990   3.012   1.781  17.675 -0.9347 -0.5296  0.6374
  329TMC3    C4 4991   2.934   1.649  17.456 -1.2266  0.0564  0.7900
  329TMC3    C5 4992   3.001   1.578  17.553 -0.1702 -0.6561 -0.6619
  329TMC3    C6 4993   3.052   1.645  17.664 -0.0905 -0.2217  0.4916
  329TMC3     C 4994   2.835   1.857  17.376  0.1199  0.0014  0.2526
  329TMC3     O 4995   2.771   1.785  17.301  0.6440  0.4777 -0.8739
  329TMC3     H 4996   2.883   1.942  17.611 -2.2329 -1.3333  1.5398
  329TMC3    H1 4997   2.892   1.584  17.380  0.5208 -0.9434  0.6749
  329TMC3    H2 4998   3.132   1.598  17.721  0.5271 -0.8098 -0.8505
  329TMC3    C7 4999   3.038   1.438  17.532  0.1306  0.2018 -0.2364
  329TMC3    C8 5000   3.036   1.838   0.054 -0.4740  0.5582  0.2690
  329TMC3    O1 5001   3.053   1.375  17.639 -0.1926 -0.1771 -0.2175
  329TMC3    O2 5002   3.130   1.784   0.111 -0.0812 -1.0132 -0.0768
  330TMC3    C1 5003   0.225   2.147   9.942 -0.5995  0.2617  0.0123
  330TMC3    C2 5004   0.088   2.134   9.938  0.4699 -0.1486 -0.0968
  330TMC3    C3 5005   0.032   2.017   9.987 -0.1509 -0.2116 -0.0949
  330TMC3    C4 5006   0.305   2.047   9.983 -0.0923  0.0159 -0.0685
  330TMC3    C5 5007   0.245   1.934  10.034 -0.0989  0.3178  0.0201
  330TMC3    C6 5008   0.111   1.918  10.039  0.4346 -1.1732  0.9631
  330TMC3     C 5009   0.293   2.273   9.914  0.5613 -0.5423 -0.3478
  330TMC3     O 5010   0.414   2.280   9.939  0.1789 -0.2605 -0.1027
  330TMC3     H 5011   0.013   2.206   9.908  0.5969 -0.1954 -0.5292
  330TMC3    H1 5012   0.412   2.063   9.981 -0.1148  0.2870  1.0953
  330TMC3    H2 5013   0.068   1.837  10.097  0.9702 -4.8833 -3.8713
  330TMC3    C7 5014   0.320   1.847  10.124  0.7471  0.6232  0.3699
  330TMC3    C8 5015   4.630   1.988   9.953 -0.3631  0.1461 -0.1599
  330TMC3    O1 5016   0.253   1.789  10.208 -0.0992 -0.5959 -0.0037
  330TMC3    O2 5017   4.564   2.083   9.911  0.0102 -0.1724  0.3673
  331MPD2     C 5018   3.760   1.027  13.325  0.0168  0.4395  0.4889
  331MPD2    C1 5019   3.765   1.109  13.218 -0.2323  0.4619  0.0510
  331MPD2    C2 5020   3.696   1.059  13.105 -0.0899  0.1781 -0.6783
  331MPD2    C3 5021   3.601   0.969  13.124 -0.1443 -0.5638  0.7828
  331MPD2    C4 5022   3.581   0.901  13.242  0.1832 -0.2625 -0.2092
  331MPD2    C5 5023   3.673   0.924  13.342 -0.7926 -0.4269  0.1325
  331MPD2     H 5024   3.694   1.123  13.017 -0.9825  0.9183 -0.1251
  331MPD2    H1 5025   3.515   0.815  13.248  0.0741 -0.2934 -1.8080
  331MPD2    H2 5026   3.809   1.070  13.412  0.7086  0.5667  0.0404
  331MPD2    H3 5027   3.672   0.867  13.435  0.6270  1.7843  1.5238
  331MPD2     N 5028   3.518   0.953  13.007 -0.3519 -0.1770 -0.7111
  331MPD2    H5 5029   3.545   0.999  12.920 -1.2756 -0.3884 -1.1184
  331MPD2    N1 5030   3.843   1.235  13.224  0.0921 -0.0839 -0.0597
  331MPD2    H7 5031   3.921   1.235  13.289  0.0644  3.1234  0.0190
  332TMC3    C1 5032   3.379   0.807  12.878  0.1562 -0.1838 -0.6750
  332TMC3    C2 5033   3.354   0.901  12.779  0.2063  0.3778  0.0555
  332TMC3    C3 5034   3.296   0.855  12.667 -0.3363  0.4190 -0.6393
  332TMC3    C4 5035   3.336   0.678  12.867 -0.0655 -0.0016 -0.4131
  332TMC3    C5 5036   3.277   0.639  12.751  0.2502  0.4998 -0.4633
  332TMC3    C6 5037   3.268   0.726  12.650  0.0214  0.3278 -0.8655
  332TMC3     C 5038   3.415   0.859  13.006  0.3042  0.5338 -0.5137
  332TMC3     O 5039   3.339   0.839  13.097 -0.0816  0.3651  0.2165
  332TMC3     H 5040   3.387   1.004  12.778  1.1468  0.0582 -1.4054
  332TMC3    H1 5041   3.346   0.608  12.950 -1.1515 -1.8103 -1.8304
  332TMC3    H2 5042   3.234   0.695  12.552 -2.7479 -0.5237  0.3567
  332TMC3    C7 5043   3.297   0.504  12.709  1.3045  0.3273  0.5051
  332TMC3    C8 5044   3.296   0.943  12.549 -0.3426 -0.0100  0.6254
  332TMC3    O1 5045   3.215   0.454  12.627 -0.1365  0.0493  0.0885
  332TMC3    O2 5046   3.381   1.028  12.544 -0.4032 -0.2883  0.1093
  333MPD2     C 5047   3.081   1.096  11.118 -0.6162 -0.1325  0.6340
  333MPD2    C1 5048   3.215   1.057  11.091 -0.1793  0.4240  0.0826
  333MPD2    C2 5049   3.267   0.969  11.176  0.3934  0.3145 -0.7991
  333MPD2    C3 5050   3.193   0.902  11.267  0.5134  0.1359  0.2432
  333MPD2    C4 5051   3.059   0.930  11.282  0.0971  0.8569 -0.3674
  333MPD2    C5 5052   3.001   1.028  11.210 -0.5463 -0.7001  0.2925
  333MPD2     H 5053   3.371   0.939  11.169  0.6472  0.7581  0.8976
  333MPD2    H1 5054   2.999   0.873  11.352  1.9815 -0.8253 -0.1133
  333MPD2    H2 5055   3.019   1.162  11.058 -2.1372 -2.1939 -0.0567
  333MPD2    H3 5056   2.897   1.053  11.230 -0.7694 -0.1834 -1.5089
  333MPD2     N 5057   3.262   0.806  11.348  0.3019  0.5870  0.2767
  333MPD2    H5 5058   3.362   0.791  11.332  0.4924  0.7121  1.3217
  333MPD2    N1 5059   3.301   1.122  10.995  0.3168 -0.2168  0.4702
  333MPD2    H7 5060   3.401   1.107  11.006  0.4712 -0.9561 -1.9465
  334TMC3    C1 5061   3.377   1.262  10.819  0.0055  0.3673  0.1677
  334TMC3    C2 5062   3.479   1.179  10.798 -0.0651  0.1018  0.0699
  334TMC3    C3 5063   3.602   1.231  10.761 -0.5562 -0.3020  0.5280
  334TMC3    C4 5064   3.390   1.396  10.801 -0.2871 -0.2458 -0.2245
  334TMC3    C5 5065   3.506   1.447  10.765 -0.3005  0.4188  0.3337
  334TMC3    C6 5066   3.618   1.368  10.746 -0.1075  0.6506 -0.3900
  334TMC3     C 5067   3.261   1.209  10.896  0.0320  0.1854  0.6357
  334TMC3     O 5068   3.153   1.251  10.864 -0.1724  0.0199 -0.0002
  334TMC3     H 5069   3.471   1.073  10.817 -0.4163  0.2157  0.5623
  334TMC3    H1 5070   3.313   1.461  10.843  0.6624  0.6394  0.1609
  334TMC3    H2 5071   3.716   1.398  10.713  0.4133 -1.7958 -1.0750
  334TMC3    C7 5072   3.533   1.590  10.766 -0.2609  0.5211  0.3782
  334TMC3    C8 5073   3.717   1.150  10.798  0.4153  0.3146  0.2662
  334TMC3    O1 5074   3.652   1.629  10.783  0.8772  0.0863 -0.5840
  334TMC3    O2 5075   3.707   1.028  10.797  0.4390 -0.1933 -0.4434
  335TMC3    C1 5076   3.460   2.542  17.495 -0.2348  0.9586  0.0059
  335TMC3    C2 5077   3.352   2.464  17.460  0.3621  0.3462 -0.7042
  335TMC3    C3 5078   3.359   2.335  17.492 -0.1769  0.0309  0.6801
  335TMC3    C4 5079   3.568   2.502  17.557 -0.5046  0.4451 -0.3857
  335TMC3    C5 5080   3.573   2.365  17.584  1.1287  0.0972 -0.4769
  335TMC3    C6 5081   3.473   2.278  17.537 -0.8489 -0.7388  0.6691
  335TMC3     C 5082   3.441   2.689  17.474 -0.0418  0.6400 -0.7385
  335TMC3     O 5083   3.538   2.750  17.433  0.7771  0.1212  0.0907
  335TMC3     H 5084   3.271   2.513  17.407 -0.0936  0.8636  0.4543
  335TMC3    H1 5085   3.634   2.573  17.605  0.4681 -0.5426 -0.2582
  335TMC3    H2 5086   3.490   2.171  17.545 -1.1022 -0.7657  0.8269
  335TMC3    C7 5087   3.699   2.306  17.619  0.3962  0.0333  0.1219
  335TMC3    C8 5088   3.261   2.249  17.439 -0.1996  0.6614 -0.7047
  335TMC3    O1 5089   3.795   2.384  17.598 -0.1137  0.3409  0.6683
  335TMC3    O2 5090   3.194   2.302  17.353 -0.0853  0.2092  0.2335
  336MPD2     C 5091   3.242   4.687  16.323  0.3219 -0.1243 -0.8737
  336MPD2    C1 5092   3.138   4.602  16.304  0.4614  0.1057 -1.0678
  336MPD2    C2 5093   3.138   4.483  16.377 -0.9548 -0.4811  0.3198
  336MPD2    C3 5094   3.248   4.449  16.459  0.5124 -0.9496  0.0899
  336MPD2    C4 5095   3.351   4.537  16.461  0.3243 -0.0558 -0.3583
  336MPD2    C5 5096   3.344   4.664  16.404 -0.4418  0.2509  0.0169
  336MPD2     H 5097   3.056   4.413  16.371 -0.7047 -0.6669 -0.7844
  336MPD2    H1 5098   3.441   4.515  16.516  0.6825  1.6436 -0.2599
  336MPD2    H2 5099   3.250   0.040  16.265  0.8866  0.3957  0.0098
  336MPD2    H3 5100   3.432   4.728  16.404  1.8747 -2.9164 -0.8501
  336MPD2     N 5101   3.261   4.330  16.533 -0.5231  0.5986  0.2088
  336MPD2    H5 5102   3.345   4.302  16.584 -0.6939  0.5910  0.4851
  336MPD2    N1 5103   3.028   4.631  16.224  0.0515  0.1435  0.2587
  336MPD2    H7 5104   2.950   4.568  16.208  1.3772 -1.2984 -0.4705
  337TMC3    C1 5105   2.891   0.018  16.080  0.4466 -0.5312  0.5033
  337TMC3    C2 5106   2.859   4.639  16.016  0.1900  0.2773  0.8454
  337TMC3    C3 5107   2.764   4.656  15.922  0.1171  0.0062  0.5378
  337TMC3    C4 5108   2.832   0.141  16.064  0.8886  0.4024  0.6546
  337TMC3    C5 5109   2.727   0.145  15.982  0.2013  0.2602 -0.2569
  337TMC3    C6 5110   2.697   0.041  15.900  0.6636  0.2864 -0.2788
  337TMC3     C 5111   3.004   0.010  16.171  0.6189  0.7820 -0.1956
  337TMC3     O 5112   3.060   0.117  16.182  1.0005 -0.2300  0.1546
  337TMC3     H 5113   2.905   4.542  16.028  0.3211  0.2895  0.4539
  337TMC3    H1 5114   2.872   0.228  16.115  0.6336  2.2732 -2.3310
  337TMC3    H2 5115   2.620   0.055  15.825  0.0592  0.8558  0.4478
  337TMC3    C7 5116   2.648   0.263  15.975 -0.0331 -0.1494  0.4213
  337TMC3    C8 5117   2.730   4.537  15.851  0.3104 -0.1065 -0.4000
  337TMC3    O1 5118   2.590   0.287  15.868 -0.1748 -0.2395 -0.3915
  337TMC3    O2 5119   2.806   4.444  15.865 -0.3924 -0.0490  0.3048
  338MPD2     C 5120   2.919   4.153   1.054  0.2704  0.1176  0.3024
  338MPD2    C1 5121   2.992   4.121   0.943  0.2217 -0.4959 -0.6147
  338MPD2    C2 5122   2.937   4.036   0.851  0.0624 -0.0753 -0.2629
  338MPD2    C3 5123   2.804   3.992   0.858 -0.2821 -0.1083 -0.0707
  338MPD2    C4 5124   2.731   4.039   0.962  0.1808 -0.4902  0.0656
  338MPD2    C5 5125   2.788   4.119   1.059  0.1202  0.1948 -0.2326
  338MPD2     H 5126   2.992   4.002   0.764  1.5548 -0.2338  0.7336
  338MPD2    H1 5127   2.625   4.020   0.969  0.1669  0.4602  2.6684
  338MPD2    H2 5128   2.963   4.209   1.136  0.5865  0.6736 -0.2465
  338MPD2    H3 5129   2.722   4.152   1.139 -0.4531 -0.1426 -0.5681
  338MPD2     N 5130   2.754   3.917   0.752 -0.4892  0.1162  0.0800
  338MPD2    H5 5131   2.820   3.906   0.676 -1.4943  1.5319 -0.9931
  338MPD2    N1 5132   3.129   4.153   0.935  0.1185  0.1478 -0.5711
  338MPD2    H7 5133   3.182   4.121   0.855  1.8606  0.9603  0.2684
  339TMC3    C1 5134   2.599   3.793   0.621 -0.0950  0.0610  0.0671
  339TMC3    C2 5135   2.586   3.658   0.611  0.9330 -0.1497 -0.0994
  339TMC3    C3 5136   2.629   3.599   0.495 -0.4298  0.3462 -0.3114
  339TMC3    C4 5137   2.640   3.871   0.517 -0.2354 -0.3273  0.6484
  339TMC3    C5 5138   2.680   3.807   0.404  0.0078  0.2496  0.2639
  339TMC3    C6 5139   2.665   3.671   0.387 -0.0783  0.7756  0.2651
  339TMC3     C 5140   2.635   3.849   0.752  0.4111 -0.4784 -0.0910
  339TMC3     O 5141   2.560   3.816   0.845 -0.7392  0.3097  0.5486
  339TMC3     H 5142   2.556   3.600   0.697  1.7700  1.4153  1.2592
  339TMC3    H1 5143   2.649   3.979   0.521 -0.8124 -0.1585 -1.9975
  339TMC3    H2 5144   2.688   3.625   0.291 -0.9622  0.1368  0.3607
  339TMC3    C7 5145   2.752   3.885   0.307 -0.1954 -0.7632 -0.1575
  339TMC3    C8 5146   2.656   3.456   0.498  0.2030  0.1318  0.2477
  339TMC3    O1 5147   2.728   4.006   0.306  0.1370 -0.1205 -0.2904
  339TMC3    O2 5148   2.746   3.417   0.421  0.0169  0.6701  0.2748
  340MPD2     C 5149   3.166   2.614  10.181 -0.2600  0.1948 -0.2075
  340MPD2    C1 5150   3.215   2.531  10.283 -0.1692  0.2178  0.0029
  340MPD2    C2 5151   3.262   2.589  10.398 -0.1439 -0.1243  0.2516
  340MPD2    C3 5152   3.277   2.727  10.400  0.0343 -0.3664 -0.5328
  340MPD2    C4 5153   3.224   2.803  10.303 -1.2749 -0.0677 -0.0617
  340MPD2    C5 5154   3.160   2.757  10.190  0.4628  0.6938 -0.7136
  340MPD2     H 5155   3.314   2.536  10.476 -2.6551 -1.9977  0.6565
  340MPD2    H1 5156   3.222   2.911  10.311  0.1047  0.0656 -1.5951
  340MPD2    H2 5157   3.135   2.563  10.092 -0.4129 -0.2232  0.0876
  340MPD2    H3 5158   3.125   2.830  10.118  0.5536 -0.1269 -1.5937
  340MPD2     N 5159   3.307   2.805  10.517  0.4307  0.0779  0.1043
  340MPD2    H5 5160   3.344   2.899  10.504 -1.8895  0.4866 -3.5083
  340MPD2    N1 5161   3.226   2.397  10.246  0.0374  0.6927 -0.0072
  340MPD2    H7 5162   3.212   2.371  10.149  0.3220 -0.1060  0.1703
  341TMC3    C1 5163   3.241   2.161  10.269 -0.0234  0.0311 -0.0281
  341TMC3    C2 5164   3.245   2.053  10.354 -0.0152  0.5502 -0.1481
  341TMC3    C3 5165   3.318   1.942  10.320  0.2160 -0.4169 -0.2161
  341TMC3    C4 5166   3.295   2.156  10.143 -0.2793  0.5242 -0.1904
  341TMC3    C5 5167   3.357   2.037  10.113  0.5986  0.2232 -0.6593
  341TMC3    C6 5168   3.368   1.932  10.200 -0.0266  0.3338 -0.0741
  341TMC3     C 5169   3.240   2.295  10.333  0.4209  0.1244  0.0884
  341TMC3     O 5170   3.240   2.291  10.458 -0.0316 -0.1079 -0.2919
  341TMC3     H 5171   3.194   2.062  10.449 -1.6584 -1.2193 -0.8472
  341TMC3    H1 5172   3.315   2.241  10.079  1.9310 -0.5390 -0.9227
  341TMC3    H2 5173   3.421   1.842  10.169 -0.5305  0.2937 -0.8366
  341TMC3    C7 5174   3.366   2.003   9.968  0.9504 -0.1323 -0.0423
  341TMC3    C8 5175   3.289   1.822  10.391 -0.1508 -0.1446 -0.1069
  341TMC3    O1 5176   3.413   1.893   9.938 -0.3116  0.2136 -0.0168
  341TMC3    O2 5177   3.172   1.798  10.420  0.1908 -0.0995 -0.0603
  342MPD2     C 5178   1.405   0.350   0.266  0.5689 -0.8405  0.1748
  342MPD2    C1 5179   1.535   0.322   0.222 -0.0423  0.3604  0.0175
  342MPD2    C2 5180   1.634   0.416   0.262  1.2456  0.6126 -0.1085
  342MPD2    C3 5181   1.614   0.518   0.352  0.4648 -0.1086 -0.0262
  342MPD2    C4 5182   1.479   0.540   0.394  0.8671  0.4422 -0.2102
  342MPD2    C5 5183   1.382   0.454   0.354  0.2958 -0.2887  0.4250
  342MPD2     H 5184   1.731   0.408   0.213  0.2645  2.0296 -2.2840
  342MPD2    H1 5185   1.457   0.633   0.447 -0.2825  0.4197 -0.6490
  342MPD2    H2 5186   1.320   0.287   0.241 -1.2079  1.6952 -0.1070
  342MPD2    H3 5187   1.289   0.468   0.408  0.7494 -3.2420  2.0451
  342MPD2     N 5188   1.719   0.613   0.390 -0.1850  0.3832 -0.2683
  342MPD2    H5 5189   1.692   0.699   0.436 -1.9452  0.2733 -1.0959
  342MPD2    N1 5190   1.575   0.210   0.140 -0.5931 -0.4083 -0.3747
  342MPD2    H7 5191   1.676   0.206   0.127 -0.3314 -3.2227  2.4771
  343TMC3    C1 5192   1.553   0.022  17.749 -0.5288 -0.2565 -0.2064
  343TMC3    C2 5193   1.646   0.067  17.663  0.8859 -0.7843  0.3811
  343TMC3    C3 5194   1.694   4.725  17.563  0.6302 -0.3293 -0.6531
  343TMC3    C4 5195   1.491   4.641  17.729  0.3875  0.0405  0.6417
  343TMC3    C5 5196   1.542   4.570  17.626  0.3053  0.5034 -0.4439
  343TMC3    C6 5197   1.633   4.606  17.537 -0.0712 -0.6407  0.7700
  343TMC3     C 5198   1.490   0.110   0.097 -0.3925 -0.8693  0.6545
  343TMC3     O 5199   1.387   0.068   0.152  0.3982  0.4198 -0.4707
  343TMC3     H 5200   1.684   0.169  17.671 -1.0583  0.1629 -2.2967
  343TMC3    H1 5201   1.405   4.612   0.037  0.2741 -1.4140 -0.2489
  343TMC3    H2 5202   1.662   4.536  17.460  1.4302  1.1655 -0.2985
  343TMC3    C7 5203   1.529   4.424  17.637 -0.3854 -0.3620  1.0292
  343TMC3    C8 5204   1.799   0.039  17.477 -0.3509 -0.7516 -0.0457
  343TMC3    O1 5205   1.519   4.371  17.528  0.0416  0.0643 -0.0254
  343TMC3    O2 5206   1.840   0.155  17.500  0.0951 -0.4688  0.2287
  344MPD2     C 5207   1.670   0.415  11.286 -0.6682 -0.1160  0.2161
  344MPD2    C1 5208   1.726   0.320  11.203 -0.4657  0.9163  0.0858
  344MPD2    C2 5209   1.842   0.348  11.137 -0.5500  0.5039  0.4702
  344MPD2    C3 5210   1.892   0.481  11.140  0.0185 -0.2968  0.1084
  344MPD2    C4 5211   1.829   0.572  11.222 -0.2979  0.0323  0.0911
  344MPD2    C5 5212   1.723   0.539  11.293  0.0777 -0.5718 -0.3204
  344MPD2     H 5213   1.887   0.266  11.082 -1.1407 -0.8216  1.9679
  344MPD2    H1 5214   1.873   0.671  11.233 -1.0685  0.5289 -1.2339
  344MPD2    H2 5215   1.578   0.389  11.337 -0.4445 -0.2982  0.5279
  344MPD2    H3 5216   1.675   0.605  11.365  2.8534  0.0921  0.9027
  344MPD2     N 5217   2.010   0.523  11.069 -0.3702 -0.0337  0.3346
  344MPD2    H5 5218   2.064   0.606  11.093 -0.3352  0.3309 -1.0360
  344MPD2    N1 5219   1.671   0.189  11.204  0.0641 -0.2776 -0.8962
  344MPD2    H7 5220   1.732   0.109  11.191 -0.4592 -0.7236 -0.6209
  345TMC3    C1 5221   2.172   0.526  10.906 -0.0561 -0.1020  0.2506
  345TMC3    C2 5222   2.257   0.586  10.998  0.1149  0.6139  0.4274
  345TMC3    C3 5223   2.376   0.635  10.950  0.0134  0.5653 -0.3719
  345TMC3    C4 5224   2.197   0.534  10.770  0.6423  0.1002  0.0425
  345TMC3    C5 5225   2.313   0.591  10.731  1.0707  0.8113 -0.0770
  345TMC3    C6 5226   2.403   0.634  10.816 -0.4222  0.4256 -0.5509
  345TMC3     C 5227   2.049   0.463  10.948 -0.0543  0.0353  0.7899
  345TMC3     O 5228   1.981   0.390  10.880  0.1381  0.5828  0.1895
  345TMC3     H 5229   2.257   0.573  11.106  0.2010 -1.6362  0.1602
  345TMC3    H1 5230   2.117   0.498  10.706 -1.8609  2.2506  1.9306
  345TMC3    H2 5231   2.497   0.680  10.789 -1.3782  2.4575 -0.4141
  345TMC3    C7 5232   2.287   0.707  10.632 -0.7917 -0.7783 -0.9434
  345TMC3    C8 5233   2.443   0.726  11.042  0.5647  0.5093  0.5555
  345TMC3    O1 5234   2.354   0.805  10.650  0.0067  0.1576  0.1138
  345TMC3    O2 5235   2.376   0.773  11.135 -0.2136  0.4052  0.8545
  346MPD2     C 5236   1.920   1.759  14.736 -0.3580 -0.3805 -0.3406
  346MPD2    C1 5237   2.051   1.735  14.694  0.0141  0.2153  0.5411
  346MPD2    C2 5238   2.159   1.760  14.777  0.1508 -0.0234 -0.0773
  346MPD2    C3 5239   2.132   1.813  14.903  0.4297 -0.0304 -0.0966
  346MPD2    C4 5240   2.004   1.807  14.952 -0.4834 -0.4558  0.4509
  346MPD2    C5 5241   1.898   1.790  14.868  0.1161  0.4056 -0.0132
  346MPD2     H 5242   2.262   1.753  14.744 -0.2402 -3.0762 -0.6265
  346MPD2    H1 5243   1.992   1.824  15.059 -2.0709  1.2167  0.0049
  346MPD2    H2 5244   1.832   1.752  14.673 -2.4027  1.5022  2.2697
  346MPD2    H3 5245   1.798   1.781  14.909  0.1083  1.9691  0.3066
  346MPD2     N 5246   2.237   1.861  14.986 -0.6764  0.6392 -0.1001
  346MPD2    H5 5247   2.332   1.841  14.956 -0.7705 -1.3538  0.9405
  346MPD2    N1 5248   2.081   1.681  14.568  0.3917  0.0860  0.1892
  346MPD2    H7 5249   2.181   1.671  14.557  0.3476 -0.5245  0.3361
  347TMC3    C1 5250   2.348   2.000  15.141 -0.1254  0.0994 -0.4270
  347TMC3    C2 5251   2.450   1.917  15.120 -0.7926  0.4373 -0.0609
  347TMC3    C3 5252   2.577   1.965  15.142 -1.1551  0.2682  0.0609
  347TMC3    C4 5253   2.364   2.137  15.167 -0.1106  0.3591 -0.3091
  347TMC3    C5 5254   2.497   2.183  15.174  0.4107  0.8617 -0.1156
  347TMC3    C6 5255   2.604   2.100  15.151 -0.6774  0.1970  0.0065
  347TMC3     C 5256   2.218   1.956  15.088  0.6202  0.4964 -0.2621
  347TMC3     O 5257   2.117   2.018  15.112 -0.4221 -0.1045  0.1551
  347TMC3     H 5258   2.442   1.811  15.098  1.7059 -0.3215  2.7167
  347TMC3    H1 5259   2.278   2.198  15.188  0.4087  0.7110  0.8230
  347TMC3    H2 5260   2.705   2.137  15.162 -0.4075 -0.5499  0.0387
  347TMC3    C7 5261   2.517   2.322  15.202 -1.1592  0.5581 -0.5820
  347TMC3    C8 5262   2.692   1.876  15.119 -0.2765 -0.5160 -0.2751
  347TMC3    O1 5263   2.600   2.367  15.123 -0.4037 -0.1331  0.2405
  347TMC3    O2 5264   2.676   1.760  15.154  0.2685  0.0544  0.6166
  348MPD2     C 5265   1.211   1.288  12.055  0.5088 -0.2342 -0.2894
  348MPD2    C1 5266   1.089   1.299  11.989 -0.4970  0.1657  0.2848
  348MPD2    C2 5267   1.072   1.406  11.906  0.2434 -0.8786  0.1938
  348MPD2    C3 5268   1.166   1.509  11.899 -0.3824  0.0482  0.3667
  348MPD2    C4 5269   1.279   1.498  11.965  0.5433  0.1083 -0.5328
  348MPD2    C5 5270   1.300   1.389  12.043 -0.6393 -0.4392  0.4066
  348MPD2     H 5271   0.980   1.414  11.850  1.3685  0.8892 -1.3949
  348MPD2    H1 5272   1.348   1.582  11.969 -0.7351  1.1012  0.5393
  348MPD2    H2 5273   1.249   1.198  12.104  1.6205  0.4596  0.1434
  348MPD2    H3 5274   1.398   1.377  12.087 -1.2619 -1.4098  1.5262
  348MPD2     N 5275   1.136   1.627  11.825 -0.6647  0.4426 -0.0657
  348MPD2    H5 5276   1.042   1.624  11.789  0.2316  1.0892 -2.4336
  348MPD2    N1 5277   0.995   1.196  11.974  0.9252  0.0968  0.3322
  348MPD2    H7 5278   0.914   1.207  11.914 -1.0627 -1.1982  2.7741
  349TMC3    C1 5279   0.900   0.981  12.019 -0.3946  0.0802 -0.1162
  349TMC3    C2 5280   0.931   0.851  12.026 -0.8274  0.1428  0.1970
  349TMC3    C3 5281   0.835   0.758  12.005  0.0556 -0.2511 -0.2596
  349TMC3    C4 5282   0.772   1.029  12.005  0.4985  0.1190 -0.0675
  349TMC3    C5 5283   0.679   0.928  11.977  0.2231  0.5237  0.0856
  349TMC3    C6 5284   0.709   0.798  11.966 -0.5760  0.7502  0.4289
  349TMC3     C 5285   1.001   1.080  12.052 -0.5643 -0.0892 -0.5157
  349TMC3     O 5286   1.086   1.042  12.131 -0.1524  0.4578  0.5143
  349TMC3     H 5287   1.034   0.825  12.047 -0.6189  0.1618 -0.8256
  349TMC3    H1 5288   0.753   1.134  11.989  1.2007  0.3137  0.3653
  349TMC3    H2 5289   0.627   0.727  11.962 -0.4294  0.4411  2.6967
  349TMC3    C7 5290   0.544   0.974  11.954  0.3307  0.1517 -0.1067
  349TMC3    C8 5291   0.881   0.618  12.007  0.2384  0.8441  0.4104
  349TMC3    O1 5292   0.464   0.915  11.882 -0.6112  0.1868  0.0547
  349TMC3    O2 5293   0.845   0.533  11.923 -0.6422  0.8193 -0.4065
  350MPD2     C 5294   0.694   4.233   9.883  0.7367 -0.4135  0.8744
  350MPD2    C1 5295   0.722   4.147   9.984  0.0418  0.1143 -0.4093
  350MPD2    C2 5296   0.629   4.107  10.082  0.0920  0.3906 -0.0842
  350MPD2    C3 5297   0.499   4.162  10.075  0.3079  0.6891  0.1815
  350MPD2    C4 5298   0.469   4.244   9.968 -1.1973  0.2841 -0.1965
  350MPD2    C5 5299   0.564   4.281   9.879 -0.3915  0.1305 -0.2806
  350MPD2     H 5300   0.659   4.034  10.156 -0.9758 -0.0860 -0.1220
  350MPD2    H1 5301   0.374   4.295   9.957  0.6146  3.4222 -1.2734
  350MPD2    H2 5302   0.768   4.267   9.812  1.5350 -0.3754  1.7124
  350MPD2    H3 5303   0.532   4.343   9.796 -0.6665 -0.0628 -0.3195
  350MPD2     N 5304   0.404   4.135  10.177  0.5441  0.4027 -0.3001
  350MPD2    H5 5305   0.452   4.089  10.253  2.8410  1.4157 -1.1316
  350MPD2    N1 5306   0.839   4.083   9.995 -0.0721  0.2110 -0.4693
  350MPD2    H7 5307   0.850   4.012  10.067 -0.7558  0.3046 -0.2765
  351TMC3    C1 5308   1.067   4.047   9.987 -0.5505  0.8170 -0.2867
  351TMC3    C2 5309   1.042   3.919  10.022  0.2659 -0.3273 -0.7734
  351TMC3    C3 5310   1.141   3.858  10.096 -0.6795  0.4224  0.0173
  351TMC3    C4 5311   1.172   4.121  10.026 -0.3867  0.2490  1.2749
  351TMC3    C5 5312   1.251   4.064  10.125 -0.3734 -0.0387 -0.3144
  351TMC3    C6 5313   1.246   3.931  10.152  0.5974  0.5539  0.7027
  351TMC3     C 5314   0.955   4.128   9.953 -0.2602  0.0657  0.1790
  351TMC3     O 5315   0.982   4.234   9.895  0.1430 -0.2077 -0.2855
  351TMC3     H 5316   0.952   3.865   9.996  0.5380 -1.3096  0.3841
  351TMC3    H1 5317   1.184   4.225  10.000 -1.6639  0.3113  0.9395
  351TMC3    H2 5318   1.322   3.876  10.207 -1.3132 -1.8395  0.9146
  351TMC3    C7 5319   1.368   4.136  10.169  0.7972  0.2295 -0.3911
  351TMC3    C8 5320   1.122   3.727  10.144  0.3077 -0.3205 -0.5044
  351TMC3    O1 5321   1.375   4.240  10.108 -0.1821  0.2763 -1.0486
  351TMC3    O2 5322   1.079   3.654  10.054  0.1973  0.2630  0.4578
  352MPD2     C 5323   3.805   1.187   1.370  0.3721 -0.2279  0.4310
  352MPD2    C1 5324   3.694   1.149   1.450  0.0051  0.7804 -0.3045
  352MPD2    C2 5325   3.720   1.049   1.540 -0.1295  0.0222  0.1090
  352MPD2    C3 5326   3.842   0.978   1.542  0.1129  0.0463 -0.2728
  352MPD2    C4 5327   3.943   1.001   1.448 -0.0426 -0.3225 -0.2519
  352MPD2    C5 5328   3.921   1.109   1.369  0.5439 -0.2514  0.0958
  352MPD2     H 5329   3.635   1.023   1.602  0.6042  0.8886  1.4800
  352MPD2    H1 5330   4.030   0.939   1.431  0.2429 -0.2117  0.8303
  352MPD2    H2 5331   3.803   1.277   1.309  2.1923  0.3730  1.2319
  352MPD2    H3 5332   4.002   1.145   1.306  0.8124  0.2142  0.7091
  352MPD2     N 5333   3.860   0.859   1.617  0.1325 -0.6864  0.3414
  352MPD2    H5 5334   3.938   0.798   1.594  0.5856  0.6051 -1.4791
  352MPD2    N1 5335   3.565   1.204   1.445  0.4112  0.2646  0.9721
  352MPD2    H7 5336   3.494   1.174   1.510  1.1460  0.4269  1.8575
  353TMC3    C1 5337   3.777   0.656   1.700 -0.3790  0.3835  0.0634
  353TMC3    C2 5338   3.897   0.591   1.699 -0.5002  1.2887  0.4899
  353TMC3    C3 5339   3.906   0.456   1.693 -0.0622  0.5461  0.1669
  353TMC3    C4 5340   3.659   0.585   1.669  0.0772  0.3185  0.0676
  353TMC3    C5 5341   3.667   0.449   1.649  0.1719 -0.3867 -0.3088
  353TMC3    C6 5342   3.792   0.384   1.666 -0.3325 -0.1251 -0.2789
  353TMC3     C 5343   3.761   0.797   1.690  0.0063 -0.2256  0.5241
  353TMC3     O 5344   3.646   0.833   1.708  0.6009 -0.2769 -0.7430
  353TMC3     H 5345   3.985   0.653   1.709  2.9576 -3.4288 -0.9863
  353TMC3    H1 5346   3.562   0.632   1.662 -0.8709 -1.7699 -0.8760
  353TMC3    H2 5347   3.789   0.276   1.663  0.3273 -0.1932  1.4317
  353TMC3    C7 5348   3.552   0.356   1.624  0.4108 -0.1427  0.1492
  353TMC3    C8 5349   4.027   0.388   1.735 -0.1457 -0.2685  0.7055
  353TMC3    O1 5350   3.565   0.247   1.566  0.4502  0.1217  0.0469
  353TMC3    O2 5351   4.124   0.460   1.754  0.0364  0.0372  0.6445
  354TMC3    C1 5352   0.279   2.175  13.584 -0.4415 -0.0670  0.0731
  354TMC3    C2 5353   0.242   2.306  13.551 -0.4983 -0.1526  0.2288
  354TMC3    C3 5354   0.234   2.338  13.420 -0.6053  0.0499  0.5347
  354TMC3    C4 5355   0.333   2.096  13.486  0.0153 -0.0523  0.2742
  354TMC3    C5 5356   0.343   2.137  13.360  0.6618  0.2587 -0.3001
  354TMC3    C6 5357   0.296   2.265  13.325  0.2082  0.2516  0.0241
  354TMC3     C 5358   0.268   2.127  13.724 -0.4058 -0.4580 -0.5123
  354TMC3     O 5359   0.191   2.189  13.798 -0.1052 -0.1296  0.3188
  354TMC3     H 5360   0.195   2.365  13.628  0.5827  0.4799  0.4134
  354TMC3    H1 5361   0.390   2.008  13.514  0.2373 -0.4587 -1.4415
  354TMC3    H2 5362   0.309   2.296  13.222 -0.2467  0.1689 -0.0622
  354TMC3    C7 5363   0.422   2.056  13.265  0.4501  0.3799 -0.1925
  354TMC3    C8 5364   0.200   2.474  13.381 -0.0100 -0.5879 -0.2240
  354TMC3    O1 5365   0.489   1.962  13.306 -0.7598  0.8573  0.1198
  354TMC3    O2 5366   0.253   2.517  13.278 -0.2750  0.6191  0.9597
  355MPD2     C 5367   0.207   3.559  12.086  0.0363 -0.5312  0.1820
  355MPD2    C1 5368   0.308   3.533  11.994  0.2962  0.1138  0.0996
  355MPD2    C2 5369   0.395   3.428  12.018  0.6451  0.3491 -0.3422
  355MPD2    C3 5370   0.378   3.354  12.133 -0.7451  0.6416  0.0183
  355MPD2    C4 5371   0.272   3.378  12.220  0.0377 -0.0046  0.5632
  355MPD2    C5 5372   0.188   3.482  12.198  0.1824 -0.2469  0.3954
  355MPD2     H 5373   0.481   3.421  11.952  0.5977  0.2769 -0.3960
  355MPD2    H1 5374   0.263   3.325  12.315  0.6389  0.2483  0.7598
  355MPD2    H2 5375   0.139   3.643  12.077 -0.5167 -1.2712 -2.5112
  355MPD2    H3 5376   0.109   3.511  12.267 -0.4690  1.5045 -1.0729
  355MPD2     N 5377   0.463   3.247  12.176  0.0768  0.0608 -0.6416
  355MPD2    H5 5378   0.460   3.201  12.266 -1.9911  0.3058 -0.5825
  355MPD2    N1 5379   0.325   3.631  11.896 -0.7192 -0.1680  0.8163
  355MPD2    H7 5380   0.280   3.719  11.915 -1.0363  0.0448 -0.9421
  356TMC3    C1 5381   0.673   3.297  12.133  0.2124 -0.2688  0.5729
  356TMC3    C2 5382   0.726   3.358  12.026 -0.6540 -0.5782 -0.8133
  356TMC3    C3 5383   0.792   3.476  12.045 -1.0117  0.3505 -0.4256
  356TMC3    C4 5384   0.681   3.355  12.260  0.7538  0.2935  0.0924
  356TMC3    C5 5385   0.770   3.461  12.280  0.0365 -0.3347 -0.7002
  356TMC3    C6 5386   0.829   3.526  12.174  0.1947 -0.2922  0.3524
  356TMC3     C 5387   0.561   3.210  12.097 -0.2123  0.6946 -0.4516
  356TMC3     O 5388   0.554   3.164  11.987 -0.1089  0.2934 -0.3702
  356TMC3     H 5389   0.695   3.322  11.929 -0.3814 -1.2158 -0.6670
  356TMC3    H1 5390   0.639   3.308  12.348 -0.9850  0.6891 -0.5238
  356TMC3    H2 5391   0.878   3.621  12.191 -2.8249  1.5751 -1.3108
  356TMC3    C7 5392   0.839   3.473  12.407 -0.2492  0.2342  0.3660
  356TMC3    C8 5393   0.817   3.543  11.921  0.0850 -0.1317  0.2335
  356TMC3    O1 5394   0.822   3.389  12.493 -0.5731 -0.2171 -0.5802
  356TMC3    O2 5395   0.774   3.497  11.815  0.0680 -0.1562  0.2840
  357MPD2     C 5396   4.630   3.053   1.106 -0.0230  0.2301  0.0791
  357MPD2    C1 5397   4.716   2.991   1.199  0.7927  0.0107  0.1252
  357MPD2    C2 5398   4.659   2.922   1.304  0.2694  0.1874 -0.0534
  357MPD2    C3 5399   4.519   2.911   1.320 -0.2329 -0.1168  0.0615
  357MPD2    C4 5400   4.439   2.971   1.222 -0.4479  0.7660 -0.0719
  357MPD2    C5 5401   4.494   3.037   1.120 -0.6226 -0.1659 -0.1715
  357MPD2     H 5402   4.723   2.878   1.379 -1.0682 -2.7884 -0.6530
  357MPD2    H1 5403   4.332   2.952   1.216 -0.4384  0.2248  1.5490
  357MPD2    H2 5404   4.675   3.107   1.024  0.5735  1.2547  1.0921
  357MPD2    H3 5405   4.425   3.069   1.042  1.3745  0.8844 -1.5028
  357MPD2     N 5406   4.452   2.840   1.410  0.7282 -0.5005  0.2034
  357MPD2    H5 5407   4.351   2.838   1.401  0.6821 -0.5148  0.7165
  357MPD2    N1 5408   0.125   2.988   1.167  0.3736 -0.4024 -0.0359
  357MPD2    H7 5409   0.155   3.042   1.086 -0.3080  0.2974  0.1754
  358TMC3    C1 5410   0.353   2.922   1.186 -0.1065 -0.1716  0.6499
  358TMC3    C2 5411   0.353   2.860   1.065  0.5389 -0.0134  0.7211
  358TMC3    C3 5412   0.449   2.763   1.051  0.8698 -0.5347  0.7757
  358TMC3    C4 5413   0.451   2.901   1.281  0.2512  0.5131  0.4248
  358TMC3    C5 5414   0.557   2.810   1.253 -0.1205  0.3979 -0.4695
  358TMC3    C6 5415   0.543   2.728   1.141  0.5224 -0.4905  0.5523
  358TMC3     C 5416   0.221   2.930   1.245 -0.0847  0.5757 -0.0452
  358TMC3     O 5417   0.200   2.852   1.341  0.3785  0.0866  0.6889
  358TMC3     H 5418   0.275   2.866   0.990  0.3950  3.3199  1.1403
  358TMC3    H1 5419   0.447   2.956   1.375 -1.1871 -0.8244  1.1458
  358TMC3    H2 5420   0.625   2.661   1.117  0.9023  0.6428 -1.3307
  358TMC3    C7 5421   0.633   2.753   1.369  0.0789  0.8008  0.1581
  358TMC3    C8 5422   0.386   2.648   1.000  0.0044  0.5459  0.0280
  358TMC3    O1 5423   0.671   2.635   1.356  0.0626  0.3253  0.0638
  358TMC3    O2 5424   0.289   2.666   0.927  0.1150  0.2995  0.4861
  359MPD2     C 5425   0.339   2.098  12.380 -0.0266  0.3191  0.6150
  359MPD2    C1 5426   0.362   1.968  12.342  0.1927  0.0590 -0.7799
  359MPD2    C2 5427   0.263   1.879  12.359 -0.7166  0.1430 -0.5035
  359MPD2    C3 5428   0.136   1.914  12.403  0.2313 -0.1001 -0.2288
  359MPD2    C4 5429   0.110   2.039  12.439  0.0602 -0.5681 -0.1124
  359MPD2    C5 5430   0.212   2.132  12.420  0.3398 -0.0622 -0.6730
  359MPD2     H 5431   0.276   1.777  12.325 -2.2861  0.5979 -2.4934
  359MPD2    H1 5432   0.012   2.066  12.478 -0.3565 -1.4910 -0.5193
  359MPD2    H2 5433   0.416   2.173  12.369  0.0402  0.2357  0.5178
  359MPD2    H3 5434   0.178   2.231  12.449  1.8727  0.3128 -0.1818
  359MPD2     N 5435   0.029   1.819  12.408 -1.1262  0.0216 -0.1696
  359MPD2    H5 5436   4.687   1.861  12.454 -0.6988  2.2033 -1.4080
  359MPD2    N1 5437   0.482   1.925  12.272 -0.4084  0.2626 -0.8044
  359MPD2    H7 5438   0.498   1.825  12.264  1.0369  0.3487  0.8865
  360TMC3    C1 5439   0.667   1.939  12.139  0.4600  0.2108 -1.4077
  360TMC3    C2 5440   0.714   1.834  12.212  0.4062 -0.3554 -0.0756
  360TMC3    C3 5441   0.820   1.771  12.154  0.5753 -0.2774  0.0875
  360TMC3    C4 5442   0.707   1.977  12.014  0.0114  0.0924  0.1616
  360TMC3    C5 5443   0.795   1.894  11.953  0.0592  0.7502  0.0100
  360TMC3    C6 5444   0.850   1.793  12.019  0.2130  0.6388 -0.3037
  360TMC3     C 5445   0.555   2.010  12.196 -0.0429  0.5220  0.0229
  360TMC3     O 5446   0.533   2.124  12.159 -0.2176 -0.3226 -0.2207
  360TMC3     H 5447   0.694   1.827  12.319 -2.4948 -1.3790 -0.6760
  360TMC3    H1 5448   0.662   2.061  11.962 -0.4647 -0.8366 -0.9292
  360TMC3    H2 5449   0.926   1.734  11.969 -0.6380 -0.2061 -0.6003
  360TMC3    C7 5450   0.784   1.867  11.810  0.1742 -0.4788 -0.1801
  360TMC3    C8 5451   0.898   1.695  12.239  0.0129  0.7783  0.3914
  360TMC3    O1 5452   0.809   1.754  11.776 -0.0818  0.0309 -0.2020
  360TMC3    O2 5453   0.840   1.625  12.318  0.1138 -0.0006  0.2966
  361MPD2     C 5454   3.168   0.813  16.811  0.0192 -0.0350  0.1807
  361MPD2    C1 5455   3.064   0.833  16.899 -0.2184 -0.2991 -0.1513
  361MPD2    C2 5456   3.068   0.764  17.023  1.1652 -0.2030 -0.4487
  361MPD2    C3 5457   3.159   0.658  17.036 -0.1852 -0.1226 -0.0604
  361MPD2    C4 5458   3.240   0.623  16.932 -0.4564 -0.2885 -0.2528
  361MPD2    C5 5459   3.255   0.707  16.822 -0.1343 -0.3679  0.9704
  361MPD2     H 5460   3.003   0.791  17.105  0.1914 -2.2760 -0.5497
  361MPD2    H1 5461   3.314   0.544  16.940  2.3914  2.1651 -2.3864
  361MPD2    H2 5462   3.191   0.881  16.730  1.8522  1.8683  2.3208
  361MPD2    H3 5463   3.333   0.682  16.752 -1.2682  0.4925 -0.5950
  361MPD2     N 5464   3.175   0.599  17.162  0.1813  0.3834 -0.2616
  361MPD2    H5 5465   3.220   0.509  17.172 -2.0643 -0.7064  0.0872
  361MPD2    N1 5466   2.964   0.930  16.884  0.0395  0.2134  0.2576
  361MPD2    H7 5467   2.895   0.935  16.959 -0.3308 -0.2724 -0.0552
  362TMC3    C1 5468   2.846   1.129  16.797  0.2709 -0.9000 -0.2025
  362TMC3    C2 5469   2.817   1.173  16.924 -0.0086 -0.4976 -0.1978
  362TMC3    C3 5470   2.751   1.292  16.934 -0.0088 -1.0253  0.1603
  362TMC3    C4 5471   2.821   1.201  16.684  0.2573  0.1911 -0.6015
  362TMC3    C5 5472   2.757   1.319  16.702  0.4395 -0.6173  0.7235
  362TMC3    C6 5473   2.736   1.372  16.823 -0.6535  0.1852  0.5022
  362TMC3     C 5474   2.949   1.024  16.783 -0.3640  0.5463 -0.7649
  362TMC3     O 5475   3.020   1.031  16.682  0.4427  0.1087 -0.4266
  362TMC3     H 5476   2.863   1.131  17.012  1.3898  1.8960  0.2005
  362TMC3    H1 5477   2.844   1.163  16.585 -0.7244 -1.2947 -0.2467
  362TMC3    H2 5478   2.692   1.470  16.831 -1.1588 -0.2810  3.4945
  362TMC3    C7 5479   2.696   1.380  16.588  0.2475 -0.4589  0.6329
  362TMC3    C8 5480   2.713   1.347  17.065 -0.4611 -0.0463  0.0495
  362TMC3    O1 5481   2.596   1.450  16.606  0.1787  0.3630  0.5617
  362TMC3    O2 5482   2.720   1.468  17.095 -0.4977 -0.3752  0.1352
  363TMC3    C1 5483   0.247   2.636   9.112  0.1048  0.0660 -0.4788
  363TMC3    C2 5484   0.381   2.667   9.128  0.1153 -0.4042 -0.1676
  363TMC3    C3 5485   0.430   2.789   9.089  0.0059  0.5517  0.2677
  363TMC3    C4 5486   0.170   2.722   9.038  0.5730 -0.4144 -0.4546
  363TMC3    C5 5487   0.229   2.834   8.988 -0.1331  0.7517 -0.0939
  363TMC3    C6 5488   0.354   2.877   9.023  0.2577 -0.1432 -0.0404
  363TMC3     C 5489   0.196   2.504   9.133 -0.0898 -0.2038 -0.7848
  363TMC3     O 5490   0.072   2.503   9.134  0.5934 -0.7654  0.5513
  363TMC3     H 5491   0.439   2.607   9.197  1.3931  0.1434 -0.7742
  363TMC3    H1 5492   0.069   2.693   9.014  0.4890  0.0543 -0.6677
  363TMC3    H2 5493   0.404   2.965   8.984 -2.1415  0.2734 -2.1982
  363TMC3    C7 5494   0.147   2.936   8.924 -0.2717 -0.0755  0.5524
  363TMC3    C8 5495   0.547   2.841   9.155  0.4405  0.8979  0.2924
  363TMC3    O1 5496   0.201   3.046   8.910 -0.4075 -0.5630 -0.8076
  363TMC3    O2 5497   0.560   2.958   9.151 -0.3577 -0.2643 -0.2196
  364MPD2     C 5498   4.190   3.462  10.833 -0.0635 -0.5244  0.4611
  364MPD2    C1 5499   4.308   3.432  10.773 -0.2815 -0.0499 -0.5868
  364MPD2    C2 5500   4.316   3.295  10.749 -1.0679 -0.6725  0.4170
  364MPD2    C3 5501   4.229   3.195  10.788  0.0661 -0.5307  0.3507
  364MPD2    C4 5502   4.115   3.229  10.855 -0.6475  0.0953 -0.1543
  364MPD2    C5 5503   4.096   3.367  10.864 -0.1039  0.1052 -0.3607
  364MPD2     H 5504   4.401   3.272  10.686  0.8876  0.4429  2.6741
  364MPD2    H1 5505   4.032   3.166  10.886 -1.8194  0.6053 -2.2595
  364MPD2    H2 5506   4.173   3.568  10.850 -0.5452 -0.2774 -1.6173
  364MPD2    H3 5507   4.000   3.399  10.902 -0.5714 -1.5195 -0.1703
  364MPD2     N 5508   4.261   3.059  10.775 -0.2085 -0.2755  0.3794
  364MPD2    H5 5509   4.194   2.997  10.820 -0.7211  0.2725  0.3749
  364MPD2    N1 5510   4.398   3.534  10.744 -0.2027  0.1365  0.3110
  364MPD2    H7 5511   4.377   3.624  10.786  2.3776  0.3652  1.0881
  365TMC3    C1 5512   4.602   3.631  10.699 -0.7836 -0.1735 -0.0969
  365TMC3    C2 5513   4.706   3.653  10.612 -0.3217  0.1868  0.0999
  365TMC3    C3 5514   0.059   3.752  10.639  0.3878  0.4680 -0.5882
  365TMC3    C4 5515   4.577   3.712  10.802 -0.6716 -0.0109  1.2107
  365TMC3    C5 5516   4.668   3.809  10.825  0.0113  0.9285 -0.0264
  365TMC3    C6 5517   0.038   3.839  10.741  0.4269  0.0965 -0.2557
  365TMC3     C 5518   4.517   3.520  10.677 -0.6332 -0.4553 -0.1546
  365TMC3     O 5519   4.565   3.422  10.624 -0.1698  0.6685  0.2508
  365TMC3     H 5520   4.707   3.594  10.521  2.6718 -0.8785  0.8475
  365TMC3    H1 5521   4.520   3.681  10.889 -2.6601 -1.7851 -0.7170
  365TMC3    H2 5522   0.097   3.928  10.758 -2.5438  1.8878  0.7206
  365TMC3    C7 5523   4.628   3.899  10.939  0.0164  0.6768  0.1437
  365TMC3    C8 5524   0.161   3.785  10.543 -0.6064  0.3399 -0.3867
  365TMC3    O1 5525   4.518   3.876  10.988 -0.1178  0.4555  0.0976
  365TMC3    O2 5526   0.221   3.893  10.554  0.2248 -0.0161 -0.0931
  366MPD2     C 5527   2.440   3.919  15.437  0.0225  0.1411  0.2357
  366MPD2    C1 5528   2.562   3.920  15.367 -0.4238 -0.0329  0.1714
  366MPD2    C2 5529   2.660   3.823  15.398 -0.0328  0.3021  0.7058
  366MPD2    C3 5530   2.634   3.727  15.494  0.3987  0.0283  0.1814
  366MPD2    C4 5531   2.508   3.721  15.559 -0.1447 -0.6719  0.3032
  366MPD2    C5 5532   2.415   3.817  15.527  0.5472  0.0612 -0.4742
  366MPD2     H 5533   2.753   3.825  15.343 -1.6790  3.2862 -2.0462
  366MPD2    H1 5534   2.477   3.651  15.637 -0.8697 -1.1396 -0.4061
  366MPD2    H2 5535   2.367   3.998  15.421  0.4393  0.3077 -0.8338
  366MPD2    H3 5536   2.320   3.820  15.579  1.7736  2.8806  1.6043
  366MPD2     N 5537   2.728   3.626  15.525  0.0225  0.2721  0.0299
  366MPD2    H5 5538   2.810   3.616  15.466  1.0063  1.4862  1.1939
  366MPD2    N1 5539   2.602   4.022  15.291 -0.4912 -0.1179 -0.4096
  366MPD2    H7 5540   2.697   4.031  15.256  0.1113 -0.9455  1.0040
  367TMC3    C1 5541   2.588   4.238  15.206 -0.5525  0.0278 -0.0616
  367TMC3    C2 5542   2.705   4.267  15.281  0.2494  0.2049  0.2524
  367TMC3    C3 5543   2.713   4.393  15.333 -0.0260  0.6703  0.2028
  367TMC3    C4 5544   2.509   4.341  15.161  0.1304 -0.6161 -0.1908
  367TMC3    C5 5545   2.534   4.462  15.196 -0.1690 -0.4550  0.5498
  367TMC3    C6 5546   2.630   4.493  15.292 -0.4373  0.2613  0.0171
  367TMC3     C 5547   2.517   4.115  15.233 -0.4261 -0.0120 -0.4011
  367TMC3     O 5548   2.401   4.100  15.203  0.3010  0.2376 -1.0689
  367TMC3     H 5549   2.775   4.193  15.318 -0.5770 -0.6144  0.2121
  367TMC3    H1 5550   2.423   4.309  15.102 -1.3389  1.1749  0.9913
  367TMC3    H2 5551   2.614   4.576  15.359 -1.6562  1.8044 -2.2029
  367TMC3    C7 5552   2.428   4.556  15.175 -0.5826 -0.4353  0.1544
  367TMC3    C8 5553   2.815   4.428  15.430  0.0859  0.5205  0.8701
  367TMC3    O1 5554   2.320   4.514  15.133  0.0481  0.7749  0.2658
  367TMC3    O2 5555   2.862   4.324  15.480  0.0219  0.6806  0.1348
  368MPD2     C 5556   3.762   1.119  13.700 -0.3786  0.0403 -0.5517
  368MPD2    C1 5557   3.751   1.233  13.627  0.4421 -0.8825 -0.2668
  368MPD2    C2 5558   3.858   1.290  13.566  0.7813 -0.6163  0.1969
  368MPD2    C3 5559   3.987   1.237  13.575  0.3842  1.1901  0.4985
  368MPD2    C4 5560   4.005   1.127  13.652 -0.6255  0.2152 -0.7733
  368MPD2    C5 5561   3.895   1.071  13.715 -0.7665  0.2200 -0.0468
  368MPD2     H 5562   3.837   1.373  13.499  2.2100  0.9578  1.7162
  368MPD2    H1 5563   4.107   1.090  13.658 -1.1327 -0.8022  1.6052
  368MPD2    H2 5564   3.683   1.076  13.760  0.6481 -1.6675 -0.3974
  368MPD2    H3 5565   3.923   0.995  13.788  1.5825 -0.0239 -1.2085
  368MPD2     N 5566   4.102   1.291  13.507 -0.1605 -0.1567 -0.4316
  368MPD2    H5 5567   4.184   1.231  13.508  0.7376  1.0639 -1.3060
  368MPD2    N1 5568   3.622   1.298  13.618  0.0759  0.1233  1.1982
  368MPD2    H7 5569   3.545   1.259  13.672 -0.2227 -0.2768  0.4866
  369TMC3    C1 5570   3.456   1.454  13.567 -0.7302 -0.2828 -0.2878
  369TMC3    C2 5571   3.436   1.580  13.528  0.5870 -0.1610  0.3494
  369TMC3    C3 5572   3.330   1.614  13.451  0.1034  0.2627 -0.3115
  369TMC3    C4 5573   3.365   1.357  13.553 -0.1254  0.3312 -0.2313
  369TMC3    C5 5574   3.252   1.391  13.484  0.1080  0.5780 -0.1177
  369TMC3    C6 5575   3.235   1.515  13.422  0.1763  0.3699  0.2558
  369TMC3     C 5576   3.592   1.425  13.563 -0.0292 -0.7018 -0.7547
  369TMC3     O 5577   3.666   1.501  13.509 -0.0047  0.2393  0.1977
  369TMC3     H 5578   3.506   1.648  13.576  1.7513 -1.6038  0.6749
  369TMC3    H1 5579   3.375   1.258  13.595 -1.6827  0.2851  0.0438
  369TMC3    H2 5580   3.149   1.543  13.363  0.6381  1.1454 -0.0408
  369TMC3    C7 5581   3.131   1.312  13.506  0.5498  1.2712 -0.4708
  369TMC3    C8 5582   3.376   1.686  13.334  0.2474 -0.0994 -0.4716
  369TMC3    O1 5583   3.144   1.229  13.594 -0.1035  0.3538  0.1001
  369TMC3    O2 5584   3.291   1.724  13.253  1.1474  0.1317  0.2814
  370TMC3    C1 5585   3.741   1.795  16.440  0.3862 -0.0542 -0.1232
  370TMC3    C2 5586   3.727   1.707  16.543 -0.9309  0.3673  0.6110
  370TMC3    C3 5587   3.715   1.576  16.517 -0.3826  0.8806 -0.0331
  370TMC3    C4 5588   3.735   1.759  16.309  0.8406 -0.2191 -0.2236
  370TMC3    C5 5589   3.730   1.623  16.287  0.4967 -0.3350  0.2036
  370TMC3    C6 5590   3.710   1.527  16.388  0.6172  0.4612  0.5873
  370TMC3     C 5591   3.694   1.929  16.473 -0.4582  0.3101  0.1122
  370TMC3     O 5592   3.659   1.944  16.589 -0.2523  0.0372 -0.1565
  370TMC3     H 5593   3.745   1.751  16.641 -0.1025 -0.7417  0.9671
  370TMC3    H1 5594   3.749   1.828  16.226  1.5029 -0.1565 -0.0589
  370TMC3    H2 5595   3.701   1.420  16.374 -0.3573  0.4987  0.9087
  370TMC3    C7 5596   3.759   1.578  16.152  0.3159  0.0138  0.9893
  370TMC3    C8 5597   3.684   1.478  16.620  0.1217 -0.0623 -0.5526
  370TMC3    O1 5598   3.746   1.652  16.057 -0.4318 -0.1428  0.1120
  370TMC3    O2 5599   3.686   1.360  16.599 -0.6845 -0.3141 -0.0694
  371TMC3    C1 5600   4.706   0.117  15.367 -0.7734 -0.4461  0.2159
  371TMC3    C2 5601   4.586   0.074  15.421 -0.4812 -0.4173 -0.2900
  371TMC3    C3 5602   4.495   0.174  15.451 -0.4464 -0.8124  0.0384
  371TMC3    C4 5603   4.724   0.248  15.337 -0.5320 -0.0097 -0.3083
  371TMC3    C5 5604   4.631   0.338  15.369 -0.1098  0.4046 -0.3695
  371TMC3    C6 5605   4.519   0.305  15.427  0.4658  0.0137 -0.5579
  371TMC3     C 5606   0.081   0.023  15.376  0.1877 -0.4994  0.2856
  371TMC3     O 5607   0.177   0.067  15.316 -0.0940 -0.3093 -0.2359
  371TMC3     H 5608   4.567   4.707  15.443  0.3745 -0.6090 -0.4585
  371TMC3    H1 5609   0.085   0.282  15.307 -1.0269  1.9371  0.2579
  371TMC3    H2 5610   4.434   0.371  15.409  0.8432  0.4265 -0.8105
  371TMC3    C7 5611   4.664   0.474  15.348 -0.6749 -0.2187 -0.5350
  371TMC3    C8 5612   4.410   0.132  15.557  0.0104 -0.0583 -0.3164
  371TMC3    O1 5613   4.627   0.555  15.428 -0.3168 -0.7560 -0.0095
  371TMC3    O2 5614   4.400   0.013  15.587  0.0238  0.4138 -0.4809
  372MPD2     C 5615   3.617   1.203  14.118  0.9557 -0.6994 -0.7084
  372MPD2    C1 5616   3.748   1.171  14.082 -0.8614 -0.0938  0.2418
  372MPD2    C2 5617   3.790   1.037  14.074 -0.9015 -0.2730  0.4890
  372MPD2    C3 5618   3.701   0.939  14.111 -0.7656 -0.0511  0.8703
  372MPD2    C4 5619   3.573   0.975  14.152  0.2305 -0.3181  0.2405
  372MPD2    C5 5620   3.534   1.103  14.159  0.3694 -0.1526  0.3011
  372MPD2     H 5621   3.888   1.009  14.036 -0.1232  1.7489  1.0171
  372MPD2    H1 5622   3.503   0.897  14.177 -1.2705  0.4781 -1.4450
  372MPD2    H2 5623   3.579   1.304  14.121 -0.1457 -1.1289 -0.4588
  372MPD2    H3 5624   3.432   1.124  14.191  0.9712  1.3326  1.2361
  372MPD2     N 5625   3.735   0.807  14.109  0.2478 -0.4493  0.1463
  372MPD2    H5 5626   3.833   0.783  14.093  0.1922 -0.3913 -0.2750
  372MPD2    N1 5627   3.844   1.266  14.029  0.0658 -0.2131 -0.1785
  372MPD2    H7 5628   3.928   1.224  13.991 -1.4000 -1.6935 -1.7957
  373TMC3    C1 5629   3.726   0.574  14.081 -0.2527 -0.0933  0.0668
  373TMC3    C2 5630   3.821   0.561  14.179  0.8395  0.7825  0.4199
  373TMC3    C3 5631   3.855   0.428  14.201  0.7146 -0.0504  0.1527
  373TMC3    C4 5632   3.675   0.472  14.000  0.5362  0.8379 -0.6967
  373TMC3    C5 5633   3.714   0.342  14.033  0.2710 -0.8315  0.1608
  373TMC3    C6 5634   3.804   0.320  14.140 -0.8708 -0.0599 -0.3585
  373TMC3     C 5635   3.654   0.700  14.082  0.2796  0.3072 -0.2516
  373TMC3     O 5636   3.546   0.695  14.027  0.2254  0.1339 -0.2295
  373TMC3     H 5637   3.859   0.644  14.238 -1.4885  1.5424  0.8636
  373TMC3    H1 5638   3.602   0.489  13.921  1.4510 -0.3912 -1.7953
  373TMC3    H2 5639   3.837   0.218  14.157  0.7320  0.5808  0.4532
  373TMC3    C7 5640   3.753   0.273  13.912  0.6288  0.6323 -0.0309
  373TMC3    C8 5641   3.959   0.392  14.289 -0.6749  0.6542 -0.0434
  373TMC3    O1 5642   3.775   0.348  13.813  0.2722 -0.1354 -0.0876
  373TMC3    O2 5643   3.937   0.287  14.349  0.1624  0.0559 -0.1610
  374TMC3    C1 5644   4.560   1.750  10.537  0.2231  0.3948 -0.7299
  374TMC3    C2 5645   4.647   1.860  10.512  0.1928 -0.2235 -0.9681
  374TMC3    C3 5646   4.601   1.955  10.421 -0.4397 -0.3979  0.0357
  374TMC3    C4 5647   4.435   1.741  10.480  0.2954 -0.2487  0.7719
  374TMC3    C5 5648   4.388   1.848  10.409  0.4143  0.1400  0.0035
  374TMC3    C6 5649   4.467   1.959  10.388 -0.0859 -0.6465  0.0052
  374TMC3     C 5650   4.608   1.629  10.613  0.7779 -0.3874  0.1053
  374TMC3     O 5651   4.522   1.544  10.641  0.0651  0.0364  0.5448
  374TMC3     H 5652   0.001   1.871  10.568 -0.4157  1.3237 -0.2950
  374TMC3    H1 5653   4.377   1.650  10.493  0.7783 -1.0779 -2.9382
  374TMC3    H2 5654   4.431   2.045  10.334 -0.1714 -1.2077 -0.8301
  374TMC3    C7 5655   4.264   1.835  10.330  0.7290 -0.3886  0.1297
  374TMC3    C8 5656   4.686   2.056  10.366  0.0626  0.1896 -0.1090
  374TMC3    O1 5657   4.237   1.918  10.239 -0.1440 -0.0814 -0.1118
  374TMC3    O2 5658   4.639   2.158  10.315  0.4860  0.3896  0.0467
  375MPD2     C 5659   0.310   1.900  17.510 -0.0281 -0.2114  0.5226
  375MPD2    C1 5660   0.214   1.904  17.411 -0.0542  0.0359 -0.4914
  375MPD2    C2 5661   0.238   1.877  17.280 -0.0504  0.4899  0.0707
  375MPD2    C3 5662   0.342   1.810  17.236 -0.4966  0.4267 -0.0837
  375MPD2    C4 5663   0.440   1.803  17.327  0.2287 -0.1747  0.5371
  375MPD2    C5 5664   0.428   1.856  17.457 -0.8044 -0.0945  0.1712
  375MPD2     H 5665   0.170   1.904  17.200  0.2064 -1.5906 -0.8525
  375MPD2    H1 5666   0.536   1.757  17.308  0.0689 -0.5668  0.6811
  375MPD2    H2 5667   0.295   1.934  17.612  0.0095  1.5374 -0.0632
  375MPD2    H3 5668   0.518   1.855  17.518  0.4324 -0.1595 -1.6318
  375MPD2     N 5669   0.364   1.755  17.110  0.2721 -1.0147  0.2754
  375MPD2    H5 5670   0.454   1.712  17.092  0.1478 -1.4637  0.7186
  375MPD2    N1 5671   0.085   1.961  17.428  0.4803 -0.0462 -0.4407
  375MPD2    H7 5672   0.035   1.993  17.346  2.1289  0.7137 -1.1464
  376TMC3    C1 5673   0.325   1.713  16.888  0.0329 -0.0207  0.5065
  376TMC3    C2 5674   0.449   1.763  16.856 -0.5109 -0.4331 -0.0064
  376TMC3    C3 5675   0.481   1.751  16.722  0.3230  0.4865 -0.4900
  376TMC3    C4 5676   0.227   1.680  16.797 -0.2853 -0.3543 -0.7809
  376TMC3    C5 5677   0.268   1.677  16.664 -0.1378  0.4915  0.2412
  376TMC3    C6 5678   0.395   1.711  16.629  0.2103  0.0365 -0.6026
  376TMC3     C 5679   0.268   1.739  17.017  0.1390  0.6633 -0.5845
  376TMC3     O 5680   0.149   1.735  17.033 -0.1489 -0.0280  0.2011
  376TMC3     H 5681   0.525   1.805  16.920  1.0963  2.0229 -3.5356
  376TMC3    H1 5682   0.136   1.631  16.831  0.2757 -3.0747 -3.1790
  376TMC3    H2 5683   0.433   1.700  16.529  2.5562 -0.7068  0.3786
  376TMC3    C7 5684   0.178   1.635  16.557  0.1688  0.6188  0.6612
  376TMC3    C8 5685   0.627   1.775  16.675  0.3807  0.1070  0.0631
  376TMC3    O1 5686   0.227   1.600  16.448  0.3345 -0.2108 -0.2736
  376TMC3    O2 5687   0.654   1.769  16.559 -0.5155  0.2424 -0.6401
  377MPD2     C 5688   2.663   1.193  13.195 -0.7044  0.2710  0.0589
  377MPD2    C1 5689   2.627   1.187  13.066  0.2227 -0.0965 -0.4471
  377MPD2    C2 5690   2.544   1.081  13.021  0.4265 -0.6233  0.5628
  377MPD2    C3 5691   2.489   0.992  13.113  0.6501 -0.4084 -0.1498
  377MPD2    C4 5692   2.530   1.004  13.240  0.3373 -0.7200  0.3391
  377MPD2    C5 5693   2.625   1.097  13.281  0.0200 -0.1421  0.0420
  377MPD2     H 5694   2.520   1.066  12.916  0.4556 -3.7490  0.9855
  377MPD2    H1 5695   2.501   0.932  13.316  0.4605  1.7965  2.7686
  377MPD2    H2 5696   2.724   1.279  13.220  0.8828 -1.2333  1.3841
  377MPD2    H3 5697   2.670   1.093  13.380  0.5882 -1.5950 -0.2697
  377MPD2     N 5698   2.408   0.879  13.084  0.4436  0.0698  0.1753
  377MPD2    H5 5699   2.400   0.807  13.155  0.0583 -1.1262 -1.1034
  377MPD2    N1 5700   2.667   1.283  12.973 -0.2193 -0.2223 -0.1501
  377MPD2    H7 5701   2.726   1.357  13.008 -0.7130  0.5733 -0.9997
  378TMC3    C1 5702   2.711   1.515  12.585 -0.7051 -0.1700 -0.5532
  378TMC3    C2 5703   2.633   1.432  12.660 -0.0179  0.1215  0.0856
  378TMC3    C3 5704   2.693   1.397  12.774 -0.1769  0.7845 -0.1399
  378TMC3    C4 5705   2.841   1.540  12.606 -0.8742  0.4727  0.0267
  378TMC3    C5 5706   2.902   1.496  12.721 -0.8345  1.0373 -0.5053
  378TMC3    C6 5707   2.821   1.427  12.811 -0.1104  0.6289  0.2202
  378TMC3     C 5708   2.662   1.517  12.447 -0.1450  0.1987  0.4123
  378TMC3     O 5709   2.564   1.448  12.429 -0.3137  0.3991  0.3238
  378TMC3     H 5710   2.528   1.420  12.638 -0.1571  0.4769  0.5357
  378TMC3    H1 5711   2.889   1.620  12.550 -0.8104  1.2425  1.1695
  378TMC3    H2 5712   2.870   1.402  12.904 -0.2029  0.6820  0.2840
  378TMC3    C7 5713   3.038   1.533  12.757  0.0421  0.0767 -0.8229
  378TMC3    C8 5714   2.623   1.295  12.847 -0.3219 -0.2317 -0.5439
  378TMC3    O1 5715   3.059   1.515  12.880 -0.4420  0.1666 -0.3161
  378TMC3    O2 5716   2.526   1.251  12.788 -0.0556  0.7158 -0.3601
  379MPD2     C 5717   3.834   4.513  16.121  0.3790  0.1489 -0.0373
  379MPD2    C1 5718   3.759   4.433  16.207 -0.6748  0.0026  0.5682
  379MPD2    C2 5719   3.821   4.331  16.272 -0.4167  0.9162  0.5091
  379MPD2    C3 5720   3.956   4.307  16.262  0.9830  0.4013 -0.4248
  379MPD2    C4 5721   4.031   4.385  16.172  0.5081 -0.2130 -0.3441
  379MPD2    C5 5722   3.967   4.487  16.108 -0.0837 -1.2982 -0.4951
  379MPD2     H 5723   3.763   4.284  16.351 -1.2713  2.3710  0.7614
  379MPD2    H1 5724   4.138   4.371  16.159  0.5983  0.0586  0.1386
  379MPD2    H2 5725   3.780   4.592  16.070  1.4964 -0.0647 -1.5558
  379MPD2    H3 5726   4.010   4.556  16.036 -3.7694  2.6044  1.0466
  379MPD2     N 5727   4.025   4.209  16.338  0.2657 -0.0918  0.5542
  379MPD2    H5 5728   4.115   4.178  16.301 -0.4568 -1.0052 -0.4595
  379MPD2    N1 5729   3.614   4.447  16.205 -0.1814  0.2239 -0.2788
  379MPD2    H7 5730   3.580   4.520  16.143 -0.2327 -0.7375 -1.3904
  380TMC3    C1 5731   3.413   4.346  16.162  0.2675  0.2220 -0.1756
  380TMC3    C2 5732   3.366   4.219  16.134 -0.1922  0.2512  0.0847
  380TMC3    C3 5733   3.298   4.205  16.021 -0.6824 -0.5473 -0.2058
  380TMC3    C4 5734   3.358   4.456  16.096 -0.2328  0.6047 -0.4749
  380TMC3    C5 5735   3.270   4.429  15.990 -0.1247 -0.1540 -0.7244
  380TMC3    C6 5736   3.246   4.303  15.937 -0.4829  0.0004  0.2892
  380TMC3     C 5737   3.525   4.355  16.256  0.4402  0.1403 -0.2918
  380TMC3     O 5738   3.539   4.260  16.332 -0.2675 -0.2630 -0.1826
  380TMC3     H 5739   3.420   4.131  16.169  0.2853  0.5500  0.0983
  380TMC3    H1 5740   3.394   4.555  16.123 -1.2509  0.4789  1.3458
  380TMC3    H2 5741   3.194   4.288  15.843  4.5735  0.2653 -2.5045
  380TMC3    C7 5742   3.242   4.546  15.915  0.0474 -0.0845 -0.1908
  380TMC3    C8 5743   3.339   4.093  15.948 -0.2211  0.6395  0.2874
  380TMC3    O1 5744   3.302   4.646  15.942  0.1467 -0.3243 -0.7915
  380TMC3    O2 5745   3.456   4.065  15.954  0.9151  0.4103  0.1047
  381TMC3    C1 5746   3.761   0.796  16.361  0.0538  0.2630  0.0910
  381TMC3    C2 5747   3.864   0.888  16.359  0.0490  0.0148 -0.4188
  381TMC3    C3 5748   3.870   0.978  16.460  0.4285 -0.0249  0.3548
  381TMC3    C4 5749   3.671   0.791  16.463 -0.6617 -0.0889  0.7370
  381TMC3    C5 5750   3.669   0.890  16.556 -0.0214  0.5334  0.6260
  381TMC3    C6 5751   3.770   0.986  16.555  0.7652 -0.9180 -0.2404
  381TMC3     C 5752   3.769   0.677  16.270  0.1884  0.5021  0.6671
  381TMC3     O 5753   3.715   0.582  16.307 -0.1811  0.3722 -0.2316
  381TMC3     H 5754   3.932   0.893  16.275 -0.1757  3.0025 -0.4426
  381TMC3    H1 5755   3.594   0.715  16.463 -0.2993 -0.4533  1.7832
  381TMC3    H2 5756   3.771   1.059  16.635 -2.5785 -0.0386 -0.9535
  381TMC3    C7 5757   3.633   0.839  16.690  0.1939  0.1635 -0.3247
  381TMC3    C8 5758   3.978   1.080  16.451 -0.2672 -0.4388 -0.0400
  381TMC3    O1 5759   3.618   0.718  16.701  0.5402 -0.3784 -0.3856
  381TMC3    O2 5760   4.046   1.064  16.349  0.1394 -0.2766 -0.3217
  382MPD2     C 5761   2.703   3.076  17.170 -0.2885  0.3666  0.1711
  382MPD2    C1 5762   2.700   3.094  17.305  0.3116 -0.0545  0.1955
  382MPD2    C2 5763   2.617   3.010  17.381 -0.4321 -0.2750 -0.0549
  382MPD2    C3 5764   2.558   2.895  17.321  0.6131  0.3034 -0.5852
  382MPD2    C4 5765   2.564   2.882  17.182  0.2331  0.1249  0.2958
  382MPD2    C5 5766   2.638   2.968  17.114  0.0370  0.6541 -0.8038
  382MPD2     H 5767   2.619   3.006  17.490 -0.1376  0.8805 -0.0160
  382MPD2    H1 5768   2.540   2.790  17.130 -0.5295  0.5846 -0.1717
  382MPD2    H2 5769   2.745   3.151  17.104  1.2232  2.1244  3.1166
  382MPD2    H3 5770   2.658   2.951  17.009  0.5944 -1.1422 -0.4114
  382MPD2     N 5771   2.504   2.789  17.400  0.2794 -0.3719  0.7103
  382MPD2    H5 5772   2.497   2.801  17.500  3.4509 -1.1094  1.0238
  382MPD2    N1 5773   2.766   3.198  17.375  0.0695 -0.3599 -0.2639
  382MPD2    H7 5774   2.761   3.198  17.476  3.5807  1.6135 -0.0795
  383TMC3    C1 5775   2.441   2.565  17.445  0.0273 -0.5599  0.1422
  383TMC3    C2 5776   2.365   2.457  17.408  0.1141 -0.1955  0.3316
  383TMC3    C3 5777   2.371   2.352  17.492  0.8162 -0.9646 -0.4932
  383TMC3    C4 5778   2.503   2.580  17.568  0.0671 -0.5772 -0.0052
  383TMC3    C5 5779   2.480   2.475  17.656  0.1273  0.7066 -0.5717
  383TMC3    C6 5780   2.429   2.359  17.617 -0.2072 -0.6453  0.0245
  383TMC3     C 5781   2.445   2.676  17.354 -0.6654 -0.0615  0.5786
  383TMC3     O 5782   2.396   2.653  17.246 -0.2625 -0.2938 -0.4244
  383TMC3     H 5783   2.315   2.445  17.313 -0.6921  2.1662  0.4612
  383TMC3    H1 5784   2.594   2.637  17.579  0.3565 -1.1990  0.8233
  383TMC3    H2 5785   2.418   2.274  17.683  1.2480 -0.8811 -0.0215
  383TMC3    C7 5786   2.567   2.468   0.026  0.1591 -0.7514 -0.1357
  383TMC3    C8 5787   2.276   2.241  17.465  0.6792  0.6150  0.6935
  383TMC3    O1 5788   2.589   2.361   0.078 -0.1081 -0.1217 -0.0195
  383TMC3    O2 5789   2.196   2.262  17.378 -0.2635  0.3698 -0.0541
  384MPD2     C 5790   3.722   4.347  12.548 -0.3839 -0.9055  0.1918
  384MPD2    C1 5791   3.816   4.360  12.648 -0.5057  0.3901  0.6076
  384MPD2    C2 5792   3.953   4.342  12.624  0.4153  0.2765  0.6631
  384MPD2    C3 5793   3.997   4.328  12.497 -0.0596 -0.7680 -0.2637
  384MPD2    C4 5794   3.907   4.312  12.397  0.2725  0.6239  0.1626
  384MPD2    C5 5795   3.774   4.317  12.419 -1.0734  0.1595  0.0338
  384MPD2     H 5796   4.027   4.350  12.702  0.9630 -1.2903  0.2870
  384MPD2    H1 5797   3.936   4.316  12.293  0.3211 -0.0505  0.1558
  384MPD2    H2 5798   3.618   4.358  12.577  0.4731  1.5827  2.3440
  384MPD2    H3 5799   3.712   4.305  12.330  2.1287 -0.5202 -2.1278
  384MPD2     N 5800   4.133   4.332  12.453  0.0200  0.4610 -0.4301
  384MPD2    H5 5801   4.160   4.315  12.357  0.1712 -1.0712 -0.1126
  384MPD2    N1 5802   3.769   4.393  12.781 -0.5415  0.0413  0.2012
  384MPD2    H7 5803   3.670   4.390  12.800 -0.8095  0.9834 -1.0149
  385TMC3    C1 5804   4.365   4.331  12.463 -0.1216  0.2571  0.0457
  385TMC3    C2 5805   4.365   4.214  12.389  0.1870 -0.2265 -0.5600
  385TMC3    C3 5806   4.466   4.120  12.410  0.5103 -0.6065  0.7282
  385TMC3    C4 5807   4.470   4.359  12.551  0.4167  0.3064  0.4879
  385TMC3    C5 5808   4.558   4.258  12.582  0.2194  0.4922 -0.9120
  385TMC3    C6 5809   4.551   4.139  12.518  0.3188 -0.2072  0.0482
  385TMC3     C 5810   4.239   4.368  12.530 -0.9205 -0.1629 -0.4229
  385TMC3     O 5811   4.243   4.421  12.640 -0.4994  0.0588  0.4977
  385TMC3     H 5812   4.287   4.182  12.321 -1.8024  0.8116  1.2454
  385TMC3    H1 5813   4.476   4.455  12.600 -0.5520  0.8783 -0.5103
  385TMC3    H2 5814   4.595   4.054  12.567 -1.3375 -1.4387 -0.6231
  385TMC3    C7 5815   4.570   4.239  12.724 -0.1721  0.0060 -0.6903
  385TMC3    C8 5816   4.468   3.991  12.342  0.1670  0.3413 -0.2393
  385TMC3    O1 5817   4.646   4.151  12.765 -0.2603  0.6537 -0.6956
  385TMC3    O2 5818   4.508   3.887  12.401  0.3094  0.1539  0.1016
  386TMC3    C1 5819   4.206   1.817  11.941  0.3626 -0.0623  0.1720
  386TMC3    C2 5820   4.167   1.817  11.806 -0.6424  1.2350 -0.6014
  386TMC3    C3 5821   4.054   1.874  11.770  0.5208  0.0275  0.1913
  386TMC3    C4 5822   4.121   1.882  12.028 -0.5325 -1.0689  0.5768
  386TMC3    C5 5823   4.000   1.931  11.986  0.4878  0.3086  0.5072
  386TMC3    C6 5824   3.967   1.931  11.860  0.5175  1.4188 -0.3925
  386TMC3     C 5825   4.328   1.741  11.972  0.6821  0.4284 -0.6135
  386TMC3     O 5826   4.422   1.800  12.020  0.0930  0.7467 -0.0820
  386TMC3     H 5827   4.221   1.745  11.745 -0.5627  1.6944 -1.0627
  386TMC3    H1 5828   4.159   1.892  12.129  1.7876 -0.0622 -0.3855
  386TMC3    H2 5829   3.870   1.958  11.820 -1.6638 -2.5678  2.2109
  386TMC3    C7 5830   3.919   1.992  12.083 -0.7761  0.1768 -0.2750
  386TMC3    C8 5831   4.048   1.932  11.633  0.3127 -0.4735  0.4531
  386TMC3    O1 5832   3.947   1.977  12.203  0.1121  0.3069 -0.4636
  386TMC3    O2 5833   3.971   2.025  11.609  0.4806 -0.4276  0.0322
  387MPD2     C 5834   1.713   2.139  10.459 -0.5255 -0.0374 -0.1785
  387MPD2    C1 5835   1.837   2.119  10.518 -0.2095  0.1096 -0.1598
  387MPD2    C2 5836   1.892   1.995  10.521  0.3608  0.4119  0.6197
  387MPD2    C3 5837   1.825   1.896  10.457  0.4503 -0.4744  0.5865
  387MPD2    C4 5838   1.702   1.912  10.392 -0.3005  0.1037  0.7155
  387MPD2    C5 5839   1.645   2.038  10.397 -0.3367 -0.3471  0.4502
  387MPD2     H 5840   1.987   1.977  10.570  0.3109  0.4301  0.7219
  387MPD2    H1 5841   1.655   1.827  10.345  0.2028  1.1533 -1.6536
  387MPD2    H2 5842   1.674   2.239  10.469 -0.9752 -0.3262  1.0793
  387MPD2    H3 5843   1.556   2.068  10.342 -1.0828 -0.7724  1.4126
  387MPD2     N 5844   1.899   1.773  10.453 -0.2149 -0.9031 -0.3349
  387MPD2    H5 5845   1.988   1.772  10.502  0.3495  1.0600 -1.3219
  387MPD2    N1 5846   1.912   2.216  10.582  0.5219 -0.0451  0.5131
  387MPD2    H7 5847   2.002   2.194  10.623 -0.3407 -0.8675  1.9760
  388TMC3    C1 5848   2.017   2.411  10.615  0.4086 -0.5293  0.3512
  388TMC3    C2 5849   2.035   2.506  10.712 -0.0565 -0.1599 -0.1771
  388TMC3    C3 5850   2.171   2.525  10.752 -0.2060  0.2794 -0.0390
  388TMC3    C4 5851   2.125   2.356  10.542 -0.2872 -0.3087 -0.2163
  388TMC3    C5 5852   2.250   2.396  10.576  0.1280 -0.2319  0.8437
  388TMC3    C6 5853   2.276   2.467  10.682  0.1916  0.1361 -0.7495
  388TMC3     C 5854   1.889   2.353  10.577  0.2077 -0.1283 -0.3651
  388TMC3     O 5855   1.794   2.425  10.554  0.1310 -0.3179  0.2070
  388TMC3     H 5856   1.953   2.558  10.760  0.1188  0.1439 -0.2028
  388TMC3    H1 5857   2.104   2.297  10.453  0.7199 -0.0509 -0.6314
  388TMC3    H2 5858   2.376   2.473  10.722  0.4816 -1.5465 -1.2407
  388TMC3    C7 5859   2.361   2.323  10.518 -0.3931  0.0980 -0.0759
  388TMC3    C8 5860   2.206   2.603  10.862 -0.1255  0.1665 -0.1401
  388TMC3    O1 5861   2.467   2.375  10.497  0.3355 -0.4503  0.4568
  388TMC3    O2 5862   2.319   2.587  10.902  0.3231 -0.1911  0.0739
  389MPD2     C 5863   1.008   0.677  11.335 -0.3436 -0.1391  0.0397
  389MPD2    C1 5864   0.957   0.553  11.296  0.6802 -0.1060  0.3113
  389MPD2    C2 5865   0.914   0.459  11.390 -0.7964 -0.0240  0.9469
  389MPD2    C3 5866   0.918   0.489  11.524 -0.0252  0.1145  0.1349
  389MPD2    C4 5867   0.965   0.612  11.558  0.0966  0.5210  0.4493
  389MPD2    C5 5868   1.016   0.699  11.468 -0.0325 -0.0141 -0.4732
  389MPD2     H 5869   0.888   0.361  11.352 -1.6283 -0.0578  1.6267
  389MPD2    H1 5870   0.976   0.639  11.662 -1.8149 -1.4888  1.1831
  389MPD2    H2 5871   1.044   0.751  11.264  2.5385 -0.0368  1.5940
  389MPD2    H3 5872   1.053   0.792  11.509 -2.3262 -0.2313  2.1188
  389MPD2     N 5873   0.884   0.397  11.631  0.5241  0.0812  0.1443
  389MPD2    H5 5874   0.878   0.440  11.723  2.4248 -3.5081  1.9339
  389MPD2    N1 5875   0.958   0.525  11.158 -0.7003 -0.7675 -0.2930
  389MPD2    H7 5876   1.015   0.582  11.096 -0.2668 -0.5457  0.3110
  390TMC3    C1 5877   0.813   0.197  11.734 -0.5154 -0.7029  0.5625
  390TMC3    C2 5878   0.860   0.074  11.753 -0.2659  0.0592  0.5911
  390TMC3    C3 5879   0.858   0.028  11.882 -0.6756 -0.1889 -0.0120
  390TMC3    C4 5880   0.761   0.275  11.832 -0.3486 -0.2088 -0.4089
  390TMC3    C5 5881   0.749   0.224  11.961 -0.0980  0.1517 -0.6007
  390TMC3    C6 5882   0.793   0.093  11.985 -0.3590  0.0317  0.3194
  390TMC3     C 5883   0.838   0.269  11.614  0.0225 -0.4426  0.6147
  390TMC3     O 5884   0.832   0.208  11.508 -0.3919  0.1355  0.2487
  390TMC3     H 5885   0.916   0.035  11.669 -0.8299 -0.1309  0.3034
  390TMC3    H1 5886   0.722   0.372  11.805 -0.2926 -0.0174  0.2113
  390TMC3    H2 5887   0.794   0.059  12.088  2.2665  1.7883  0.8605
  390TMC3    C7 5888   0.629   0.268  12.032 -0.2102 -0.0379  0.7951
  390TMC3    C8 5889   0.860   4.619  11.886  0.2489 -0.7154 -0.0139
  390TMC3    O1 5890   0.587   0.383  12.020 -0.0820  0.1969  0.0475
  390TMC3    O2 5891   0.839   4.555  11.782  0.2210 -0.3394  0.0577
  391MPD2     C 5892   0.888   1.543  11.249 -0.3218 -0.4070  0.3852
  391MPD2    C1 5893   0.935   1.673  11.241 -0.6521 -0.0668  0.1067
  391MPD2    C2 5894   0.940   1.738  11.119 -0.5914 -0.4629 -0.4405
  391MPD2    C3 5895   0.894   1.676  11.002 -0.1507 -0.0818  0.2469
  391MPD2    C4 5896   0.854   1.544  11.013 -0.3427  0.0250  0.0759
  391MPD2    C5 5897   0.849   1.481  11.135 -0.3902  0.0651 -0.1918
  391MPD2     H 5898   0.980   1.838  11.102  1.3921 -1.2980 -0.7342
  391MPD2    H1 5899   0.820   1.482  10.931  1.1651  0.8595 -1.1802
  391MPD2    H2 5900   0.894   1.498  11.348 -2.8619 -2.2604 -0.3218
  391MPD2    H3 5901   0.812   1.380  11.145  0.9505 -0.4237 -0.1223
  391MPD2     N 5902   0.903   1.756  10.885 -0.0832  0.6665 -0.6709
  391MPD2    H5 5903   0.929   1.853  10.898 -0.3823  0.8786 -1.6916
  391MPD2    N1 5904   0.984   1.734  11.363 -0.0896 -0.2542 -0.5728
  391MPD2    H7 5905   0.971   1.674  11.444  0.0562  0.8338  0.2590
  392TMC3    C1 5906   0.847   1.819  10.666  0.1172 -1.0752 -0.3759
  392TMC3    C2 5907   0.733   1.817  10.593 -0.4849 -0.1379  0.8091
  392TMC3    C3 5908   0.702   1.931  10.522  0.1975  0.1478 -0.1924
  392TMC3    C4 5909   0.930   1.927  10.680  0.2226 -0.3232  0.0931
  392TMC3    C5 5910   0.893   2.039  10.608 -0.6691  0.1251  0.0310
  392TMC3    C6 5911   0.789   2.042  10.517  0.4751 -1.0840  0.3894
  392TMC3     C 5912   0.856   1.708  10.762 -0.2776 -0.8250 -0.6742
  392TMC3     O 5913   0.818   1.595  10.733  0.1066  0.1279  0.0584
  392TMC3     H 5914   0.669   1.730  10.603  1.2278 -1.3825  0.8536
  392TMC3    H1 5915   1.027   1.920  10.729  0.0624 -1.0835  0.3130
  392TMC3    H2 5916   0.757   2.142  10.489  0.7350 -1.1899 -0.2833
  392TMC3    C7 5917   0.975   2.163  10.618 -0.0429 -0.0340 -0.4390
  392TMC3    C8 5918   0.564   1.963  10.495  0.5904 -0.0451  0.3921
  392TMC3    O1 5919   1.052   2.161  10.716 -0.2084  0.2711 -0.0124
  392TMC3    O2 5920   0.484   1.896  10.560  0.2994  0.5747  0.2692
  393TMC3    C1 5921   3.910   4.382  10.962  0.0965  0.1321 -0.3062
  393TMC3    C2 5922   3.793   4.355  11.019 -0.2347 -0.4055 -0.4866
  393TMC3    C3 5923   3.773   4.222  11.060  0.1284 -0.3438 -0.1479
  393TMC3    C4 5924   4.007   4.290  10.947 -1.5228 -0.2159 -0.1676
  393TMC3    C5 5925   3.994   4.159  10.983  0.4625 -0.3963  0.9708
  393TMC3    C6 5926   3.871   4.129  11.041  0.0228  0.2714  0.0328
  393TMC3     C 5927   3.915   4.502  10.882 -0.0906 -0.0125 -0.4097
  393TMC3     O 5928   3.820   4.515  10.802  0.2102  0.2401 -0.0317
  393TMC3     H 5929   3.714   4.429  11.021 -1.6069 -1.8600 -1.1318
  393TMC3    H1 5930   4.082   4.310  10.871 -0.4260  0.3939  1.0743
  393TMC3    H2 5931   3.851   4.026  11.067  0.8612  0.7422  2.5176
  393TMC3    C7 5932   4.072   4.047  10.929  0.0066  0.3230  0.5439
  393TMC3    C8 5933   3.647   4.190  11.109 -0.6463  0.4999  0.4100
  393TMC3    O1 5934   4.041   3.933  10.958 -0.2096 -0.1266 -0.3189
  393TMC3    O2 5935   3.562   4.277  11.093 -0.6546  0.3983  0.1617
  394TMC3    C1 5936   0.906   0.418  10.949 -0.1701  0.2683  0.3331
  394TMC3    C2 5937   0.802   0.365  10.875  0.1707  0.0789  0.8877
  394TMC3    C3 5938   0.820   0.359  10.738 -0.4364 -0.6214  0.3006
  394TMC3    C4 5939   1.023   0.432  10.898 -0.3413 -0.2173  0.6768
  394TMC3    C5 5940   1.041   0.396  10.764  0.4577 -0.2669  0.2006
  394TMC3    C6 5941   0.941   0.360  10.681  1.0463  0.2927 -0.7667
  394TMC3     C 5942   0.884   0.427  11.093 -0.0631 -0.6646  0.2049
  394TMC3     O 5943   0.803   0.348  11.137 -0.6191  0.3276  0.1030
  394TMC3     H 5944   0.702   0.355  10.914 -0.5638 -2.9235 -1.8431
  394TMC3    H1 5945   1.099   0.488  10.952  2.1494 -1.1110 -1.8577
  394TMC3    H2 5946   0.950   0.359  10.573 -0.0994 -2.3197 -0.8305
  394TMC3    C7 5947   1.174   0.408  10.697  0.0415  0.4810  0.3095
  394TMC3    C8 5948   0.715   0.303  10.661 -0.2362 -0.1905 -0.4973
  394TMC3    O1 5949   1.180   0.416  10.578  0.1951  0.0278 -0.2903
  394TMC3    O2 5950   0.598   0.323  10.686 -0.1356 -0.5788 -0.3980
  395TMC3    C1 5951   1.187   1.881  14.979 -0.6092 -0.2222  0.6244
  395TMC3    C2 5952   1.168   1.822  14.858 -0.1420  0.1172  0.3287
  395TMC3    C3 5953   1.195   1.893  14.744 -0.1642 -0.0759  0.0026
  395TMC3    C4 5954   1.249   1.997  14.991 -0.6272 -0.2560  0.3827
  395TMC3    C5 5955   1.273   2.069  14.876 -0.1288 -0.5103 -0.1242
  395TMC3    C6 5956   1.253   2.021  14.744 -0.1229  0.4420  0.2344
  395TMC3     C 5957   1.159   1.805  15.102 -0.6823 -0.4054 -0.5177
  395TMC3     O 5958   1.144   1.870  15.210 -0.5591  0.4594  0.3549
  395TMC3     H 5959   1.114   1.728  14.854  1.8677 -0.9544 -1.5699
  395TMC3    H1 5960   1.263   2.035  15.091 -0.3917  0.4069  0.0960
  395TMC3    H2 5961   1.275   2.077  14.654  2.6481  1.3691  1.4926
  395TMC3    C7 5962   1.366   2.188  14.895 -0.4088 -0.3918  0.5880
  395TMC3    C8 5963   1.149   1.850  14.610  0.7199  0.0143  0.8181
  395TMC3    O1 5964   1.368   2.247  15.003 -0.3516 -0.0973  0.1001
  395TMC3    O2 5965   1.166   1.931  14.517 -0.2037  0.0397 -0.2342
  396MPD2     C 5966   0.676   2.482  16.708  0.3518  0.2419  0.3618
  396MPD2    C1 5967   0.744   2.520  16.818  0.2568 -0.2370  0.5176
  396MPD2    C2 5968   0.815   2.641  16.809  0.6525  0.4782 -0.1500
  396MPD2    C3 5969   0.800   2.735  16.709  0.0925  0.2571 -0.7929
  396MPD2    C4 5970   0.726   2.689  16.602 -0.0487  0.2764  0.2099
  396MPD2    C5 5971   0.678   2.565  16.599 -0.3105  0.2098 -1.0113
  396MPD2     H 5972   0.876   2.673  16.893 -0.8687 -0.2169  1.2198
  396MPD2    H1 5973   0.711   2.742  16.509 -1.4187 -0.4622  0.0155
  396MPD2    H2 5974   0.612   2.396  16.724 -0.4694  0.9007  0.6037
  396MPD2    H3 5975   0.621   2.537  16.511 -0.1739 -0.7337 -0.8028
  396MPD2     N 5976   0.880   2.850  16.704  0.2407  0.2471 -0.3712
  396MPD2    H5 5977   0.927   2.863  16.793 -0.4340 -0.4766  0.0877
  396MPD2    N1 5978   0.749   2.425  16.919  0.2463 -0.1356  0.7213
  396MPD2    H7 5979   0.711   2.334  16.897 -0.2175  0.5178 -1.2036
  397TMC3    C1 5980   0.792   2.304  17.103  0.7849  0.0304 -0.6992
  397TMC3    C2 5981   0.804   2.183  17.027 -0.2883 -0.3743  0.0032
  397TMC3    C3 5982   0.703   2.088  17.010  0.0996  0.1033 -0.0222
  397TMC3    C4 5983   0.678   2.307  17.177  0.2382  0.3592  0.6079
  397TMC3    C5 5984   0.587   2.210  17.176  0.3135  0.4042  0.2538
  397TMC3    C6 5985   0.595   2.104  17.092 -0.4247  0.3542  0.1640
  397TMC3     C 5986   0.813   2.435  17.037  0.1183  0.2577 -0.9276
  397TMC3     O 5987   0.825   2.535  17.098 -0.5062  1.2192  0.3647
  397TMC3     H 5988   0.886   2.174  16.956 -0.4138  0.1894 -0.2070
  397TMC3    H1 5989   0.648   2.395  17.233 -0.3328  0.6928 -0.2441
  397TMC3    H2 5990   0.521   2.024  17.097 -2.0773  1.6674 -2.6936
  397TMC3    C7 5991   0.456   2.237  17.229  0.6217 -0.1737 -0.6915
  397TMC3    C8 5992   0.663   2.077  16.873  0.2036 -0.4164  0.4709
  397TMC3    O1 5993   0.358   2.205  17.170 -0.3360  0.1963 -0.0964
  397TMC3    O2 5994   0.747   2.096  16.787 -0.0513  0.0365 -0.3027
  398MPD2     C 5995   4.191   4.283   0.640  0.0346 -0.0351 -0.3114
  398MPD2    C1 5996   4.302   4.198   0.624 -0.2160 -0.0612  0.4186
  398MPD2    C2 5997   4.385   4.219   0.516  0.0735 -0.1919  0.6030
  398MPD2    C3 5998   4.377   4.330   0.436 -0.0404 -0.0866 -0.5723
  398MPD2    C4 5999   4.268   4.408   0.455  0.5212  0.5761 -0.7295
  398MPD2    C5 6000   4.178   4.384   0.551  0.4643 -0.6317 -0.6049
  398MPD2     H 6001   4.477   4.163   0.507 -0.6056 -0.8174 -2.2786
  398MPD2    H1 6002   4.246   4.499   0.400 -1.0298  0.1078 -0.8967
  398MPD2    H2 6003   4.110   4.274   0.710  0.6660  1.4967  0.6088
  398MPD2    H3 6004   4.097   4.457   0.553  0.0519 -1.0837 -0.7965
  398MPD2     N 6005   4.483   4.364   0.355 -0.3372  0.4878  0.3598
  398MPD2    H5 6006   4.560   4.297   0.351 -0.9421 -0.2684  1.1639
  398MPD2    N1 6007   4.308   4.075   0.694  0.1130 -0.2988  0.4601
  398MPD2    H7 6008   4.376   4.009   0.658  0.1891 -0.1547  0.3416
  399TMC3    C1 6009   4.265   3.908   0.852  0.2941 -0.5393 -0.1805
  399TMC3    C2 6010   4.368   3.836   0.795  0.1963 -0.0727  0.6883
  399TMC3    C3 6011   4.362   3.697   0.815 -0.1095  0.3976  0.0833
  399TMC3    C4 6012   4.159   3.844   0.909 -0.4865 -0.1700  0.7591
  399TMC3    C5 6013   4.149   3.706   0.908  0.3158 -0.5463  0.0581
  399TMC3    C6 6014   4.248   3.630   0.856  0.0399  0.3177  0.3302
  399TMC3     C 6015   4.236   4.036   0.803 -0.7253  0.1987 -0.1728
  399TMC3     O 6016   4.153   4.102   0.863 -0.3487 -0.1359 -0.1008
  399TMC3     H 6017   4.464   3.881   0.773 -1.1313  0.2065 -4.5743
  399TMC3    H1 6018   4.084   3.906   0.957 -0.6150  0.3792 -0.1593
  399TMC3    H2 6019   4.246   3.522   0.851  2.1104  0.3861 -1.6474
  399TMC3    C7 6020   4.017   3.647   0.912  0.2848  0.2215  0.0021
  399TMC3    C8 6021   4.470   3.617   0.762  0.4992 -0.0642 -0.0715
  399TMC3    O1 6022   4.000   3.541   0.968 -0.0033  0.4682 -0.2227
  399TMC3    O2 6023   4.546   3.684   0.689 -0.4930 -0.6205  0.0221
  400TMC3    C1 6024   2.205   2.024  17.149  0.3066 -0.2587 -0.6031
  400TMC3    C2 6025   2.150   1.906  17.122 -0.1430  0.0047  0.0913
  400TMC3    C3 6026   2.027   1.909  17.073  0.1953  0.3447  0.2452
  400TMC3    C4 6027   2.154   2.146  17.111  0.0532 -0.0821 -0.1816
  400TMC3    C5 6028   2.025   2.138  17.058 -0.5312 -0.2211 -1.6517
  400TMC3    C6 6029   1.962   2.018  17.028  0.3710 -0.4051  0.3450
  400TMC3     C 6030   2.350   2.013  17.172 -0.0207  0.0413 -0.1354
  400TMC3     O 6031   2.400   1.902  17.201  0.0587  0.3091  0.0451
  400TMC3     H 6032   2.197   1.816  17.161  1.5560  0.0477 -1.8475
  400TMC3    H1 6033   2.205   2.241  17.116  1.4188 -0.8976  1.3109
  400TMC3    H2 6034   1.858   2.016  16.997  0.4398 -0.7038  0.1254
  400TMC3    C7 6035   1.947   2.262  17.060  0.5629  0.3630  0.5148
  400TMC3    C8 6036   1.957   1.788  17.050  0.3070  0.2928  0.0231
  400TMC3    O1 6037   1.837   2.272  17.008  0.8986  0.3695 -0.5169
  400TMC3    O2 6038   1.964   1.709  17.144  0.0065  0.4048  0.2720
  401MPD2     C 6039   0.453   0.986   1.319 -0.3476  0.0260  0.5511
  401MPD2    C1 6040   0.549   0.898   1.348  0.8691  0.6738 -0.3647
  401MPD2    C2 6041   0.535   0.762   1.316  0.9782 -0.5065 -0.7946
  401MPD2    C3 6042   0.425   0.725   1.243  0.9240 -0.0804  0.4820
  401MPD2    C4 6043   0.325   0.814   1.210  0.1758  0.2536 -0.2568
  401MPD2    C5 6044   0.346   0.940   1.251  0.1035  0.2844  0.2918
  401MPD2     H 6045   0.617   0.694   1.333  1.8849  0.5774 -0.8214
  401MPD2    H1 6046   0.241   0.798   1.144  0.1470 -2.6147  0.5087
  401MPD2    H2 6047   0.450   1.093   1.336 -2.2588  0.0059  0.3655
  401MPD2    H3 6048   0.279   1.019   1.219  0.9189 -0.0683 -2.2727
  401MPD2     N 6049   0.412   0.580   1.221 -0.4904 -0.3919  0.0752
  401MPD2    H5 6050   0.495   0.529   1.248  0.0592  0.4514 -0.0198
  401MPD2    N1 6051   0.675   0.940   1.401  0.1987  0.0916  0.5777
  401MPD2    H7 6052   0.747   0.870   1.392  2.3751  2.3827  0.2241
  402TMC3    C1 6053   0.332   0.373   1.172  0.6301  0.3353 -0.1065
  402TMC3    C2 6054   0.395   0.332   1.282  1.1425  0.1221  0.1710
  402TMC3    C3 6055   0.481   0.226   1.264  0.2964  0.7903  0.5799
  402TMC3    C4 6056   0.361   0.320   1.046  0.8414 -0.2367 -0.7863
  402TMC3    C5 6057   0.446   0.220   1.028 -0.6442  0.7999 -0.1236
  402TMC3    C6 6058   0.505   0.167   1.137  0.7544  0.2009 -0.2112
  402TMC3     C 6059   0.303   0.512   1.174  0.6152  0.1691 -0.5016
  402TMC3     O 6060   0.204   0.554   1.119  0.4466  1.1910  0.0652
  402TMC3     H 6061   0.376   0.383   1.376  0.0142  0.7708 -0.4144
  402TMC3    H1 6062   0.309   0.359   0.959  0.8938 -1.3984 -1.3281
  402TMC3    H2 6063   0.557   0.072   1.121 -1.3158 -0.7491 -1.2812
  402TMC3    C7 6064   0.526   0.235   0.912  0.3451  0.3883 -0.4213
  402TMC3    C8 6065   0.579   0.181   1.361 -0.5451  0.2334 -0.4674
  402TMC3    O1 6066   0.487   0.290   0.808  0.7655 -0.1159  0.1111
  402TMC3    O2 6067   0.665   0.108   1.317  0.3014 -0.4865 -0.8958
  403MPD2     C 6068   3.941   3.720  13.431 -0.4567  0.3294  0.0375
  403MPD2    C1 6069   3.862   3.735  13.542 -0.3371 -0.7179  0.5441
  403MPD2    C2 6070   3.923   3.749  13.662 -0.7609 -0.4914 -0.4974
  403MPD2    C3 6071   4.058   3.728  13.688  0.1803 -0.1689 -0.4386
  403MPD2    C4 6072   4.138   3.694  13.574 -0.8232 -0.2243 -0.1750
  403MPD2    C5 6073   4.075   3.688  13.453  0.2021  1.1577  0.4448
  403MPD2     H 6074   3.861   3.763  13.750 -1.2786 -0.1163 -0.9238
  403MPD2    H1 6075   4.245   3.682  13.564 -0.4908  2.9097 -0.4501
  403MPD2    H2 6076   3.896   3.735  13.334 -0.2946 -0.9178 -0.2264
  403MPD2    H3 6077   4.139   3.673  13.367 -2.5186 -1.6081 -1.0910
  403MPD2     N 6078   4.109   3.744  13.823 -0.0409  0.0936  0.4004
  403MPD2    H5 6079   4.038   3.764  13.892  0.4249  0.7815  0.6843
  403MPD2    N1 6080   3.716   3.745  13.525 -0.3656  0.4608 -0.0052
  403MPD2    H7 6081   3.683   3.754  13.430 -0.9617  0.7173  0.2222
  404TMC3    C1 6082   3.494   3.717  13.576  0.5720 -0.0614 -0.0364
  404TMC3    C2 6083   3.426   3.629  13.640 -0.2945 -0.3080  0.1570
  404TMC3    C3 6084   3.334   3.554  13.565 -0.1363 -0.5054 -0.4626
  404TMC3    C4 6085   3.480   3.734  13.440 -0.1966 -0.0968 -0.3120
  404TMC3    C5 6086   3.388   3.655  13.371 -0.7407  0.1572 -0.7114
  404TMC3    C6 6087   3.312   3.566  13.432  0.0167  0.5898 -0.6469
  404TMC3     C 6088   3.623   3.749  13.627  0.6016 -0.9556  0.1945
  404TMC3     O 6089   3.637   3.776  13.748  0.2125 -0.1474 -0.2115
  404TMC3     H 6090   3.459   3.603  13.739 -1.7437  1.4660  1.0961
  404TMC3    H1 6091   3.539   3.807  13.386  1.9446 -0.5892  1.3710
  404TMC3    H2 6092   3.234   3.505  13.388 -0.2459 -1.8712  3.2563
  404TMC3    C7 6093   3.374   3.685  13.229  0.5885 -0.3144  1.5834
  404TMC3    C8 6094   3.270   3.445  13.629 -0.0848  0.4399 -0.3413
  404TMC3    O1 6095   3.470   3.729  13.167  0.6745 -0.0085 -0.2954
  404TMC3    O2 6096   3.246   3.345  13.565  0.6836  0.5426  0.4875
  405MPD2     C 6097   4.278   4.432  14.864 -0.0769  0.1260 -0.4047
  405MPD2    C1 6098   4.147   4.417  14.847  0.2780 -0.0493 -0.4117
  405MPD2    C2 6099   4.057   4.447  14.943  0.5492 -0.0646 -0.2378
  405MPD2    C3 6100   4.101   4.504  15.063  0.8037 -0.4211 -0.5814
  405MPD2    C4 6101   4.241   4.524  15.085  0.1837  0.0251  0.3337
  405MPD2    C5 6102   4.322   4.488  14.984  0.1589  0.5927 -0.4363
  405MPD2     H 6103   3.953   4.436  14.915 -0.1891 -2.4778  3.5084
  405MPD2    H1 6104   4.280   4.561  15.179  0.5689  1.4379 -0.3766
  405MPD2    H2 6105   4.351   4.406  14.788 -0.2724  0.8648 -0.8381
  405MPD2    H3 6106   4.429   4.496  15.002 -0.1190 -0.1844  1.5550
  405MPD2     N 6107   4.004   4.522  15.161 -0.7034  0.4396  0.0575
  405MPD2    H5 6108   3.911   4.495  15.131 -0.8820  1.1806 -0.0595
  405MPD2    N1 6109   4.092   4.357  14.738  0.0248  0.6864  0.0744
  405MPD2    H7 6110   3.993   4.374  14.728 -0.4128 -1.9468  0.1325
  406TMC3    C1 6111   3.693   4.709  15.337  0.4921  0.1797 -0.0004
  406TMC3    C2 6112   3.617   4.610  15.288  0.0612 -0.1401 -0.5365
  406TMC3    C3 6113   3.676   4.489  15.280 -0.8703  0.2956 -0.4744
  406TMC3    C4 6114   3.825   4.693  15.372 -0.4914  0.5110  0.2194
  406TMC3    C5 6115   3.885   4.569  15.352  0.0053  0.9300  1.2582
  406TMC3    C6 6116   3.806   4.464  15.316 -0.0496  0.0585  0.4479
  406TMC3     C 6117   3.651   0.111  15.316  1.2136  0.5458  0.1129
  406TMC3     O 6118   3.671   0.194  15.401  0.1351 -0.3613 -0.0302
  406TMC3     H 6119   3.514   4.624  15.257 -0.1828  0.3231  0.4808
  406TMC3    H1 6120   3.888   0.042  15.388 -1.0756  0.8719  0.5747
  406TMC3    H2 6121   3.863   4.373  15.301  0.6230  0.9156 -2.3185
  406TMC3    C7 6122   4.019   4.570  15.294 -0.4834  0.4560  0.3174
  406TMC3    C8 6123   3.653   4.418  15.159  0.1662  0.4616 -0.3600
  406TMC3    O1 6124   4.102   4.644  15.334 -0.1937 -0.3445  0.6648
  406TMC3    O2 6125   3.760   4.382  15.109 -0.2312 -0.3482 -0.3228
  407MPD2     C 6126   1.442   1.459  10.000 -0.3303 -1.1192 -0.3532
  407MPD2    C1 6127   1.525   1.526  10.086  0.1949  0.4824 -0.3454
  407MPD2    C2 6128   1.474   1.609  10.183 -0.4300 -0.0063  0.1957
  407MPD2    C3 6129   1.337   1.624  10.188 -0.2523  0.6351  0.1359
  407MPD2    C4 6130   1.253   1.570  10.089 -0.6477 -0.5410 -0.8472
  407MPD2    C5 6131   1.308   1.481   9.997 -0.2176  0.3034 -0.0970
  407MPD2     H 6132   1.548   1.655  10.248  0.1679 -1.0160  0.2244
  407MPD2    H1 6133   1.149   1.596  10.071 -1.1977  0.6109  3.8616
  407MPD2    H2 6134   1.482   1.415   9.909  0.8329 -0.9387  0.0724
  407MPD2    H3 6135   1.248   1.437   9.918  0.2824 -1.0008  0.2502
  407MPD2     N 6136   1.276   1.717  10.274  0.0640 -0.5164  0.5690
  407MPD2    H5 6137   1.183   1.751  10.253  0.4112 -0.2117 -0.5007
  407MPD2    N1 6138   1.666   1.523  10.066  0.0050 -0.4305  0.1587
  407MPD2    H7 6139   1.721   1.591  10.118  0.9952 -1.9630  1.1213
  408TMC3    C1 6140   1.876   1.474   9.989 -0.4109 -1.1206  0.1454
  408TMC3    C2 6141   1.961   1.370   9.985 -0.4180 -0.1879 -0.1005
  408TMC3    C3 6142   2.096   1.396  10.025  0.6348 -0.8076  0.4077
  408TMC3    C4 6143   1.919   1.602  10.019  0.2363  0.5892  0.0993
  408TMC3    C5 6144   2.050   1.628  10.049 -0.4503 -0.1459  0.1742
  408TMC3    C6 6145   2.143   1.524  10.051 -0.3025  0.0937  0.5146
  408TMC3     C 6146   1.732   1.448   9.978  0.2945  0.2147  0.0302
  408TMC3     O 6147   1.694   1.337   9.936  0.3061 -0.2667 -0.1499
  408TMC3     H 6148   1.925   1.268   9.973 -1.4028 -0.3224  3.8380
  408TMC3    H1 6149   1.845   1.681  10.013 -0.8894 -0.7020 -2.9044
  408TMC3    H2 6150   2.242   1.547  10.091 -0.4541  0.9603  0.3907
  408TMC3    C7 6151   2.097   1.764  10.094  0.0860  0.7071  0.4095
  408TMC3    C8 6152   2.177   1.271  10.035  0.1404  0.6691 -0.2183
  408TMC3    O1 6153   2.220   1.781  10.095 -0.2687  0.1645 -0.1166
  408TMC3    O2 6154   2.121   1.164  10.003 -0.0789 -0.1021 -0.5675
  409MPD2     C 6155   1.747   1.122  17.024 -0.3375  0.4460 -0.6962
  409MPD2    C1 6156   1.754   1.160  17.160  0.2386  0.5772 -0.3801
  409MPD2    C2 6157   1.714   1.289  17.196 -0.2056 -0.5517 -0.3831
  409MPD2    C3 6158   1.646   1.372  17.104 -0.8407  0.0574 -0.6234
  409MPD2    C4 6159   1.634   1.333  16.973  0.7582  0.2824  0.3791
  409MPD2    C5 6160   1.693   1.213  16.934  0.7230 -0.3672  0.0420
  409MPD2     H 6161   1.715   1.313  17.301  0.0878 -2.2703  0.0107
  409MPD2    H1 6162   1.576   1.390  16.902  0.6579  0.6200  0.7286
  409MPD2    H2 6163   1.779   1.025  16.989 -0.2403  0.0506  0.4989
  409MPD2    H3 6164   1.695   1.187  16.828  0.5258  0.1208 -0.0823
  409MPD2     N 6165   1.604   1.506  17.138  0.3192 -0.2645 -0.3142
  409MPD2    H5 6166   1.601   1.570  17.059  1.0077 -0.2671 -0.3452
  409MPD2    N1 6167   1.820   1.066  17.244 -0.0937  0.0424  0.4260
  409MPD2    H7 6168   1.861   0.991  17.190 -0.7193 -2.5003  3.4330
  410TMC3    C1 6169   1.577   1.705  17.254  0.2614 -0.4498  0.5646
  410TMC3    C2 6170   1.663   1.777  17.342 -0.3570  0.1908 -0.7550
  410TMC3    C3 6171   1.707   1.899  17.300 -0.0518 -0.4517 -0.2948
  410TMC3    C4 6172   1.524   1.763  17.137 -0.5354  0.5328  0.2413
  410TMC3    C5 6173   1.555   1.895  17.114 -0.0880 -0.2733 -0.3184
  410TMC3    C6 6174   1.653   1.965  17.194  0.0804 -0.3664  0.1163
  410TMC3     C 6175   1.585   1.562  17.263  0.4860 -0.4124 -0.1762
  410TMC3     O 6176   1.609   1.506  17.371  0.6885 -0.3157 -0.0212
  410TMC3     H 6177   1.680   1.732  17.439  1.8988 -1.3213 -1.8513
  410TMC3    H1 6178   1.438   1.719  17.088  1.3605 -1.5881 -1.1570
  410TMC3    H2 6179   1.664   2.072  17.182 -0.4728 -0.4469 -1.1429
  410TMC3    C7 6180   1.497   1.950  16.985 -0.0987  0.4214 -0.5264
  410TMC3    C8 6181   1.834   1.948  17.357 -0.1543  0.5924 -1.3188
  410TMC3    O1 6182   1.423   1.875  16.923 -0.2290 -1.1108  0.0651
  410TMC3    O2 6183   1.870   2.056  17.318 -0.6844  0.2264  0.1585
  411MPD2     C 6184   2.134   3.032  14.586  0.2564 -0.5443  0.6018
  411MPD2    C1 6185   2.022   3.055  14.666 -0.1723  0.0284 -0.3952
  411MPD2    C2 6186   1.920   2.964  14.653 -0.7896  0.4062  0.3122
  411MPD2    C3 6187   1.932   2.852  14.568 -0.6397  0.1387 -0.1091
  411MPD2    C4 6188   2.048   2.829  14.503  0.3554  0.7842 -0.2915
  411MPD2    C5 6189   2.144   2.924  14.507  0.1780 -0.0425 -0.4836
  411MPD2     H 6190   1.826   2.988  14.702  0.1713  0.1122  2.2731
  411MPD2    H1 6191   2.069   2.745  14.437 -2.0291 -0.3887  0.4562
  411MPD2    H2 6192   2.214   3.104  14.592 -0.0749 -0.2557  1.6757
  411MPD2    H3 6193   2.237   2.908  14.454  1.4697 -0.3517  1.8974
  411MPD2     N 6194   1.826   2.763  14.541  0.6016  0.0874  0.3399
  411MPD2    H5 6195   1.854   2.680  14.490  0.9776 -0.2949  1.1641
  411MPD2    N1 6196   2.006   3.170  14.747  0.1882  0.5207 -0.1323
  411MPD2    H7 6197   2.070   3.246  14.726  0.8705  0.4290  1.6537
  412TMC3    C1 6198   1.619   2.645  14.548 -0.0725  0.1049 -0.4018
  412TMC3    C2 6199   1.535   2.592  14.638  0.2814  0.7387 -0.0310
  412TMC3    C3 6200   1.463   2.483  14.604 -0.7069 -0.5133  0.5457
  412TMC3    C4 6201   1.625   2.605  14.415  0.7431 -0.1226  0.5177
  412TMC3    C5 6202   1.542   2.502  14.385 -0.2624 -0.9239  0.7073
  412TMC3    C6 6203   1.481   2.427  14.485 -0.3873  0.0447  0.7385
  412TMC3     C 6204   1.701   2.757  14.598 -0.0609 -0.0780 -0.3600
  412TMC3     O 6205   1.662   2.830  14.690  0.1204  0.5117 -0.6411
  412TMC3     H 6206   1.530   2.645  14.733 -1.0250  0.2850  0.1602
  412TMC3    H1 6207   1.667   2.668  14.337 -0.0694  0.2848  0.4121
  412TMC3    H2 6208   1.430   2.337  14.451  2.5843 -1.0466 -0.9290
  412TMC3    C7 6209   1.472   2.494  14.253 -0.0833  0.0713  0.5615
  412TMC3    C8 6210   1.336   2.471  14.663 -0.8034  0.0276  0.2047
  412TMC3    O1 6211   1.371   2.427  14.260  0.3199  0.0622  0.1634
  412TMC3    O2 6212   1.320   2.523  14.773  0.5060 -0.0044  0.8700
  413MPD2     C 6213   3.048   0.892  15.967 -0.2983 -0.3557  0.7892
  413MPD2    C1 6214   3.014   0.841  15.843  0.6377  0.8203  0.1659
  413MPD2    C2 6215   3.108   0.771  15.773 -0.3578  0.4475 -0.1705
  413MPD2    C3 6216   3.237   0.746  15.823 -0.3084  0.0204  0.2126
  413MPD2    C4 6217   3.266   0.793  15.954 -0.3812 -0.0949 -0.1369
  413MPD2    C5 6218   3.173   0.867  16.027  0.4630 -0.0828  0.3700
  413MPD2     H 6219   3.087   0.743  15.670  1.8452 -2.0108  0.0576
  413MPD2    H1 6220   3.358   0.776  16.008  0.2667 -1.2874 -1.6092
  413MPD2    H2 6221   2.977   0.948  16.027 -1.7330  1.2718 -2.4606
  413MPD2    H3 6222   3.194   0.902  16.128  0.2322 -2.1918  1.1583
  413MPD2     N 6223   3.334   0.673  15.751 -0.9010 -0.0054 -0.6679
  413MPD2    H5 6224   3.325   0.662  15.651 -2.6213  1.7694 -0.7035
  413MPD2    N1 6225   2.884   0.873  15.798  0.4645 -0.4229 -0.4339
  413MPD2    H7 6226   2.821   0.919  15.863 -0.0204 -1.1463 -0.3921
  414TMC3    C1 6227   3.530   0.536  15.716  0.2060  0.1797 -0.3123
  414TMC3    C2 6228   3.578   0.410  15.757  0.6439 -0.3243 -0.7603
  414TMC3    C3 6229   3.676   0.356  15.690  0.5317 -0.4295 -0.4648
  414TMC3    C4 6230   3.585   0.596  15.605 -0.3643 -0.0298  0.2919
  414TMC3    C5 6231   3.675   0.522  15.534  0.9212  0.3356 -0.7566
  414TMC3    C6 6232   3.726   0.406  15.578 -0.5382  0.7028  0.2609
  414TMC3     C 6233   3.442   0.611  15.808  0.9044  0.3880  0.6961
  414TMC3     O 6234   3.465   0.590  15.925 -0.3483 -0.0904 -0.7287
  414TMC3     H 6235   3.538   0.373  15.850  0.5574 -1.4622 -1.2589
  414TMC3    H1 6236   3.557   0.697  15.577  1.0992  0.4467  0.5332
  414TMC3    H2 6237   3.785   0.345  15.510 -2.4181 -1.3865  0.5230
  414TMC3    C7 6238   3.743   0.587  15.423 -0.0993  1.0555 -0.0391
  414TMC3    C8 6239   3.709   0.223  15.716 -0.0140 -0.8432 -0.1151
  414TMC3    O1 6240   3.734   0.707  15.406 -0.1213  0.5635 -0.5345
  414TMC3    O2 6241   3.618   0.153  15.762  0.8722 -0.2135  0.0181
  415TMC3    C1 6242   4.050   3.854  10.350 -0.1538 -0.2187 -0.7609
  415TMC3    C2 6243   4.104   3.978  10.381 -0.7316  0.3715  0.5732
  415TMC3    C3 6244   4.214   4.022  10.309  0.7878 -0.2267  0.7841
  415TMC3    C4 6245   4.107   3.782  10.248 -0.4067  0.9245 -0.3684
  415TMC3    C5 6246   4.200   3.845  10.169  0.2256  0.4706  0.6858
  415TMC3    C6 6247   4.262   3.964  10.202 -0.2917  0.6023 -0.5923
  415TMC3     C 6248   3.919   3.816  10.394 -1.3315 -0.3743 -0.4779
  415TMC3     O 6249   3.863   3.733  10.320  0.3042  0.0905  0.1061
  415TMC3     H 6250   4.056   4.038  10.457 -1.6657 -1.2948  1.2888
  415TMC3    H1 6251   4.066   3.683  10.230 -1.7448  1.6045 -1.0344
  415TMC3    H2 6252   4.330   4.016  10.135  1.1653  1.2345  1.3815
  415TMC3    C7 6253   4.250   3.766  10.061 -0.4166  0.9847  0.0146
  415TMC3    C8 6254   4.261   4.154  10.350 -0.0116  0.3461  0.1117
  415TMC3    O1 6255   4.354   3.812  10.019 -0.1573  0.2204 -0.7094
  415TMC3    O2 6256   4.193   4.216  10.435 -0.3258 -0.0936 -0.3719
  416MPD2     C 6257   0.808   3.018  11.759  0.5709  0.7668 -0.2288
  416MPD2    C1 6258   0.697   2.966  11.692 -0.1996  0.2752 -0.5953
  416MPD2    C2 6259   0.719   2.885  11.580  0.2855  0.7044 -0.0186
  416MPD2    C3 6260   0.844   2.874  11.530  0.0360 -0.3036  0.3608
  416MPD2    C4 6261   0.953   2.929  11.592  0.1154  0.6300 -0.4731
  416MPD2    C5 6262   0.933   3.001  11.706  0.6104  0.4712  0.3608
  416MPD2     H 6263   0.643   2.822  11.534  1.6393 -0.9900  0.0820
  416MPD2    H1 6264   1.053   2.924  11.551  0.2977 -1.1040  0.2128
  416MPD2    H2 6265   0.806   3.072  11.853 -0.6112 -2.6561  1.7242
  416MPD2    H3 6266   1.019   3.053  11.746  0.3595 -0.0430  1.5581
  416MPD2     N 6267   0.870   2.792  11.414 -0.7775 -0.8640  0.3495
  416MPD2    H5 6268   0.967   2.767  11.396 -0.2301  0.2026  1.8369
  416MPD2    N1 6269   0.572   2.994  11.750  0.2459 -0.1086  0.0506
  416MPD2    H7 6270   0.573   3.049  11.835 -0.9639  0.7676 -0.5064
  417TMC3    C1 6271   0.341   3.012  11.757 -0.1801 -0.8855  0.2274
  417TMC3    C2 6272   0.323   2.978  11.887 -0.1511  0.2131  0.8281
  417TMC3    C3 6273   0.211   3.037  11.942 -0.4979  0.0168 -0.1642
  417TMC3    C4 6274   0.244   3.088  11.685 -0.4814 -0.2828 -0.6206
  417TMC3    C5 6275   0.148   3.156  11.753 -0.9168 -0.5959 -0.2564
  417TMC3    C6 6276   0.132   3.131  11.885 -1.5796  0.1752 -0.7184
  417TMC3     C 6277   0.460   2.976  11.674 -0.1414  0.3607  0.0519
  417TMC3     O 6278   0.444   2.953  11.554  0.2864  0.2378  0.3002
  417TMC3     H 6279   0.406   2.939  11.945  1.4410  1.6540 -0.4711
  417TMC3    H1 6280   0.259   3.119  11.583 -1.0690  1.7051 -0.1043
  417TMC3    H2 6281   0.054   3.183  11.940  1.6094  2.0032  2.0331
  417TMC3    C7 6282   0.128   3.290  11.709 -0.0561 -0.0638 -0.3861
  417TMC3    C8 6283   0.185   3.001  12.080  0.1736  0.9969 -0.7842
  417TMC3    O1 6284   0.189   3.328  11.613  0.1268 -0.0022 -0.0674
  417TMC3    O2 6285   0.117   3.084  12.142 -0.1727  0.1085  0.1305
  418TMC3    C1 6286   0.091   4.397   0.224 -0.7133 -0.1988  0.0306
  418TMC3    C2 6287   4.714   4.468   0.206 -0.1851 -0.3506  0.4239
  418TMC3    C3 6288   4.644   4.515   0.313 -0.4796 -0.5360  0.0404
  418TMC3    C4 6289   0.135   4.360   0.356  0.9333 -0.2712 -0.7170
  418TMC3    C5 6290   0.063   4.411   0.460 -0.1020  0.0946 -0.2240
  418TMC3    C6 6291   4.689   4.484   0.440 -0.2394  0.2797 -0.0201
  418TMC3     C 6292   0.144   4.325   0.115  0.2078  0.0833  0.5248
  418TMC3     O 6293   0.118   4.373   0.004 -0.1041  0.7937 -0.7163
  418TMC3     H 6294   4.669   4.467   0.107  1.4987 -1.3037 -0.3270
  418TMC3    H1 6295   0.230   4.310   0.371  1.0816 -0.6688 -2.8880
  418TMC3    H2 6296   4.625   4.508   0.525 -0.3507 -2.9428  0.7907
  418TMC3    C7 6297   0.068   4.354   0.595  0.1923  0.0836  0.5828
  418TMC3    C8 6298   4.504   4.488   0.296 -0.0377 -0.0540 -0.1007
  418TMC3    O1 6299   0.096   4.237   0.605  0.2146 -0.0731  0.2072
  418TMC3    O2 6300   4.424   4.581   0.278  0.8761 -0.1975 -0.0128
  419MPD2     C 6301   2.806   2.332  12.629 -0.5490  0.4232 -1.3273
  419MPD2    C1 6302   2.686   2.394  12.597  0.1328 -0.2889  0.3047
  419MPD2    C2 6303   2.599   2.432  12.701 -0.1834  0.5178  0.4028
  419MPD2    C3 6304   2.625   2.397  12.831 -0.4468  0.4884 -0.3326
  419MPD2    C4 6305   2.738   2.320  12.859  0.3042 -1.1022 -0.1379
  419MPD2    C5 6306   2.825   2.292  12.755 -0.2020 -0.4259  0.0407
  419MPD2     H 6307   2.506   2.484  12.681 -0.7348 -0.5718  0.1076
  419MPD2    H1 6308   2.766   2.285  12.958  1.1541  3.2030  1.1459
  419MPD2    H2 6309   2.881   2.310  12.555  0.7432 -1.6899  0.6193
  419MPD2    H3 6310   2.913   2.232  12.775  3.1139  4.8449  1.2229
  419MPD2     N 6311   2.539   2.441  12.933  0.7960 -0.3992  0.0763
  419MPD2    H5 6312   2.464   2.507  12.913 -2.3764 -3.1202  2.7516
  419MPD2    N1 6313   2.665   2.458  12.476  0.5119 -0.3762 -0.5650
  419MPD2    H7 6314   2.577   2.507  12.460  0.6569  0.5327  1.4847
  420TMC3    C1 6315   2.495   2.522  13.156  0.0502  0.1736  0.3833
  420TMC3    C2 6316   2.395   2.608  13.105 -0.3868  0.1320 -0.5506
  420TMC3    C3 6317   2.323   2.679  13.197 -0.5139  0.7157 -0.0436
  420TMC3    C4 6318   2.543   2.528  13.284  0.2141 -0.0663  0.1788
  420TMC3    C5 6319   2.471   2.609  13.365 -0.2400 -0.9400 -0.1498
  420TMC3    C6 6320   2.359   2.675  13.331 -0.1472 -0.0198 -0.4156
  420TMC3     C 6321   2.562   2.421  13.070  0.2597  0.2694  0.0501
  420TMC3     O 6322   2.645   2.353  13.129  0.0083 -0.2585  0.4960
  420TMC3     H 6323   2.355   2.587  13.007 -1.0948  0.1742 -0.2705
  420TMC3    H1 6324   2.626   2.473  13.326 -1.5421 -1.3015  2.0429
  420TMC3    H2 6325   2.297   2.712  13.412  1.7182 -0.3425  1.1777
  420TMC3    C7 6326   2.521   2.629  13.498 -0.9425 -0.4198  0.5088
  420TMC3    C8 6327   2.233   2.778  13.150  0.1495  0.3095 -0.3851
  420TMC3    O1 6328   2.578   2.538  13.559  0.9380  0.3330  0.4679
  420TMC3    O2 6329   2.240   2.815  13.032  0.0708  0.5751 -0.0849
  421TMC3    C1 6330   4.271   3.770  13.990  0.0031 -0.1003 -0.6197
  421TMC3    C2 6331   4.262   3.907  13.985 -0.1777 -0.1566  0.0309
  421TMC3    C3 6332   4.356   3.981  14.065  0.1365  0.1714  0.3702
  421TMC3    C4 6333   4.370   3.711  14.068  0.7722 -0.8954 -0.4370
  421TMC3    C5 6334   4.440   3.783  14.154  0.6395  0.3321 -0.1834
  421TMC3    C6 6335   4.443   3.917  14.149  1.1353  1.0016  0.2022
  421TMC3     C 6336   4.231   3.709  13.866 -0.1382  0.1578  0.1800
  421TMC3     O 6337   4.333   3.672  13.804  0.2475 -0.0686  0.1361
  421TMC3     H 6338   4.206   3.971  13.917 -0.3757  0.4099  0.7355
  421TMC3    H1 6339   4.373   3.606  14.094  1.4266 -0.6434  0.4789
  421TMC3    H2 6340   4.507   3.969  14.219  2.4486  0.8446 -0.8665
  421TMC3    C7 6341   4.569   3.733  14.200  0.0647 -0.2107  0.5447
  421TMC3    C8 6342   4.320   4.114  14.106 -0.0313 -0.2074 -0.1556
  421TMC3    O1 6343   4.657   3.812  14.226 -0.2420  0.2073  0.4849
  421TMC3    O2 6344   4.411   4.192  14.124 -0.3292  0.0136 -0.1953
  422TMC3    C1 6345   1.428   0.822  12.588 -0.3737  0.4913 -0.6627
  422TMC3    C2 6346   1.464   0.863  12.713 -0.0502  0.4021  0.5632
  422TMC3    C3 6347   1.380   0.841  12.820 -0.4183 -0.1264  0.7165
  422TMC3    C4 6348   1.309   0.761  12.563 -0.8491 -0.3319  0.0555
  422TMC3    C5 6349   1.225   0.744  12.674  0.0601  0.4390 -0.6064
  422TMC3    C6 6350   1.257   0.775  12.808  0.4233 -0.2802 -0.6656
  422TMC3     C 6351   1.536   0.766  12.509 -0.5103 -0.2927 -0.2627
  422TMC3     O 6352   1.632   0.742  12.575  0.2470 -0.2962 -0.4247
  422TMC3     H 6353   1.565   0.902  12.721  1.1870 -2.7183 -0.1355
  422TMC3    H1 6354   1.279   0.733  12.462 -0.7813 -3.6003  0.9166
  422TMC3    H2 6355   1.181   0.781  12.885  3.6535  0.8080  2.5023
  422TMC3    C7 6356   1.146   0.625  12.654 -0.3959 -0.1837 -0.0193
  422TMC3    C8 6357   1.419   0.878  12.954  0.1077 -0.1256 -0.1726
  422TMC3    O1 6358   1.191   0.546  12.570 -0.2147 -0.4103 -0.2014
  422TMC3    O2 6359   1.504   0.970  12.967 -0.5072  0.7419  0.4429
  423MPD2     C 6360   3.117   1.556   0.829 -0.2738 -0.0126 -0.3968
  423MPD2    C1 6361   3.223   1.479   0.861  0.0909 -0.1857 -1.0693
  423MPD2    C2 6362   3.322   1.461   0.765  0.1962  0.3113 -0.3611
  423MPD2    C3 6363   3.314   1.520   0.643 -0.6246 -0.9763 -0.4493
  423MPD2    C4 6364   3.213   1.600   0.614  0.2007 -0.1214  0.3401
  423MPD2    C5 6365   3.107   1.614   0.701  0.3707 -1.0335  0.2899
  423MPD2     H 6366   3.406   1.410   0.812 -0.3150 -3.1792 -3.2144
  423MPD2    H1 6367   3.209   1.649   0.518 -0.0261 -0.6677  0.0761
  423MPD2    H2 6368   3.035   1.573   0.898  1.8630  1.8350  1.6557
  423MPD2    H3 6369   3.023   1.680   0.682  1.0930 -0.6532 -1.5805
  423MPD2     N 6370   3.414   1.511   0.541 -0.3265 -0.8091  0.1994
  423MPD2    H5 6371   3.396   1.553   0.451 -0.3319 -1.3430 -0.0439
  423MPD2    N1 6372   3.243   1.431   0.991  0.3987 -0.0491  0.2719
  423MPD2    H7 6373   3.341   1.412   1.011  0.2662 -0.6628  0.3457
  424TMC3    C1 6374   3.208   1.384   1.221  0.1613  1.0247 -0.3363
  424TMC3    C2 6375   3.342   1.390   1.241  0.5781 -0.0429  0.7777
  424TMC3    C3 6376   3.396   1.348   1.358 -0.5894  0.4702  0.3448
  424TMC3    C4 6377   3.130   1.343   1.325 -0.5747  0.4543  0.4421
  424TMC3    C5 6378   3.182   1.321   1.451 -0.0735 -0.2801  0.0522
  424TMC3    C6 6379   3.319   1.313   1.466  0.8675 -0.3134 -0.3599
  424TMC3     C 6380   3.151   1.422   1.094 -0.2268 -1.2298 -0.0599
  424TMC3     O 6381   3.033   1.422   1.084  0.1863 -0.0212 -0.1047
  424TMC3     H 6382   3.416   1.432   1.174  0.4571  0.3004  0.8578
  424TMC3    H1 6383   3.027   1.320   1.300 -0.6065  0.3418  0.6765
  424TMC3    H2 6384   3.358   1.266   1.555  0.0211  1.5569  1.0022
  424TMC3    C7 6385   3.102   1.293   1.564  0.0160 -0.2607 -0.1534
  424TMC3    C8 6386   3.531   1.309   1.357  0.1736  0.0611 -0.3664
  424TMC3    O1 6387   3.163   1.244   1.662  0.5334  0.3109 -0.1555
  424TMC3    O2 6388   3.598   1.363   1.276 -0.2154 -0.6129 -0.2608
  425MPD2     C 6389   2.522   0.674  17.570  0.0743 -0.6336 -0.7005
  425MPD2    C1 6390   2.415   0.596  17.586  0.5610  0.1136 -0.6420
  425MPD2    C2 6391   2.322   0.632  17.679  0.2361  0.2464  0.1853
  425MPD2    C3 6392   2.330   0.742   0.007  0.1068  0.2605  0.0774
  425MPD2    C4 6393   2.439   0.828  17.737  0.1123  0.7607 -0.4766
  425MPD2    C5 6394   2.531   0.792  17.640 -0.8985 -0.0901  0.1358
  425MPD2     H 6395   2.237   0.569  17.706  1.3820 -1.1294  0.5981
  425MPD2    H1 6396   2.457   0.918   0.046  0.6810 -1.3329  2.5227
  425MPD2    H2 6397   2.608   0.646  17.511  1.3584 -0.6693  1.1765
  425MPD2    H3 6398   2.614   0.860  17.625  0.0540 -0.7937  2.2054
  425MPD2     N 6399   2.232   0.752   0.112  0.4226  0.5518 -0.0156
  425MPD2    H5 6400   2.165   0.676   0.115 -1.2667  2.0482  0.3658
  425MPD2    N1 6401   2.419   0.465  17.532  0.0578  0.3511  0.2888
  425MPD2    H7 6402   2.500   0.442  17.475 -0.4238 -0.8872  0.1090
  426TMC3    C1 6403   2.378   0.233  17.519  0.0308 -0.2170  0.4029
  426TMC3    C2 6404   2.456   0.220  17.406 -0.5387  0.4494 -0.4671
  426TMC3    C3 6405   2.460   0.095  17.352 -0.3866  0.1621 -0.5005
  426TMC3    C4 6406   2.301   0.124  17.563  0.1032 -0.2323  0.3004
  426TMC3    C5 6407   2.304   0.003  17.492  0.1997  0.2504 -0.1583
  426TMC3    C6 6408   2.388   4.720  17.385  1.3876 -0.2220 -0.3177
  426TMC3     C 6409   2.334   0.362  17.565  0.4341 -0.7528  0.6348
  426TMC3     O 6410   2.240   0.358  17.639  0.1441  0.0242  0.0897
  426TMC3     H 6411   2.522   0.301  17.377 -0.7330  0.8460  0.1933
  426TMC3    H1 6412   2.241   0.142  17.651 -0.0307 -0.2818  0.2191
  426TMC3    H2 6413   2.375   4.645  17.307 -0.1366  0.4859 -0.7524
  426TMC3    C7 6414   2.199   4.644  17.507  0.1756  0.4773 -0.0534
  426TMC3    C8 6415   2.494   0.088  17.209  0.6697 -0.1289 -0.7855
  426TMC3    O1 6416   2.212   4.542  17.446  0.1758 -0.3374  0.1139
  426TMC3    O2 6417   2.525   4.724  17.150 -0.2558  0.1019  0.2270
  427MPD2     C 6418   0.706   2.683  14.911  0.1899 -0.1269  0.4993
  427MPD2    C1 6419   0.654   2.628  15.024 -0.5610  0.3890  0.2608
  427MPD2    C2 6420   0.515   2.632  15.033  0.3120  0.2484 -0.9899
  427MPD2    C3 6421   0.428   2.670  14.934 -1.1366  0.5632 -0.3850
  427MPD2    C4 6422   0.493   2.714  14.820 -0.4997 -0.3577 -0.4948
  427MPD2    C5 6423   0.631   2.719  14.809 -0.5788  0.8068 -0.5057
  427MPD2     H 6424   0.479   2.595  15.128 -1.1394  4.3963  0.0990
  427MPD2    H1 6425   0.440   2.754  14.734 -1.8515 -2.6893 -0.7596
  427MPD2    H2 6426   0.811   2.694  14.886  0.6775 -0.5122  2.3589
  427MPD2    H3 6427   0.670   2.762  14.717 -1.1801 -0.1650 -1.2046
  427MPD2     N 6428   0.293   2.675  14.944 -0.7881 -0.3323  0.0241
  427MPD2    H5 6429   0.251   2.705  14.857 -1.2722  1.2660  0.8136
  427MPD2    N1 6430   0.734   2.594  15.139 -0.4369 -0.1932  0.1642
  427MPD2    H7 6431   0.681   2.571  15.222 -0.6991 -1.1735 -0.2707
  428TMC3    C1 6432   0.939   2.575  15.267  0.5687 -0.2736  0.0049
  428TMC3    C2 6433   0.894   2.483  15.356 -0.2378  0.7735 -0.0081
  428TMC3    C3 6434   0.980   2.460  15.460  0.5900  0.3917  0.5640
  428TMC3    C4 6435   1.063   2.637  15.280  0.3027  0.7103 -0.7123
  428TMC3    C5 6436   1.132   2.613  15.397 -0.4595  0.3979  0.2675
  428TMC3    C6 6437   1.091   2.520  15.492 -0.8829  0.1173  0.3012
  428TMC3     C 6438   0.870   2.612  15.149  0.5677 -0.6401 -0.0435
  428TMC3     O 6439   0.943   2.655  15.058 -0.0888  0.7137 -0.5193
  428TMC3     H 6440   0.814   2.422  15.317  0.1239  0.3452 -0.0848
  428TMC3    H1 6441   1.100   2.718  15.218 -2.0983  3.0448  0.8980
  428TMC3    H2 6442   1.137   2.506  15.589  0.5500 -0.5288 -0.4752
  428TMC3    C7 6443   1.237   2.695  15.444  0.1965  0.4307 -0.2637
  428TMC3    C8 6444   0.940   2.351  15.547 -0.1474 -0.3489 -0.0061
  428TMC3    O1 6445   1.271   2.683  15.559  0.7196 -0.2593  0.5589
  428TMC3    O2 6446   1.030   2.287  15.600  0.1599 -0.1227  0.0981
  429MPD2     C 6447   1.824   2.283   0.456 -0.9894  0.5905 -1.0985
  429MPD2    C1 6448   1.886   2.253   0.340 -0.2831 -0.4724 -0.3151
  429MPD2    C2 6449   1.887   2.351   0.239 -0.4172 -0.3469 -0.6958
  429MPD2    C3 6450   1.841   2.477   0.261  0.3283  0.3856  0.1457
  429MPD2    C4 6451   1.772   2.501   0.375 -0.1025  0.5037 -0.2033
  429MPD2    C5 6452   1.764   2.411   0.473  0.0854 -0.5347 -0.1091
  429MPD2     H 6453   1.924   2.331   0.139 -4.0916 -0.4341 -2.0662
  429MPD2    H1 6454   1.727   2.597   0.401 -0.0618  0.6217 -0.5698
  429MPD2    H2 6455   1.817   2.210   0.537  0.0399 -2.8017 -4.1018
  429MPD2    H3 6456   1.709   2.437   0.563 -0.3229 -1.7408 -0.0122
  429MPD2     N 6457   1.863   2.570   0.163  0.2173  0.5196 -0.4532
  429MPD2    H5 6458   1.935   2.545   0.096  1.9743  1.3421  1.1494
  429MPD2    N1 6459   1.961   2.135   0.317 -0.2402 -0.4984 -0.0564
  429MPD2    H7 6460   2.026   2.133   0.239  0.8172  1.7586  0.7564
  430TMC3    C1 6461   1.861   2.766   0.040 -0.4370 -0.5972 -0.7718
  430TMC3    C2 6462   1.801   2.879  17.748  0.4233  0.1914  0.7178
  430TMC3    C3 6463   1.869   2.952  17.647 -0.8325  0.2564 -0.1373
  430TMC3    C4 6464   1.976   2.724  17.725 -0.1991  0.4684 -0.1513
  430TMC3    C5 6465   2.046   2.799  17.634  0.1596 -0.2251  0.0884
  430TMC3    C6 6466   1.991   2.917  17.598  0.0335 -0.1671 -0.6439
  430TMC3     C 6467   1.801   2.697   0.158 -0.1427 -0.4210 -0.0148
  430TMC3     O 6468   1.705   2.740   0.224  0.1493 -0.4994  0.3139
  430TMC3     H 6469   1.703   2.909   0.036  0.5742 -0.5485  1.6963
  430TMC3    H1 6470   2.024   2.628  17.744 -1.5397 -0.0999  0.3783
  430TMC3    H2 6471   2.040   2.982  17.526  0.6082  0.1427  0.0204
  430TMC3    C7 6472   2.084   2.710  17.524  0.4637  0.1209 -0.4791
  430TMC3    C8 6473   1.790   3.025  17.554 -0.2142 -0.5497  0.3048
  430TMC3    O1 6474   2.127   2.598  17.548 -0.7041  0.0103 -0.4096
  430TMC3    O2 6475   1.674   3.001  17.550 -0.0138  0.6160 -0.4199
  431MPD2     C 6476   2.324   3.036  12.749  0.5408  0.2923 -0.2659
  431MPD2    C1 6477   2.380   3.118  12.649  0.3919 -0.1113  0.6072
  431MPD2    C2 6478   2.440   3.052  12.541  0.6630  0.0339 -0.0446
  431MPD2    C3 6479   2.422   2.917  12.519 -0.2624 -0.0078  0.5784
  431MPD2    C4 6480   2.349   2.844  12.609 -0.6002  0.0775  1.0381
  431MPD2    C5 6481   2.301   2.903  12.724 -0.2412  0.1549 -0.2502
  431MPD2     H 6482   2.507   3.106  12.475  0.9520  0.0107  0.2344
  431MPD2    H1 6483   2.325   2.738  12.604  0.9148 -0.1424 -1.3882
  431MPD2    H2 6484   2.281   3.090  12.832  1.4547  2.2065 -1.0378
  431MPD2    H3 6485   2.255   2.841  12.800  0.3441  0.6271  0.4888
  431MPD2     N 6486   2.494   2.851  12.422 -0.0022  0.1301 -0.2381
  431MPD2    H5 6487   2.496   2.749  12.421 -2.2444  0.0775  0.6190
  431MPD2    N1 6488   2.415   3.252  12.671 -0.5381 -0.2980 -0.2892
  431MPD2    H7 6489   2.458   3.300  12.593  0.5456 -0.3894  0.2526
  432TMC3    C1 6490   2.648   2.796  12.255  1.1149  0.0044  0.7743
  432TMC3    C2 6491   2.703   2.813  12.130  0.7647  0.4411 -1.1251
  432TMC3    C3 6492   2.781   2.703  12.095 -0.1172  0.6260  0.0509
  432TMC3    C4 6493   2.670   2.689  12.333  0.3951 -0.4875  0.2771
  432TMC3    C5 6494   2.730   2.578  12.282 -0.0559 -0.0311 -0.2993
  432TMC3    C6 6495   2.774   2.581  12.150  0.0994 -0.1642  0.3478
  432TMC3     C 6496   2.579   2.906  12.328  0.7229 -0.4116 -0.5090
  432TMC3     O 6497   2.590   3.020  12.290 -0.1955  0.1071  0.0494
  432TMC3     H 6498   2.693   2.907  12.078 -1.6591  0.7734 -0.0516
  432TMC3    H1 6499   2.667   2.698  12.442 -0.7131  2.0420  0.0536
  432TMC3    H2 6500   2.838   2.504  12.109  1.4337  0.3753  1.4061
  432TMC3    C7 6501   2.760   2.468  12.375  0.5691 -0.0959  0.7238
  432TMC3    C8 6502   2.884   2.731  11.996  0.5086 -0.2796 -1.1489
  432TMC3    O1 6503   2.855   2.395  12.348  0.2110 -0.4005 -0.3396
  432TMC3    O2 6504   2.928   2.642  11.927 -0.2945  0.3509 -0.2434
  433MPD2     C 6505   1.363   2.054  11.375 -0.0550 -0.4202  0.7271
  433MPD2    C1 6506   1.398   1.920  11.396 -0.0993 -0.1301  0.5126
  433MPD2    C2 6507   1.469   1.884  11.506  0.0810 -0.0559  0.7520
  433MPD2    C3 6508   1.505   1.975  11.603  0.1018 -0.7411 -0.5016
  433MPD2    C4 6509   1.471   2.111  11.585 -0.1731  0.1048  0.0379
  433MPD2    C5 6510   1.401   2.145  11.470  0.1444  0.5190  0.1413
  433MPD2     H 6511   1.501   1.783  11.525 -0.6336 -0.4900 -0.3193
  433MPD2    H1 6512   1.473   2.188  11.661 -0.8914  0.9204 -0.7704
  433MPD2    H2 6513   1.311   2.086  11.285  0.2569 -3.1357 -0.4190
  433MPD2    H3 6514   1.370   2.248  11.467  0.7694  0.6006 -2.6526
  433MPD2     N 6515   1.576   1.923  11.721  0.4183 -0.2163  0.0692
  433MPD2    H5 6516   1.593   1.823  11.722  0.8261 -0.1481 -0.2253
  433MPD2    N1 6517   1.333   1.821  11.313  0.0457  0.2234  0.2727
  433MPD2    H7 6518   1.286   1.856  11.230  0.3796 -0.0101 -0.0155
  434TMC3    C1 6519   1.285   1.606  11.226  0.4529  0.9703  0.0293
  434TMC3    C2 6520   1.270   1.479  11.255  0.1136  0.0953 -0.5193
  434TMC3    C3 6521   1.279   1.378  11.161  0.3458  0.0551 -0.2970
  434TMC3    C4 6522   1.300   1.647  11.094 -0.4040 -0.0911  0.6024
  434TMC3    C5 6523   1.290   1.553  11.002  0.2568  0.0237  0.4421
  434TMC3    C6 6524   1.298   1.414  11.030  0.4958 -0.4433  0.3932
  434TMC3     C 6525   1.332   1.685  11.337 -0.0393  0.4516 -0.0187
  434TMC3     O 6526   1.344   1.631  11.449  0.2810  0.1311 -0.2996
  434TMC3     H 6527   1.270   1.453  11.360  1.2935  0.9729 -0.3025
  434TMC3    H1 6528   1.305   1.752  11.067 -0.9882 -0.7631 -2.1190
  434TMC3    H2 6529   1.304   1.329  10.963 -1.0271 -1.0969  1.0673
  434TMC3    C7 6530   1.240   1.594  10.874  0.6620  0.3800 -0.1546
  434TMC3    C8 6531   1.358   1.259  11.209 -0.2072  0.1191  0.1438
  434TMC3    O1 6532   1.264   1.706  10.839 -0.5778 -0.3824 -0.6266
  434TMC3    O2 6533   1.350   1.223  11.326  0.4868 -0.3161 -0.8148
  435MPD2     C 6534   3.533   1.799  15.581  0.0197  0.5890 -0.0044
  435MPD2    C1 6535   3.534   1.815  15.716 -0.1968 -0.1157 -0.4663
  435MPD2    C2 6536   3.650   1.792  15.781  0.3330 -0.4136  0.0694
  435MPD2    C3 6537   3.768   1.762  15.712 -0.4644 -0.8836 -0.5960
  435MPD2    C4 6538   3.761   1.749  15.577  0.3065  0.2528 -0.1080
  435MPD2    C5 6539   3.646   1.775  15.510 -0.1162 -0.1001 -0.0416
  435MPD2     H 6540   3.646   1.780  15.888  0.5382  2.9635  0.4504
  435MPD2    H1 6541   3.843   1.715  15.514  1.8226  0.2601  1.8905
  435MPD2    H2 6542   3.446   1.795  15.516 -1.1703 -2.1936  1.7346
  435MPD2    H3 6543   3.653   1.772  15.402 -1.5383  0.6201 -0.1512
  435MPD2     N 6544   3.890   1.748  15.788  0.4342  0.0888  0.0473
  435MPD2    H5 6545   3.889   1.775  15.886  1.2440 -0.6448  0.2595
  435MPD2    N1 6546   3.417   1.830  15.791 -0.6797  0.4656 -0.5833
  435MPD2    H7 6547   3.426   1.818  15.891 -0.7262 -0.6113 -0.7040
  436TMC3    C1 6548   3.091   1.803  16.036  0.0935  0.2174  1.3150
  436TMC3    C2 6549   3.187   1.781  15.937  0.2909 -0.4290 -0.2678
  436TMC3    C3 6550   3.185   1.859  15.829 -0.5430 -0.3880  0.6722
  436TMC3    C4 6551   2.997   1.906  16.022 -0.2936  0.8525 -0.3863
  436TMC3    C5 6552   3.000   1.984  15.902  0.3259 -0.7663 -0.2157
  436TMC3    C6 6553   3.090   1.950  15.804 -0.1772  0.1077  0.2836
  436TMC3     C 6554   3.098   1.717  16.158 -0.1300  0.4287  0.3018
  436TMC3     O 6555   3.144   1.604  16.150  0.5014  0.3273 -0.0722
  436TMC3     H 6556   3.262   1.703  15.945  0.4752 -0.0822  1.3222
  436TMC3    H1 6557   2.909   1.906  16.086 -0.9820 -0.7112 -1.3206
  436TMC3    H2 6558   3.086   2.009  15.713 -0.0296 -1.4803 -0.7553
  436TMC3    C7 6559   2.880   2.058  15.864 -0.2157 -0.1776 -0.0689
  436TMC3    C8 6560   3.297   1.865  15.740  0.4893  0.6361 -1.1512
  436TMC3    O1 6561   2.878   2.090  15.746  0.3553 -0.0096  0.0200
  436TMC3    O2 6562   3.277   1.913  15.632 -0.0950  0.5004 -0.1754
  437TMC3    C1 6563   2.009   3.976  12.408 -0.4773  0.0006 -0.2934
  437TMC3    C2 6564   1.934   3.950  12.519  0.4844 -0.2938  0.2777
  437TMC3    C3 6565   1.991   3.958  12.646  0.3694  0.3962 -0.3404
  437TMC3    C4 6566   2.134   4.025  12.417 -0.6248 -0.1538 -0.3704
  437TMC3    C5 6567   2.180   4.043  12.539  0.9940 -0.4336 -0.1500
  437TMC3    C6 6568   2.111   4.021  12.656 -0.3976 -0.1384 -0.4887
  437TMC3     C 6569   1.951   3.971  12.279 -0.2169 -0.8522 -0.1709
  437TMC3     O 6570   1.991   4.057  12.200  0.1046 -0.0977 -0.0070
  437TMC3     H 6571   1.835   3.912  12.498  0.4179  0.5102 -0.8738
  437TMC3    H1 6572   2.186   4.050  12.325 -2.5435  1.9840 -0.8939
  437TMC3    H2 6573   2.152   4.030  12.756  0.2773 -0.2919 -0.7508
  437TMC3    C7 6574   2.316   4.083  12.540  0.1202 -0.4485  0.1091
  437TMC3    C8 6575   1.891   3.966  12.748  0.5044 -0.0560  0.1311
  437TMC3    O1 6576   2.352   4.150  12.443 -0.1541 -0.4659  0.2617
  437TMC3    O2 6577   1.787   3.905  12.735 -0.0945  0.4500  0.0030
  438MPD2     C 6578   0.115   3.633  17.016 -0.2013  0.7196 -0.4036
  438MPD2    C1 6579   0.195   3.743  17.063  0.1934  0.1565 -0.5971
  438MPD2    C2 6580   0.158   3.809  17.177 -0.3509  0.2605 -0.3121
  438MPD2    C3 6581   0.037   3.778  17.236 -0.4058 -0.5074  0.6050
  438MPD2    C4 6582   4.696   3.671  17.182  0.5593  0.0249  0.5371
  438MPD2    C5 6583   0.003   3.601  17.075 -0.0038 -0.3097 -0.1347
  438MPD2     H 6584   0.228   3.885  17.207 -0.4853  0.9478 -1.7820
  438MPD2    H1 6585   4.601   3.650  17.228 -0.3003 -0.6514 -1.5452
  438MPD2    H2 6586   0.150   3.562  16.942 -0.2683 -0.2554  0.4989
  438MPD2    H3 6587   4.687   3.512  17.044 -2.2465  1.4412 -1.2811
  438MPD2     N 6588   4.726   3.842  17.349  0.4242  0.7704 -0.5199
  438MPD2    H5 6589   4.643   3.801  17.390  0.0673  1.0238 -0.9891
  438MPD2    N1 6590   0.302   3.792  16.988 -0.0769 -0.2864 -0.3985
  438MPD2    H7 6591   0.368   3.856  17.032 -0.7488  0.6096 -0.6891
  439TMC3    C1 6592   0.404   3.847  16.792 -0.1974 -0.5519 -0.0092
  439TMC3    C2 6593   0.369   3.941  16.701 -0.7158 -0.0480 -0.1201
  439TMC3    C3 6594   0.455   4.038  16.675  0.1534  0.1148 -0.2800
  439TMC3    C4 6595   0.518   3.863  16.862 -0.8636 -0.1631 -0.3215
  439TMC3    C5 6596   0.601   3.966  16.838  0.1646  0.2776  0.1697
  439TMC3    C6 6597   0.568   4.056  16.739 -0.2291 -0.1905  0.1408
  439TMC3     C 6598   0.299   3.774  16.852  0.6957  0.0084  0.2248
  439TMC3     O 6599   0.214   3.740  16.775  0.4946 -0.5827  0.3477
  439TMC3     H 6600   0.278   3.916  16.648 -0.7398 -0.7937  0.2669
  439TMC3    H1 6601   0.542   3.796  16.945  0.2542 -2.2686 -2.3549
  439TMC3    H2 6602   0.638   4.133  16.709 -1.9456  1.0539 -0.6623
  439TMC3    C7 6603   0.742   3.951  16.880 -0.9282  0.1994  0.0764
  439TMC3    C8 6604   0.430   4.123  16.552 -0.0097 -0.0344  0.3714
  439TMC3    O1 6605   0.765   3.905  16.992  0.1833 -0.1737 -0.1063
  439TMC3    O2 6606   0.518   4.194  16.515  0.8691 -0.3566 -0.0775
  440MPD2     C 6607   3.080   4.497  15.226  0.7234  0.3137  0.2153
  440MPD2    C1 6608   3.160   4.573  15.314 -0.4555 -0.2019  0.1207
  440MPD2    C2 6609   3.244   4.505  15.404 -0.2078  0.0713  0.1607
  440MPD2    C3 6610   3.248   4.369  15.388 -0.7530 -0.7085  0.1501
  440MPD2    C4 6611   3.173   4.296  15.298  0.1873  0.6379  0.5588
  440MPD2    C5 6612   3.091   4.364  15.215  0.5789  0.0011 -0.2526
  440MPD2     H 6613   3.297   4.564  15.478 -1.8120  1.1613  0.4518
  440MPD2    H1 6614   3.182   4.188  15.291 -4.4457  0.2465  0.6473
  440MPD2    H2 6615   3.013   4.547  15.157 -0.3229  0.2236  1.1571
  440MPD2    H3 6616   3.038   4.314  15.135 -1.3493  0.1308  0.9437
  440MPD2     N 6617   3.341   4.290  15.463  0.1592  0.0339  0.3570
  440MPD2    H5 6618   3.339   4.190  15.445 -2.1186 -0.1714  1.7310
  440MPD2    N1 6619   3.151   4.714  15.319  0.1395  0.1112 -0.0674
  440MPD2    H7 6620   3.197   0.028  15.393  1.4024  0.1246 -0.8462
  441TMC3    C1 6621   3.520   4.250  15.616  0.2035 -0.5745  0.7071
  441TMC3    C2 6622   3.603   4.295  15.716 -0.4339  0.3531  0.1066
  441TMC3    C3 6623   3.728   4.240  15.733  0.1170  0.0574  0.8596
  441TMC3    C4 6624   3.546   4.139  15.545  0.6233 -0.6428 -0.3325
  441TMC3    C5 6625   3.661   4.073  15.583 -0.7639 -0.3703  0.3465
  441TMC3    C6 6626   3.754   4.126  15.662 -0.2376  0.1575 -0.0246
  441TMC3     C 6627   3.421   4.340  15.564  0.0733  0.5276  0.1400
  441TMC3     O 6628   3.439   4.451  15.603 -0.2743 -0.1047  0.2325
  441TMC3     H 6629   3.581   4.393  15.758 -1.5309 -0.0556  0.4586
  441TMC3    H1 6630   3.492   4.110  15.456  0.6916 -0.5279 -0.4107
  441TMC3    H2 6631   3.852   4.081  15.673 -0.9496 -1.0796  1.2214
  441TMC3    C7 6632   3.676   3.932  15.551 -0.8072  0.5290  0.1377
  441TMC3    C8 6633   3.845   4.324  15.727  0.0774 -0.5856  0.5397
  441TMC3    O1 6634   3.793   3.897  15.544  0.4079 -0.0752  0.5147
  441TMC3    O2 6635   3.945   4.285  15.671  0.1835 -0.5413  0.0119
  442MPD2     C 6636   2.108   0.206  16.789 -0.6926 -0.0847 -0.3584
  442MPD2    C1 6637   1.990   0.147  16.833 -0.3920 -0.2027 -0.2208
  442MPD2    C2 6638   1.949   0.026  16.787 -0.2632  0.5575 -0.4234
  442MPD2    C3 6639   2.011   4.700  16.674 -0.5710 -0.1779  0.6420
  442MPD2    C4 6640   2.116   0.030  16.623 -0.5369 -0.5619 -0.5772
  442MPD2    C5 6641   2.162   0.150  16.679  0.0914  0.0395  0.1483
  442MPD2     H 6642   1.866   4.720  16.839  0.1791 -0.8610 -0.9278
  442MPD2    H1 6643   2.172   4.731  16.538 -0.0580 -0.9786 -0.0836
  442MPD2    H2 6644   2.154   0.293  16.834 -2.0675  0.4717 -0.0279
  442MPD2    H3 6645   2.255   0.191  16.639 -0.4100 -0.1833 -1.2547
  442MPD2     N 6646   1.962   4.577  16.614  0.3142 -0.8400 -0.5870
  442MPD2    H5 6647   1.997   4.544  16.525  3.3948  0.0812  0.2634
  442MPD2    N1 6648   1.912   0.205  16.942 -0.0334  0.1136  0.0418
  442MPD2    H7 6649   1.834   0.156  16.985 -0.2504  0.4813  0.0645
  443TMC3    C1 6650   1.825   0.346  17.100 -0.3671  0.4187 -0.9583
  443TMC3    C2 6651   1.774   0.475  17.089  0.0684 -0.4743  0.4416
  443TMC3    C3 6652   1.655   0.508  17.139  0.3155 -0.0746  0.0600
  443TMC3    C4 6653   1.739   0.251  17.158  0.7994  0.5764 -0.4229
  443TMC3    C5 6654   1.626   0.302  17.221 -0.2720  0.1910  0.1238
  443TMC3    C6 6655   1.573   0.425  17.204  0.6789 -0.1738 -0.1753
  443TMC3     C 6656   1.931   0.324  17.006  0.1187  0.4760 -0.0947
  443TMC3     O 6657   2.009   0.411  16.980  0.0560 -0.3993  0.2985
  443TMC3     H 6658   1.832   0.541  17.025  1.2648 -2.5463 -0.6029
  443TMC3    H1 6659   1.768   0.147  17.166  0.1591  0.4074 -0.3029
  443TMC3    H2 6660   1.476   0.458  17.238  0.9309 -1.0150  1.3528
  443TMC3    C7 6661   1.543   0.198  17.292 -0.2215 -0.0397  0.1841
  443TMC3    C8 6662   1.594   0.612  17.062 -0.0260  0.1424 -0.5906
  443TMC3    O1 6663   1.569   0.081  17.263 -0.0575  0.2680  0.3389
  443TMC3    O2 6664   1.666   0.707  17.027 -0.2538  0.3465  0.2665
  444MPD2     C 6665   2.022   0.085  17.283  0.0576 -0.1391  0.3813
  444MPD2    C1 6666   1.938   4.713  17.285  0.6432 -0.1785  0.2670
  444MPD2    C2 6667   1.968   4.610  17.194  0.4967 -0.4429 -0.8160
  444MPD2    C3 6668   2.074   4.622  17.103  0.3317 -0.6309  0.7479
  444MPD2    C4 6669   2.153   4.733  17.105 -0.3687 -0.2562 -0.3224
  444MPD2    C5 6670   2.128   0.087  17.202  0.0237  0.6817 -0.4364
  444MPD2     H 6671   1.906   4.522  17.187  0.0135 -0.0302 -1.7960
  444MPD2    H1 6672   2.241   0.014  17.045  0.8309 -1.4004  1.0707
  444MPD2    H2 6673   2.008   0.174  17.344  0.2511  1.0504 -1.2894
  444MPD2    H3 6674   2.185   0.179  17.200 -2.5689  2.2564 -0.9243
  444MPD2     N 6675   2.102   4.507  17.020 -0.2495  0.2232 -0.3062
  444MPD2    H5 6676   2.038   4.430  17.033  3.6218 -2.9674 -0.1702
  444MPD2    N1 6677   1.842   4.691  17.375  0.4045  0.3614  0.2101
  444MPD2    H7 6678   1.801   4.599  17.363 -1.7677  1.3070  0.4659
  445TMC3    C1 6679   2.181   4.360  16.873  0.2825  0.1512 -0.5404
  445TMC3    C2 6680   2.053   4.298  16.869  0.4994  0.2076  0.6403
  445TMC3    C3 6681   2.053   4.162  16.839 -0.8109  0.7151 -0.2166
  445TMC3    C4 6682   2.296   4.297  16.833  0.2944 -0.4307  0.3636
  445TMC3    C5 6683   2.287   4.163  16.796  0.1590 -0.5032 -0.6078
  445TMC3    C6 6684   2.165   4.099  16.796  0.0409 -0.3919 -0.1913
  445TMC3     C 6685   2.205   4.493  16.931  0.6086  0.2275  0.0387
  445TMC3     O 6686   2.311   4.551  16.917 -0.4585  0.1845  0.0961
  445TMC3     H 6687   1.969   4.366  16.871  0.4228  0.1702 -1.8889
  445TMC3    H1 6688   2.391   4.349  16.837  0.4007 -0.5209 -1.2106
  445TMC3    H2 6689   2.158   3.991  16.787 -1.6239 -0.3362  0.4947
  445TMC3    C7 6690   2.404   4.106  16.729 -0.0705 -0.2770  0.3939
  445TMC3    C8 6691   1.924   4.113  16.801  0.8046  0.3079  0.8012
  445TMC3    O1 6692   2.503   4.180  16.730 -0.2381 -0.5765  0.1495
  445TMC3    O2 6693   1.829   4.154  16.868  0.1371  0.2263 -0.1955
  446MPD2     C 6694   1.186   1.060  11.765 -0.1220 -0.4145 -0.1812
  446MPD2    C1 6695   1.153   1.135  11.655 -0.5939  0.4553 -1.1745
  446MPD2    C2 6696   1.253   1.221  11.610  0.0612 -0.4360  0.5537
  446MPD2    C3 6697   1.381   1.205  11.655 -0.0851  0.0910  0.1790
  446MPD2    C4 6698   1.414   1.112  11.755  0.1856  0.4033  0.0379
  446MPD2    C5 6699   1.311   1.047  11.811 -0.8076 -0.1114  0.5714
  446MPD2     H 6700   1.221   1.280  11.525  1.1658 -1.3595 -0.4873
  446MPD2    H1 6701   1.515   1.089  11.786  0.5112 -0.5614 -1.7333
  446MPD2    H2 6702   1.119   0.992  11.816  0.3857 -2.2643 -2.0096
  446MPD2    H3 6703   1.326   0.978  11.893 -1.1017 -0.6245  0.1912
  446MPD2     N 6704   1.486   1.268  11.582  0.4913 -0.3972  0.1090
  446MPD2    H5 6705   1.451   1.334  11.513 -1.3707 -0.7284  0.7335
  446MPD2    N1 6706   1.024   1.139  11.599  0.2793  0.0440 -0.1787
  446MPD2    H7 6707   1.006   1.211  11.530  1.5178  0.4665 -0.0666
  447TMC3    C1 6708   1.696   1.314  11.474 -0.1030  0.1817 -0.4951
  447TMC3    C2 6709   1.643   1.410  11.393 -0.4397 -0.3096 -0.3281
  447TMC3    C3 6710   1.728   1.485  11.311 -0.0437  0.4195  0.3892
  447TMC3    C4 6711   1.825   1.276  11.453 -0.0087 -0.2750 -0.3096
  447TMC3    C5 6712   1.900   1.342  11.360  0.0972 -0.2627  0.4074
  447TMC3    C6 6713   1.862   1.448  11.294  0.7908 -0.4854  0.2038
  447TMC3     C 6714   1.622   1.239  11.577 -0.0704  0.7425  0.2759
  447TMC3     O 6715   1.676   1.162  11.653 -0.2515 -0.6165 -0.3107
  447TMC3     H 6716   1.547   1.454  11.414 -1.4023 -2.1216 -0.9534
  447TMC3    H1 6717   1.873   1.194  11.505 -0.8298 -0.9151 -0.5606
  447TMC3    H2 6718   1.924   1.504  11.225 -0.7055  0.6553 -0.2485
  447TMC3    C7 6719   2.042   1.322  11.370 -0.6102  0.4784 -0.5165
  447TMC3    C8 6720   1.660   1.574  11.215  0.2831 -0.0015  0.5926
  447TMC3    O1 6721   2.077   1.202  11.360  0.0683  0.2995 -0.9389
  447TMC3    O2 6722   1.563   1.520  11.159 -0.2681  0.0734  0.1657
  448TMC3    C1 6723   0.134   0.612  16.984 -0.4918  0.4706  0.1004
  448TMC3    C2 6724   0.022   0.535  16.966 -0.0790 -0.4015  0.8060
  448TMC3    C3 6725   4.735   0.419  17.043 -0.1527 -0.2691  0.3131
  448TMC3    C4 6726   0.219   0.571  17.083 -0.0309  0.2199 -0.7727
  448TMC3    C5 6727   0.196   0.460  17.158  0.4724  0.2036  0.0243
  448TMC3    C6 6728   0.089   0.380  17.135  0.7980 -1.0636  0.4213
  448TMC3     C 6729   0.121   0.752  16.981 -0.0770 -0.9018 -1.0736
  448TMC3     O 6730   0.187   0.817  17.058  0.0900 -0.0625 -0.4102
  448TMC3     H 6731   4.675   0.576  16.912 -0.6705 -1.5630  0.8454
  448TMC3    H1 6732   0.309   0.624  17.110 -0.4199 -0.4807  1.9022
  448TMC3    H2 6733   0.077   0.289  17.193  2.3241 -0.6643  1.3788
  448TMC3    C7 6734   0.260   0.450  17.284 -0.2545  0.6390 -0.1623
  448TMC3    C8 6735   4.655   0.310  16.985 -0.5269 -0.3916  0.1577
  448TMC3    O1 6736   0.377   0.492  17.294 -0.4767  0.2468 -0.0953
  448TMC3    O2 6737   4.696   0.193  17.013 -0.2165 -0.1295 -0.0547
  449MPD2     C 6738   1.688   3.963  13.995  0.4415  0.3573  0.0249
  449MPD2    C1 6739   1.606   4.053  13.940 -0.4659 -0.3875  0.6207
  449MPD2    C2 6740   1.473   4.021  13.946 -0.6228  0.1517  0.1685
  449MPD2    C3 6741   1.428   3.899  13.991  0.0961 -0.0754  0.6581
  449MPD2    C4 6742   1.516   3.808  14.044  0.2218 -0.1856  0.4517
  449MPD2    C5 6743   1.652   3.845  14.040 -0.3322  0.0620  0.0917
  449MPD2     H 6744   1.405   4.096  13.908 -1.6547  0.3064  2.3466
  449MPD2    H1 6745   1.487   3.711  14.082  0.7604 -0.6516 -0.3236
  449MPD2    H2 6746   1.795   3.980  14.000  0.8188 -2.4076  1.5368
  449MPD2    H3 6747   1.730   3.773  14.063  0.8102  0.0071 -4.0060
  449MPD2     N 6748   1.293   3.894  13.987  0.0021  0.9150  1.1006
  449MPD2    H5 6749   1.236   3.971  13.952  2.0274  2.5823  1.5159
  449MPD2    N1 6750   1.649   4.177  13.895  0.6357 -0.7668  0.2949
  449MPD2    H7 6751   1.576   4.243  13.871 -1.7187 -3.0959  1.0459
  450TMC3    C1 6752   1.776   4.353  13.822  0.4787  0.4690 -0.5570
  450TMC3    C2 6753   1.839   4.385  13.706  0.2430 -0.6082  0.1533
  450TMC3    C3 6754   1.779   4.487  13.636 -0.9517  0.2118  0.9181
  450TMC3    C4 6755   1.655   4.420  13.862 -0.8094 -0.2309  0.2719
  450TMC3    C5 6756   1.586   4.494  13.770 -0.1922 -0.0628 -0.6767
  450TMC3    C6 6757   1.645   4.517  13.652  0.3784 -0.2373  0.1311
  450TMC3     C 6758   1.773   4.212  13.851  0.3835 -0.5677  0.1504
  450TMC3     O 6759   1.861   4.135  13.817 -0.2685 -0.1841 -0.3915
  450TMC3     H 6760   1.930   4.329  13.687  2.2120  2.1487  1.3061
  450TMC3    H1 6761   1.608   4.396  13.957 -0.7844  1.1105  0.6195
  450TMC3    H2 6762   1.594   4.578  13.579 -1.0880 -1.8748 -0.2141
  450TMC3    C7 6763   1.447   4.453  13.769  0.4221  0.5001 -0.1431
  450TMC3    C8 6764   1.829   4.521  13.510 -0.4271  0.0491  0.0696
  450TMC3    O1 6765   1.437   4.340  13.816 -0.8711  0.1023 -0.9646
  450TMC3    O2 6766   1.755   4.573  13.433 -0.5740 -0.0412 -0.4134
  451MPD2     C 6767   2.545   2.102   1.579 -0.0809 -0.7644  0.4199
  451MPD2    C1 6768   2.583   2.202   1.494 -0.0067 -0.4052  0.4369
  451MPD2    C2 6769   2.706   2.255   1.506 -0.5052 -0.2608  0.6213
  451MPD2    C3 6770   2.798   2.211   1.604  0.1552  0.5732  0.3374
  451MPD2    C4 6771   2.755   2.107   1.680  0.1810 -0.1574 -0.1919
  451MPD2    C5 6772   2.627   2.059   1.671  0.4135  0.2804  0.2904
  451MPD2     H 6773   2.730   2.340   1.444 -2.7633  2.8120  3.9614
  451MPD2    H1 6774   2.813   2.069   1.763  1.2072  1.6432 -0.0875
  451MPD2    H2 6775   2.446   2.058   1.577  0.2707 -1.5730  1.2466
  451MPD2    H3 6776   2.601   1.984   1.746  0.6840  0.2154  0.3232
  451MPD2     N 6777   2.928   2.270   1.623 -0.0460 -0.0932 -0.3518
  451MPD2    H5 6778   2.994   2.216   1.678  0.4237 -0.0717 -0.9080
  451MPD2    N1 6779   2.485   2.252   1.406  1.0579 -0.1848 -0.0659
  451MPD2    H7 6780   2.393   2.210   1.414  0.2514  1.8271  1.1390
  452TMC3    C1 6781   3.117   2.412   1.574  1.0121  0.0695 -0.3695
  452TMC3    C2 6782   3.197   2.309   1.620 -0.3466 -0.2737 -0.6775
  452TMC3    C3 6783   3.324   2.280   1.566 -0.4224  0.3458 -0.3972
  452TMC3    C4 6784   3.171   2.497   1.482 -0.8920  0.0871 -0.2132
  452TMC3    C5 6785   3.298   2.475   1.435 -1.1588 -0.6982  0.1297
  452TMC3    C6 6786   3.371   2.364   1.465  0.1201  0.1838 -0.3086
  452TMC3     C 6787   2.971   2.394   1.565  0.0030 -0.7102  0.3208
  452TMC3     O 6788   2.907   2.473   1.495 -0.0731  0.1073  0.2963
  452TMC3     H 6789   3.155   2.241   1.693 -2.8169  3.7457  1.6502
  452TMC3    H1 6790   3.110   2.569   1.428 -0.0557  1.8440  1.1968
  452TMC3    H2 6791   3.465   2.328   1.425  1.0874  1.6947  0.6274
  452TMC3    C7 6792   3.355   2.598   1.385 -0.2337  0.9559  0.1172
  452TMC3    C8 6793   3.395   2.155   1.603  0.2359 -0.4176  0.1715
  452TMC3    O1 6794   3.283   2.686   1.345  0.8066  0.0033 -0.2815
  452TMC3    O2 6795   3.514   2.165   1.619  0.3721 -0.1470 -0.1998
  453TMC3    C1 6796   3.640   0.634  12.385  1.0079 -0.6742  0.2350
  453TMC3    C2 6797   3.543   0.532  12.370  0.0910  0.5694 -0.4107
  453TMC3    C3 6798   3.427   0.566  12.302 -0.3432 -0.5953  0.8319
  453TMC3    C4 6799   3.626   0.749  12.311 -0.0110 -0.9695 -0.1919
  453TMC3    C5 6800   3.510   0.773  12.237  0.6211  0.3371  0.1155
  453TMC3    C6 6801   3.406   0.682  12.234  0.4459  0.5383 -0.0076
  453TMC3     C 6802   3.782   0.610  12.415  0.2563 -0.7370  0.2161
  453TMC3     O 6803   3.848   0.705  12.460 -0.0287  0.0463  0.0975
  453TMC3     H 6804   3.554   0.435  12.417  1.5361  0.6115 -0.6398
  453TMC3    H1 6805   3.718   0.802  12.291  0.6078 -2.6664 -1.7603
  453TMC3    H2 6806   3.318   0.687  12.171  0.5507 -2.6323 -0.4324
  453TMC3    C7 6807   3.531   0.855  12.120  0.5198 -0.1714  0.3155
  453TMC3    C8 6808   3.320   0.467  12.300  0.5647  0.1543  0.7116
  453TMC3    O1 6809   3.482   0.811  12.021  0.5222 -0.8689 -0.0071
  453TMC3    O2 6810   3.204   0.502  12.269 -0.3093 -0.0247 -0.4117
  454MPD2     C 6811   2.819   4.175  16.117  0.3232 -0.0378 -0.2953
  454MPD2    C1 6812   2.687   4.202  16.085 -0.4448 -0.0565 -0.9199
  454MPD2    C2 6813   2.626   4.315  16.131 -0.5116 -0.6724 -0.4002
  454MPD2    C3 6814   2.685   4.392  16.218 -0.1821 -0.2840 -0.1208
  454MPD2    C4 6815   2.811   4.363  16.265  0.2942  0.6187  0.2890
  454MPD2    C5 6816   2.880   4.259  16.204  0.3032  0.8415 -0.3745
  454MPD2     H 6817   2.523   4.329  16.100 -0.3321  0.6776 -0.3952
  454MPD2    H1 6818   2.857   4.424  16.341  2.9519 -0.3942 -0.5082
  454MPD2    H2 6819   2.875   4.088  16.082 -1.7467 -2.2666  1.9314
  454MPD2    H3 6820   2.980   4.234  16.237  0.2378  0.0326 -0.7965
  454MPD2     N 6821   2.630   4.512  16.270 -0.0795  0.0709 -0.4229
  454MPD2    H5 6822   2.684   4.567  16.336  1.1423 -0.2731 -1.1225
  454MPD2    N1 6823   2.607   4.114  16.007  0.1839  0.1882 -0.2981
  454MPD2    H7 6824   2.512   4.145  15.989  0.4374  1.6911  0.9617
  455TMC3    C1 6825   2.435   4.637  16.319  0.6399  0.4210 -0.4984
  455TMC3    C2 6826   2.511   4.676  16.430 -0.0234  0.2101 -0.5820
  455TMC3    C3 6827   2.467   4.635  16.558 -0.1293  0.0128  0.0613
  455TMC3    C4 6828   2.329   4.560  16.345 -0.0749  0.7752  0.3682
  455TMC3    C5 6829   2.294   4.514  16.467 -0.2284  0.2141 -0.1589
  455TMC3    C6 6830   2.364   4.556  16.579 -0.6558 -0.4344 -0.1291
  455TMC3     C 6831   2.519   4.581  16.214  0.5864  0.0416  0.2362
  455TMC3     O 6832   2.467   4.556  16.105  0.2680  0.1499  0.0345
  455TMC3     H 6833   2.599   4.736  16.411 -0.4698  0.9589 -0.2678
  455TMC3    H1 6834   2.274   4.512  16.264 -2.7480  2.7549  1.0233
  455TMC3    H2 6835   2.339   4.527  16.680 -0.1586  1.9511  0.6800
  455TMC3    C7 6836   2.244   4.382  16.459  0.8939 -0.5538  0.7208
  455TMC3    C8 6837   2.509   4.691  16.676 -0.5802 -0.0583 -0.4104
  455TMC3    O1 6838   2.126   4.370  16.468 -0.0396 -0.1330 -0.1359
  455TMC3    O2 6839   2.547   4.611  16.762  0.6354 -0.1385 -0.3205
  456MPD2     C 6840   0.272   4.394  15.888  0.0121  0.3203 -0.3857
  456MPD2    C1 6841   0.361   4.379  15.990 -0.3230  0.6193 -0.6602
  456MPD2    C2 6842   0.312   4.383  16.122  0.0179 -0.1926  0.1689
  456MPD2    C3 6843   0.174   4.413  16.148  0.9116 -0.1187  0.0369
  456MPD2    C4 6844   0.092   4.438  16.039  0.5661 -0.8484  0.5025
  456MPD2    C5 6845   0.138   4.431  15.912  0.2250 -0.0357  0.5260
  456MPD2     H 6846   0.382   4.365  16.202  0.5770  2.1180  0.1988
  456MPD2    H1 6847   4.726   4.467  16.055  0.8556 -0.1004  1.0215
  456MPD2    H2 6848   0.303   4.373  15.786  0.7074 -0.0556 -0.0924
  456MPD2    H3 6849   0.065   4.455  15.836 -0.2250 -1.1336  0.6168
  456MPD2     N 6850   0.134   4.408  16.284 -0.2574 -0.1496  0.1235
  456MPD2    H5 6851   0.203   4.395  16.358 -0.1869 -0.6422 -0.0311
  456MPD2    N1 6852   0.498   4.357  15.950 -0.4519 -0.5485  0.1600
  456MPD2    H7 6853   0.515   4.330  15.854 -1.5810  0.2044 -0.2505
  457TMC3    C1 6854   4.731   4.427  16.481 -0.3816  1.0880 -0.7326
  457TMC3    C2 6855   4.617   4.487  16.537  0.4356  0.3355 -0.6003
  457TMC3    C3 6856   4.604   4.477  16.671  0.1380  0.2683 -0.1735
  457TMC3    C4 6857   0.091   4.362  16.551  0.1734  0.4409  0.2505
  457TMC3    C5 6858   0.057   4.346  16.687 -0.0615  0.2962  0.6889
  457TMC3    C6 6859   4.686   4.396  16.741 -0.3463 -0.3319  0.4850
  457TMC3     C 6860   0.009   4.441  16.340 -0.4514  0.6674 -0.4314
  457TMC3     O 6861   4.650   4.493  16.281 -0.3435 -0.5216  0.5326
  457TMC3     H 6862   4.547   4.547  16.479  0.2726 -0.3067 -1.0709
  457TMC3    H1 6863   0.176   4.311  16.508 -0.1645  0.4245 -0.3916
  457TMC3    H2 6864   4.658   4.386  16.846 -2.3493 -2.0398 -0.2042
  457TMC3    C7 6865   0.158   4.295  16.777  0.3946  0.7307 -0.5839
  457TMC3    C8 6866   4.548   4.590  16.745  0.0993  0.2066  0.0076
  457TMC3    O1 6867   0.121   4.249  16.884 -0.0166 -0.1231 -0.1160
  457TMC3    O2 6868   4.609   4.610  16.847  0.5970 -0.2469 -0.3545
  458MPD2     C 6869   2.804   4.069  12.698  0.0705  0.7653 -0.0718
  458MPD2    C1 6870   2.730   4.002  12.786  0.1701  0.2193  0.8433
  458MPD2    C2 6871   2.589   3.988  12.767  1.1816 -0.0049  0.1644
  458MPD2    C3 6872   2.532   4.047  12.655  0.2490  0.4066  0.1767
  458MPD2    C4 6873   2.613   4.113  12.563 -0.1096 -0.1613  0.1460
  458MPD2    C5 6874   2.746   4.123  12.584 -0.3932 -0.2723 -0.0858
  458MPD2     H 6875   2.519   3.938  12.833  2.0201 -1.2295  0.1250
  458MPD2    H1 6876   2.582   4.164  12.472 -4.0352  0.8916  2.0573
  458MPD2    H2 6877   2.912   4.076  12.699  0.0509  0.9315  0.5324
  458MPD2    H3 6878   2.800   4.181  12.510  0.4606  0.2597  0.9508
  458MPD2     N 6879   2.389   4.034  12.642  0.2731 -0.3042  0.3730
  458MPD2    H5 6880   2.349   3.972  12.711 -0.7857  1.4718  1.3391
  458MPD2    N1 6881   2.796   3.968  12.904 -0.1698  0.0904  0.1297
  458MPD2    H7 6882   2.881   4.019  12.923 -0.5157  0.6814  0.0753
  459TMC3    C1 6883   2.826   3.863  13.119  0.5384  0.0452  0.7508
  459TMC3    C2 6884   2.947   3.930  13.138 -0.6038  0.4188 -0.5252
  459TMC3    C3 6885   3.008   3.910  13.258 -0.2010 -0.6724 -0.0585
  459TMC3    C4 6886   2.783   3.762  13.202  0.1610 -1.1068  0.2362
  459TMC3    C5 6887   2.855   3.751  13.322  0.4623  0.0886  0.2269
  459TMC3    C6 6888   2.957   3.831  13.356 -0.2546  0.7445 -0.4854
  459TMC3     C 6889   2.738   3.890  13.001 -0.3452  0.3738 -0.9662
  459TMC3     O 6890   2.637   3.817  12.995  0.0763  0.3000  0.1136
  459TMC3     H 6891   2.990   3.980  13.052  1.7940  1.3211  1.1927
  459TMC3    H1 6892   2.689   3.710  13.188 -0.0820 -0.6169  0.0396
  459TMC3    H2 6893   3.012   3.806  13.446  0.1007  0.7773 -0.6918
  459TMC3    C7 6894   2.888   3.614  13.345 -0.6742 -0.6783 -0.5138
  459TMC3    C8 6895   3.128   3.984  13.278  0.0641  0.7070  0.6775
  459TMC3    O1 6896   3.011   3.591  13.345  0.3431 -1.0453 -0.0171
  459TMC3    O2 6897   3.166   4.043  13.181  0.3506 -0.2441  0.3460
  460MPD2     C 6898   1.775   1.913  11.116 -0.2651  0.1657 -0.3013
  460MPD2    C1 6899   1.700   1.796  11.094  0.6702  0.6304 -0.4379
  460MPD2    C2 6900   1.599   1.798  10.998  0.4192  0.3802  0.5252
  460MPD2    C3 6901   1.577   1.907  10.916  0.0863 -0.4842  0.2825
  460MPD2    C4 6902   1.665   2.009  10.930  0.1711  0.7491 -0.3195
  460MPD2    C5 6903   1.752   2.023  11.035 -0.5106  0.2605 -0.0301
  460MPD2     H 6904   1.535   1.711  10.983 -0.4659  1.1586 -0.2266
  460MPD2    H1 6905   1.673   2.089  10.857 -1.1009  0.6589 -0.5543
  460MPD2    H2 6906   1.849   1.927  11.194  0.6351  0.3176 -1.1832
  460MPD2    H3 6907   1.809   2.115  11.040 -0.5481  0.2805  0.0210
  460MPD2     N 6908   1.466   1.918  10.824  0.1705  0.2597  0.8441
  460MPD2    H5 6909   1.408   1.837  10.804 -0.8810  0.4285  3.2152
  460MPD2    N1 6910   1.732   1.691  11.187  0.0686  0.0586  0.0211
  460MPD2    H7 6911   1.808   1.713  11.251 -1.7243  3.0125  1.1360
  461TMC3    C1 6912   1.337   2.011  10.644 -0.4657  0.0882 -0.5486
  461TMC3    C2 6913   1.333   1.893  10.581 -0.0751  0.2078  0.2814
  461TMC3    C3 6914   1.299   1.875  10.452  0.1366 -0.4769  0.7324
  461TMC3    C4 6915   1.321   2.122  10.563 -0.2959  0.1978  0.5875
  461TMC3    C5 6916   1.301   2.109  10.427 -0.1859  0.9554  0.0916
  461TMC3    C6 6917   1.279   1.976  10.371 -0.0193  0.2668 -0.3534
  461TMC3     C 6918   1.434   2.035  10.750  0.5416  0.0157 -0.0107
  461TMC3     O 6919   1.478   2.146  10.758  0.1015  0.0095  0.2735
  461TMC3     H 6920   1.354   1.803  10.639  1.5503 -0.1200 -0.8086
  461TMC3    H1 6921   1.307   2.219  10.611 -1.2833  0.0863  0.5164
  461TMC3    H2 6922   1.259   1.962  10.266  1.3035 -0.5515 -0.4960
  461TMC3    C7 6923   1.294   2.215  10.332  0.3700 -0.1393  0.4344
  461TMC3    C8 6924   1.346   1.754  10.387  0.2625 -0.0246 -0.9282
  461TMC3    O1 6925   1.226   2.182  10.233 -0.1484 -0.2814  0.3578
  461TMC3    O2 6926   1.416   1.679  10.452 -0.1105  0.3044 -0.0643
  462TMC3    C1 6927   2.286   2.422   0.401  0.4137 -0.6284 -0.0071
  462TMC3    C2 6928   2.414   2.368   0.376 -0.0985 -0.0245  0.8628
  462TMC3    C3 6929   2.449   2.279   0.480 -0.1989 -0.0604 -0.4746
  462TMC3    C4 6930   2.195   2.374   0.489 -0.5624 -0.0608 -0.1980
  462TMC3    C5 6931   2.232   2.271   0.568 -0.1182 -1.1041  0.1382
  462TMC3    C6 6932   2.363   2.234   0.575  1.3079 -0.3176  0.3244
  462TMC3     C 6933   2.263   2.549   0.331 -0.3243 -0.3679 -0.1032
  462TMC3     O 6934   2.296   2.560   0.211  0.0984  0.1595 -0.1703
  462TMC3     H 6935   2.492   2.422   0.323 -0.9488 -0.6755 -1.0372
  462TMC3    H1 6936   2.089   2.393   0.476 -0.1522  0.8686 -2.0742
  462TMC3    H2 6937   2.393   2.147   0.630  0.4971 -0.0134  1.2508
  462TMC3    C7 6938   2.142   2.204   0.654 -0.0922  0.1520 -0.7481
  462TMC3    C8 6939   2.590   2.247   0.486 -0.3891 -0.1110  0.0252
  462TMC3    O1 6940   2.176   2.092   0.696  0.1366 -0.5203  0.4624
  462TMC3    O2 6941   2.641   2.234   0.598 -0.2519  0.1861  0.4328
  463MPD2     C 6942   3.765   0.354   2.038  0.0341  0.0506 -0.6146
  463MPD2    C1 6943   3.658   0.434   2.015  0.0761  0.0618 -0.3900
  463MPD2    C2 6944   3.675   0.575   2.029  0.3882  0.4718  0.6238
  463MPD2    C3 6945   3.796   0.626   2.071 -0.0667 -0.6501  0.2868
  463MPD2    C4 6946   3.900   0.534   2.093  0.2109  0.5980  0.5655
  463MPD2    C5 6947   3.889   0.403   2.064  0.0212  0.3991 -0.9225
  463MPD2     H 6948   3.585   0.633   2.010 -0.3573 -0.8032  0.2433
  463MPD2    H1 6949   3.994   0.571   2.131  1.6473 -0.1863 -2.2042
  463MPD2    H2 6950   3.754   0.246   2.038  0.0261  0.0546 -2.3574
  463MPD2    H3 6951   3.973   0.334   2.069  0.7287  1.2691 -0.9601
  463MPD2     N 6952   3.833   0.765   2.066 -0.3721  0.2446  0.4252
  463MPD2    H5 6953   3.932   0.787   2.070 -0.6039  1.1935  0.9320
  463MPD2    N1 6954   3.529   0.387   1.983 -0.3384  0.1450  0.3566
  463MPD2    H7 6955   3.466   0.458   1.949  0.7960  2.1442  2.4125
  464TMC3    C1 6956   3.349   0.243   1.944  0.7026  0.1952  0.4823
  464TMC3    C2 6957   3.276   0.351   1.976 -0.2241  0.3879  0.5319
  464TMC3    C3 6958   3.148   0.340   1.934  0.1587 -0.2887 -0.5902
  464TMC3    C4 6959   3.317   0.143   1.868 -0.1556 -0.1106  0.8661
  464TMC3    C5 6960   3.193   0.143   1.819  1.0808 -0.6572 -0.4473
  464TMC3    C6 6961   3.099   0.245   1.846 -0.8793 -0.7632  0.4011
  464TMC3     C 6962   3.494   0.253   1.971 -0.7956  0.6148  0.0805
  464TMC3     O 6963   3.554   0.151   1.989  0.9202 -0.4662 -0.3567
  464TMC3     H 6964   3.310   0.434   2.036 -1.3292  0.3276  1.2346
  464TMC3    H1 6965   3.397   0.075   1.838  0.1291  0.6951 -0.1900
  464TMC3    H2 6966   2.993   0.243   1.821 -1.1107  0.0352  1.3103
  464TMC3    C7 6967   3.171   0.046   1.710  0.1438 -0.0863  0.1703
  464TMC3    C8 6968   3.068   0.457   1.923 -0.1502  0.4138 -0.4227
  464TMC3    O1 6969   3.263   4.714   1.664  0.7023  0.2443  0.4661
  464TMC3    O2 6970   3.135   0.558   1.901  0.0495  0.1346  0.2435
  465MPD2     C 6971   4.417   4.076  16.750  0.7128 -0.4944  1.1944
  465MPD2    C1 6972   4.330   4.128  16.842  0.2216  0.3374 -0.1292
  465MPD2    C2 6973   4.244   4.229  16.790  0.2338  0.3959 -0.6641
  465MPD2    C3 6974   4.245   4.274  16.659  0.5029 -0.1841  0.5748
  465MPD2    C4 6975   4.339   4.216  16.571 -0.4965  0.3359  0.7648
  465MPD2    C5 6976   4.417   4.116  16.618  0.2248 -0.3026  0.3135
  465MPD2     H 6977   4.178   4.281  16.858  1.6383  1.3105  0.0135
  465MPD2    H1 6978   4.358   4.257  16.473  2.5834 -1.4448  0.6245
  465MPD2    H2 6979   4.487   3.998  16.777 -0.2579 -0.6995  3.1848
  465MPD2    H3 6980   4.493   4.069  16.556  1.9313  1.3203  1.1865
  465MPD2     N 6981   4.166   4.387  16.623 -0.4448  0.4671  0.0872
  465MPD2    H5 6982   4.086   4.412  16.681 -1.2798  1.0967 -1.3139
  465MPD2    N1 6983   4.327   4.098  16.981  0.1490 -0.6057 -0.4638
  465MPD2    H7 6984   4.246   4.138  17.028  1.7581 -0.2498  2.0366
  466TMC3    C1 6985   3.864   4.602  16.550  0.5262  0.6219  0.9217
  466TMC3    C2 6986   3.885   0.001  16.522  0.3280 -0.1382 -0.1359
  466TMC3    C3 6987   4.001   0.026  16.454 -0.4722  0.2101  0.1785
  466TMC3    C4 6988   3.957   4.508  16.532 -0.3730 -0.1507  0.9277
  466TMC3    C5 6989   4.073   4.546  16.482 -0.3529 -0.0778 -0.1150
  466TMC3    C6 6990   4.091   4.667  16.429  0.2284  0.0365  0.0590
  466TMC3     C 6991   3.730   4.572  16.604 -0.3078  0.5829 -0.2559
  466TMC3     O 6992   3.657   4.661  16.638  0.4565 -0.2191  0.6909
  466TMC3     H 6993   3.810   0.079  16.522  1.1283  0.6379  0.9269
  466TMC3    H1 6994   3.943   4.404  16.557 -0.8826 -0.5483 -1.0374
  466TMC3    H2 6995   4.187   4.694  16.384 -0.3153 -0.4879 -1.4241
  466TMC3    C7 6996   4.194   4.469  16.517  0.3059 -0.7281  0.1710
  466TMC3    C8 6997   4.020   0.158  16.395 -0.0463 -0.5942  0.2243
  466TMC3    O1 6998   4.300   4.507  16.469  0.1782 -0.0512  0.0223
  466TMC3    O2 6999   4.103   0.165  16.308 -0.1904 -0.2889  0.6684
  467TMC3    C1 7000   0.309   3.369  13.902  0.2488  0.1100 -0.1999
  467TMC3    C2 7001   0.308   3.505  13.877  0.0565 -0.0904  0.5774
  467TMC3    C3 7002   0.201   3.579  13.893 -0.3680  0.0506  0.8947
  467TMC3    C4 7003   0.193   3.306  13.938 -0.9077 -0.0468 -0.0021
  467TMC3    C5 7004   0.092   3.385  13.966  0.0939  0.0185  0.3310
  467TMC3    C6 7005   0.086   3.519  13.936 -0.1581 -0.8061 -0.2979
  467TMC3     C 7006   0.443   3.302  13.918  0.4093 -0.0369 -0.0646
  467TMC3     O 7007   0.541   3.375  13.913  0.0966 -0.3904 -0.3459
  467TMC3     H 7008   0.398   3.551  13.836 -1.1015  0.3386 -1.5237
  467TMC3    H1 7009   0.180   3.203  13.967 -0.2569  0.4753  2.1706
  467TMC3    H2 7010   4.736   3.568  13.977 -1.4196 -4.1013  0.8700
  467TMC3    C7 7011   4.703   3.311  13.995  0.8777 -0.2084 -0.2394
  467TMC3    C8 7012   0.216   3.724  13.891  0.1167  0.4460 -0.0036
  467TMC3    O1 7013   4.712   3.209  14.061 -0.5377 -0.3389  0.1891
  467TMC3    O2 7014   0.336   3.756  13.898 -0.1540 -0.0336  0.1022
  468MPD2     C 7015   3.401   2.070  10.756 -0.1865  0.2227 -0.6526
  468MPD2    C1 7016   3.516   2.024  10.809  0.7249  0.4120 -0.3806
  468MPD2    C2 7017   3.524   1.882  10.804  0.2222 -0.1736 -0.7373
  468MPD2    C3 7018   3.414   1.807  10.769  0.2024  0.5440  0.2327
  468MPD2    C4 7019   3.295   1.865  10.729 -0.8427  0.4871  0.4478
  468MPD2    C5 7020   3.294   2.000  10.708 -0.0227 -0.0266 -0.3717
  468MPD2     H 7021   3.617   1.845  10.846  0.3799  2.8857  1.5737
  468MPD2    H1 7022   3.216   1.800  10.691 -0.4554  0.8093 -0.8819
  468MPD2    H2 7023   3.389   2.177  10.742  1.3822  0.2780 -1.6491
  468MPD2    H3 7024   3.200   2.048  10.683  0.7764  1.0890 -1.2202
  468MPD2     N 7025   3.414   1.666  10.766  0.2786 -0.2078 -0.3823
  468MPD2    H5 7026   3.321   1.626  10.757  1.8631 -2.9043 -5.0123
  468MPD2    N1 7027   3.623   2.103  10.860 -0.3727 -0.0961  0.1245
  468MPD2    H7 7028   3.700   2.046  10.892  0.8764  0.8765 -1.1624
  469TMC3    C1 7029   3.750   2.304  10.901 -0.6220 -0.3508 -0.2510
  469TMC3    C2 7030   3.864   2.239  10.922  0.1775  0.5124  0.6253
  469TMC3    C3 7031   3.953   2.287  11.010  0.0284  0.3644 -0.1300
  469TMC3    C4 7032   3.732   2.426  10.956  0.1229  0.1353 -0.5476
  469TMC3    C5 7033   3.829   2.475  11.036  0.1589 -0.0539  0.2848
  469TMC3    C6 7034   3.940   2.403  11.077 -0.2047 -0.0290 -0.4143
  469TMC3     C 7035   3.625   2.240  10.861 -0.0423 -0.2120  0.4160
  469TMC3     O 7036   3.540   2.324  10.836 -0.0758  0.0701 -0.6619
  469TMC3     H 7037   3.877   2.138  10.885 -0.1442  0.3862  0.8515
  469TMC3    H1 7038   3.637   2.479  10.954 -0.1029 -0.1478  2.6099
  469TMC3    H2 7039   4.019   2.449  11.136  0.5563  0.6358 -1.9565
  469TMC3    C7 7040   3.804   2.601  11.104 -0.7373 -0.6482  0.7168
  469TMC3    C8 7041   4.065   2.209  11.041 -0.1091 -0.2760 -0.3839
  469TMC3    O1 7042   3.737   2.685  11.045  0.2681  0.5382 -0.3909
  469TMC3    O2 7043   4.119   2.156  10.943 -0.5532 -0.1031 -0.2087
  470TMC3    C1 7044   1.540   2.157   0.191 -0.2010  0.0333 -0.3101
  470TMC3    C2 7045   1.445   2.225   0.252 -0.0409 -0.7039 -0.6777
  470TMC3    C3 7046   1.412   2.202   0.384  0.2213  0.3440 -0.2974
  470TMC3    C4 7047   1.602   2.059   0.260 -0.6645  0.2663 -0.5596
  470TMC3    C5 7048   1.570   2.030   0.386 -0.1531  0.1771  0.3784
  470TMC3    C6 7049   1.480   2.106   0.454 -0.2683  0.6240 -0.3889
  470TMC3     C 7050   1.601   2.193   0.064  0.7623 -0.0362  0.3409
  470TMC3     O 7051   1.663   2.104   0.004 -0.1076  0.5177  0.3716
  470TMC3     H 7052   1.397   2.303   0.194  0.7247  0.8904  0.8314
  470TMC3    H1 7053   1.681   2.006   0.207 -0.9918  0.2247 -1.0105
  470TMC3    H2 7054   1.464   2.099   0.561 -1.4873 -1.1032 -0.6747
  470TMC3    C7 7055   1.585   1.889   0.433 -0.2953  0.0553  0.7539
  470TMC3    C8 7056   1.356   2.313   0.459  1.1624 -0.5190  0.5583
  470TMC3    O1 7057   1.633   1.812   0.352  0.0181  0.8044 -0.0810
  470TMC3    O2 7058   1.404   2.339   0.567 -0.2711  0.6606  0.3148
  471MPD2     C 7059   1.841   3.170  17.063  0.1573  0.2945 -0.2728
  471MPD2    C1 7060   1.746   3.091  17.121 -0.2341 -1.1264 -0.6754
  471MPD2    C2 7061   1.748   3.073  17.262 -0.4264 -1.2104 -0.5652
  471MPD2    C3 7062   1.849   3.135  17.338  1.0021 -0.2289  0.1493
  471MPD2    C4 7063   1.937   3.224  17.282 -0.1299  0.6643 -0.1389
  471MPD2    C5 7064   1.934   3.231  17.146 -0.3891  0.1586  0.0338
  471MPD2     H 7065   1.671   3.015  17.311 -0.5655  1.3125  2.2288
  471MPD2    H1 7066   2.022   3.269  17.332  1.2394 -1.6905 -0.3539
  471MPD2    H2 7067   1.840   3.190  16.957 -1.2747 -3.9831 -1.0594
  471MPD2    H3 7068   2.013   3.289  17.100  1.2072 -1.2706  0.9647
  471MPD2     N 7069   1.861   3.111  17.477 -0.1891  0.3733  0.2673
  471MPD2    H5 7070   1.939   3.160  17.520 -1.8080  1.0015  2.4888
  471MPD2    N1 7071   1.651   3.016  17.035 -0.1787 -0.5703 -0.4608
  471MPD2    H7 7072   1.591   2.942  17.068  0.3259 -0.5966  0.3880
  472TMC3    C1 7073   1.548   2.945  16.833 -0.1141 -1.1264  0.3629
  472TMC3    C2 7074   1.495   2.991  16.715 -0.1108 -0.2327  0.0929
  472TMC3    C3 7075   1.449   2.894  16.624  0.3820  1.1682  0.1854
  472TMC3    C4 7076   1.555   2.814  16.877  0.4644  0.9021  0.0114
  472TMC3    C5 7077   1.511   2.727  16.778 -0.1302  0.5971 -0.5488
  472TMC3    C6 7078   1.453   2.761  16.654 -0.5619 -0.4584  0.3686
  472TMC3     C 7079   1.617   3.050  16.905 -0.0618  0.4730 -0.1245
  472TMC3     O 7080   1.634   3.155  16.845  0.4763  0.0567 -0.0844
  472TMC3     H 7081   1.487   3.098  16.696  1.2424 -0.5442 -2.2249
  472TMC3    H1 7082   1.626   2.781  16.952  1.7040 -0.4899 -1.7707
  472TMC3    H2 7083   1.435   2.692  16.573 -1.0533 -0.7350  0.7183
  472TMC3    C7 7084   1.530   2.585  16.810 -1.1059  0.0193  0.8272
  472TMC3    C8 7085   1.368   2.948  16.518  0.1465 -0.0903  0.4636
  472TMC3    O1 7086   1.609   2.559  16.902 -0.3536 -0.6820 -0.3097
  472TMC3    O2 7087   1.400   3.062  16.480  0.0966  0.1080 -0.0765
  473MPD2     C 7088   1.362   0.785  14.122 -0.0549  0.6484  0.3092
  473MPD2    C1 7089   1.330   0.911  14.096  0.0536  0.8659  0.3492
  473MPD2    C2 7090   1.365   1.020  14.178 -0.1405 -0.0446  0.0369
  473MPD2    C3 7091   1.447   0.996  14.292  0.1773 -0.2210 -0.9855
  473MPD2    C4 7092   1.480   0.865  14.319  0.0503 -0.4012 -0.2959
  473MPD2    C5 7093   1.431   0.760  14.238  0.4755  0.1099  0.9640
  473MPD2     H 7094   1.338   1.117  14.138  0.9475 -0.0265 -0.6559
  473MPD2    H1 7095   1.544   0.845  14.404 -0.1662 -1.9605 -0.5102
  473MPD2    H2 7096   1.340   0.697  14.063  0.1628  3.2059 -3.5864
  473MPD2    H3 7097   1.460   0.658  14.258 -2.6471 -1.0671 -0.5225
  473MPD2     N 7098   1.491   1.094  14.385 -0.2662  0.3929 -0.1709
  473MPD2    H5 7099   1.555   1.064  14.458  0.3626  1.1715 -0.4085
  473MPD2    N1 7100   1.252   0.950  13.984 -0.5232  0.8321  0.6341
  473MPD2    H7 7101   1.264   1.048  13.957 -0.4642  0.3504 -1.0734
  474TMC3    C1 7102   1.548   1.309  14.469  0.3752 -0.6951 -0.1811
  474TMC3    C2 7103   1.493   1.427  14.511  0.5157  0.4662 -0.4070
  474TMC3    C3 7104   1.570   1.504  14.594  0.0528 -0.4306 -0.9611
  474TMC3    C4 7105   1.672   1.268  14.513 -0.0383  0.8445 -0.6870
  474TMC3    C5 7106   1.740   1.350  14.593 -0.5657 -0.1794  0.6998
  474TMC3    C6 7107   1.694   1.474  14.637  0.6883 -0.4650  0.4479
  474TMC3     C 7108   1.472   1.226  14.374  0.3547  0.1113  1.2074
  474TMC3     O 7109   1.393   1.286  14.297  0.2554 -0.3609  0.1576
  474TMC3     H 7110   1.397   1.454  14.469  0.5808 -1.8918 -2.0535
  474TMC3    H1 7111   1.711   1.171  14.484 -1.6599  0.2956 -1.0068
  474TMC3    H2 7112   1.760   1.538  14.694  2.1612 -3.6819  2.3695
  474TMC3    C7 7113   1.885   1.328  14.588 -0.4987 -0.3640 -0.4782
  474TMC3    C8 7114   1.532   1.647  14.596 -0.3127  0.3978  0.3110
  474TMC3    O1 7115   1.922   1.281  14.481 -0.4587  0.5685 -0.0358
  474TMC3    O2 7116   1.417   1.672  14.634  0.2494  0.0056  0.0126
  475MPD2     C 7117   4.410   3.906  10.565 -0.4189  0.1270 -0.3556
  475MPD2    C1 7118   4.447   4.029  10.606 -0.2281 -0.1283  0.6792
  475MPD2    C2 7119   4.369   4.099  10.702 -0.7947  0.1210  0.5645
  475MPD2    C3 7120   4.261   4.038  10.761 -0.2252  0.0584  0.0851
  475MPD2    C4 7121   4.219   3.916  10.711  0.3636  0.6473  0.6311
  475MPD2    C5 7122   4.290   3.856  10.608 -0.0885 -0.3316  0.4840
  475MPD2     H 7123   4.386   4.199  10.739 -0.4597 -0.1734  1.1915
  475MPD2    H1 7124   4.128   3.868  10.745  0.3886  1.4081  1.7752
  475MPD2    H2 7125   4.466   3.861  10.484 -0.2955 -0.1060 -0.1391
  475MPD2    H3 7126   4.269   3.763  10.556  0.8238 -0.5356  0.4741
  475MPD2     N 7127   4.182   4.106  10.857  0.3171  0.7637 -0.6149
  475MPD2    H5 7128   4.197   4.204  10.878 -0.9622  0.5949  1.0162
  475MPD2    N1 7129   4.555   4.094  10.548 -0.2029 -0.0111  0.2146
  475MPD2    H7 7130   4.565   4.192  10.574  1.7939 -0.6030  1.6792
  476TMC3    C1 7131   0.012   4.136  10.420 -0.0047 -0.2058 -0.0926
  476TMC3    C2 7132   0.083   4.127  10.303 -0.5663 -0.0993 -1.1033
  476TMC3    C3 7133   0.216   4.161  10.311 -0.1852  0.4135  0.4104
  476TMC3    C4 7134   0.065   4.187  10.540 -0.2448 -0.6060 -0.1957
  476TMC3    C5 7135   0.197   4.227  10.531 -0.1795 -0.7581  0.1490
  476TMC3    C6 7136   0.277   4.218  10.416  0.4599  0.5594  0.4534
  476TMC3     C 7137   4.640   4.048  10.451 -0.1557  0.0145 -0.2098
  476TMC3     O 7138   4.624   3.949  10.375  0.3424 -0.9202 -0.5044
  476TMC3     H 7139   0.039   4.092  10.210 -2.1606  2.7359 -1.4147
  476TMC3    H1 7140   0.011   4.197  10.634 -0.3485 -0.5650 -0.2601
  476TMC3    H2 7141   0.379   4.254  10.420  0.6185  0.2010 -0.2013
  476TMC3    C7 7142   0.266   4.256  10.659  0.0086 -0.5293  0.6828
  476TMC3    C8 7143   0.270   4.189  10.181 -0.4764  0.0986 -0.6723
  476TMC3    O1 7144   0.372   4.200  10.672  0.2671  0.0966  0.5833
  476TMC3    O2 7145   0.203   4.245  10.098  0.0315  0.4161 -0.1239
  477MPD2     C 7146   2.424   0.930  11.733  0.1564 -0.1053 -0.0433
  477MPD2    C1 7147   2.346   0.831  11.795 -0.0366  0.0138 -0.4933
  477MPD2    C2 7148   2.399   0.765  11.903 -0.2944 -0.3553  0.2924
  477MPD2    C3 7149   2.523   0.806  11.950  0.2788 -0.4272 -1.1346
  477MPD2    C4 7150   2.601   0.899  11.882  0.0365 -0.4353  0.5061
  477MPD2    C5 7151   2.548   0.965  11.781 -0.0801 -0.0952 -0.2728
  477MPD2     H 7152   2.355   0.679  11.953  1.5998 -1.9997 -0.8736
  477MPD2    H1 7153   2.702   0.928  11.907 -0.3036 -0.6418  2.1184
  477MPD2    H2 7154   2.390   0.991  11.651 -0.9652 -0.3109  0.2705
  477MPD2    H3 7155   2.610   1.046  11.746 -0.8175  0.6916  0.2389
  477MPD2     N 7156   2.580   0.741  12.063  0.0680  1.0773 -0.0880
  477MPD2    H5 7157   2.544   0.653  12.097  0.0501  1.4196  0.7638
  477MPD2    N1 7158   2.221   0.796  11.738  0.0775 -0.7343  0.3459
  477MPD2    H7 7159   2.194   0.850  11.656 -0.7982  0.3922  1.3808
  478TMC3    C1 7160   1.997   0.720  11.750  0.0523  0.5605  0.1571
  478TMC3    C2 7161   1.903   0.731  11.839 -0.6846 -0.2136  0.1413
  478TMC3    C3 7162   1.799   0.820  11.819 -0.3942  0.6488 -0.1838
  478TMC3    C4 7163   1.983   0.767  11.624 -0.0714 -0.0987 -0.0008
  478TMC3    C5 7164   1.876   0.838  11.596  0.3849 -0.1366 -0.3862
  478TMC3    C6 7165   1.785   0.864  11.691 -0.1005  0.7107 -0.5855
  478TMC3     C 7166   2.131   0.714  11.805  0.3655  0.3659  0.8826
  478TMC3     O 7167   2.141   0.663  11.919 -0.3041 -0.3363 -0.4136
  478TMC3     H 7168   1.922   0.693  11.939 -0.7960 -0.6800 -0.0128
  478TMC3    H1 7169   2.064   0.759  11.552 -0.2191 -3.5623  0.2543
  478TMC3    H2 7170   1.697   0.926  11.678 -1.6254 -1.4991 -0.8556
  478TMC3    C7 7171   1.865   0.899  11.470 -0.4878 -0.6094 -0.3849
  478TMC3    C8 7172   1.749   0.886  11.935  0.6357 -0.1352 -0.3193
  478TMC3    O1 7173   1.976   0.904  11.409  0.1947  0.5072  0.3010
  478TMC3    O2 7174   1.764   0.835  12.048  0.1177 -0.0114 -0.6077
  479MPD2     C 7175   1.468   2.908  15.249  0.3186  0.6536  1.0349
  479MPD2    C1 7176   1.398   2.864  15.357 -0.3717  0.0556 -0.1986
  479MPD2    C2 7177   1.429   2.918  15.479  0.7629 -0.2728  0.0413
  479MPD2    C3 7178   1.541   3.006  15.492  0.0390  0.3400  0.0834
  479MPD2    C4 7179   1.608   3.045  15.382  0.3259  0.1561  0.1488
  479MPD2    C5 7180   1.574   2.994  15.256 -0.5149  0.1223 -0.5704
  479MPD2     H 7181   1.373   2.888  15.566  0.2792 -0.2636 -0.2676
  479MPD2    H1 7182   1.699   3.104  15.393  0.0911  0.5531 -0.0619
  479MPD2    H2 7183   1.438   2.869  15.152 -0.6217  1.2678  1.0785
  479MPD2    H3 7184   1.633   3.031  15.174 -0.1408 -1.9548 -1.2174
  479MPD2     N 7185   1.595   3.041  15.623  0.5786 -0.2134 -0.7095
  479MPD2    H5 7186   1.689   3.079  15.609  1.7479 -2.2619  1.5980
  479MPD2    N1 7187   1.296   2.766  15.340  0.4251 -0.4496  0.1594
  479MPD2    H7 7188   1.270   2.750  15.243  0.2260 -0.4723  0.2161
  480TMC3    C1 7189   1.182   2.973  15.771 -0.0953 -0.1872 -0.1657
  480TMC3    C2 7190   1.142   3.086  15.701  0.1785 -0.2167  0.4071
  480TMC3    C3 7191   1.234   3.177  15.652 -0.1102 -0.2745  0.5801
  480TMC3    C4 7192   1.314   2.966  15.804 -0.2308 -0.7169  0.0213
  480TMC3    C5 7193   1.395   3.061  15.759  0.1296  0.0880  0.3763
  480TMC3    C6 7194   1.364   3.175  15.684  0.0815  0.4611 -0.5427
  480TMC3     C 7195   1.083   2.873  15.806 -0.0723  0.8652 -0.6347
  480TMC3     O 7196   0.964   2.892  15.783  0.6775 -0.2080  0.0432
  480TMC3     H 7197   1.036   3.104  15.688 -0.0407 -1.5299  0.3922
  480TMC3    H1 7198   1.360   2.881  15.853  2.0800  0.4982 -0.0635
  480TMC3    H2 7199   1.434   3.255  15.665 -1.0093  1.1366 -1.7392
  480TMC3    C7 7200   1.538   3.017  15.750  0.3186 -1.3354  0.2687
  480TMC3    C8 7201   1.194   3.241  15.522 -1.2274  0.2310  0.5365
  480TMC3    O1 7202   1.591   3.026  15.862 -0.5253  0.0342  0.9646
  480TMC3    O2 7203   1.074   3.257  15.510  0.7460  0.1499 -0.3544
  481MPD2     C 7204   3.204   2.573  14.484 -0.5741  0.0268  0.2372
  481MPD2    C1 7205   3.091   2.516  14.534  0.8042 -0.2253  0.4358
  481MPD2    C2 7206   3.098   2.428  14.642  0.5336  0.0174 -0.4914
  481MPD2    C3 7207   3.218   2.410  14.714  0.3144  0.2508  0.1775
  481MPD2    C4 7208   3.328   2.486  14.674 -0.5775  0.2760  0.1892
  481MPD2    C5 7209   3.320   2.562  14.558  0.1001 -0.2338 -0.7050
  481MPD2     H 7210   3.013   2.370  14.676  0.3653 -0.6181 -2.0471
  481MPD2    H1 7211   3.421   2.489  14.730 -0.4703  1.2836 -0.0264
  481MPD2    H2 7212   3.209   2.629  14.391 -3.4849  0.7492  0.5163
  481MPD2    H3 7213   3.414   2.609  14.529 -0.7559  0.4934 -2.2798
  481MPD2     N 7214   3.241   2.325  14.832  0.4159 -0.1011  0.3965
  481MPD2    H5 7215   3.335   2.324  14.868  0.5460  1.4217  0.0745
  481MPD2    N1 7216   2.975   2.541  14.459 -0.1234 -0.8419  0.2860
  481MPD2    H7 7217   2.989   2.597  14.375  1.3582  0.3379  1.3178
  482TMC3    C1 7218   2.741   2.533  14.415  0.2558 -0.7658 -0.7690
  482TMC3    C2 7219   2.638   2.443  14.394  0.1566  0.0551 -0.1797
  482TMC3    C3 7220   2.556   2.448  14.286 -0.6915 -0.1278  0.5677
  482TMC3    C4 7221   2.756   2.632  14.320 -0.5941  0.1465 -0.5153
  482TMC3    C5 7222   2.683   2.628  14.207  0.5122 -0.1488 -0.3119
  482TMC3    C6 7223   2.583   2.540  14.186 -0.0471 -0.0163  0.7790
  482TMC3     C 7224   2.851   2.486  14.497 -0.0766  0.3289 -0.1745
  482TMC3     O 7225   2.828   2.385  14.564  0.3094 -0.4712 -0.1492
  482TMC3     H 7226   2.629   2.358  14.460  3.1035 -0.3739 -0.3155
  482TMC3    H1 7227   2.823   2.717  14.324  1.5851 -1.6068 -0.0183
  482TMC3    H2 7228   2.518   2.547  14.099 -2.0218  1.8239  2.3665
  482TMC3    C7 7229   2.679   2.749  14.131 -0.2231  0.3748 -0.4786
  482TMC3    C8 7230   2.465   2.339  14.252 -0.1048 -0.5746 -0.2185
  482TMC3    O1 7231   2.674   2.855  14.186 -0.1363 -0.2772 -0.0222
  482TMC3    O2 7232   2.458   2.251  14.335  0.1177 -0.4989  0.2512
  483TMC3    C1 7233   0.830   1.064   1.520  0.2494 -0.3436 -0.4791
  483TMC3    C2 7234   0.896   1.179   1.521  0.3629 -0.0987  0.4393
  483TMC3    C3 7235   1.012   1.179   1.602  0.2034 -0.7637 -0.5740
  483TMC3    C4 7236   0.870   0.948   1.585 -0.1601 -0.0629  0.7011
  483TMC3    C5 7237   0.985   0.955   1.654 -0.5705 -0.1896  0.0485
  483TMC3    C6 7238   1.056   1.069   1.666  0.5353  0.2916 -0.0190
  483TMC3     C 7239   0.701   1.062   1.452 -0.6448  0.8232  0.2201
  483TMC3     O 7240   0.637   1.166   1.452  0.0729  0.0729  0.2408
  483TMC3     H 7241   0.860   1.271   1.475 -0.9632 -0.8656 -0.0616
  483TMC3    H1 7242   0.811   0.857   1.579  0.2862 -0.5194  3.0209
  483TMC3    H2 7243   1.131   1.076   1.744  1.2386  0.8652 -0.7485
  483TMC3    C7 7244   1.062   0.837   1.691 -0.2857 -0.0126  0.4114
  483TMC3    C8 7245   1.102   1.287   1.569 -0.3054 -0.0190  0.6455
  483TMC3    O1 7246   1.179   0.852   1.734  0.2710  0.9666 -0.3321
  483TMC3    O2 7247   1.085   1.335   1.455  0.6546  0.3864 -0.1433
  484MPD2     C 7248   3.320   4.000  13.588  0.0844  0.2396 -0.0053
  484MPD2    C1 7249   3.307   4.012  13.447  0.1897 -0.3089 -0.0661
  484MPD2    C2 7250   3.408   4.062  13.366 -0.4420  0.1724  0.1828
  484MPD2    C3 7251   3.517   4.119  13.427 -0.0256  0.3672 -0.0906
  484MPD2    C4 7252   3.535   4.107  13.561 -0.1593  0.1761  0.6823
  484MPD2    C5 7253   3.436   4.049  13.639  0.0603  0.4945 -0.0277
  484MPD2     H 7254   3.388   4.084  13.262  1.5730 -0.0173 -0.2431
  484MPD2    H1 7255   3.624   4.148  13.607 -0.6739 -1.0575  2.7903
  484MPD2    H2 7256   3.235   3.967  13.645 -1.2397  2.7367 -0.5483
  484MPD2    H3 7257   3.456   4.054  13.746 -3.7566  1.3442  0.6511
  484MPD2     N 7258   3.609   4.190  13.349  0.1779 -0.5865  0.6241
  484MPD2    H5 7259   3.683   4.232  13.405  0.0162  0.5068  0.0048
  484MPD2    N1 7260   3.179   3.965  13.403 -0.5430 -0.2444 -0.3394
  484MPD2    H7 7261   3.126   3.919  13.476 -0.8460  2.2665  1.0235
  485TMC3    C1 7262   3.715   4.299  13.173 -0.3269 -0.5550 -0.1419
  485TMC3    C2 7263   3.819   4.318  13.259 -0.3921 -0.3829  0.2529
  485TMC3    C3 7264   3.912   4.406  13.213 -0.3459 -0.4351 -0.1890
  485TMC3    C4 7265   3.703   4.362  13.053  0.2099 -0.4047  0.1753
  485TMC3    C5 7266   3.795   4.454  13.020  0.0765  0.3311  0.1211
  485TMC3    C6 7267   3.890   4.486  13.109 -0.6857 -0.0385 -0.2129
  485TMC3     C 7268   3.609   4.207  13.211  0.2534 -0.4067 -0.1150
  485TMC3     O 7269   3.539   4.168  13.120  0.4663  0.3620  0.4360
  485TMC3     H 7270   3.855   4.250  13.336 -2.4032 -0.1755  1.3649
  485TMC3    H1 7271   3.631   4.326  12.981  0.7016  2.1653 -1.5934
  485TMC3    H2 7272   3.956   4.566  13.078 -1.9830  1.9279  2.0637
  485TMC3    C7 7273   3.846   4.443  12.884 -0.3284 -0.9744 -0.2598
  485TMC3    C8 7274   4.053   4.366  13.222  0.2161 -0.0658  0.3258
  485TMC3    O1 7275   3.966   4.462  12.882 -0.0187  0.3323  0.4673
  485TMC3    O2 7276   4.085   4.318  13.330  0.0469 -0.6508  0.4379
  486MPD2     C 7277   0.294   2.908  13.319 -0.2657 -0.6002 -0.8528
  486MPD2    C1 7278   0.312   2.910  13.184 -0.2725 -0.5839 -0.2704
  486MPD2    C2 7279   0.288   3.027  13.108 -0.0226 -0.0713  0.4613
  486MPD2    C3 7280   0.258   3.147  13.169  0.1790 -0.1604 -0.3357
  486MPD2    C4 7281   0.236   3.139  13.307  0.3915  0.1792  0.8914
  486MPD2    C5 7282   0.263   3.026  13.380 -0.4221 -0.2252 -0.3903
  486MPD2     H 7283   0.311   3.025  13.002 -0.7108 -2.0348  0.3466
  486MPD2    H1 7284   0.222   3.226  13.369 -1.2930 -1.7591  3.2357
  486MPD2    H2 7285   0.303   2.822  13.385  0.5132 -0.5991 -0.9565
  486MPD2    H3 7286   0.258   3.020  13.488 -0.7416 -2.3460 -0.5278
  486MPD2     N 7287   0.251   3.264  13.094 -0.2133 -0.7373 -0.1901
  486MPD2    H5 7288   0.271   3.255  12.995  2.7075 -0.6567  0.3801
  486MPD2    N1 7289   0.356   2.787  13.123  0.5101  0.3794  0.4494
  486MPD2    H7 7290   0.369   2.705  13.181 -1.0912 -0.0849  0.1473
  487TMC3    C1 7291   0.452   2.641  12.984 -0.2521  0.9852 -0.0925
  487TMC3    C2 7292   0.431   2.563  12.876  0.2600  0.2267 -0.6041
  487TMC3    C3 7293   0.518   2.459  12.856 -0.7601  0.2277  0.2835
  487TMC3    C4 7294   0.559   2.618  13.064  0.5755  0.7178 -0.4773
  487TMC3    C5 7295   0.648   2.517  13.041 -0.6399 -0.1411 -0.8240
  487TMC3    C6 7296   0.624   2.428  12.942  0.6852  0.5984  0.2527
  487TMC3     C 7297   0.391   2.763  12.990 -0.1117 -0.4589  0.5875
  487TMC3     O 7298   0.369   2.813  12.881  0.2286 -0.4354  0.1339
  487TMC3     H 7299   0.362   2.586  12.797  0.6691  2.5957 -0.2526
  487TMC3    H1 7300   0.582   2.690  13.142 -0.7286  0.8746 -0.2371
  487TMC3    H2 7301   0.700   2.359  12.908  0.9336  0.8192  0.3555
  487TMC3    C7 7302   0.727   2.480  13.163 -0.3394  0.6353 -0.4411
  487TMC3    C8 7303   0.515   2.398  12.722  0.8856  0.2207  0.7088
  487TMC3    O1 7304   0.736   2.561  13.253  0.5378 -0.4649  0.0871
  487TMC3    O2 7305   0.485   2.463  12.626 -0.3883  0.7890  0.3746
  488MPD2     C 7306   0.926   4.474  16.552 -0.0102  0.8839 -0.0661
  488MPD2    C1 7307   0.993   4.564  16.631  0.3850  0.6175 -0.5333
  488MPD2    C2 7308   1.029   4.522  16.760  0.0541  0.6960 -0.7861
  488MPD2    C3 7309   0.997   4.403  16.825  0.1761  0.1466 -0.3979
  488MPD2    C4 7310   0.933   4.308  16.741 -0.2210  0.2591  0.6033
  488MPD2    C5 7311   0.903   4.354  16.610 -0.1930  0.8935 -0.0514
  488MPD2     H 7312   1.079   4.596  16.821 -0.5242 -1.2580  2.0964
  488MPD2    H1 7313   0.899   4.213  16.779  0.4085 -0.4600 -0.6392
  488MPD2    H2 7314   0.912   4.490  16.445 -0.4427 -0.1323 -0.1634
  488MPD2    H3 7315   0.853   4.283  16.544  0.4279  0.6089 -0.2151
  488MPD2     N 7316   1.031   4.386  16.960  0.0834 -0.8966  0.4549
  488MPD2    H5 7317   1.081   4.459  17.010  2.4881 -2.3079  0.0691
  488MPD2    N1 7318   1.027   4.700  16.584  0.9332 -0.1765 -0.1650
  488MPD2    H7 7319   1.073   0.027  16.648 -0.8626 -1.3494  2.2803
  489TMC3    C1 7320   1.043   4.285  17.162 -0.7313 -0.1696 -0.0737
  489TMC3    C2 7321   1.097   4.404  17.200 -0.6595 -0.4135 -0.5128
  489TMC3    C3 7322   1.161   4.401  17.322  0.0129 -0.1809  0.2212
  489TMC3    C4 7323   1.047   4.173  17.250  0.7040 -0.3110  0.0976
  489TMC3    C5 7324   1.112   4.185  17.371 -0.0302  0.2372 -0.1359
  489TMC3    C6 7325   1.184   4.296  17.408  0.1939  0.4188 -0.5258
  489TMC3     C 7326   1.013   4.263  17.025 -0.2516  0.2122  0.0769
  489TMC3     O 7327   0.969   4.153  16.995  0.5116 -0.1779 -0.9312
  489TMC3     H 7328   1.087   4.502  17.156 -1.7825 -0.5497 -0.5441
  489TMC3    H1 7329   0.986   4.086  17.227  0.3308 -1.1706  4.1939
  489TMC3    H2 7330   1.231   4.300  17.506 -4.1526  1.5175  1.5065
  489TMC3    C7 7331   1.102   4.076  17.476  0.2942  0.0086  0.3234
  489TMC3    C8 7332   1.234   4.520  17.338  0.6001  0.6867  0.0837
  489TMC3    O1 7333   1.120   4.101  17.595 -0.1184 -0.4488 -0.1846
  489TMC3    O2 7334   1.327   4.544  17.258  0.3712  0.4586  0.6723
  490MPD2     C 7335   2.172   3.807  17.028  0.1010  0.0355 -0.7274
  490MPD2    C1 7336   2.134   3.845  17.154  0.5581 -1.0177  0.1503
  490MPD2    C2 7337   2.210   3.926  17.232  0.1059 -0.2090  0.0549
  490MPD2    C3 7338   2.329   3.981  17.182 -0.9228 -0.1034 -0.1060
  490MPD2    C4 7339   2.371   3.943  17.056 -0.3925  0.1119 -0.3401
  490MPD2    C5 7340   2.293   3.858  16.988  0.5032  0.2984 -0.4104
  490MPD2     H 7341   2.184   3.949  17.335  0.0995  1.1894 -0.2510
  490MPD2    H1 7342   2.468   3.966  17.015  0.4622 -0.0318  1.5821
  490MPD2    H2 7343   2.112   3.754  16.955  0.0264 -0.7418 -0.1064
  490MPD2    H3 7344   2.333   3.830  16.891  3.2078  1.6787  0.2901
  490MPD2     N 7345   2.404   4.081  17.245  0.0727  0.2450 -0.0113
  490MPD2    H5 7346   2.494   4.104  17.204  0.2844 -0.5024  0.0377
  490MPD2    N1 7347   2.016   3.801  17.209  0.1147 -0.6915 -0.1820
  490MPD2    H7 7348   1.996   3.829  17.304 -1.5197 -1.5821 -0.2478
  491TMC3    C1 7349   1.827   3.658  17.246 -0.5763  0.3383 -0.4284
  491TMC3    C2 7350   1.808   3.706  17.376 -0.5346  0.1733  0.5227
  491TMC3    C3 7351   1.728   3.637  17.460  0.2958  0.1531 -0.3354
  491TMC3    C4 7352   1.745   3.558  17.197 -0.7003 -0.4083 -0.1734
  491TMC3    C5 7353   1.661   3.492  17.287  0.1806  0.1706  0.8562
  491TMC3    C6 7354   1.641   3.535  17.418  0.4445  0.5158 -0.5588
  491TMC3     C 7355   1.934   3.702  17.158  0.5802 -0.3740 -0.1179
  491TMC3     O 7356   1.945   3.642  17.052 -0.0554 -0.6317  0.1129
  491TMC3     H 7357   1.887   3.766  17.419 -1.6553  1.2817  1.0606
  491TMC3    H1 7358   1.760   3.524  17.095 -1.0721  1.1017 -0.7249
  491TMC3    H2 7359   1.562   3.493  17.479  2.2274  0.8332  1.9921
  491TMC3    C7 7360   1.567   3.397  17.223 -0.6923  0.7255 -0.7520
  491TMC3    C8 7361   1.707   3.684  17.598  0.3071 -0.1460  0.0952
  491TMC3    O1 7362   1.560   3.407  17.105  0.1935 -0.0094  1.2728
  491TMC3    O2 7363   1.632   3.603  17.662 -0.7846  0.4834  0.0225
  492MPD2     C 7364   1.628   4.649  11.883  0.4566 -0.5198  0.3328
  492MPD2    C1 7365   1.601   4.557  11.783 -0.1414 -0.9783  0.2816
  492MPD2    C2 7366   1.564   4.429  11.830  0.0288  0.4008  0.4699
  492MPD2    C3 7367   1.576   4.394  11.966 -0.2341 -0.4722  0.3307
  492MPD2    C4 7368   1.603   4.488  12.059  0.2900 -0.5209  0.3496
  492MPD2    C5 7369   1.617   4.619  12.015  0.2068 -0.1058  0.4733
  492MPD2     H 7370   1.535   4.356  11.755 -0.3146  2.0900 -1.0587
  492MPD2    H1 7371   1.602   4.458  12.163 -1.4149 -0.0155  0.4790
  492MPD2    H2 7372   1.652   0.013  11.855 -0.9718  0.0037  0.9917
  492MPD2    H3 7373   1.638   4.696  12.088 -1.1665 -0.6102  1.4165
  492MPD2     N 7374   1.545   4.266  12.007 -0.1715 -0.0653 -0.3067
  492MPD2    H5 7375   1.539   4.255  12.108 -1.8808 -2.3252 -0.6496
  492MPD2    N1 7376   1.606   4.605  11.644  0.2016  0.2120  0.1423
  492MPD2    H7 7377   1.617   4.702  11.617  0.1319 -0.0895 -0.9730
  493TMC3    C1 7378   1.547   4.580  11.404  0.6255 -0.2585  0.5291
  493TMC3    C2 7379   1.559   4.717  11.380 -0.3667 -0.2043 -0.2205
  493TMC3    C3 7380   1.508   0.025  11.263  0.2485  0.5867 -0.6276
  493TMC3    C4 7381   1.468   4.499  11.322 -0.0476  0.4088 -0.6737
  493TMC3    C5 7382   1.411   4.555  11.213 -0.3028  0.0156  0.0071
  493TMC3    C6 7383   1.428   4.690  11.177 -0.4963  0.3703  0.2067
  493TMC3     C 7384   1.575   4.520  11.536  0.3172  0.0775 -0.9934
  493TMC3     O 7385   1.547   4.402  11.544 -0.2900 -0.1465  0.3842
  493TMC3     H 7386   1.610   0.048  11.446  1.1288 -2.0244  0.5423
  493TMC3    H1 7387   1.462   4.391  11.331 -0.3910  0.5503  0.6523
  493TMC3    H2 7388   1.372   0.003  11.099  0.1863  0.1058 -0.4535
  493TMC3    C7 7389   1.314   4.473  11.154 -0.4542  0.5216 -0.2360
  493TMC3    C8 7390   1.538   0.161  11.233 -0.0469 -0.5007 -0.0089
  493TMC3    O1 7391   1.264   4.384  11.224 -0.4159  0.7883  0.6320
  493TMC3    O2 7392   1.443   0.236  11.214  0.2304  0.5525 -0.6479
  494TMC3    C1 7393   3.380   0.976   0.857  0.2602 -0.4738 -0.2409
  494TMC3    C2 7394   3.407   0.842   0.843  1.1053  0.2947 -0.1453
  494TMC3    C3 7395   3.400   0.787   0.717 -0.0257  0.0560  0.1739
  494TMC3    C4 7396   3.339   1.056   0.753 -0.1567  0.0760 -0.0982
  494TMC3    C5 7397   3.346   1.001   0.626  0.7796 -0.3049  0.1147
  494TMC3    C6 7398   3.367   0.863   0.607 -0.1850 -0.2372  0.0194
  494TMC3     C 7399   3.329   1.016   0.986 -0.6303 -0.6083  0.8750
  494TMC3     O 7400   3.244   1.108   0.994  0.3132  0.3093 -0.1310
  494TMC3     H 7401   3.414   0.769   0.923  0.2916  0.4523  0.0751
  494TMC3    H1 7402   3.305   1.158   0.768 -0.9967 -0.6562  2.9729
  494TMC3    H2 7403   3.356   0.818   0.509  0.6666  2.0864 -1.1476
  494TMC3    C7 7404   3.325   1.074   0.504  0.1691 -0.7686 -0.5479
  494TMC3    C8 7405   3.374   0.643   0.716 -0.1256  1.1449  0.7274
  494TMC3    O1 7406   3.364   1.023   0.401 -0.1712  0.2386 -0.5984
  494TMC3    O2 7407   3.402   0.576   0.809  0.3697  0.0328 -0.2375
  495TMC3    C1 7408   1.876   3.312  14.859 -0.4515 -0.5404  0.0976
  495TMC3    C2 7409   1.805   3.351  14.747 -0.1944  0.4624 -0.5918
  495TMC3    C3 7410   1.706   3.441  14.749  0.1509  0.2709 -0.1611
  495TMC3    C4 7411   1.832   3.348  14.976 -0.3572  0.1133  0.4518
  495TMC3    C5 7412   1.743   3.454  14.982 -0.7840 -0.2848 -0.1148
  495TMC3    C6 7413   1.675   3.496  14.867  0.5053 -0.4316  0.0991
  495TMC3     C 7414   1.913   3.174  14.842  0.2798 -0.7813 -0.7607
  495TMC3     O 7415   1.864   3.087  14.916 -0.2770 -0.1311  0.0635
  495TMC3     H 7416   1.825   3.302  14.653  2.8076 -2.3975  1.5659
  495TMC3    H1 7417   1.870   3.290  15.059  2.6771  0.1761 -0.9106
  495TMC3    H2 7418   1.602   3.576  14.873  0.9087 -0.3724  4.0027
  495TMC3    C7 7419   1.651   3.426  15.089  0.2158  0.9844  0.6275
  495TMC3    C8 7420   1.586   3.380  14.696 -0.1853 -0.1382 -0.8028
  495TMC3    O1 7421   1.699   3.386  15.196  0.1920 -0.0391  0.3166
  495TMC3    O2 7422   1.490   3.412  14.767  0.2696 -0.6685  0.3775
  496MPD2     C 7423   3.555   3.228  15.693  0.2449  0.0519 -0.2678
  496MPD2    C1 7424   3.461   3.129  15.680 -0.2663 -0.0238 -0.3618
  496MPD2    C2 7425   3.353   3.137  15.758 -0.4992 -0.1879 -0.5495
  496MPD2    C3 7426   3.339   3.229  15.863 -0.0299  0.7911  0.3884
  496MPD2    C4 7427   3.445   3.310  15.889  0.5491  0.5067 -0.1650
  496MPD2    C5 7428   3.550   3.311  15.799 -0.5245  0.6492 -0.1993
  496MPD2     H 7429   3.276   3.062  15.749 -0.4634  0.0711 -2.8461
  496MPD2    H1 7430   3.448   3.371  15.979  1.4034  1.2075 -0.6669
  496MPD2    H2 7431   3.639   3.249  15.627 -0.4074  0.5167 -0.9428
  496MPD2    H3 7432   3.633   3.379  15.811 -0.1843  0.2168 -0.1180
  496MPD2     N 7433   3.214   3.221  15.948 -0.1365  0.1351  0.0203
  496MPD2    H5 7434   3.220   3.245  16.047 -0.9128 -0.2650  0.1682
  496MPD2    N1 7435   3.479   3.028  15.581 -0.3036 -0.6059 -0.1064
  496MPD2    H7 7436   3.571   3.033  15.538 -0.2496 -0.2335  0.0555
  497TMC3    C1 7437   3.001   3.193  16.011  0.5293 -0.2058 -0.5971
  497TMC3    C2 7438   2.868   3.205  15.987 -0.6176  1.3797 -0.6478
  497TMC3    C3 7439   2.773   3.181  16.076 -0.7308 -0.7444 -0.8370
  497TMC3    C4 7440   3.043   3.166  16.136 -0.2066 -0.1508 -0.0960
  497TMC3    C5 7441   2.940   3.146  16.229  0.2575  0.2969  0.0824
  497TMC3    C6 7442   2.808   3.148  16.204 -0.3972 -0.1412 -0.4548
  497TMC3     C 7443   3.093   3.177  15.912  0.3362 -0.1171  0.5658
  497TMC3     O 7444   3.048   3.154  15.802  0.7608  0.4690 -0.3696
  497TMC3     H 7445   2.840   3.210  15.883  1.3957  0.4149 -1.2348
  497TMC3    H1 7446   3.144   3.133  16.156 -0.3376  0.6264  1.8475
  497TMC3    H2 7447   2.733   3.114  16.275  1.8886  1.0135  2.4751
  497TMC3    C7 7448   2.980   3.091  16.359 -0.0801  0.6485 -0.2895
  497TMC3    C8 7449   2.633   3.191  16.032  0.0867  0.2371  0.6717
  497TMC3    O1 7450   2.890   3.038  16.424 -0.1620 -0.0668 -0.5327
  497TMC3    O2 7451   2.618   3.256  15.930  0.2375  0.0903  0.3023
  498MPD2     C 7452   4.607   4.523  10.282  0.0464 -0.0831 -0.3379
  498MPD2    C1 7453   4.490   4.524  10.358 -0.4719  0.1782  0.7114
  498MPD2    C2 7454   4.405   4.415  10.350  0.2199  0.2271 -0.5952
  498MPD2    C3 7455   4.442   4.308  10.275  1.2917 -0.7931  0.4284
  498MPD2    C4 7456   4.556   4.307  10.198 -0.1541 -0.0236  0.4413
  498MPD2    C5 7457   4.631   4.415  10.200 -0.1292  0.6578  0.0888
  498MPD2     H 7458   4.307   4.424  10.394  1.1121 -0.8015  1.6026
  498MPD2    H1 7459   4.584   4.227  10.130 -2.0471  1.8275 -2.5682
  498MPD2    H2 7460   4.669   4.611  10.268 -1.8604  1.3330  0.0028
  498MPD2    H3 7461   4.718   4.421  10.136 -0.7103  1.6167 -0.5965
  498MPD2     N 7462   4.368   4.190  10.269  0.1557 -0.1636 -0.8112
  498MPD2    H5 7463   4.412   4.126  10.203  0.1856 -0.6824 -0.2877
  498MPD2    N1 7464   4.442   4.634  10.426 -0.2072 -0.0996 -0.1774
  498MPD2    H7 7465   4.349   4.624  10.467  0.3600 -0.8873  0.9247
  499TMC3    C1 7466   4.453   0.119  10.510  0.2966  0.3085  0.4689
  499TMC3    C2 7467   4.523   0.200  10.600 -0.3416 -0.3527 -0.2407
  499TMC3    C3 7468   4.475   0.333  10.598  0.2303  0.5463  0.6615
  499TMC3    C4 7469   4.340   0.161  10.444 -0.0897  0.9901 -0.1892
  499TMC3    C5 7470   4.293   0.287  10.467 -0.4019  0.3156 -0.4322
  499TMC3    C6 7471   4.357   0.380  10.537  0.5530  0.0625  0.2018
  499TMC3     C 7472   4.524   4.734  10.467  0.0916  0.3784  0.1343
  499TMC3     O 7473   4.645   4.729  10.487 -0.4194  0.3869  0.5604
  499TMC3     H 7474   4.617   0.172  10.645 -0.1698  1.4240  0.5224
  499TMC3    H1 7475   4.312   0.097  10.361 -2.3388 -0.1874  1.4806
  499TMC3    H2 7476   4.331   0.485  10.542 -1.8945 -0.5323  0.1234
  499TMC3    C7 7477   4.189   0.335  10.379  0.5404  0.4604  0.1344
  499TMC3    C8 7478   4.565   0.435  10.650  0.6279  0.2596  0.0279
  499TMC3    O1 7479   4.168   0.453  10.370 -0.1680  0.0706 -0.5343
  499TMC3    O2 7480   4.642   0.395  10.739 -0.1782  0.0758 -0.0249
  500MPD2     C 7481   0.573   0.972  10.831  0.0669 -0.4132 -0.4352
  500MPD2    C1 7482   0.562   0.988  10.697  0.0523  0.0075 -0.1237
  500MPD2    C2 7483   0.457   1.068  10.649  0.0695  0.3089  0.6368
  500MPD2    C3 7484   0.354   1.105  10.736  0.2069 -1.1529  0.7402
  500MPD2    C4 7485   0.372   1.081  10.866 -1.0267  0.0804  0.2063
  500MPD2    C5 7486   0.475   1.006  10.914 -0.3469 -0.0974 -0.8396
  500MPD2     H 7487   0.444   1.097  10.545 -0.3571 -2.5544 -0.0903
  500MPD2    H1 7488   0.295   1.113  10.935 -0.2802 -0.2158  1.1652
  500MPD2    H2 7489   0.661   0.928  10.877 -0.8332 -2.0284 -0.2702
  500MPD2    H3 7490   0.486   0.995  11.021  0.5663  1.0039 -0.8282
  500MPD2     N 7491   0.225   1.155  10.704  0.4093 -0.6701  0.0560
  500MPD2    H5 7492   0.163   1.178  10.781  0.9558 -0.0346  0.3109
  500MPD2    N1 7493   0.655   0.931  10.603 -0.4199 -0.3868 -0.3788
  500MPD2    H7 7494   0.639   0.953  10.505 -1.0466  2.0713  0.2843
  501TMC3    C1 7495   0.862   0.842  10.543  0.4741 -0.2665  0.2879
  501TMC3    C2 7496   0.903   0.959  10.488 -0.6714  0.5765 -0.0358
  501TMC3    C3 7497   1.034   0.970  10.456 -0.1762  0.3278 -0.6769
  501TMC3    C4 7498   0.954   0.741  10.577  0.1819  0.6383  0.4380
  501TMC3    C5 7499   1.086   0.758  10.540  0.4529 -0.3666 -0.0204
  501TMC3    C6 7500   1.116   0.865  10.465 -0.4252  0.5030  0.0947
  501TMC3     C 7501   0.763   0.859  10.642 -0.8277  0.5422 -0.4230
  501TMC3     O 7502   0.789   0.801  10.747 -0.0124 -0.4946 -0.7878
  501TMC3     H 7503   0.838   1.045  10.485  2.1649  2.7234  0.5723
  501TMC3    H1 7504   0.931   0.651  10.633  0.2394 -0.3327 -1.1006
  501TMC3    H2 7505   1.219   0.882  10.436  0.2196 -0.2169  1.9658
  501TMC3    C7 7506   1.171   0.739  10.660  0.3034  0.4308 -0.9946
  501TMC3    C8 7507   1.101   1.096  10.482  0.2019 -0.1339  0.2119
  501TMC3    O1 7508   1.110   0.716  10.761 -0.3218  0.0176 -0.4414
  501TMC3    O2 7509   1.215   1.101  10.527  0.6193  0.1194 -0.1938
  502TMC3    C1 7510   1.055   4.143  15.074  0.3985 -0.0576 -0.2870
  502TMC3    C2 7511   1.040   4.266  15.022  0.0143 -0.0983  0.5369
  502TMC3    C3 7512   0.913   4.301  14.973  0.1935 -0.4244 -0.7381
  502TMC3    C4 7513   0.948   4.056  15.089  0.3439  0.3068 -0.0477
  502TMC3    C5 7514   0.833   4.092  15.028 -0.0741 -0.1699 -0.7363
  502TMC3    C6 7515   0.810   4.212  14.963 -0.3528  0.1951 -0.2632
  502TMC3     C 7516   1.159   4.119  15.164 -0.6101 -0.0056  0.2700
  502TMC3     O 7517   1.275   4.153  15.142 -0.0646  0.5663  0.4077
  502TMC3     H 7518   1.120   4.339  15.011  1.6476 -1.9678  0.0263
  502TMC3    H1 7519   0.975   3.959  15.128  0.0332 -0.6278 -2.1541
  502TMC3    H2 7520   0.716   4.249  14.923  0.1217  3.9506  1.9838
  502TMC3    C7 7521   0.731   3.994  15.042  0.5272 -0.3058  0.2922
  502TMC3    C8 7522   0.915   4.436  14.912  0.1956 -0.1812 -0.6724
  502TMC3    O1 7523   0.764   3.882  15.069 -0.6226 -0.1009  0.9870
  502TMC3    O2 7524   1.020   4.491  14.890 -0.2333 -0.3276 -0.2061
  503MPD2     C 7525   3.143   4.650  17.345  0.4248 -0.1542  0.6897
  503MPD2    C1 7526   3.248   4.706  17.423 -0.7209  0.1720  0.5749
  503MPD2    C2 7527   3.340   4.618  17.470 -0.4997  0.8141 -0.0226
  503MPD2    C3 7528   3.344   4.484  17.434  0.1628  0.5150 -0.0878
  503MPD2    C4 7529   3.245   4.436  17.347  0.4038 -0.2542  0.8330
  503MPD2    C5 7530   3.142   4.519  17.296 -0.2252 -0.1310  1.1217
  503MPD2     H 7531   3.407   4.650  17.549  0.3553 -0.2798 -0.3030
  503MPD2    H1 7532   3.244   4.330  17.325 -1.6608  0.0121 -0.3608
  503MPD2    H2 7533   3.063   4.715  17.310  1.1914 -0.5832 -1.8423
  503MPD2    H3 7534   3.060   4.486  17.233  0.3062  0.8137 -0.0805
  503MPD2     N 7535   3.447   4.393  17.479 -0.1770 -0.2461  0.7431
  503MPD2    H5 7536   3.452   4.306  17.425  0.7806  0.1298  0.2205
  503MPD2    N1 7537   3.243   0.104  17.469 -0.8987  0.3476 -0.3726
  503MPD2    H7 7538   3.323   0.130  17.525 -1.5853 -0.9253  1.2052
  504TMC3    C1 7539   3.638   4.302  17.566  0.0556  0.4634 -0.3786
  504TMC3    C2 7540   3.684   4.272  17.693 -1.1063  0.2915  0.1523
  504TMC3    C3 7541   3.762   4.162  17.705 -0.9104 -0.7372  0.4553
  504TMC3    C4 7542   3.671   4.229  17.455  0.1906  0.0617  0.2104
  504TMC3    C5 7543   3.766   4.134  17.468 -0.5515  0.7904 -0.5407
  504TMC3    C6 7544   3.809   4.090  17.595 -1.0279  0.7742 -0.5636
  504TMC3     C 7545   3.542   4.412  17.563  0.1584 -0.2417  0.3041
  504TMC3     O 7546   3.573   4.509  17.632 -0.0055  0.5116  0.1339
  504TMC3     H 7547   3.643   4.315   0.034 -1.6423 -1.0877  0.5638
  504TMC3    H1 7548   3.637   4.261  17.357  1.3506 -2.8315 -1.1234
  504TMC3    H2 7549   3.861   3.996  17.607  0.6621  1.6291 -1.2580
  504TMC3    C7 7550   3.828   4.099  17.342 -1.1149  0.4062  0.0506
  504TMC3    C8 7551   3.804   4.104   0.083  0.3753  0.4655 -0.0606
  504TMC3    O1 7552   3.799   4.164  17.243  0.1081  0.2580 -0.7738
  504TMC3    O2 7553   3.882   4.009   0.078  0.1443 -0.3058 -1.4411
  505MPD2     C 7554   3.476   3.580   9.626 -0.4054 -0.5395  0.3173
  505MPD2    C1 7555   3.471   3.452   9.682 -0.3194 -0.1825  0.2563
  505MPD2    C2 7556   3.391   3.423   9.794 -0.9209 -0.6356  0.5466
  505MPD2    C3 7557   3.323   3.532   9.856  0.0139  1.1474 -0.3327
  505MPD2    C4 7558   3.346   3.658   9.807 -0.1891 -0.7724  0.1359
  505MPD2    C5 7559   3.418   3.683   9.700  0.2905 -0.5060 -0.8394
  505MPD2     H 7560   3.386   3.321   9.832 -0.7214 -0.8012  0.1341
  505MPD2    H1 7561   3.313   3.742   9.866  2.1035  1.1811 -1.3559
  505MPD2    H2 7562   3.547   3.621   9.556  0.3722  0.8805  1.9305
  505MPD2    H3 7563   3.430   3.785   9.668  0.3500 -0.6331 -1.2241
  505MPD2     N 7564   3.256   3.523   9.979 -0.3466  0.0512  0.5504
  505MPD2    H5 7565   3.224   3.603  10.031  0.3279 -0.3380  1.5583
  505MPD2    N1 7566   3.561   3.362   9.614 -0.5760  0.0201 -0.7189
  505MPD2    H7 7567   3.626   3.396   9.545 -0.7352 -1.0774 -1.3956
  506TMC3    C1 7568   3.675   3.155   9.569 -0.1210  1.1501 -0.4579
  506TMC3    C2 7569   3.799   3.211   9.574 -0.1834  0.1873  0.4501
  506TMC3    C3 7570   3.897   3.139   9.624 -0.4468  0.3140 -1.1177
  506TMC3    C4 7571   3.652   3.023   9.595 -0.3546 -0.3540 -0.2878
  506TMC3    C5 7572   3.759   2.957   9.640 -0.0941  0.1162  0.3357
  506TMC3    C6 7573   3.883   3.007   9.650 -0.0001  0.1112  0.2250
  506TMC3     C 7574   3.577   3.230   9.648 -0.0352  0.1071  0.0071
  506TMC3     O 7575   3.511   3.161   9.726 -0.1710 -0.4191  0.2333
  506TMC3     H 7576   3.819   3.312   9.541 -1.9507  0.5679  0.5416
  506TMC3    H1 7577   3.551   2.985   9.587 -0.0918 -1.0033 -0.5391
  506TMC3    H2 7578   3.961   2.953   9.704  0.2895  0.2755 -0.0312
  506TMC3    C7 7579   3.727   2.882   9.761 -0.8613 -0.4072  0.3101
  506TMC3    C8 7580   4.025   3.201   9.647 -0.4362 -0.4617 -0.9780
  506TMC3    O1 7581   3.794   2.780   9.784 -0.3076 -0.3487 -0.4679
  506TMC3    O2 7582   4.123   3.139   9.610 -0.3928 -0.2742  0.5785
  507TMC3    C1 7583   3.945   4.026  14.519 -0.2697  0.6866 -0.5229
  507TMC3    C2 7584   3.824   4.087  14.542 -0.1325  0.3429  0.1318
  507TMC3    C3 7585   3.819   4.224  14.547  0.1931  0.2313 -0.4308
  507TMC3    C4 7586   4.063   4.096  14.514  0.0601 -0.2801 -0.2298
  507TMC3    C5 7587   4.051   4.233  14.533  0.2969  0.5138  0.2753
  507TMC3    C6 7588   3.932   4.301  14.530 -0.6318  0.1597  0.3244
  507TMC3     C 7589   3.934   3.907  14.441 -0.4345 -0.7935  0.6640
  507TMC3     O 7590   3.827   3.872  14.397  0.6418 -0.0747  0.0450
  507TMC3     H 7591   3.732   4.030  14.544  0.5528 -0.7692 -0.1782
  507TMC3    H1 7592   4.164   4.059  14.500  0.4132 -0.3689  2.4321
  507TMC3    H2 7593   3.933   4.406  14.555 -1.2421  0.2599 -0.0706
  507TMC3    C7 7594   4.144   4.270  14.645  0.6115 -0.5304  0.3311
  507TMC3    C8 7595   3.741   4.282  14.654 -0.0241 -0.0248  0.0276
  507TMC3    O1 7596   4.256   4.225  14.635  0.0349 -0.3004  0.0120
  507TMC3    O2 7597   3.798   4.367  14.724  0.1518 -0.5929 -0.7605
  508MPD2     C 7598   4.547   1.653  16.556  0.0959  0.6602 -0.3046
  508MPD2    C1 7599   4.678   1.662  16.513 -0.2690  0.5548 -0.0393
  508MPD2    C2 7600   4.695   1.703  16.383 -0.4368  0.7219  0.3044
  508MPD2    C3 7601   4.591   1.717  16.293 -0.7998  0.1101 -0.3969
  508MPD2    C4 7602   4.463   1.687  16.334  0.1270 -0.1827  0.2787
  508MPD2    C5 7603   4.438   1.665  16.472  0.0935 -0.0437 -0.6210
  508MPD2     H 7604   0.053   1.719  16.335 -0.3406  3.0917  1.3048
  508MPD2    H1 7605   4.378   1.678  16.267 -1.2094  2.6947  1.5698
  508MPD2    H2 7606   4.523   1.633  16.660 -1.1682  1.1536 -0.4951
  508MPD2    H3 7607   4.338   1.646  16.511 -0.2207  0.6793 -1.0751
  508MPD2     N 7608   4.619   1.761  16.163  0.2320  0.3029  0.0617
  508MPD2    H5 7609   4.714   1.753  16.128 -0.0719  0.2209 -0.7591
  508MPD2    N1 7610   0.050   1.658  16.600  0.0496 -0.4382 -0.7901
  508MPD2    H7 7611   0.034   1.650  16.700  0.2688  2.6351 -0.4969
  509TMC3    C1 7612   4.543   2.020  15.783 -0.1447 -0.5001 -0.3019
  509TMC3    C2 7613   4.670   2.060  15.783  0.0191 -0.0478  0.1244
  509TMC3    C3 7614   0.013   2.014  15.877  0.2381 -0.1149 -0.1751
  509TMC3    C4 7615   4.494   1.916  15.867 -0.3928 -0.5171 -0.3063
  509TMC3    C5 7616   4.586   1.869  15.962  0.5116 -0.3224 -0.2942
  509TMC3    C6 7617   4.716   1.909  15.957 -0.1292 -0.3423  1.0213
  509TMC3     C 7618   4.455   2.056  15.669  0.5822 -0.0075  0.0042
  509TMC3     O 7619   4.358   1.984  15.650  0.0776 -0.0941 -0.3449
  509TMC3     H 7620   4.714   2.131  15.713 -2.3300  0.4192 -0.8515
  509TMC3    H1 7621   4.400   1.864  15.858  0.1172 -1.2382 -1.5034
  509TMC3    H2 7622   0.054   1.883  16.031  2.0445 -0.9038 -1.4117
  509TMC3    C7 7623   4.527   1.815  16.076  0.6352  0.4507  0.1750
  509TMC3    C8 7624   0.152   2.061  15.883  0.4489 -0.2558  0.2503
  509TMC3    O1 7625   4.410   1.824  16.097  0.6381 -0.1526  0.1499
  509TMC3    O2 7626   0.233   1.987  15.937 -0.2565  0.4277 -0.1631
  510MPD2     C 7627   2.616   3.689  15.111  0.5640 -0.1323 -0.1957
  510MPD2    C1 7628   2.675   3.562  15.127  0.4895  0.0771  0.3358
  510MPD2    C2 7629   2.776   3.530  15.036  0.7064  0.0044  0.6196
  510MPD2    C3 7630   2.801   3.611  14.923  0.3012  1.0266  0.3860
  510MPD2    C4 7631   2.738   3.732  14.907  0.3842 -0.3223 -0.2059
  510MPD2    C5 7632   2.645   3.769  15.001 -0.3724 -0.0873 -0.2589
  510MPD2     H 7633   2.838   3.441  15.041  0.9172  0.2151  1.8353
  510MPD2    H1 7634   2.750   3.801  14.824 -0.7308  0.0061 -0.0896
  510MPD2    H2 7635   2.534   3.712  15.178  0.8099 -0.4137  0.2058
  510MPD2    H3 7636   2.593   3.864  14.991 -3.4752 -1.6729  1.0155
  510MPD2     N 7637   2.897   3.566  14.831  0.5577 -0.0972 -0.0769
  510MPD2    H5 7638   2.962   3.492  14.858 -1.9244 -1.2080  2.8242
  510MPD2    N1 7639   2.622   3.479  15.232  0.6941  0.2504 -0.0236
  510MPD2    H7 7640   2.547   3.520  15.287  1.6396  0.5704  1.0273
  511TMC3    C1 7641   2.586   3.251  15.322 -0.1741  0.7174  0.6603
  511TMC3    C2 7642   2.497   3.299  15.415  1.2065 -0.1743 -0.0875
  511TMC3    C3 7643   2.386   3.226  15.438 -0.1985  0.3539 -0.2160
  511TMC3    C4 7644   2.570   3.123  15.269  0.5159  0.6813  0.6295
  511TMC3    C5 7645   2.453   3.053  15.290 -0.0382 -0.6790  0.4339
  511TMC3    C6 7646   2.360   3.110  15.369  0.1297  0.8440 -0.1286
  511TMC3     C 7647   2.662   3.348  15.244  0.0092 -0.3095 -0.1828
  511TMC3     O 7648   2.739   3.285  15.177 -0.2588  0.6984 -0.3834
  511TMC3     H 7649   2.515   3.400  15.450  0.9099  0.3841 -1.5619
  511TMC3    H1 7650   2.643   3.079  15.202 -0.8585  0.1019 -0.4827
  511TMC3    H2 7651   2.258   3.074  15.362  1.1292 -1.9735 -0.1854
  511TMC3    C7 7652   2.434   2.937  15.212  0.5746 -0.2400 -0.7354
  511TMC3    C8 7653   2.294   3.287  15.530  0.3131  0.2487  0.0065
  511TMC3    O1 7654   2.513   2.926  15.115 -0.2808 -0.6261  0.0812
  511TMC3    O2 7655   2.304   3.407  15.548  0.1220 -0.4633 -0.2655
  512TMC3    C1 7656   1.378   2.540  13.271 -0.2872 -0.2228 -0.1005
  512TMC3    C2 7657   1.451   2.559  13.394  0.0733 -0.1136 -0.0577
  512TMC3    C3 7658   1.521   2.451  13.434 -0.3757 -0.0175 -0.3775
  512TMC3    C4 7659   1.408   2.439  13.182  0.4384 -0.1956 -1.1051
  512TMC3    C5 7660   1.481   2.334  13.237  0.2307  0.1205 -0.1504
  512TMC3    C6 7661   1.533   2.337  13.361 -0.2295 -0.3761  0.5687
  512TMC3     C 7662   1.272   2.627  13.243  0.4618  0.3952  0.8745
  512TMC3     O 7663   1.229   2.691  13.333  0.1224 -0.2240  0.6532
  512TMC3     H 7664   1.417   2.634  13.465  1.4830  0.9031 -0.4605
  512TMC3    H1 7665   1.350   2.427  13.091 -1.7177  0.7083  0.1303
  512TMC3    H2 7666   1.597   2.257  13.397  2.4804  1.1705 -0.7909
  512TMC3    C7 7667   1.480   2.217  13.154 -0.3800 -0.1334 -0.1384
  512TMC3    C8 7668   1.591   2.450  13.557 -0.0997  0.2527 -0.1493
  512TMC3    O1 7669   1.471   2.234  13.032 -0.0069 -0.2759  0.3959
  512TMC3    O2 7670   1.611   2.351  13.623 -0.4488  0.0190 -0.6648
  513MPD2     C 7671   3.044   2.787  13.272 -0.0486 -0.1723 -0.5511
  513MPD2    C1 7672   3.110   2.894  13.220  0.0519 -0.7081 -0.9681
  513MPD2    C2 7673   3.249   2.886  13.214  0.2260  0.1891 -0.4009
  513MPD2    C3 7674   3.316   2.764  13.244 -0.2193 -0.9193 -0.0379
  513MPD2    C4 7675   3.243   2.656  13.294  0.2532  0.3986 -0.3351
  513MPD2    C5 7676   3.105   2.666  13.304 -0.5695  0.2575  0.1245
  513MPD2     H 7677   3.307   2.973  13.187 -0.3111  0.1424 -1.7350
  513MPD2    H1 7678   3.287   2.560  13.319  0.9717  1.2161  1.5096
  513MPD2    H2 7679   2.936   2.796  13.276 -0.0602 -0.7000  0.5318
  513MPD2    H3 7680   3.052   2.584  13.352  3.0568 -1.3559  1.3899
  513MPD2     N 7681   3.449   2.765  13.226  0.2650  0.8382 -0.1030
  513MPD2    H5 7682   3.479   2.847  13.174 -0.0157  2.0992  1.7225
  513MPD2    N1 7683   3.047   3.013  13.173  0.2551  0.2569 -0.2944
  513MPD2    H7 7684   3.105   3.093  13.153  2.9834 -1.5275  0.5450
  514TMC3    C1 7685   2.901   3.170  13.088  0.0040  0.3641  0.3064
  514TMC3    C2 7686   2.854   3.168  12.960 -0.3323 -0.3641 -0.0652
  514TMC3    C3 7687   2.907   3.256  12.865 -0.2436 -0.2205  0.3131
  514TMC3    C4 7688   3.009   3.248  13.114  0.7572 -0.6204 -0.3416
  514TMC3    C5 7689   3.076   3.321  13.022 -0.1713 -0.2570  0.5668
  514TMC3    C6 7690   3.029   3.324  12.894  0.2939  0.2294 -0.8585
  514TMC3     C 7691   2.911   3.036  13.142 -0.1964  0.0265  0.2805
  514TMC3     O 7692   2.828   2.954  13.110  0.4001 -0.2948  0.2493
  514TMC3     H 7693   2.777   3.097  12.934 -1.3661  0.6605  0.2033
  514TMC3    H1 7694   3.036   3.264  13.218 -0.7473  1.8660 -0.3169
  514TMC3    H2 7695   3.071   3.384  12.814  0.0262 -0.0823 -1.2322
  514TMC3    C7 7696   3.212   3.324  13.044  0.6322 -0.5926 -0.1961
  514TMC3    C8 7697   2.843   3.261  12.739 -0.0969 -0.3569  0.2941
  514TMC3    O1 7698   3.250   3.267  13.148 -0.2048 -0.9713  0.0260
  514TMC3    O2 7699   2.745   3.191  12.732  0.0222  0.1109  0.4049
  515MPD2     C 7700   1.836   4.325  14.489 -0.2265 -0.0596 -0.5772
  515MPD2    C1 7701   1.790   4.242  14.588  0.0689 -0.3514 -0.1649
  515MPD2    C2 7702   1.843   4.261  14.715 -0.4827  0.3967 -0.0992
  515MPD2    C3 7703   1.921   4.371  14.749  0.4694  0.4045  0.3881
  515MPD2    C4 7704   1.969   4.451  14.644  0.2251 -0.4043  0.5810
  515MPD2    C5 7705   1.929   4.422  14.514  0.0489  0.4060 -0.2710
  515MPD2     H 7706   1.827   4.180  14.786 -0.3288  2.1053  1.9025
  515MPD2    H1 7707   2.042   4.528  14.668  1.8855 -2.3382  1.7551
  515MPD2    H2 7708   1.817   4.313  14.383  1.6526  0.9637 -1.0331
  515MPD2    H3 7709   1.962   4.485  14.432  2.4987  1.7990  1.8091
  515MPD2     N 7710   1.973   4.413  14.872  0.2308  0.0697  0.1862
  515MPD2    H5 7711   2.034   4.494  14.869 -0.1450  0.2839 -1.5103
  515MPD2    N1 7712   1.712   4.128  14.558 -0.0185  0.0260 -0.0893
  515MPD2    H7 7713   1.690   4.075  14.642 -1.7374  2.9126  1.2788
  516TMC3    C1 7714   1.545   3.997  14.457 -0.1893 -0.0250 -0.4730
  516TMC3    C2 7715   1.491   3.969  14.336 -0.4546  0.7185  0.4520
  516TMC3    C3 7716   1.356   3.990  14.328  0.3015 -0.1181  0.5773
  516TMC3    C4 7717   1.474   4.008  14.574 -0.1818 -1.6831  0.1441
  516TMC3    C5 7718   1.341   3.999  14.559 -0.0224 -0.6259  0.0444
  516TMC3    C6 7719   1.278   3.991  14.438 -0.1879 -0.2328  0.2293
  516TMC3     C 7720   1.654   4.088  14.440  0.1021  0.9460  0.6004
  516TMC3     O 7721   1.670   4.126  14.324 -0.2329 -0.0600  0.1174
  516TMC3     H 7722   1.556   3.957  14.251 -0.8565 -2.1238  0.5540
  516TMC3    H1 7723   1.514   4.026  14.673 -0.1984  0.1587 -0.1927
  516TMC3    H2 7724   1.171   4.004  14.429 -0.2495 -0.8241  0.1060
  516TMC3    C7 7725   1.267   3.975  14.677  0.6004  0.6401  0.0478
  516TMC3    C8 7726   1.304   4.086  14.234 -0.6894  0.1084 -0.8583
  516TMC3    O1 7727   1.305   4.034  14.777 -0.1089  0.7823  0.7898
  516TMC3    O2 7728   1.181   4.091  14.224 -1.0684  0.0621 -0.1861
  517MPD2     C 7729   2.168   1.313   0.619  0.4490 -0.2721  0.7294
  517MPD2    C1 7730   2.058   1.238   0.648  0.8281  0.5368  0.5219
  517MPD2    C2 7731   1.957   1.295   0.723  0.2327 -0.8165  0.2567
  517MPD2    C3 7732   1.967   1.427   0.766 -0.1777 -0.6665  0.2886
  517MPD2    C4 7733   2.069   1.499   0.718  0.1232 -0.2339  0.6014
  517MPD2    C5 7734   2.176   1.439   0.663 -0.1388 -0.2156  0.2414
  517MPD2     H 7735   1.864   1.243   0.742  0.1587 -0.6307  0.4026
  517MPD2    H1 7736   2.082   1.602   0.749  0.2601 -0.0313 -0.1293
  517MPD2    H2 7737   2.243   1.270   0.553  0.1097 -3.2219  2.2371
  517MPD2    H3 7738   2.261   1.499   0.632 -0.7935  0.5592 -0.0639
  517MPD2     N 7739   1.871   1.503   0.845 -0.2545 -0.5320  0.0354
  517MPD2    H5 7740   1.881   1.604   0.843 -1.2266 -0.4476 -0.6475
  517MPD2    N1 7741   2.062   1.104   0.591  0.0277 -0.6558  0.5078
  517MPD2    H7 7742   2.147   1.070   0.546  0.7057  0.4780  0.9542
  518TMC3    C1 7743   1.991   0.910   0.495 -0.7918  0.0196 -0.4315
  518TMC3    C2 7744   1.908   0.805   0.483 -0.3318 -0.4805 -0.6502
  518TMC3    C3 7745   1.938   0.712   0.385  0.5129 -0.0417  0.1102
  518TMC3    C4 7746   2.093   0.935   0.402 -0.1958  0.1639  0.4892
  518TMC3    C5 7747   2.124   0.830   0.316  0.2753  0.1257  0.1626
  518TMC3    C6 7748   2.051   0.716   0.313  0.5555 -0.4457  0.2939
  518TMC3     C 7749   1.956   1.014   0.591 -0.4686 -0.3596  0.4478
  518TMC3     O 7750   1.853   1.015   0.655  0.6462  0.0798  0.2455
  518TMC3     H 7751   1.828   0.805   0.556  0.3164 -0.8599  0.0505
  518TMC3    H1 7752   2.157   1.021   0.389 -1.5744  1.0711 -0.3418
  518TMC3    H2 7753   2.082   0.634   0.250 -2.6525 -1.0329 -0.5175
  518TMC3    C7 7754   2.228   0.853   0.208 -0.4506  0.0065 -0.2245
  518TMC3    C8 7755   1.853   0.601   0.357  0.0124 -0.0883 -0.2517
  518TMC3    O1 7756   2.296   0.950   0.221 -0.1618 -0.0319  0.1701
  518TMC3    O2 7757   1.910   0.503   0.307  0.1751  0.3295 -0.3936
  519MPD2     C 7758   3.028   4.496  14.568  0.9828  0.1470 -0.5977
  519MPD2    C1 7759   2.971   4.472  14.444  0.4015  0.0256  0.0098
  519MPD2    C2 7760   3.017   4.364  14.366  0.2738  1.0986 -0.1432
  519MPD2    C3 7761   3.129   4.291  14.411 -0.2122 -0.2273  0.2779
  519MPD2    C4 7762   3.186   4.320  14.530 -0.1629 -0.4977 -0.3130
  519MPD2    C5 7763   3.137   4.415  14.610  0.3801 -0.1285 -0.2097
  519MPD2     H 7764   2.968   4.348  14.271  0.0394 -0.5912  0.2657
  519MPD2    H1 7765   3.281   4.273  14.555 -1.2628 -2.5312  0.0491
  519MPD2    H2 7766   2.996   4.578  14.633 -1.6925 -2.3781  1.2546
  519MPD2    H3 7767   3.194   4.434  14.700 -0.1226 -0.8761  0.2670
  519MPD2     N 7768   3.190   4.182  14.329 -0.4637  0.2921  0.6556
  519MPD2    H5 7769   3.273   4.138  14.366  0.8411  1.8887 -0.4050
  519MPD2    N1 7770   2.852   4.544  14.406 -0.0006  0.0498  0.4318
  519MPD2    H7 7771   2.799   4.602  14.471  0.2700  1.0840 -0.2707
  520TMC3    C1 7772   3.182   4.005  14.166  0.3567 -0.6498  0.3968
  520TMC3    C2 7773   3.124   3.961  14.047  0.6387 -0.0556  0.0532
  520TMC3    C3 7774   3.166   3.849  13.984 -0.1745 -0.4045 -0.2811
  520TMC3    C4 7775   3.289   3.946  14.215  0.3602 -0.4013  0.2151
  520TMC3    C5 7776   3.322   3.830  14.154  1.0821 -0.8308 -0.1278
  520TMC3    C6 7777   3.268   3.777  14.033 -1.0417 -0.3764 -0.4584
  520TMC3     C 7778   3.129   4.124  14.222 -0.8826  0.7655  0.8991
  520TMC3     O 7779   3.027   4.159  14.162  0.1066  0.6216 -0.0798
  520TMC3     H 7780   3.062   4.033  13.995  0.5036  0.8698  1.4867
  520TMC3    H1 7781   3.321   3.965  14.316  1.6190 -1.2904 -0.0080
  520TMC3    H2 7782   3.320   3.705  13.971 -1.6406  0.1649 -1.5865
  520TMC3    C7 7783   3.421   3.745  14.231 -1.3362  0.7804  0.1322
  520TMC3    C8 7784   3.086   3.794  13.872  0.2505 -0.3739  0.2289
  520TMC3    O1 7785   3.478   3.806  14.325 -0.2000  0.5199  0.4582
  520TMC3    O2 7786   3.145   3.721  13.790 -0.0187 -0.4943 -0.2829
  521MPD2     C 7787   3.782   1.984   0.021 -0.1213 -0.7032 -0.6072
  521MPD2    C1 7788   3.808   2.101  17.711  0.0338  0.3055  0.4171
  521MPD2    C2 7789   3.937   2.129  17.676  0.4848 -0.3622 -0.1029
  521MPD2    C3 7790   4.039   2.039  17.701 -0.0452 -0.2899 -0.3458
  521MPD2    C4 7791   4.008   1.919   0.012 -0.3216 -0.3381  0.0911
  521MPD2    C5 7792   3.876   1.891   0.044  0.0244 -0.4963  0.4615
  521MPD2     H 7793   3.963   2.213  17.612 -0.0639  0.3599  0.6264
  521MPD2    H1 7794   4.085   1.844   0.023 -1.1190 -1.0942  0.5478
  521MPD2    H2 7795   3.681   1.955   0.049  0.4662 -1.1574  1.0182
  521MPD2    H3 7796   3.855   1.794   0.089 -0.3738 -1.2490 -1.3742
  521MPD2     N 7797   4.166   2.074  17.643 -0.2334  0.6316  0.3468
  521MPD2    H5 7798   4.174   2.155  17.582  0.8014  0.7360  0.6223
  521MPD2    N1 7799   3.688   2.181  17.680  0.4190 -0.3580 -0.0701
  521MPD2    H7 7800   3.598   2.140  17.701 -0.2078  2.0110  1.7935
  522TMC3    C1 7801   4.392   2.048  17.584  0.0809 -0.4140 -0.6371
  522TMC3    C2 7802   4.522   1.995  17.609 -0.5401  0.6463  0.5212
  522TMC3    C3 7803   4.629   2.040  17.535  0.2845  0.1710 -0.5945
  522TMC3    C4 7804   4.377   2.141  17.487  0.0492  0.2138 -0.3905
  522TMC3    C5 7805   4.482   2.191  17.420  0.3862  0.3593  0.3211
  522TMC3    C6 7806   4.610   2.140  17.441  0.2443  0.5570 -0.5304
  522TMC3     C 7807   4.278   2.003  17.665  0.3027  0.0197 -0.0987
  522TMC3     O 7808   4.303   1.913  17.741 -0.1331  0.2803  0.4123
  522TMC3     H 7809   4.542   1.917  17.682 -0.8796  0.6788  0.6493
  522TMC3    H1 7810   4.277   2.158  17.449  0.7766  0.8194 -2.0540
  522TMC3    H2 7811   4.697   2.189  17.400  0.0755  0.1109 -1.4148
  522TMC3    C7 7812   4.470   2.289  17.308 -0.6589  0.1460 -0.0419
  522TMC3    C8 7813   0.019   1.983  17.550 -0.4783  0.3045  0.3152
  522TMC3    O1 7814   4.572   2.328  17.261 -0.0054 -1.0378  0.3382
  522TMC3    O2 7815   0.051   1.922  17.649  0.2069  0.0886 -0.4151
  523MPD2     C 7816   1.544   2.478  10.259  0.6324 -0.0362 -0.0634
  523MPD2    C1 7817   1.451   2.373  10.240 -0.0372  0.1556 -0.3077
  523MPD2    C2 7818   1.432   2.339  10.103 -0.0658  0.1245 -0.6712
  523MPD2    C3 7819   1.477   2.418   9.999  0.3551  0.0305 -0.2938
  523MPD2    C4 7820   1.554   2.531  10.026  0.9158 -0.4835  0.3705
  523MPD2    C5 7821   1.580   2.558  10.156  0.3314 -0.6195  0.2003
  523MPD2     H 7822   1.380   2.247  10.079  0.7600 -1.0340  1.9559
  523MPD2    H1 7823   1.578   2.600   9.946  0.5093  1.4664  1.9475
  523MPD2    H2 7824   1.592   2.513  10.350  2.3222  1.1692 -1.4083
  523MPD2    H3 7825   1.644   2.640  10.186 -2.6262  1.1181  1.7193
  523MPD2     N 7826   1.445   2.388   9.862  0.2794 -0.0902 -0.7113
  523MPD2    H5 7827   1.481   2.454   9.794  0.4068  0.5451 -0.0243
  523MPD2    N1 7828   1.394   2.305  10.352  0.1482  0.3143  0.4992
  523MPD2    H7 7829   1.427   2.319  10.447 -0.0128 -3.0000  1.0316
  524TMC3    C1 7830   1.324   2.294   9.680  0.0164  0.0597 -0.2163
  524TMC3    C2 7831   1.265   2.178   9.627  0.3950  0.1968 -0.0859
  524TMC3    C3 7832   1.169   2.191   9.529 -0.4570 -0.1130  0.8033
  524TMC3    C4 7833   1.286   2.418   9.628  0.3947 -1.2093 -0.4347
  524TMC3    C5 7834   1.188   2.423   9.538 -0.3312  0.6844 -0.0882
  524TMC3    C6 7835   1.124   2.315   9.487  0.1806 -0.4058  0.4614
  524TMC3     C 7836   1.366   2.283   9.820 -0.1855  0.4651  0.9849
  524TMC3     O 7837   1.314   2.192   9.879 -0.2922  0.2659 -0.3345
  524TMC3     H 7838   1.286   2.085   9.677  0.2269 -0.3344 -0.9881
  524TMC3    H1 7839   1.326   2.510   9.668  0.8689 -2.5390  2.0730
  524TMC3    H2 7840   1.048   2.315   9.410  1.3433  0.0950 -0.6697
  524TMC3    C7 7841   1.148   2.558   9.488  0.5133 -0.1475  0.4856
  524TMC3    C8 7842   1.070   2.082   9.525  0.4606  0.9002 -0.4741
  524TMC3    O1 7843   1.218   2.655   9.510  0.2413  0.1969  0.5392
  524TMC3    O2 7844   0.959   2.110   9.475  0.0048 -0.1260 -0.4180
  525MPD2     C 7845   4.485   3.982  14.558 -0.6595  0.7458  0.1003
  525MPD2    C1 7846   4.609   3.959  14.623 -0.4004  0.3349  0.1398
  525MPD2    C2 7847   4.715   4.041  14.586  0.3577 -0.4487  0.2143
  525MPD2    C3 7848   4.696   4.142  14.492  0.1880 -0.2725 -0.4493
  525MPD2    C4 7849   4.575   4.154  14.428 -0.1584  0.6464  0.4338
  525MPD2    C5 7850   4.471   4.080  14.469 -0.4752 -0.3242  0.0180
  525MPD2     H 7851   0.073   4.037  14.636 -0.0522  1.6271  1.1711
  525MPD2    H1 7852   4.555   4.221  14.346  0.9926  1.7637  1.0737
  525MPD2    H2 7853   4.396   3.920  14.566 -1.1173  1.4572  0.4427
  525MPD2    H3 7854   4.378   4.088  14.415 -0.8963  1.7194  1.0423
  525MPD2     N 7855   0.041   4.253  14.477 -0.6296 -0.0580  0.2264
  525MPD2    H5 7856   0.018   4.330  14.415 -0.1135 -0.1081 -0.0300
  525MPD2    N1 7857   4.629   3.870  14.730 -0.4394  0.5618 -0.0313
  525MPD2    H7 7858   4.725   3.852  14.756 -0.5013  0.2291 -0.0416
  526TMC3    C1 7859   4.562   3.726  14.916 -0.0121  0.7808  0.1449
  526TMC3    C2 7860   4.471   3.712  15.023 -0.1949 -0.0804  0.5067
  526TMC3    C3 7861   4.510   3.630  15.124  0.2471  0.2352 -0.1661
  526TMC3    C4 7862   4.683   3.660  14.909  0.4145  0.2075  0.0472
  526TMC3    C5 7863   4.716   3.579  15.012 -0.1876  0.2401 -0.1156
  526TMC3    C6 7864   4.623   3.556  15.115 -0.0396  0.2481 -0.8252
  526TMC3     C 7865   4.534   3.831  14.820  0.0525 -0.7056 -0.6966
  526TMC3     O 7866   4.416   3.871  14.814 -0.3081 -0.2371  0.3183
  526TMC3     H 7867   4.377   3.765  15.024 -0.2345 -0.1546  0.7023
  526TMC3    H1 7868   0.008   3.680  14.823 -1.0758 -0.1510 -1.1037
  526TMC3    H2 7869   4.648   3.485  15.193 -1.7995 -0.5170 -0.9340
  526TMC3    C7 7870   0.108   3.526  15.011  0.5123 -0.5204  0.1470
  526TMC3    C8 7871   4.456   3.635  15.256 -0.2202  0.3842 -0.1665
  526TMC3    O1 7872   0.159   3.519  14.902  0.3814  0.7592 -0.0411
  526TMC3    O2 7873   4.521   3.588  15.348 -0.1757  0.3605  0.4424
  527MPD2     C 7874   2.679   1.306   1.855  0.1045  0.0303  0.2006
  527MPD2    C1 7875   2.663   1.382   1.739  0.1712  0.1501 -0.5806
  527MPD2    C2 7876   2.750   1.381   1.640 -0.2614  0.0274  0.7281
  527MPD2    C3 7877   2.871   1.310   1.652  0.6619  0.4433 -0.1384
  527MPD2    C4 7878   2.885   1.230   1.762 -0.0137  0.1208 -0.0744
  527MPD2    C5 7879   2.792   1.242   1.862  0.3199 -0.0590 -0.7082
  527MPD2     H 7880   2.732   1.436   1.548 -1.6766 -0.7309  0.5413
  527MPD2    H1 7881   2.975   1.173   1.783 -0.0849  0.8409  2.1119
  527MPD2    H2 7882   2.608   1.300   1.937 -0.8500  2.2772 -0.4376
  527MPD2    H3 7883   2.808   1.190   1.956  1.7742  1.6296 -0.0179
  527MPD2     N 7884   2.970   1.328   1.552  0.7272 -0.0344 -0.9764
  527MPD2    H5 7885   2.942   1.389   1.475 -0.1842  0.8005  0.0215
  527MPD2    N1 7886   2.546   1.448   1.712 -0.4049 -0.4986  0.0134
  527MPD2    H7 7887   2.540   1.504   1.628 -2.6359 -1.6614 -0.5914
  528TMC3    C1 7888   2.329   1.520   1.703  0.1185 -0.0078  0.5151
  528TMC3    C2 7889   2.352   1.579   1.575 -0.0164  0.2978  0.3422
  528TMC3    C3 7890   2.274   1.676   1.529 -0.0733 -0.6043  0.4944
  528TMC3    C4 7891   2.230   1.562   1.775 -0.2256  0.5910  0.2179
  528TMC3    C5 7892   2.155   1.669   1.729  0.4868  0.0183 -0.3380
  528TMC3    C6 7893   2.171   1.725   1.605 -0.9398 -0.1492 -0.6093
  528TMC3     C 7894   2.421   1.431   1.761 -0.1268 -0.2011 -0.3182
  528TMC3     O 7895   2.387   1.354   1.851  0.1970  0.0888  0.5507
  528TMC3     H 7896   2.426   1.537   1.508 -0.4781  0.1928 -0.1002
  528TMC3    H1 7897   2.208   1.517   1.871 -0.3697 -0.3840 -0.2641
  528TMC3    H2 7898   2.123   1.818   1.575  0.5287  0.8024  0.0149
  528TMC3    C7 7899   2.024   1.705   1.783  0.3831 -0.6595  0.0583
  528TMC3    C8 7900   2.333   1.763   1.426 -0.4049  0.5687 -0.1236
  528TMC3    O1 7901   1.946   1.747   1.697  0.0639  0.1594 -0.1648
  528TMC3    O2 7902   2.454   1.742   1.413 -0.7168  0.2093 -0.0260
  529MPD2     C 7903   0.009   0.249   1.140  0.8697  0.4984 -0.0231
  529MPD2    C1 7904   0.073   0.151   1.068 -0.1252 -0.5064  0.0277
  529MPD2    C2 7905   0.057   0.144   0.927  0.3445 -0.1304 -0.2241
  529MPD2    C3 7906   4.716   0.233   0.858  0.0327  0.4374  0.6466
  529MPD2    C4 7907   4.671   0.339   0.926 -0.2413  0.4560 -0.1371
  529MPD2    C5 7908   4.680   0.347   1.066 -0.4146  0.5284  0.5569
  529MPD2     H 7909   0.106   0.068   0.867  1.0110 -1.8149  2.4863
  529MPD2    H1 7910   4.611   0.412   0.873  0.4660 -0.0375 -1.6157
  529MPD2    H2 7911   0.022   0.266   1.246  2.8929 -0.5662 -0.1149
  529MPD2    H3 7912   4.628   0.427   1.117 -0.1076  2.6072 -2.3706
  529MPD2     N 7913   4.694   0.233   0.719 -0.2745  0.5973  0.4807
  529MPD2    H5 7914   4.653   0.314   0.674 -0.9722 -0.6597 -1.1213
  529MPD2    N1 7915   0.150   0.052   1.129 -0.2203 -0.9807 -0.0822
  529MPD2    H7 7916   0.200   4.730   1.065  0.9856  0.9820 -0.9745
  530TMC3    C1 7917   0.253   4.660   1.304 -0.0089 -1.1899 -0.1038
  530TMC3    C2 7918   0.308   4.668   1.429  0.5590  0.7182 -0.0699
  530TMC3    C3 7919   0.366   4.555   1.474 -0.6101 -0.5678  0.0152
  530TMC3    C4 7920   0.259   4.552   1.223 -0.6495 -0.2047 -0.3434
  530TMC3    C5 7921   0.321   4.439   1.268 -0.5212  0.2616 -0.5031
  530TMC3    C6 7922   0.378   4.442   1.389  1.0444 -0.0777  0.1098
  530TMC3     C 7923   0.165   0.032   1.267 -0.4670 -0.3933  0.1976
  530TMC3     O 7924   0.129   0.099   1.365  0.1937  0.1402 -0.2372
  530TMC3     H 7925   0.298   0.015   1.495  0.1842  1.9771 -1.7519
  530TMC3    H1 7926   0.208   4.548   1.127 -2.7989  0.1732  0.7785
  530TMC3    H2 7927   0.424   4.350   1.421  0.1021 -0.8708 -0.8313
  530TMC3    C7 7928   0.285   4.319   1.204 -0.3816  0.9034 -0.3965
  530TMC3    C8 7929   0.455   4.562   1.583  0.0656  0.0834  0.1821
  530TMC3    O1 7930   0.282   4.323   1.084  0.3597 -0.3913 -0.2339
  530TMC3    O2 7931   0.406   4.603   1.685  0.5678  0.0635 -0.0836
  531MPD2     C 7932   3.700   3.330  12.871  0.1699 -0.2692  0.5423
  531MPD2    C1 7933   3.633   3.239  12.950  1.2208  0.0503  0.2846
  531MPD2    C2 7934   3.504   3.260  12.988  0.2866  0.0849 -0.8264
  531MPD2    C3 7935   3.431   3.367  12.932 -0.1915  0.4022  0.5746
  531MPD2    C4 7936   3.491   3.449  12.841  0.0317 -0.5272  1.2192
  531MPD2    C5 7937   3.629   3.441  12.824 -0.3136 -0.0742  0.4913
  531MPD2     H 7938   3.455   3.205  13.068  0.1361 -1.7032 -2.1615
  531MPD2    H1 7939   3.436   3.526  12.788  3.1229  0.6990 -0.2274
  531MPD2    H2 7940   3.804   3.310  12.848  0.5877  0.5164  1.7432
  531MPD2    H3 7941   3.674   3.502  12.747 -1.0614  0.0754  0.1648
  531MPD2     N 7942   3.294   3.384  12.948 -0.2053 -0.2725 -0.3111
  531MPD2    H5 7943   3.254   3.456  12.888 -1.3933  0.0448  0.8545
  531MPD2    N1 7944   3.698   3.122  13.000  0.9339  0.1107  0.2107
  531MPD2    H7 7945   3.799   3.123  12.987  0.9712 -0.1232  0.4730
  532TMC3    C1 7946   3.727   2.908  13.099  0.5599 -0.9595  0.0914
  532TMC3    C2 7947   3.666   2.785  13.105 -0.8298 -0.1618 -0.2780
  532TMC3    C3 7948   3.672   2.709  13.220 -0.2147  0.5818  0.4188
  532TMC3    C4 7949   3.820   2.942  13.187 -0.1762 -0.1736  0.0759
  532TMC3    C5 7950   3.823   2.862  13.298  0.0601  0.0506  0.2419
  532TMC3    C6 7951   3.738   2.756  13.322 -0.2805  0.4540  0.0130
  532TMC3     C 7952   3.633   3.011  13.057  0.3922  0.1624  0.1708
  532TMC3     O 7953   3.515   2.989  13.073  0.2185  0.3042  0.3119
  532TMC3     H 7954   3.599   2.759  13.024  0.1093  3.3056 -2.1702
  532TMC3    H1 7955   3.877   3.035  13.184  0.3932 -0.5257  0.0276
  532TMC3    H2 7956   3.742   2.704  13.417  2.3249  0.7356  0.0522
  532TMC3    C7 7957   3.949   2.872  13.370 -0.1568 -0.5561 -0.2957
  532TMC3    C8 7958   3.540   2.664  13.266 -0.5628 -0.5007  0.1343
  532TMC3    O1 7959   4.015   2.975  13.360 -0.3884 -0.6053  0.0109
  532TMC3    O2 7960   3.516   2.556  13.320 -0.6120 -0.3536  0.0526
  533TMC3    C1 7961   0.237   4.374  14.507  1.1205 -0.0445  0.5570
  533TMC3    C2 7962   0.368   4.378  14.497  0.3656  0.8380  0.1008
  533TMC3    C3 7963   0.429   4.493  14.536 -0.7884  0.6549  0.2421
  533TMC3    C4 7964   0.161   4.477  14.568  0.3591 -0.4699  0.6694
  533TMC3    C5 7965   0.225   4.593  14.600  0.1200 -0.5978 -0.6580
  533TMC3    C6 7966   0.359   4.606  14.578 -0.0218 -0.3554  0.4307
  533TMC3     C 7967   0.175   4.245  14.506  0.3438  0.5529 -0.7375
  533TMC3     O 7968   0.237   4.147  14.539  0.3552 -0.2165  0.1370
  533TMC3     H 7969   0.427   4.294  14.460 -1.2523 -0.9777  1.6520
  533TMC3    H1 7970   0.068   4.463  14.622 -0.2711  1.6358  0.1144
  533TMC3    H2 7971   0.410   4.686  14.630  0.8810 -0.9210  0.4202
  533TMC3    C7 7972   0.189   4.628  14.734 -0.2229 -0.1487 -0.6974
  533TMC3    C8 7973   0.565   4.526  14.507  0.6367  0.2511  0.6031
  533TMC3    O1 7974   0.272   4.599  14.817  0.0325  0.2188 -0.3572
  533TMC3    O2 7975   0.585   4.646  14.484 -0.6050 -0.4946  0.1024
  534MPD2     C 7976   3.048   4.643   1.477 -0.2190  0.0104  0.4876
  534MPD2    C1 7977   2.987   0.011   1.542  0.3576 -0.2524  0.1513
  534MPD2    C2 7978   2.862   0.053   1.496  0.8960 -0.2415  0.4062
  534MPD2    C3 7979   2.805   0.001   1.380  0.1168  0.5996  0.8001
  534MPD2    C4 7980   2.870   4.643   1.309  0.2447 -0.2441  0.3590
  534MPD2    C5 7981   2.988   4.597   1.364 -0.3598  1.0032 -0.1107
  534MPD2     H 7982   2.812   0.130   1.552  1.0895 -1.0596  1.7019
  534MPD2    H1 7983   2.828   4.602   1.218 -1.1774  0.0307  0.9070
  534MPD2    H2 7984   3.131   4.587   1.518  0.4302  0.0889 -0.7323
  534MPD2    H3 7985   3.029   4.515   1.306 -1.0363 -0.6994  1.8196
  534MPD2     N 7986   2.675   0.043   1.330  0.1465  0.0726 -0.6313
  534MPD2    H5 7987   2.664   0.020   1.232  2.5664 -1.8100 -0.4624
  534MPD2    N1 7988   3.040   0.062   1.665  0.1262 -0.0133 -0.1862
  534MPD2    H7 7989   2.979   0.127   1.713  1.2266  0.9145 -0.0584
  535TMC3    C1 7990   2.469   0.142   1.318  0.1209 -0.0049 -0.1575
  535TMC3    C2 7991   2.357   0.168   1.388 -0.1471  0.2693 -0.0163
  535TMC3    C3 7992   2.251   0.224   1.325 -0.4207  0.6272 -0.3272
  535TMC3    C4 7993   2.487   0.195   1.194  0.0815 -0.3667 -0.5398
  535TMC3    C5 7994   2.382   0.262   1.140 -0.5083  0.0138 -0.0821
  535TMC3    C6 7995   2.262   0.269   1.197  0.4430 -0.0223  0.0895
  535TMC3     C 7996   2.586   0.123   1.400 -0.1295  0.1694 -0.8698
  535TMC3     O 7997   2.597   0.169   1.511  0.1891 -0.0846 -0.7889
  535TMC3     H 7998   2.345   0.133   1.490 -1.2463  1.1714  0.1681
  535TMC3    H1 7999   2.585   0.196   1.149 -0.5772 -0.9356 -1.9906
  535TMC3    H2 8000   2.182   0.332   1.161  0.8236 -0.8946 -2.2903
  535TMC3    C7 8001   2.409   0.322   1.016  0.2100  0.2915  0.5503
  535TMC3    C8 8002   2.121   0.217   1.389  0.2308  0.2401 -0.1590
  535TMC3    O1 8003   2.481   0.266   0.936  0.0429  0.2681 -0.0573
  535TMC3    O2 8004   2.034   0.202   1.308 -0.5659  0.0438  0.0469
  536MPD2     C 8005   1.459   3.464  16.320 -0.2857  0.5728 -0.0205
  536MPD2    C1 8006   1.326   3.449  16.333  0.1730 -0.3710  0.1383
  536MPD2    C2 8007   1.247   3.552  16.284 -0.1022 -0.3108  0.5008
  536MPD2    C3 8008   1.294   3.668  16.219  0.0123 -0.0089 -0.7012
  536MPD2    C4 8009   1.433   3.678  16.203 -0.2448 -0.0043  0.4784
  536MPD2    C5 8010   1.513   3.579  16.255  0.3978 -0.3323  0.1311
  536MPD2     H 8011   1.147   3.549  16.327 -0.6317  2.1906 -0.5498
  536MPD2    H1 8012   1.485   3.762  16.157  0.3078  0.5248  2.0827
  536MPD2    H2 8013   1.527   3.383  16.344 -0.3056  1.3863  2.7163
  536MPD2    H3 8014   1.618   3.586  16.229 -0.0368 -2.4569 -2.1487
  536MPD2     N 8015   1.210   3.765  16.159  0.6212  0.3791 -0.0380
  536MPD2    H5 8016   1.248   3.831  16.092  2.0765 -1.6292 -1.1714
  536MPD2    N1 8017   1.275   3.338  16.404  0.4493 -0.8356  0.4633
  536MPD2    H7 8018   1.337   3.284  16.463  0.2670  0.7235  2.0615
  537TMC3    C1 8019   1.119   3.204  16.526  0.6639 -0.1899  0.5197
  537TMC3    C2 8020   1.191   3.212  16.640 -0.0631 -0.6697  0.1679
  537TMC3    C3 8021   1.144   3.145  16.750  0.2616  0.1565  0.4160
  537TMC3    C4 8022   1.014   3.121  16.514  0.3449 -0.0990 -0.3721
  537TMC3    C5 8023   0.976   3.055  16.624  0.0037  0.5960 -0.0076
  537TMC3    C6 8024   1.041   3.054  16.745 -0.3591 -0.4208  0.0351
  537TMC3     C 8025   1.145   3.300  16.413  0.1060 -0.7552 -0.6222
  537TMC3     O 8026   1.049   3.347  16.346  0.2761  0.0798  0.3351
  537TMC3     H 8027   1.275   3.281  16.644 -0.2299 -0.5021  0.9176
  537TMC3    H1 8028   0.965   3.111  16.418 -0.1331 -0.1800 -0.1233
  537TMC3    H2 8029   1.005   3.002  16.833 -1.9913  0.5636 -0.0426
  537TMC3    C7 8030   0.896   2.937  16.594  0.4157  0.8575 -0.8065
  537TMC3    C8 8031   1.203   3.186  16.876 -0.3377  0.4912  0.5756
  537TMC3    O1 8032   0.834   2.935  16.488 -0.5128  0.7956 -0.3870
  537TMC3    O2 8033   1.268   3.290  16.872 -0.4917 -0.2559  0.5692
  538TMC3    C1 8034   2.011   2.242  11.378 -0.4203  0.0904 -0.1520
  538TMC3    C2 8035   2.045   2.153  11.290  1.0683  0.2649  0.0168
  538TMC3    C3 8036   2.064   2.185  11.161 -0.8678 -0.0337 -0.5181
  538TMC3    C4 8037   1.988   2.369  11.328 -0.3573 -0.7745 -0.6603
  538TMC3    C5 8038   2.019   2.401  11.200  0.4556 -0.0256 -0.7951
  538TMC3    C6 8039   2.054   2.311  11.107  0.4414 -0.4897 -0.0877
  538TMC3     C 8040   2.006   2.217  11.519 -0.2797  0.2496 -0.2263
  538TMC3     O 8041   1.974   2.312  11.592  0.5532  0.0562 -0.8187
  538TMC3     H 8042   2.073   2.051  11.316  1.4940  0.4468  0.2899
  538TMC3    H1 8043   1.975   2.442  11.408  1.6978 -1.1017 -0.0281
  538TMC3    H2 8044   2.064   2.352  11.007 -0.5905  0.1879  0.0807
  538TMC3    C7 8045   1.962   2.526  11.150 -0.2956 -0.1875  0.4230
  538TMC3    C8 8046   2.167   2.098  11.092 -0.0729 -0.7570 -0.9715
  538TMC3    O1 8047   1.916   2.526  11.037 -0.1791  0.4964  0.2553
  538TMC3    O2 8048   2.163   1.976  11.095 -0.5521 -0.3642 -0.2874
  539MPD2     C 8049   1.622   1.075  12.107  0.1509  0.6127  0.2088
  539MPD2    C1 8050   1.687   1.119  11.997 -0.1678 -0.4531  0.2968
  539MPD2    C2 8051   1.711   1.254  11.972 -0.2920  0.6008  0.1925
  539MPD2    C3 8052   1.668   1.354  12.067 -0.0687 -0.4433 -0.4636
  539MPD2    C4 8053   1.605   1.301  12.178 -0.0827  0.6195  0.2107
  539MPD2    C5 8054   1.581   1.169  12.197 -0.1790 -0.0618  0.0228
  539MPD2     H 8055   1.772   1.284  11.887 -0.9298  1.4052  0.0158
  539MPD2    H1 8056   1.573   1.369  12.256 -1.5059  1.4881 -1.1543
  539MPD2    H2 8057   1.594   0.972  12.121  0.5935  0.4580 -0.0387
  539MPD2    H3 8058   1.522   1.134  12.281 -1.4426  1.8489 -0.0760
  539MPD2     N 8059   1.684   1.492  12.072 -0.0295 -0.4388 -0.1879
  539MPD2    H5 8060   1.655   1.542  12.155  1.0504 -0.7157  0.3610
  539MPD2    N1 8061   1.740   1.021  11.905 -0.1506 -0.0805  0.0180
  539MPD2    H7 8062   1.755   1.055  11.811  2.0332  1.3901  0.9022
  540TMC3    C1 8063   1.747   1.712  12.007 -1.2212  0.3424 -0.0242
  540TMC3    C2 8064   1.717   1.793  11.903  0.1427  0.3155 -0.5062
  540TMC3    C3 8065   1.673   1.918  11.936 -0.0445  0.0181 -0.4742
  540TMC3    C4 8066   1.710   1.744  12.136 -0.4837  0.9806  0.5629
  540TMC3    C5 8067   1.647   1.865  12.167  0.4427  0.4025 -0.2238
  540TMC3    C6 8068   1.635   1.952  12.067 -0.6109  0.5727  0.5558
  540TMC3     C 8069   1.750   1.569  11.975  0.0465  0.3569 -0.5096
  540TMC3     O 8070   1.785   1.537  11.863 -0.0091 -0.7368  0.1074
  540TMC3     H 8071   1.740   1.765  11.800  0.6715  0.9798 -0.5665
  540TMC3    H1 8072   1.753   1.693  12.222  0.3993 -1.6771 -1.4542
  540TMC3    H2 8073   1.596   2.051  12.091 -3.0006 -0.4506  0.9203
  540TMC3    C7 8074   1.520   1.856  12.233  0.1956  0.2600 -0.2287
  540TMC3    C8 8075   1.604   1.997  11.832  0.1055  0.6317  0.0675
  540TMC3    O1 8076   1.442   1.949  12.217  0.0192  0.0165 -0.5764
  540TMC3    O2 8077   1.561   2.112  11.862  0.1839 -0.2425 -0.4961
  541MPD2     C 8078   4.705   2.714  13.539 -0.3843 -0.1274  0.9570
  541MPD2    C1 8079   0.039   2.661  13.430 -0.1129  0.4137  0.3820
  541MPD2    C2 8080   0.030   2.720  13.306 -0.5944 -0.2337 -0.5863
  541MPD2    C3 8081   4.686   2.834  13.293  0.1335  0.1443  0.6013
  541MPD2    C4 8082   4.619   2.881  13.404 -0.1493  0.7305 -0.6020
  541MPD2    C5 8083   4.632   2.827  13.526  0.5250 -0.2873  0.2466
  541MPD2     H 8084   0.083   2.669  13.227 -2.7702 -1.0166 -1.5499
  541MPD2    H1 8085   4.551   2.965  13.396  2.2797  2.8482  1.1837
  541MPD2    H2 8086   4.698   2.663  13.635 -2.3102  1.3599  1.6049
  541MPD2    H3 8087   4.574   2.869  13.608  2.0954  1.3750  0.5090
  541MPD2     N 8088   4.686   2.913  13.183  0.1776  0.4892 -0.0374
  541MPD2    H5 8089   4.639   3.002  13.197  0.5933  0.9139 -1.2683
  541MPD2    N1 8090   0.107   2.541  13.454 -0.0635 -0.2178 -0.0811
  541MPD2    H7 8091   0.095   2.515  13.551  0.0515 -0.2558 -0.0776
  542TMC3    C1 8092   4.723   2.977  12.966  0.5938 -1.2731 -0.4569
  542TMC3    C2 8093   0.048   2.946  12.848 -0.2613  0.3570 -0.0740
  542TMC3    C3 8094   0.059   3.049  12.753  0.6620 -0.1933  0.4478
  542TMC3    C4 8095   4.677   3.105  12.997 -0.1657 -0.1733 -0.1506
  542TMC3    C5 8096   4.678   3.201  12.899 -0.2080  0.0851 -0.2359
  542TMC3    C6 8097   4.734   3.172  12.778  0.1980 -0.3856  0.8241
  542TMC3     C 8098   4.726   2.874  13.064 -0.6866 -0.3554  0.0126
  542TMC3     O 8099   0.011   2.761  13.015 -0.1542  0.1327 -0.2750
  542TMC3     H 8100   0.093   2.849  12.827 -1.5689 -0.0016 -1.2558
  542TMC3    H1 8101   4.646   3.138  13.095 -0.2064 -1.5493  0.2963
  542TMC3    H2 8102   4.724   3.244  12.697  2.2911 -2.1793 -1.0438
  542TMC3    C7 8103   4.684   3.342  12.945  0.0054 -0.0568  1.0933
  542TMC3    C8 8104   0.134   3.025  12.628  0.5465  0.3665  0.5789
  542TMC3    O1 8105   4.668   3.358  13.065 -0.4399 -0.4234 -0.1153
  542TMC3    O2 8106   0.149   3.126  12.555 -0.6727 -0.1271 -0.6214
  543TMC3    C1 8107   4.708   4.017  17.514 -0.4471 -0.1589  0.0083
  543TMC3    C2 8108   4.660   3.924  17.604 -0.3520 -0.2796 -0.1778
  543TMC3    C3 8109   4.595   3.979  17.712 -0.0229  0.4074 -0.0195
  543TMC3    C4 8110   4.673   4.145  17.515  0.1653  0.9257  0.3385
  543TMC3    C5 8111   4.595   4.189  17.625 -0.6456 -0.8828 -0.8841
  543TMC3    C6 8112   4.558   4.107  17.727 -0.1585 -0.3306  0.1172
  543TMC3     C 8113   0.034   3.966  17.393  0.0949  0.5850 -0.6331
  543TMC3     O 8114   0.102   4.048  17.333  0.2989  0.0388 -0.1472
  543TMC3     H 8115   4.678   3.817  17.604 -1.6835 -0.5136 -0.1755
  543TMC3    H1 8116   4.703   4.205  17.429 -0.2674  1.3711  0.4972
  543TMC3    H2 8117   4.512   4.144   0.068  1.2459 -0.1709  0.7671
  543TMC3    C7 8118   4.540   4.324  17.642 -0.5938 -0.2683 -0.3667
  543TMC3    C8 8119   4.534   3.883   0.051  0.0876  0.6632  0.1221
  543TMC3    O1 8120   4.447   4.332  17.725  0.5542 -0.6374  0.2891
  543TMC3    O2 8121   4.614   3.802   0.092 -0.5071  0.0688  0.5004
  544MPD2     C 8122   4.119   3.640   0.247 -0.3862 -0.3451  0.1562
  544MPD2    C1 8123   4.249   3.595   0.229 -0.2174  1.0864 -0.4961
  544MPD2    C2 8124   4.349   3.679   0.181  0.0742  0.2062 -0.1323
  544MPD2    C3 8125   4.321   3.814   0.153 -0.0313 -0.3092  0.5610
  544MPD2    C4 8126   4.189   3.857   0.174 -0.1255  0.3322  0.5077
  544MPD2    C5 8127   4.090   3.769   0.223 -0.8905 -0.4250  0.6802
  544MPD2     H 8128   4.446   3.637   0.156 -1.7637 -2.1172 -3.4269
  544MPD2    H1 8129   4.154   3.960   0.163 -1.2437 -0.0632  0.3463
  544MPD2    H2 8130   4.042   3.576   0.289  0.5790 -0.5726  1.5810
  544MPD2    H3 8131   3.986   3.801   0.225 -0.4765  0.9376  0.1370
  544MPD2     N 8132   4.402   3.912   0.087  0.0292 -0.9256 -0.1326
  544MPD2    H5 8133   4.357   3.998   0.058  1.8444  0.1260  0.1641
  544MPD2    N1 8134   4.270   3.458   0.256  0.0005 -0.1137  0.2665
  544MPD2    H7 8135   4.188   3.407   0.287 -0.2250 -0.8063 -1.4841
  545TMC3    C1 8136   4.385   3.255   0.258  0.1907 -0.5956 -0.5704
  545TMC3    C2 8137   4.476   3.192   0.181 -0.1099  0.0200  0.3894
  545TMC3    C3 8138   4.442   3.057   0.157 -0.3746  0.2255  0.0431
  545TMC3    C4 8139   4.280   3.189   0.322  0.5691  0.1992  0.5975
  545TMC3    C5 8140   4.266   3.050   0.303  0.1487 -0.7472  0.2008
  545TMC3    C6 8141   4.348   2.982   0.225  0.0808 -0.1386  0.0020
  545TMC3     C 8142   4.396   3.400   0.257  0.6411  0.0765 -0.2674
  545TMC3     O 8143   4.513   3.442   0.239  0.2362  0.0681  0.5228
  545TMC3     H 8144   4.558   3.238   0.128  0.8286  0.0002  1.8133
  545TMC3    H1 8145   4.214   3.233   0.395 -1.3527 -0.4175 -0.7637
  545TMC3    H2 8146   4.342   2.874   0.228 -0.0991 -0.1010  0.8548
  545TMC3    C7 8147   4.172   2.986   0.389  0.0751  0.0344  0.3434
  545TMC3    C8 8148   4.519   2.988   0.056 -0.3120  0.0215  0.3342
  545TMC3    O1 8149   4.073   3.046   0.429  0.3942 -0.1051 -0.0733
  545TMC3    O2 8150   4.616   3.050   0.015 -0.2685  1.2849  0.5514
  546MPD2     C 8151   1.369   3.987   0.114  0.1673 -0.6098  0.7091
  546MPD2    C1 8152   1.399   4.018  17.727  0.0824  0.0552  0.5483
  546MPD2    C2 8153   1.441   4.145  17.698  0.7781  0.0774  0.3713
  546MPD2    C3 8154   1.466   4.245   0.047 -0.1011  0.1756 -0.1365
  546MPD2    C4 8155   1.444   4.210   0.183 -1.1646  0.8384 -0.2290
  546MPD2    C5 8156   1.387   4.084   0.205 -0.0381  0.3706 -0.4328
  546MPD2     H 8157   1.441   4.168  17.592  1.5400 -1.1683  0.1076
  546MPD2    H1 8158   1.482   4.272   0.264 -0.6846 -0.9766  0.9558
  546MPD2    H2 8159   1.335   3.890   0.149 -1.5391 -0.7532 -1.3106
  546MPD2    H3 8160   1.363   4.057   0.307  0.2729 -1.0634 -0.7396
  546MPD2     N 8161   1.497   4.380   0.016  1.0487 -0.0714  0.6354
  546MPD2    H5 8162   1.514   4.441   0.096  2.1753  1.5867 -0.8689
  546MPD2    N1 8163   1.390   3.909  17.640 -0.4340  0.1524  0.2046
  546MPD2    H7 8164   1.352   3.831  17.693 -0.1253 -0.2307 -0.1374
  547TMC3    C1 8165   1.372   3.802  17.423  0.2391 -0.0074 -0.4088
  547TMC3    C2 8166   1.354   3.831  17.292  0.3230 -0.2672 -0.0963
  547TMC3    C3 8167   1.305   3.735  17.209  0.0344  0.0518  0.6338
  547TMC3    C4 8168   1.340   3.682  17.482  0.0372 -0.6770  0.1639
  547TMC3    C5 8169   1.281   3.586  17.397 -0.3905  0.2043 -0.0102
  547TMC3    C6 8170   1.266   3.618  17.263  1.1802 -0.2240 -0.3922
  547TMC3     C 8171   1.424   3.908  17.506 -0.2003  0.2962  0.1086
  547TMC3     O 8172   1.486   3.997  17.443  0.4676  0.1188  0.2919
  547TMC3     H 8173   1.375   3.932  17.257  0.5033 -0.0745  0.5691
  547TMC3    H1 8174   1.350   3.657  17.587  1.3965  0.7029  0.3675
  547TMC3    H2 8175   1.222   3.543  17.198  2.6426 -0.6752 -0.8416
  547TMC3    C7 8176   1.210   3.471  17.455  0.0303  0.7218  0.4362
  547TMC3    C8 8177   1.201   3.783  17.119  0.1749  0.6555 -0.3660
  547TMC3    O1 8178   1.225   3.449  17.570  0.0798  0.4540 -0.0686
  547TMC3    O2 8179   1.131   3.877  17.160 -0.7940  0.3957 -0.1320
  548MPD2     C 8180   0.915   4.714  13.011 -0.9111 -0.5590  0.5399
  548MPD2    C1 8181   0.852   4.629  12.925 -0.6106 -0.1002  0.8184
  548MPD2    C2 8182   0.932   4.524  12.866 -0.0430  0.3090 -0.0830
  548MPD2    C3 8183   1.072   4.526  12.890 -0.8175 -1.1965 -0.5071
  548MPD2    C4 8184   1.127   4.599  12.990  0.0227 -0.2434  0.3782
  548MPD2    C5 8185   1.045   4.693  13.052 -0.0197 -0.0483 -1.1367
  548MPD2     H 8186   0.899   4.452  12.793  0.6205 -0.0449 -0.0310
  548MPD2    H1 8187   1.229   4.594  13.026 -0.0303 -1.5180  0.3489
  548MPD2    H2 8188   0.856   0.052  13.061 -3.1927 -1.5000 -0.6938
  548MPD2    H3 8189   1.086   0.008  13.137  0.5981 -2.2246 -0.0618
  548MPD2     N 8190   1.145   4.432  12.822  0.0494 -0.4671 -0.1652
  548MPD2    H5 8191   1.088   4.376  12.759 -1.4552  0.0436  0.7462
  548MPD2    N1 8192   0.715   4.649  12.900 -0.4180 -0.6043  0.4939
  548MPD2    H7 8193   0.676   4.737  12.931 -2.2433 -1.7743  1.5009
  549TMC3    C1 8194   0.500   4.605  12.837  0.2493  0.8522 -0.7889
  549TMC3    C2 8195   0.471   4.737  12.802 -0.0977  0.1774 -0.3912
  549TMC3    C3 8196   0.336   0.019  12.787  0.6907  0.1941  0.0284
  549TMC3    C4 8197   0.410   4.509  12.870  0.3421 -0.5780 -0.1825
  549TMC3    C5 8198   0.274   4.540  12.857  0.5855 -0.3490 -0.3431
  549TMC3    C6 8199   0.239   4.666  12.818  0.0815 -0.3299  0.6654
  549TMC3     C 8200   0.639   4.560  12.842  0.0347  0.6544 -1.1499
  549TMC3     O 8201   0.668   4.455  12.789 -0.0250 -0.3063  0.1137
  549TMC3     H 8202   0.540   0.067  12.752 -0.4865  0.1627 -0.9481
  549TMC3    H1 8203   0.440   4.407  12.890  0.4139 -0.6665 -0.7265
  549TMC3    H2 8204   0.136   4.698  12.820 -0.2155 -1.2062 -0.6697
  549TMC3    C7 8205   0.182   4.466  12.928  0.2009  0.0210 -0.2139
  549TMC3    C8 8206   0.292   0.150  12.745  0.3100  0.9983 -0.2942
  549TMC3    O1 8207   0.090   4.531  12.978 -0.3033  0.5591  0.1911
  549TMC3    O2 8208   0.176   0.172  12.704  0.2490 -0.0531 -0.3888
  550TMC3    C1 8209   4.116   2.944  12.372 -0.6863  0.6794 -1.2112
  550TMC3    C2 8210   4.187   2.982  12.487  0.4879  0.1632 -0.2785
  550TMC3    C3 8211   4.118   3.043  12.593 -0.5976 -0.7944 -0.0464
  550TMC3    C4 8212   3.986   2.959  12.360  0.5550  0.0774  0.1572
  550TMC3    C5 8213   3.925   3.013  12.471  0.2583  0.6721  0.3859
  550TMC3    C6 8214   3.988   3.058  12.587  0.2083  0.4480  0.2376
  550TMC3     C 8215   4.184   2.843  12.287 -0.2662  0.4633 -0.1812
  550TMC3     O 8216   4.237   2.753  12.350 -0.1078  0.2146  0.0324
  550TMC3     H 8217   4.294   2.968  12.480  0.3192 -0.4885 -1.7401
  550TMC3    H1 8218   3.936   2.910  12.277  2.7251 -1.6967 -0.0991
  550TMC3    H2 8219   3.940   3.074  12.683 -0.1856  3.5718 -0.4646
  550TMC3    C7 8220   3.824   3.103  12.438 -0.7685  0.2040  0.2434
  550TMC3    C8 8221   4.181   3.160  12.654  0.6080 -0.2110  0.7694
  550TMC3    O1 8222   3.738   3.074  12.355 -0.3819 -0.0781 -0.5894
  550TMC3    O2 8223   4.105   3.214  12.732 -0.1335 -0.5381 -0.3688
  551TMC3    C1 8224   1.688   0.381  13.682 -0.2926 -0.2754  0.1722
  551TMC3    C2 8225   1.796   0.302  13.643 -0.2963 -0.0745 -0.7419
  551TMC3    C3 8226   1.869   0.252  13.746 -0.9093  0.4577 -0.0647
  551TMC3    C4 8227   1.676   0.427  13.812  0.2094  0.4141 -0.1155
  551TMC3    C5 8228   1.763   0.374  13.909 -0.5854 -0.2612  0.4532
  551TMC3    C6 8229   1.867   0.291  13.874  0.0611  0.9401 -0.2503
  551TMC3     C 8230   1.587   0.423  13.594  0.1425 -0.4274 -0.8252
  551TMC3     O 8231   1.487   0.465  13.648 -0.0970  0.1657 -0.0749
  551TMC3     H 8232   1.802   0.243  13.552 -1.2011  0.7076 -1.3063
  551TMC3    H1 8233   1.599   0.497  13.844  1.8923  1.0063  2.5969
  551TMC3    H2 8234   1.934   0.250  13.949 -0.4834 -0.7051 -0.6681
  551TMC3    C7 8235   1.778   0.432  14.042  0.2916  0.6325  0.3257
  551TMC3    C8 8236   1.998   0.206  13.696  0.7148  0.4886  0.6837
  551TMC3    O1 8237   1.850   0.378  14.126 -0.8005  0.6042  0.7700
  551TMC3    O2 8238   2.071   0.163  13.785 -0.8237 -0.4135 -0.2929
  552MPD2     C 8239   4.149   2.814  14.000 -0.4882 -0.0578  0.6526
  552MPD2    C1 8240   4.100   2.731  14.093 -0.1314 -0.3301 -0.6755
  552MPD2    C2 8241   4.186   2.708  14.195  0.4157  0.3436 -0.9050
  552MPD2    C3 8242   4.312   2.760  14.209 -0.0391 -0.6586  1.1870
  552MPD2    C4 8243   4.355   2.842  14.113  0.0847  0.6417  0.4366
  552MPD2    C5 8244   4.270   2.870  14.011  0.3533 -0.5613 -0.4076
  552MPD2     H 8245   4.154   2.643  14.276 -0.5878 -0.7302 -2.1514
  552MPD2    H1 8246   4.447   2.900  14.112  0.3078  0.2620 -0.8190
  552MPD2    H2 8247   4.090   2.851  13.917 -0.4912 -2.7670 -0.5359
  552MPD2    H3 8248   4.294   2.943  13.935 -1.1128  0.5431  0.1748
  552MPD2     N 8249   4.393   2.759  14.319 -0.7974  0.1791  0.6226
  552MPD2    H5 8250   4.486   2.797  14.310 -1.7794  2.0530 -1.5103
  552MPD2    N1 8251   3.975   2.665  14.083 -0.0044 -0.2563 -0.5321
  552MPD2    H7 8252   3.955   2.584  14.140 -0.3155  0.6745  0.6953
  553TMC3    C1 8253   3.766   2.602  13.980  0.0153  0.6996 -0.6949
  553TMC3    C2 8254   3.708   2.600  13.858 -0.1038 -0.0684 -0.6416
  553TMC3    C3 8255   3.632   2.486  13.814 -0.5679 -0.2355  0.1439
  553TMC3    C4 8256   3.763   2.492  14.064  0.1318 -0.3140  0.4037
  553TMC3    C5 8257   3.694   2.384  14.020 -0.4985 -0.1262 -0.2484
  553TMC3    C6 8258   3.618   2.379  13.902  0.5949  0.7685  0.0268
  553TMC3     C 8259   3.872   2.701  13.990 -0.3630  0.3503 -0.5887
  553TMC3     O 8260   3.870   2.792  13.909  0.1204  0.3741 -0.6613
  553TMC3     H 8261   3.714   2.685  13.792 -2.6570  0.2439 -0.4542
  553TMC3    H1 8262   3.806   2.485  14.164 -0.7297 -2.2343  0.6563
  553TMC3    H2 8263   3.566   2.290  13.867  2.4249  0.3794 -1.6960
  553TMC3    C7 8264   3.689   2.267  14.105  0.2544  0.5081 -0.1613
  553TMC3    C8 8265   3.663   2.442  13.681 -0.2316  0.8958  0.4690
  553TMC3    O1 8266   3.577   2.222  14.107  0.2609 -0.3680  0.8235
  553TMC3    O2 8267   3.771   2.476  13.638 -0.1007  0.0768 -0.9658
  554TMC3    C1 8268   1.145   1.827  11.723 -0.1631  0.2318  0.1585
  554TMC3    C2 8269   1.089   1.793  11.604 -0.3654 -0.0533 -0.0511
  554TMC3    C3 8270   1.050   1.898  11.521  0.2958 -0.1761 -0.1088
  554TMC3    C4 8271   1.136   1.959  11.773 -0.1886  0.6705  0.1690
  554TMC3    C5 8272   1.086   2.053  11.684 -0.1290  0.2622 -0.3972
  554TMC3    C6 8273   1.049   2.029  11.557 -0.6533  0.0951 -0.8538
  554TMC3     C 8274   1.214   1.736  11.805 -0.0553 -0.0406 -0.6177
  554TMC3     O 8275   1.316   1.780  11.856  0.5064  0.3783 -0.6531
  554TMC3     H 8276   1.084   1.690  11.569 -0.3091  0.4046 -1.3865
  554TMC3    H1 8277   1.159   1.991  11.874  0.6125 -3.2853  1.2411
  554TMC3    H2 8278   1.002   2.101  11.492 -0.3588  1.1704  0.1343
  554TMC3    C7 8279   1.117   2.190  11.713 -0.1289  0.0852 -0.1776
  554TMC3    C8 8280   1.019   1.866  11.383 -0.3642 -0.7062 -0.8473
  554TMC3    O1 8281   1.146   2.224  11.830  0.0225 -0.2545 -0.7977
  554TMC3    O2 8282   1.027   1.956  11.295 -1.1682  0.5333 -0.0981
  555TMC3    C1 8283   0.047   1.375  15.386  0.0731  0.0194 -0.5122
  555TMC3    C2 8284   0.116   1.397  15.501 -0.9505  0.7384  0.1338
  555TMC3    C3 8285   0.156   1.287  15.574 -0.9041  0.6406  0.2670
  555TMC3    C4 8286   0.016   1.248  15.352  0.6136 -0.2173 -0.5051
  555TMC3    C5 8287   0.071   1.141  15.423 -0.2140 -0.6699  0.5141
  555TMC3    C6 8288   0.140   1.161  15.536  0.8921 -0.2588 -0.1103
  555TMC3     C 8289   0.022   1.490  15.296 -0.1727  0.0054  0.0898
  555TMC3     O 8290   0.090   1.593  15.321 -0.2664  0.6565  0.6725
  555TMC3     H 8291   0.138   1.497  15.536  1.7148  0.8062 -1.7458
  555TMC3    H1 8292   4.724   1.228  15.249 -0.9921  2.7994 -0.6095
  555TMC3    H2 8293   0.175   1.071  15.585  1.4555 -0.0546 -0.1406
  555TMC3    C7 8294   0.065   1.005  15.375 -0.5358 -0.1099 -0.0395
  555TMC3    C8 8295   0.251   1.320  15.676  0.2059  0.5009 -0.1042
  555TMC3    O1 8296   0.078   0.917  15.459 -0.0511  0.1410  0.4114
  555TMC3    O2 8297   0.320   1.420  15.655  0.1610 -0.1803  0.0973
  556MPD2     C 8298   3.119   3.178  10.875 -0.0531 -0.2455 -0.3481
  556MPD2    C1 8299   3.056   3.088  10.953 -0.2047  0.5179 -0.1135
  556MPD2    C2 8300   3.017   2.971  10.900  0.1025 -0.0372 -0.0958
  556MPD2    C3 8301   3.027   2.939  10.769  0.4547 -0.2215  0.2692
  556MPD2    C4 8302   3.093   3.026  10.688  0.1250  0.1005 -0.2603
  556MPD2    C5 8303   3.140   3.146  10.740 -0.3640  0.0432  0.5232
  556MPD2     H 8304   2.963   2.905  10.967  0.3048  0.0938  0.1966
  556MPD2    H1 8305   3.098   3.012  10.580  0.1888 -1.5089 -0.0471
  556MPD2    H2 8306   3.153   3.269  10.922  1.2923  0.4122 -2.6017
  556MPD2    H3 8307   3.184   3.218  10.671 -0.7012 -1.9168 -1.7602
  556MPD2     N 8308   2.962   2.823  10.720  0.2290  0.0810  0.1593
  556MPD2    H5 8309   2.928   2.755  10.787 -0.4883  4.2475  3.9944
  556MPD2    N1 8310   3.041   3.101  11.099 -0.5184  0.0216 -0.1207
  556MPD2    H7 8311   2.995   3.024  11.145  0.0228 -0.4676 -0.4005
  557TMC3    C1 8312   2.884   2.648  10.580  0.4148  0.1031  0.1342
  557TMC3    C2 8313   2.892   2.591  10.458 -0.0141 -0.0615 -0.8841
  557TMC3    C3 8314   2.851   2.462  10.442 -0.1732 -1.1553 -0.1241
  557TMC3    C4 8315   2.810   2.588  10.684 -0.8452 -0.1182  0.4726
  557TMC3    C5 8316   2.754   2.464  10.657  0.3250  0.3287  0.2876
  557TMC3    C6 8317   2.772   2.395  10.537 -0.2349  0.2541 -0.3915
  557TMC3     C 8318   2.939   2.785  10.589 -0.1624  0.1795  0.0933
  557TMC3     O 8319   2.980   2.841  10.489  0.1255 -0.1433  0.1687
  557TMC3     H 8320   2.948   2.636  10.377 -0.2378  0.3985 -0.7856
  557TMC3    H1 8321   2.777   2.632  10.777  0.3582 -0.1602  0.9185
  557TMC3    H2 8322   2.714   2.315  10.494  1.6103  0.1467 -2.6886
  557TMC3    C7 8323   2.645   2.417  10.750 -0.0364 -0.3228 -0.3210
  557TMC3    C8 8324   2.859   2.414  10.308 -0.2437 -0.0580 -0.1499
  557TMC3    O1 8325   2.590   2.494  10.830 -0.1632  0.4101 -0.0713
  557TMC3    O2 8326   2.870   2.490  10.218 -0.0742  0.2907 -0.1782
  558TMC3    C1 8327   0.027   1.169  10.568  0.1985  0.1542  0.2405
  558TMC3    C2 8328   4.706   1.085  10.658  1.0103 -0.3582  0.3237
  558TMC3    C3 8329   4.585   1.031  10.628  0.5385 -0.5389  0.6892
  558TMC3    C4 8330   4.719   1.183  10.442 -0.1474  0.2651  0.0051
  558TMC3    C5 8331   4.609   1.110  10.406  0.0349  0.1110 -0.1344
  558TMC3    C6 8332   4.533   1.043  10.499  0.1124 -0.3699 -0.6011
  558TMC3     C 8333   0.175   1.192  10.579 -0.1365  0.3516 -0.3250
  558TMC3     O 8334   0.239   1.205  10.475 -0.3126  0.3864  0.1710
  558TMC3     H 8335   0.020   1.069  10.752  3.1675 -1.3593 -1.0360
  558TMC3    H1 8336   0.040   1.235  10.367  2.0676 -1.9099  0.2447
  558TMC3    H2 8337   4.440   0.994  10.470 -1.8656  2.5352  0.8854
  558TMC3    C7 8338   4.543   1.154  10.278 -0.4514 -0.1994 -0.2286
  558TMC3    C8 8339   4.534   0.947  10.730  0.0602  0.1183 -0.2776
  558TMC3    O1 8340   4.592   1.255  10.232 -0.2654  0.2216 -0.2117
  558TMC3    O2 8341   4.599   0.945  10.836 -0.3202 -0.2505  0.2772
  559MPD2     C 8342   0.226   1.724  11.447 -0.2427  0.1399  1.1317
  559MPD2    C1 8343   0.195   1.614  11.369  0.3714 -0.1383 -0.3967
  559MPD2    C2 8344   0.277   1.504  11.373  1.2337 -0.5758 -0.2866
  559MPD2    C3 8345   0.386   1.497  11.459  0.3516 -0.0053  1.2156
  559MPD2    C4 8346   0.411   1.596  11.548  0.2204 -0.5250  1.1889
  559MPD2    C5 8347   0.331   1.707  11.538 -0.0498 -0.5258  0.3313
  559MPD2     H 8348   0.268   1.418  11.307 -0.1703 -1.4507  1.0401
  559MPD2    H1 8349   0.491   1.599  11.621  1.7891 -0.1878 -0.5585
  559MPD2    H2 8350   0.168   1.816  11.452  0.9908  0.8952  1.6424
  559MPD2    H3 8351   0.356   1.788  11.606 -1.3183  0.6370 -0.5753
  559MPD2     N 8352   0.459   1.374  11.466  0.0710 -0.1556 -0.2288
  559MPD2    H5 8353   0.418   1.302  11.408 -0.0643 -0.5594  0.3728
  559MPD2    N1 8354   0.074   1.619  11.292 -0.6393 -0.3445  0.3767
  559MPD2    H7 8355   0.014   1.700  11.301 -1.1573 -0.4463 -2.3352
  560TMC3    C1 8356   0.624   1.215  11.540  0.4731  0.3578  0.3804
  560TMC3    C2 8357   0.536   1.107  11.529 -0.1340  0.7457 -0.1407
  560TMC3    C3 8358   0.586   0.981  11.517  0.4813  0.2764  0.4895
  560TMC3    C4 8359   0.761   1.198  11.545  0.9533 -0.4189  0.0437
  560TMC3    C5 8360   0.808   1.071  11.547 -0.0018 -0.0331  0.2734
  560TMC3    C6 8361   0.726   0.957  11.526 -0.2530 -0.1089 -0.0236
  560TMC3     C 8362   0.574   1.352  11.537 -0.0495  0.7438 -0.1013
  560TMC3     O 8363   0.653   1.427  11.587  0.4594  0.4982  0.4457
  560TMC3     H 8364   0.432   1.134  11.516 -0.5146  0.3717  2.2250
  560TMC3    H1 8365   0.824   1.285  11.561 -0.2600  0.2512  1.0899
  560TMC3    H2 8366   0.773   0.860  11.534 -1.8082 -0.9789 -1.3932
  560TMC3    C7 8367   0.926   1.045  11.616  0.1065  0.2305 -0.4079
  560TMC3    C8 8368   0.504   0.887  11.446 -0.2745  0.4547  0.1729
  560TMC3    O1 8369   0.945   0.942  11.677  0.5700 -0.3893  0.0064
  560TMC3    O2 8370   0.386   0.889  11.457  0.0211  0.1524 -0.3041
  561TMC3    C1 8371   3.454   0.457  11.399 -0.6007 -0.6912 -0.5638
  561TMC3    C2 8372   3.395   0.358  11.478  0.2168  0.1240 -0.3314
  561TMC3    C3 8373   3.282   0.380  11.545  0.3412  0.1689  0.6053
  561TMC3    C4 8374   3.396   0.579  11.395  0.5584 -0.1235  0.6990
  561TMC3    C5 8375   3.279   0.592  11.464  0.0177  0.0983  0.4809
  561TMC3    C6 8376   3.221   0.502  11.548  0.4236  0.2745  0.5550
  561TMC3     C 8377   3.582   0.432  11.332 -0.0074  0.6251 -0.4810
  561TMC3     O 8378   3.616   0.317  11.304  0.9499  0.2473  0.1344
  561TMC3     H 8379   3.445   0.262  11.479 -1.7181 -0.8823 -0.3301
  561TMC3    H1 8380   3.430   0.650  11.321 -1.0340 -0.8917 -0.7641
  561TMC3    H2 8381   3.119   0.509  11.585 -0.4604 -0.0035 -1.8048
  561TMC3    C7 8382   3.202   0.709  11.425  0.3640  0.7331 -0.1388
  561TMC3    C8 8383   3.257   0.277  11.646 -0.2977  0.4287  0.3166
  561TMC3    O1 8384   3.085   0.708  11.466  0.1510 -1.0013 -0.0741
  561TMC3    O2 8385   3.278   0.161  11.626 -0.8960 -0.0983  0.7303
  562TMC3    C1 8386   0.054   1.199  16.273  0.1051 -0.3280 -0.0424
  562TMC3    C2 8387   0.058   1.326  16.229 -0.4581  0.0764  0.1199
  562TMC3    C3 8388   0.020   1.355  16.099 -0.3565  0.3953 -0.2440
  562TMC3    C4 8389   0.033   1.094  16.189 -0.3241 -0.3288 -0.0195
  562TMC3    C5 8390   0.010   1.121  16.061  0.3574 -0.2178  0.1026
  562TMC3    C6 8391   0.001   1.248  16.009 -0.3509  0.4231  0.0174
  562TMC3     C 8392   0.115   1.156  16.391 -0.1794  0.1973 -0.3302
  562TMC3     O 8393   0.083   1.045  16.428 -0.0014  0.1693 -0.1411
  562TMC3     H 8394   0.064   1.409  16.298 -1.5519  0.8685 -0.7441
  562TMC3    H1 8395   0.069   0.995  16.217 -0.8515 -0.7749 -0.9248
  562TMC3    H2 8396   4.707   1.271  15.908 -1.9526 -2.4491 -0.1326
  562TMC3    C7 8397   0.019   1.017  15.957 -0.0515 -0.1560  0.0413
  562TMC3    C8 8398   0.062   1.481  16.039  0.2680 -0.7515  0.0042
  562TMC3    O1 8399   0.055   1.056  15.847  0.1894 -0.1721  0.1042
  562TMC3    O2 8400   0.142   1.551  16.106  0.2475  0.0581 -0.6247
  563MPD2     C 8401   2.248   2.565  16.170  0.4506 -1.2653  0.1123
  563MPD2    C1 8402   2.271   2.543  16.301  0.9478  0.3767 -0.1458
  563MPD2    C2 8403   2.388   2.504  16.347  0.1248  0.3540  0.1200
  563MPD2    C3 8404   2.489   2.496  16.256 -0.2203  0.2405  0.1112
  563MPD2    C4 8405   2.477   2.549  16.129  0.7069 -0.1198  0.0378
  563MPD2    C5 8406   2.354   2.573  16.089 -0.4527 -0.3218  0.0201
  563MPD2     H 8407   2.395   2.471  16.450  2.8807 -0.6307 -0.3666
  563MPD2    H1 8408   2.559   2.536  16.059  0.0184 -2.0697 -0.4097
  563MPD2    H2 8409   2.152   2.572  16.120  0.6983  1.3813 -0.0024
  563MPD2    H3 8410   2.340   2.596  15.984  1.7661  0.6387 -0.0562
  563MPD2     N 8411   2.615   2.454  16.305  0.0165 -0.0420  0.4232
  563MPD2    H5 8412   2.614   2.403  16.393  0.0334 -0.8227 -0.0258
  563MPD2    N1 8413   2.160   2.533  16.393  0.0067  0.3579 -0.3128
  563MPD2    H7 8414   2.175   2.473  16.474  0.7465 -1.1752 -1.5742
  564TMC3    C1 8415   1.952   2.564  16.489  0.5274 -0.0256 -0.7385
  564TMC3    C2 8416   1.837   2.498  16.470 -0.4163 -0.0099 -0.8090
  564TMC3    C3 8417   1.801   2.409  16.564 -0.4580  0.1271 -0.1731
  564TMC3    C4 8418   2.023   2.554  16.610  0.5022 -0.6456 -0.3530
  564TMC3    C5 8419   1.978   2.464  16.706 -0.0173  0.0721 -0.2295
  564TMC3    C6 8420   1.861   2.397  16.684  0.1365  0.2151 -0.3169
  564TMC3     C 8421   2.034   2.585  16.375 -0.1025 -0.0133 -0.9819
  564TMC3     O 8422   1.984   2.637  16.279  0.4018  0.1429 -0.2199
  564TMC3     H 8423   1.787   2.498  16.374 -1.5172 -1.3679 -0.2276
  564TMC3    H1 8424   2.110   2.614  16.631  0.2967 -0.9000  1.2200
  564TMC3    H2 8425   1.841   2.323  16.761  1.3762 -0.0536 -0.2441
  564TMC3    C7 8426   2.089   2.376  16.750 -0.7271  0.0862  0.0386
  564TMC3    C8 8427   1.765   2.277  16.511 -0.9269 -0.1168 -0.1373
  564TMC3    O1 8428   2.192   2.427  16.797 -0.4993 -0.1196  0.0165
  564TMC3    O2 8429   1.798   2.182  16.580  0.3038  0.0896 -0.3442
  565TMC3    C1 8430   1.745   0.148  10.569  0.1829 -0.3087 -0.2841
  565TMC3    C2 8431   1.857   0.138  10.647  0.6317 -0.0624 -0.6415
  565TMC3    C3 8432   1.843   0.069  10.764 -0.2534  0.0167 -0.7433
  565TMC3    C4 8433   1.627   0.097  10.609 -0.1458 -0.5718  0.5146
  565TMC3    C5 8434   1.615   0.044  10.731 -1.1477  0.3528  0.4186
  565TMC3    C6 8435   1.719   0.028  10.811  0.6406  1.1063  0.6256
  565TMC3     C 8436   1.761   0.231  10.450  0.2603  0.9182 -0.1477
  565TMC3     O 8437   1.877   0.265  10.431 -0.5882  0.1434 -0.1832
  565TMC3     H 8438   1.957   0.174  10.622  0.3629  0.6451 -0.6848
  565TMC3    H1 8439   1.540   0.119  10.548  0.8954 -3.0876 -1.8581
  565TMC3    H2 8440   1.718   4.715  10.907  1.8651 -3.8356 -1.9467
  565TMC3    C7 8441   1.491   4.737  10.786  0.1224 -0.3327  0.4490
  565TMC3    C8 8442   1.965   0.025  10.835 -0.0761 -0.3730  0.3731
  565TMC3    O1 8443   1.496   4.673  10.893 -1.0477  0.0134 -0.5645
  565TMC3    O2 8444   1.949   4.715  10.944 -0.2308 -0.1625 -0.5075
  566MPD2     C 8445   4.464   0.412  14.422  0.0406  0.6145 -0.6673
  566MPD2    C1 8446   4.443   0.488  14.306 -0.4842 -0.1898  0.0928
  566MPD2    C2 8447   4.309   0.504  14.264  0.1038 -0.1266 -0.8260
  566MPD2    C3 8448   4.202   0.429  14.309 -0.3703 -0.5991  0.0446
  566MPD2    C4 8449   4.234   0.334  14.405 -0.4289  0.3352  0.1250
  566MPD2    C5 8450   4.363   0.321  14.458 -0.5739  0.6190 -0.0138
  566MPD2     H 8451   4.281   0.581  14.193 -0.7191  0.0275 -0.3421
  566MPD2    H1 8452   4.161   0.275  14.459 -0.2749 -0.8491 -0.9537
  566MPD2    H2 8453   4.557   0.393  14.472  0.7264 -0.5910 -2.3822
  566MPD2    H3 8454   4.387   0.253  14.539 -1.3567  0.1844 -0.1500
  566MPD2     N 8455   4.076   0.456  14.254 -0.7386 -0.6241  0.6467
  566MPD2    H5 8456   4.071   0.536  14.192  0.7303 -3.3429 -3.0023
  566MPD2    N1 8457   4.544   0.566  14.251  0.0005  0.2932 -0.5037
  566MPD2    H7 8458   4.627   0.575  14.309  0.9387 -0.9367 -1.6713
  567TMC3    C1 8459   4.637   0.727  14.114 -0.1577  0.4953 -0.5537
  567TMC3    C2 8460   4.633   0.791  13.987 -0.2917 -0.6477  0.1783
  567TMC3    C3 8461   4.718   0.887  13.955 -0.3138  0.8184  0.0557
  567TMC3    C4 8462   4.712   0.773  14.215 -0.6027 -0.5374 -0.6270
  567TMC3    C5 8463   0.056   0.878  14.181  0.2969 -0.4151  0.5055
  567TMC3    C6 8464   0.063   0.920  14.055 -0.2308  0.2749  0.4978
  567TMC3     C 8465   4.531   0.629  14.132 -0.8918 -0.4755 -0.0735
  567TMC3     O 8466   4.449   0.617  14.038 -0.0711  0.2671 -0.0698
  567TMC3     H 8467   4.557   0.770  13.913 -1.7816  0.3863  1.4063
  567TMC3    H1 8468   4.707   0.734  14.316 -0.1848 -1.2865 -0.8986
  567TMC3    H2 8469   0.139   0.991  14.023  0.5017  0.7065  3.2137
  567TMC3    C7 8470   0.089   0.985  14.277  0.4236 -0.2617  0.0629
  567TMC3    C8 8471   4.650   1.000  13.890  0.2464  0.3040 -0.9731
  567TMC3    O1 8472   0.144   1.086  14.236  0.0984  0.2874 -0.5488
  567TMC3    O2 8473   4.568   0.980  13.805 -0.4676  0.3471  0.4309
  568MPD2     C 8474   2.798   1.360  16.234 -0.3159  0.2722 -0.3459
  568MPD2    C1 8475   2.714   1.369  16.343  0.6827  0.0975 -0.5618
  568MPD2    C2 8476   2.577   1.391  16.321 -0.0516  0.0543 -0.2845
  568MPD2    C3 8477   2.531   1.405  16.190 -0.1107  0.4237  0.0631
  568MPD2    C4 8478   2.614   1.401  16.084  0.2375  0.0152  0.6669
  568MPD2    C5 8479   2.747   1.393  16.111 -0.2535 -0.3342 -0.8173
  568MPD2     H 8480   2.506   1.371  16.400  0.0602  0.6480 -0.0344
  568MPD2    H1 8481   2.582   1.433  15.986 -1.3533  1.8954  1.7920
  568MPD2    H2 8482   2.902   1.338  16.253  0.3748  1.0074 -3.2970
  568MPD2    H3 8483   2.812   1.399  16.024 -0.4327  0.4394 -0.9013
  568MPD2     N 8484   2.393   1.440  16.177  0.0828 -0.4592  0.0586
  568MPD2    H5 8485   2.353   1.447  16.270  0.0814 -0.3311  0.0492
  568MPD2    N1 8486   2.759   1.346  16.472 -0.3026 -0.3961  0.1545
  568MPD2    H7 8487   2.849   1.301  16.485 -0.0220 -0.3295 -1.5870
  569TMC3    C1 8488   2.180   1.495  16.096 -0.6416 -0.1127 -0.0367
  569TMC3    C2 8489   2.132   1.424  16.199  0.8670  0.2618  0.0237
  569TMC3    C3 8490   2.053   1.491  16.286 -0.2498 -0.1377  0.3286
  569TMC3    C4 8491   2.124   1.613  16.057  0.3212 -0.5152  0.3368
  569TMC3    C5 8492   2.022   1.666  16.142 -0.0706  0.1998  0.2374
  569TMC3    C6 8493   1.986   1.604  16.261 -0.1538  0.1464 -0.2744
  569TMC3     C 8494   2.317   1.469  16.063  0.2998  0.2307 -0.6322
  569TMC3     O 8495   2.350   1.484  15.943 -0.4777  0.4496 -0.1378
  569TMC3     H 8496   2.176   1.328  16.221  1.4349  0.3632 -0.6753
  569TMC3    H1 8497   2.163   1.661  15.968  1.2547 -1.1390  0.4089
  569TMC3    H2 8498   1.894   1.630  16.311 -1.2449 -1.3964 -1.4753
  569TMC3    C7 8499   1.943   1.781  16.093 -0.1291 -0.2100  0.1375
  569TMC3    C8 8500   2.065   1.448  16.423 -0.4438  0.1896 -0.7206
  569TMC3    O1 8501   1.933   1.796  15.974  0.6498 -0.1954 -0.0739
  569TMC3    O2 8502   2.107   1.337  16.446  0.9014 -0.7905 -0.5909
  570TMC3    C1 8503   1.062   0.142  16.442 -0.3745  0.4529 -0.7435
  570TMC3    C2 8504   1.125   0.181  16.325 -0.1383 -1.0896 -0.4541
  570TMC3    C3 8505   1.176   0.310  16.324  0.3929  0.1241  0.1657
  570TMC3    C4 8506   1.045   0.227  16.549 -0.0043  0.0588  0.2482
  570TMC3    C5 8507   1.088   0.356  16.543  0.2113  0.3150 -1.5221
  570TMC3    C6 8508   1.157   0.399  16.433  0.7259  0.2727  0.9549
  570TMC3     C 8509   1.025   0.000  16.459  0.6732  0.1200 -0.1825
  570TMC3     O 8510   1.027   4.670  16.358  0.2307 -0.6454  0.3622
  570TMC3     H 8511   1.151   0.102  16.255 -1.7942 -0.7001 -1.5297
  570TMC3    H1 8512   0.990   0.198  16.638  0.2699  1.5237  0.8960
  570TMC3    H2 8513   1.225   0.483  16.437  0.7910  0.2651  0.0838
  570TMC3    C7 8514   1.125   0.420  16.674 -0.9682  0.3163  0.0502
  570TMC3    C8 8515   1.266   0.347  16.221  0.2724  0.6486  1.0332
  570TMC3    O1 8516   1.125   0.342  16.766  0.1589  0.6657 -0.2656
  570TMC3    O2 8517   1.290   0.468  16.215 -0.5699  0.1912  0.3193
  571MPD2     C 8518   3.320   2.421   1.058 -0.4338 -0.3378  0.4332
  571MPD2    C1 8519   3.433   2.351   1.097  0.1510  0.0087 -0.0428
  571MPD2    C2 8520   3.555   2.407   1.075 -0.5302  0.2475  0.4663
  571MPD2    C3 8521   3.561   2.533   1.016 -0.4414  0.1389  0.6624
  571MPD2    C4 8522   3.451   2.593   0.976  0.0154 -0.1352  0.3163
  571MPD2    C5 8523   3.329   2.537   0.988 -0.3305 -0.1038 -0.3860
  571MPD2     H 8524   3.642   2.353   1.111 -0.3789  0.1191 -0.0825
  571MPD2    H1 8525   3.456   2.690   0.928  0.8548 -0.6621 -0.6651
  571MPD2    H2 8526   3.218   2.390   1.076  0.0251 -0.9793  1.8881
  571MPD2    H3 8527   3.236   2.580   0.951 -0.6045 -0.2965  0.0723
  571MPD2     N 8528   3.679   2.605   0.989 -0.4083 -0.8084 -0.2566
  571MPD2    H5 8529   3.654   2.699   0.960  0.8807 -0.2685  0.4209
  571MPD2    N1 8530   3.415   2.223   1.160  0.1134  0.0259  0.3786
  571MPD2    H7 8531   3.321   2.186   1.168  0.3926 -1.3133 -2.4542
  572TMC3    C1 8532   3.918   2.653   1.014 -0.3162 -0.0387  0.0992
  572TMC3    C2 8533   4.039   2.619   1.067  0.0815  0.2244 -0.1077
  572TMC3    C3 8534   4.144   2.704   1.043 -0.4354  0.9863 -0.4799
  572TMC3    C4 8535   3.908   2.763   0.935 -0.5475  0.1564  0.4440
  572TMC3    C5 8536   4.017   2.837   0.908  0.0855  0.4466  0.3590
  572TMC3    C6 8537   4.135   2.810   0.963 -0.0106  0.0739 -0.0992
  572TMC3     C 8538   3.813   2.552   1.016 -0.1721  0.1740 -0.0312
  572TMC3     O 8539   3.847   2.444   1.056 -0.1048  0.4913 -0.5739
  572TMC3     H 8540   4.061   2.514   1.083  1.8615  0.7914  1.0407
  572TMC3    H1 8541   3.810   2.793   0.900  0.7416  0.8716 -2.5365
  572TMC3    H2 8542   4.213   2.884   0.949  0.2651  0.3470  2.9760
  572TMC3    C7 8543   4.004   2.978   0.866 -0.2642 -0.4806 -0.4051
  572TMC3    C8 8544   4.276   2.674   1.094 -0.0492 -0.7928 -0.2941
  572TMC3    O1 8545   3.885   3.006   0.865 -0.4386 -0.0347  0.4718
  572TMC3    O2 8546   4.374   2.727   1.039  0.2837 -0.6163 -0.0737
  573MPD2     C 8547   0.430   2.300   1.109 -0.5396 -0.2214  0.2289
  573MPD2    C1 8548   0.369   2.416   1.068  0.3833 -0.5660 -0.5015
  573MPD2    C2 8549   0.238   2.404   1.028 -0.0380  0.0683  0.0200
  573MPD2    C3 8550   0.172   2.277   1.033 -0.2562 -0.7399 -0.7476
  573MPD2    C4 8551   0.230   2.167   1.095 -0.4685 -0.7940 -0.0755
  573MPD2    C5 8552   0.366   2.176   1.129  0.7474  0.6233  0.1441
  573MPD2     H 8553   0.172   2.484   0.996  1.8199  0.9287 -1.6781
  573MPD2    H1 8554   0.185   2.071   1.116 -0.7976 -0.0633  2.5193
  573MPD2    H2 8555   0.537   2.303   1.125 -0.7167 -2.0620  1.7763
  573MPD2    H3 8556   0.414   2.096   1.183  1.9253 -0.0272 -1.8812
  573MPD2     N 8557   0.031   2.247   1.015  0.0883  0.3709 -0.0112
  573MPD2    H5 8558   0.016   2.149   1.038 -0.4048 -0.2878 -3.0129
  573MPD2    N1 8559   0.428   2.537   1.063 -0.3150 -0.1418  0.4933
  573MPD2    H7 8560   0.522   2.540   1.100 -0.6050 -0.1754  1.2287
  574TMC3    C1 8561   4.545   2.282   0.950  0.2565  0.0693 -0.8425
  574TMC3    C2 8562   4.454   2.357   0.883 -0.6893 -0.0695  0.3753
  574TMC3    C3 8563   4.325   2.336   0.910 -0.1406  0.2916 -0.3019
  574TMC3    C4 8564   4.506   2.169   1.018  0.9164  0.8356  0.2283
  574TMC3    C5 8565   4.372   2.160   1.045  0.7809 -0.2327 -0.8400
  574TMC3    C6 8566   4.277   2.235   0.993 -0.0861  0.4318 -0.9821
  574TMC3     C 8567   4.686   2.326   0.938  0.2792 -0.6731  0.2941
  574TMC3     O 8568   4.708   2.426   0.871 -0.3947  0.1562  0.3550
  574TMC3     H 8569   4.504   2.433   0.824  0.7263 -1.4568 -0.2216
  574TMC3    H1 8570   4.571   2.098   1.068  0.0002  1.1057  1.8106
  574TMC3    H2 8571   4.171   2.213   1.002  0.0945  0.6720  1.7249
  574TMC3    C7 8572   4.337   2.033   1.103 -0.2739 -0.8412 -0.1601
  574TMC3    C8 8573   4.221   2.400   0.830 -0.2931 -0.2334  0.3419
  574TMC3    O1 8574   4.429   1.957   1.110  0.0034 -0.7103  0.1989
  574TMC3    O2 8575   4.107   2.373   0.859  0.4501  0.3867 -0.4967
  575TMC3    C1 8576   2.439   4.494  11.502 -0.0596  0.2292 -0.1877
  575TMC3    C2 8577   2.576   4.479  11.496 -0.0198  0.2533  1.0089
  575TMC3    C3 8578   2.637   4.488  11.372 -0.0305  0.1422  0.0880
  575TMC3    C4 8579   2.361   4.533  11.392  0.1625  0.6796  0.0853
  575TMC3    C5 8580   2.432   4.535  11.272  0.1484 -0.5491  0.1471
  575TMC3    C6 8581   2.566   4.515  11.261 -0.2346  0.7909 -0.6094
  575TMC3     C 8582   2.373   4.438  11.628 -0.1827  0.4700  0.0660
  575TMC3     O 8583   2.445   4.385  11.712 -0.3571 -0.2096  0.6933
  575TMC3     H 8584   2.623   4.441  11.586 -0.0631 -0.1271  0.8717
  575TMC3    H1 8585   2.262   4.576  11.403 -0.3813 -1.0791  2.1502
  575TMC3    H2 8586   2.623   4.537  11.171  0.4164 -4.9758 -1.5757
  575TMC3    C7 8587   2.351   4.588  11.161  0.2266  0.3228  0.4235
  575TMC3    C8 8588   2.777   4.471  11.373 -0.1157 -0.5081 -0.1323
  575TMC3    O1 8589   2.245   4.642  11.195 -0.0056 -0.1472  0.4770
  575TMC3    O2 8590   2.832   4.500  11.481 -0.5850  0.1616 -0.0444
  576MPD2     C 8591   2.986   0.695  12.840  0.3800  0.4389 -0.6631
  576MPD2    C1 8592   2.927   0.585  12.777 -0.5356 -0.3872  0.3194
  576MPD2    C2 8593   2.910   0.470  12.845  0.7688  0.3355  0.5754
  576MPD2    C3 8594   2.959   0.454  12.971 -0.1481  0.3422 -0.1022
  576MPD2    C4 8595   3.022   0.563  13.029  0.2960 -0.7792  0.4584
  576MPD2    C5 8596   3.030   0.682  12.970  0.0445 -0.3108 -0.3014
  576MPD2     H 8597   2.848   0.390  12.806  0.7867  0.6244 -0.0535
  576MPD2    H1 8598   3.073   0.548  13.124  0.6152 -1.3946  0.1910
  576MPD2    H2 8599   2.984   0.796  12.802 -0.9667  0.6564 -0.0103
  576MPD2    H3 8600   3.070   0.764  13.029 -1.5751  1.4418 -1.6453
  576MPD2     N 8601   2.947   0.323  13.020  0.1734  0.1956  0.2474
  576MPD2    H5 8602   2.908   0.258  12.953  3.0420  0.4327 -1.6522
  576MPD2    N1 8603   2.876   0.585  12.645 -0.2871 -0.5331  0.4362
  576MPD2    H7 8604   2.819   0.506  12.617  3.2299 -2.4829 -1.2859
  577TMC3    C1 8605   2.822   0.635  12.435 -0.2553 -0.1972  0.1729
  577TMC3    C2 8606   2.815   0.500  12.411 -0.2791 -0.7630 -0.5859
  577TMC3    C3 8607   2.762   0.461  12.293  0.5332  0.9933  0.1267
  577TMC3    C4 8608   2.771   0.733  12.359 -0.9940 -0.0831  0.1026
  577TMC3    C5 8609   2.712   0.686  12.243  0.2834  0.6754 -0.1562
  577TMC3    C6 8610   2.714   0.550  12.202 -0.0055  0.4070  0.7797
  577TMC3     C 8611   2.882   0.686  12.552 -0.3384 -0.0732 -0.3924
  577TMC3     O 8612   2.947   0.789  12.561  0.4946 -0.5483  0.2270
  577TMC3     H 8613   2.868   0.426  12.471  1.3280 -0.3327 -1.4765
  577TMC3    H1 8614   2.783   0.837  12.387 -0.4433 -1.3224  4.4661
  577TMC3    H2 8615   2.677   0.517  12.106  2.9795 -2.5946  0.6747
  577TMC3    C7 8616   2.687   0.785  12.139  0.1689 -0.1156  0.8971
  577TMC3    C8 8617   2.815   0.340  12.232  0.0742 -0.5188  0.2122
  577TMC3    O1 8618   2.739   0.896  12.140  0.4520 -0.0563 -0.3061
  577TMC3    O2 8619   2.791   0.232  12.286  0.1501  0.2760  0.0938
  578MPD2     C 8620   0.611   0.180   1.718 -0.1485  0.0956 -0.1386
  578MPD2    C1 8621   0.652   0.182   1.591  0.4314  0.2597  0.0065
  578MPD2    C2 8622   0.781   0.141   1.566  0.0409  0.0350  0.4320
  578MPD2    C3 8623   0.863   0.087   1.666 -0.1188  0.9337  0.4628
  578MPD2    C4 8624   0.813   0.074   1.795  0.0349  0.5896 -0.1692
  578MPD2    C5 8625   0.684   0.127   1.819 -0.4641 -0.8209  0.0957
  578MPD2     H 8626   0.819   0.150   1.465  1.0634  1.6300  0.9645
  578MPD2    H1 8627   0.858   0.027   1.881  1.5344  0.0026 -1.2912
  578MPD2    H2 8628   0.516   0.221   1.750 -0.4883 -0.0800 -0.9139
  578MPD2    H3 8629   0.638   0.122   1.917  1.1735  0.7740  0.9492
  578MPD2     N 8630   0.982   0.036   1.627 -0.1649 -0.2771  0.2147
  578MPD2    H5 8631   1.014   0.050   1.532 -0.1661  1.2400  0.4361
  578MPD2    N1 8632   0.563   0.227   1.490 -0.4078 -0.6168  0.3317
  578MPD2    H7 8633   0.473   0.268   1.515 -0.1931  0.7554 -1.1409
  579TMC3    C1 8634   1.212   4.728   1.649  0.3086 -0.2556 -0.0800
  579TMC3    C2 8635   1.316   0.055   1.703  0.0652  0.0404 -0.7871
  579TMC3    C3 8636   1.436   0.057   1.634 -0.2086  0.7516 -0.0869
  579TMC3    C4 8637   1.218   4.681   1.518  0.1128 -0.3903 -0.3577
  579TMC3    C5 8638   1.341   4.670   1.463  0.1679  0.8565  0.4765
  579TMC3    C6 8639   1.447   4.737   1.509  0.9639  0.5490  0.6496
  579TMC3     C 8640   1.088   0.007   1.716  0.3066  0.4182  0.1253
  579TMC3     O 8641   1.083   4.734   1.838 -0.7511  0.1671 -0.5220
  579TMC3     H 8642   1.300   0.092   1.804 -2.3974 -3.1821  0.0089
  579TMC3    H1 8643   1.145   4.602   1.503 -1.7735  1.1210  0.9757
  579TMC3    H2 8644   1.543   4.714   1.465  1.2505  0.0472  1.5380
  579TMC3    C7 8645   1.352   4.606   1.336 -0.9125  0.2106 -0.0418
  579TMC3    C8 8646   1.552   0.112   1.708 -0.0977  0.1001  0.2067
  579TMC3    O1 8647   1.467   4.573   1.310  0.1912 -0.6138 -1.3898
  579TMC3    O2 8648   1.521   0.149   1.822  0.7810 -0.1531 -0.0339
  580TMC3    C1 8649   0.019   4.306  12.228  0.3079 -0.2772 -0.2790
  580TMC3    C2 8650   0.061   4.431  12.263 -0.0904  0.0704 -1.0631
  580TMC3    C3 8651   0.133   4.450  12.382  0.3438 -0.9838  0.3405
  580TMC3    C4 8652   0.068   4.198  12.291  0.2047 -0.1402  0.0242
  580TMC3    C5 8653   0.144   4.219  12.405 -0.7646  0.0914 -0.0025
  580TMC3    C6 8654   0.186   4.339  12.447 -0.2206 -0.6442 -0.4108
  580TMC3     C 8655   4.658   4.298  12.120 -0.1068  0.3400 -0.4517
  580TMC3     O 8656   4.578   4.205  12.113  0.0005 -0.8759  0.2773
  580TMC3     H 8657   0.021   4.516  12.209  0.3070  1.7773  1.3239
  580TMC3    H1 8658   0.037   4.104  12.247 -3.1621  0.7190  0.5658
  580TMC3    H2 8659   0.261   4.361  12.523  0.0608 -0.8938 -0.6197
  580TMC3    C7 8660   0.209   4.114  12.473  0.4353 -0.5801  0.0714
  580TMC3    C8 8661   0.197   4.574  12.407  0.8327 -0.0729 -0.0310
  580TMC3    O1 8662   0.234   4.129  12.592 -0.5412  0.2675  0.5007
  580TMC3    O2 8663   0.202   4.615  12.522  0.3040 -0.4133  0.3324
  581MPD2     C 8664   3.360   3.544  15.155 -0.9592 -0.0526  1.2357
  581MPD2    C1 8665   3.236   3.581  15.185  0.0184  0.7428 -0.2367
  581MPD2    C2 8666   3.165   3.665  15.098 -0.2610  0.3126  0.3231
  581MPD2    C3 8667   3.219   3.716  14.986 -0.2764 -0.4816  0.0812
  581MPD2    C4 8668   3.349   3.689  14.958  0.2978 -0.6229 -0.0653
  581MPD2    C5 8669   3.416   3.601  15.039  0.7156  0.1590 -0.4398
  581MPD2     H 8670   3.061   3.686  15.121 -0.5073 -0.5918 -0.0056
  581MPD2    H1 8671   3.406   3.719  14.871 -0.0439 -0.9370 -0.3946
  581MPD2    H2 8672   3.416   3.470  15.212  0.5830  1.0432  1.1702
  581MPD2    H3 8673   3.519   3.572  15.021  0.1391 -0.6572 -2.5144
  581MPD2     N 8674   3.151   3.807  14.901 -0.0009  0.3288  0.1435
  581MPD2    H5 8675   3.061   3.839  14.935 -1.7140 -1.6700 -2.5159
  581MPD2    N1 8676   3.183   3.521  15.302  0.0596  0.3305  0.2555
  581MPD2    H7 8677   3.236   3.447  15.347 -0.8968  0.1971  1.1530
  582TMC3    C1 8678   3.047   3.481  15.490  0.4260 -0.0900 -0.3688
  582TMC3    C2 8679   3.131   3.516  15.595 -0.3882  0.3390  0.3956
  582TMC3    C3 8680   3.071   3.510  15.719  0.2123  0.1064 -0.0388
  582TMC3    C4 8681   2.913   3.466  15.507  0.2364 -0.8840  0.4624
  582TMC3    C5 8682   2.855   3.467  15.626 -0.7386 -0.1118  0.7095
  582TMC3    C6 8683   2.939   3.478  15.736 -0.5183  0.6723 -0.1707
  582TMC3     C 8684   3.073   3.561  15.367 -1.1157 -0.2015 -0.7400
  582TMC3     O 8685   2.978   3.630  15.339  0.2234  0.4405 -0.3015
  582TMC3     H 8686   3.229   3.558  15.576 -1.0098  1.2234 -0.8190
  582TMC3    H1 8687   2.855   3.434  15.421  0.6237 -0.3553  0.0102
  582TMC3    H2 8688   2.898   3.491  15.835 -0.1383  1.7673 -0.1492
  582TMC3    C7 8689   2.732   3.550  15.636  0.2860 -0.1615  0.1879
  582TMC3    C8 8690   3.132   3.590  15.828 -0.7385  0.1043  0.1514
  582TMC3    O1 8691   2.690   3.585  15.743  0.0465 -0.2819  0.0103
  582TMC3    O2 8692   3.051   3.635  15.909 -0.4754  0.2015  0.4081
  583MPD2     C 8693   3.585   0.765  16.975 -0.5215  0.2087 -0.3828
  583MPD2    C1 8694   3.580   0.898  16.927  0.2277 -0.1607 -0.6834
  583MPD2    C2 8695   3.553   1.005  17.022  0.0850  0.1015 -0.2317
  583MPD2    C3 8696   3.533   0.977  17.158 -0.3342 -0.3645  0.7184
  583MPD2    C4 8697   3.542   0.844  17.194  0.6433  0.7825  0.1515
  583MPD2    C5 8698   3.561   0.741  17.102 -0.4337 -0.2918 -0.5287
  583MPD2     H 8699   3.551   1.107  16.985 -0.1071  0.7131  1.4559
  583MPD2    H1 8700   3.549   0.819  17.299  5.4614  0.0921 -0.3392
  583MPD2    H2 8701   3.596   0.683  16.906 -0.4635  0.0703 -0.2085
  583MPD2    H3 8702   3.580   0.639  17.133  2.7017  0.3138 -0.4966
  583MPD2     N 8703   3.513   1.085  17.242 -0.8695 -0.9470  0.2724
  583MPD2    H5 8704   3.508   1.176  17.198 -1.8512 -1.2295 -0.2183
  583MPD2    N1 8705   3.613   0.932  16.792  0.8810  0.1060 -0.2877
  583MPD2    H7 8706   3.605   1.030  16.765 -1.7287 -0.0773 -0.1961
  584TMC3    C1 8707   3.498   1.207  17.437  0.0396  0.1892 -0.2576
  584TMC3    C2 8708   3.458   1.321  17.362  1.0237 -0.3521  0.0285
  584TMC3    C3 8709   3.411   1.425  17.431  0.3384 -0.3524 -0.5063
  584TMC3    C4 8710   3.473   1.198  17.573  0.0066  0.1374  0.1778
  584TMC3    C5 8711   3.410   1.301  17.633 -0.1696 -0.3426 -0.3869
  584TMC3    C6 8712   3.379   1.413  17.562 -0.0338  0.8548  0.2549
  584TMC3     C 8713   3.506   1.077  17.379 -0.4317 -0.4794 -0.3357
  584TMC3     O 8714   3.516   0.977  17.452  0.9441 -0.0584 -0.3930
  584TMC3     H 8715   3.484   1.334  17.257  2.6463 -2.1427  0.2107
  584TMC3    H1 8716   3.512   1.111  17.624 -0.6371 -0.5489 -0.4875
  584TMC3    H2 8717   3.345   1.496  17.623 -0.6522  1.0239 -0.3199
  584TMC3    C7 8718   3.349   1.258   0.011 -0.3172 -0.4606  0.5663
  584TMC3    C8 8719   3.364   1.530  17.352 -0.0403  0.7852  0.3690
  584TMC3    O1 8720   3.392   1.156   0.060  0.3330 -0.2670  0.1922
  584TMC3    O2 8721   3.341   1.511  17.234  0.2314 -0.0784 -0.2953
  585MPD2     C 8722   2.213   4.698   0.277 -0.0249  0.2020  0.2511
  585MPD2    C1 8723   2.312   0.010   0.194 -0.3907  0.0293 -0.0061
  585MPD2    C2 8724   2.356   4.668   0.093 -0.0966  0.6207 -0.1557
  585MPD2    C3 8725   2.316   4.535   0.088  0.9823  0.1060 -0.3057
  585MPD2    C4 8726   2.219   4.481   0.173  0.8167  0.3190 -0.5814
  585MPD2    C5 8727   2.165   4.568   0.266  0.3876  0.2525 -0.0113
  585MPD2     H 8728   2.423   4.706   0.017  2.3701 -1.4841  0.9691
  585MPD2    H1 8729   2.198   4.375   0.178 -0.0944  0.4731 -0.9991
  585MPD2    H2 8730   2.158   0.017   0.351  1.2634  0.9524  0.6302
  585MPD2    H3 8731   2.087   4.539   0.336  1.2131  0.2949  0.9344
  585MPD2     N 8732   2.380   4.447   0.003 -0.1448  0.0007  0.0418
  585MPD2    H5 8733   2.329   4.361  17.736 -2.5934  1.3058  0.6902
  585MPD2    N1 8734   2.352   0.138   0.204  0.2826 -0.2485  0.5807
  585MPD2    H7 8735   2.303   0.204   0.264 -0.9770 -0.2154 -0.4772
  586TMC3    C1 8736   2.530   4.390  17.572  0.2939  0.1870  0.0264
  586TMC3    C2 8737   2.652   4.404  17.511  0.2509  0.4006  0.1947
  586TMC3    C3 8738   2.684   4.328  17.400  0.3348  0.5533 -0.2122
  586TMC3    C4 8739   2.433   4.319  17.513 -0.4532 -0.5462 -0.1385
  586TMC3    C5 8740   2.464   4.244  17.402 -0.0995  0.5231  0.8923
  586TMC3    C6 8741   2.588   4.250  17.345  0.6323  0.1472  1.5858
  586TMC3     C 8742   2.503   4.467  17.688 -0.6937 -0.7343  0.2855
  586TMC3     O 8743   2.586   4.554  17.710  0.2838  0.1205 -0.0201
  586TMC3     H 8744   2.734   4.463  17.550 -0.3585  0.6241  1.1062
  586TMC3    H1 8745   2.338   4.297  17.560 -0.4433 -0.7427 -0.2071
  586TMC3    H2 8746   2.621   4.165  17.287 -1.6809  2.4938 -3.1764
  586TMC3    C7 8747   2.363   4.158  17.347  0.7717 -0.6000 -0.0670
  586TMC3    C8 8748   2.813   4.251  17.410  0.0063  0.3062 -0.4864
  586TMC3    O1 8749   2.259   4.156  17.410  0.0674 -0.1025 -0.2325
  586TMC3    O2 8750   2.840   4.222  17.526  0.0308 -0.0809 -0.9622
  587TMC3    C1 8751   4.652   3.132  16.115  0.7403 -0.3815  0.7433
  587TMC3    C2 8752   4.634   3.266  16.112  0.3231 -0.0037 -0.3093
  587TMC3    C3 8753   4.635   3.332  15.998 -0.5374  0.5558 -0.2284
  587TMC3    C4 8754   4.702   3.071  16.005 -0.0537 -0.2443 -0.0335
  587TMC3    C5 8755   4.687   3.140  15.884  0.6330 -0.0062  0.3560
  587TMC3    C6 8756   4.645   3.270  15.877 -0.0234  0.3642  0.1235
  587TMC3     C 8757   4.562   3.044  16.186 -0.7068 -0.1714 -0.7347
  587TMC3     O 8758   4.580   2.925  16.168  0.4020  0.3267 -0.5128
  587TMC3     H 8759   4.603   3.324  16.198  2.1326  0.0644  0.2976
  587TMC3    H1 8760   4.725   2.964  16.005  1.2131  0.0237 -0.3106
  587TMC3    H2 8761   4.637   3.323  15.783 -0.6031  1.3758  0.7333
  587TMC3    C7 8762   4.696   3.064  15.768  0.0435  0.3652 -0.6092
  587TMC3    C8 8763   4.576   3.462  16.013 -0.4491  0.0401  0.4708
  587TMC3    O1 8764   0.041   2.976  15.772 -0.1608 -0.5439  0.0845
  587TMC3    O2 8765   4.617   3.529  16.105  0.3689 -0.1881 -0.4096
  588TMC3    C1 8766   1.976   1.577  10.378 -0.4090 -0.1325 -0.7583
  588TMC3    C2 8767   1.950   1.447  10.378 -0.4254  0.0560  0.3271
  588TMC3    C3 8768   2.052   1.364  10.397 -0.4559  0.0645  0.1056
  588TMC3    C4 8769   2.099   1.632  10.391 -0.4000  0.4257  0.0718
  588TMC3    C5 8770   2.201   1.548  10.379  1.1138  0.3163 -0.4224
  588TMC3    C6 8771   2.181   1.408  10.391  0.3686 -0.1334  0.1133
  588TMC3     C 8772   1.865   1.667  10.381  1.1107  1.1015  0.0109
  588TMC3     O 8773   1.770   1.640  10.307  0.7206 -0.4691 -0.0115
  588TMC3     H 8774   1.849   1.407  10.377  0.6933 -2.7507 -2.8595
  588TMC3    H1 8775   2.113   1.737  10.366  0.0782  0.1833 -0.6807
  588TMC3    H2 8776   2.267   1.346  10.370 -1.0387 -1.5236 -1.5204
  588TMC3    C7 8777   2.327   1.615  10.370  0.1562 -0.4949  0.1036
  588TMC3    C8 8778   2.031   1.237  10.333 -0.7806 -0.6390 -0.0150
  588TMC3    O1 8779   2.408   1.570  10.295  0.7233  0.2084  0.1640
  588TMC3    O2 8780   1.936   1.231  10.257 -0.5920 -0.3097  0.6635
  589TMC3    C1 8781   1.170   2.937   1.046 -0.0847 -0.4236 -0.5605
  589TMC3    C2 8782   1.259   2.907   1.142 -0.2127 -0.3507 -0.7584
  589TMC3    C3 8783   1.317   2.785   1.144 -0.1016 -0.1917  0.0980
  589TMC3    C4 8784   1.124   2.843   0.961 -0.1503  0.2602 -0.2919
  589TMC3    C5 8785   1.181   2.722   0.968 -0.0145 -0.3768  0.1048
  589TMC3    C6 8786   1.283   2.690   1.056 -0.4265  0.2300  0.2170
  589TMC3     C 8787   1.101   3.064   1.063 -0.6990  0.2524  0.1628
  589TMC3     O 8788   1.005   3.070   0.987  0.3599  0.1466  0.4191
  589TMC3     H 8789   1.289   2.988   1.209 -0.2407 -1.9702  1.2123
  589TMC3    H1 8790   1.059   2.871   0.878 -0.5413 -2.3662 -0.8647
  589TMC3    H2 8791   1.328   2.592   1.051  0.2372  0.6045 -1.1868
  589TMC3    C7 8792   1.198   2.643   0.842  0.2375  0.2745  0.3333
  589TMC3    C8 8793   1.398   2.746   1.258 -0.6372 -0.0731  0.6454
  589TMC3    O1 8794   1.297   2.572   0.839  0.0143 -0.0138 -0.1850
  589TMC3    O2 8795   1.376   2.804   1.366  0.1995  0.3920  0.1592
  590MPD2     C 8796   0.943   1.717  16.864  0.5370  0.3943 -0.3162
  590MPD2    C1 8797   0.864   1.761  16.762  0.0600 -0.0007 -0.0166
  590MPD2    C2 8798   0.930   1.809  16.649  0.2341  0.1845  0.8893
  590MPD2    C3 8799   1.063   1.816  16.628 -0.1302  0.5467  0.1241
  590MPD2    C4 8800   1.144   1.769  16.730  0.4071  0.1459  0.6358
  590MPD2    C5 8801   1.081   1.720  16.846  0.0660  0.3288  0.0590
  590MPD2     H 8802   0.877   1.858  16.568 -0.5862 -1.8292  0.2127
  590MPD2    H1 8803   1.252   1.780  16.735  0.6898 -2.1502 -0.6558
  590MPD2    H2 8804   0.897   1.678  16.954  3.3364  0.8750  1.3121
  590MPD2    H3 8805   1.144   1.689  16.929  0.2760 -0.8832 -0.5444
  590MPD2     N 8806   1.106   1.875  16.506  0.4211 -0.7351 -0.0209
  590MPD2    H5 8807   1.041   1.933  16.453 -0.7556 -1.0584  1.0634
  590MPD2    N1 8808   0.725   1.756  16.777 -0.1853  0.1212 -0.8929
  590MPD2    H7 8809   0.682   1.734  16.866  1.4497  1.9598  0.3534
  591TMC3    C1 8810   1.263   1.963  16.344  0.5054 -0.2006  0.4095
  591TMC3    C2 8811   1.368   1.920  16.265  0.6130  0.5884 -0.0783
  591TMC3    C3 8812   1.392   1.991  16.145  0.6651  0.5771  0.5807
  591TMC3    C4 8813   1.188   2.074  16.308  0.0248  0.3736  0.1692
  591TMC3    C5 8814   1.224   2.138  16.196 -0.1929  0.4156 -0.2857
  591TMC3    C6 8815   1.326   2.105  16.107  0.0173 -0.2519 -0.0704
  591TMC3     C 8816   1.233   1.876  16.460  0.1322 -0.0541 -0.4190
  591TMC3     O 8817   1.337   1.821  16.504  0.3006  0.0206 -0.5127
  591TMC3     H 8818   1.427   1.835  16.295 -1.4063 -0.4311  1.0087
  591TMC3    H1 8819   1.101   2.105  16.366 -0.7044  0.4744 -0.9774
  591TMC3    H2 8820   1.340   2.157  16.013 -1.3868 -0.1769 -0.2501
  591TMC3    C7 8821   1.127   2.236  16.139 -0.1307 -0.0380  0.4267
  591TMC3    C8 8822   1.433   1.904  16.039 -0.2694 -0.3417  0.0200
  591TMC3    O1 8823   1.011   2.196  16.153  0.0514 -0.3668  0.1637
  591TMC3    O2 8824   1.470   1.794  16.074 -0.2839 -0.0333  0.2651
  592MPD2     C 8825   1.024   3.937  11.669  0.1556 -0.2677  0.1174
  592MPD2    C1 8826   1.014   3.967  11.802 -0.1069  0.4868 -0.4113
  592MPD2    C2 8827   0.943   3.886  11.887 -0.0128 -0.2857  0.5591
  592MPD2    C3 8828   0.902   3.765  11.843  0.1015 -0.0425  0.3878
  592MPD2    C4 8829   0.914   3.733  11.709 -0.1255  0.5686 -0.2468
  592MPD2    C5 8830   0.974   3.820  11.627 -0.5625  0.2636 -0.2165
  592MPD2     H 8831   0.915   3.920  11.986 -2.3501 -0.3544 -0.0822
  592MPD2    H1 8832   0.895   3.635  11.666  0.4275  0.5808 -0.5217
  592MPD2    H2 8833   1.078   3.999  11.598 -0.1601 -0.5782 -0.3904
  592MPD2    H3 8834   0.984   3.778  11.528  0.7926 -0.3871  0.1980
  592MPD2     N 8835   0.853   3.675  11.946  0.3370  0.4387  0.1080
  592MPD2    H5 8836   0.848   3.715  12.039 -1.8317 -0.2282  0.2962
  592MPD2    N1 8837   1.077   4.086  11.844 -0.1939  0.8142 -0.4156
  592MPD2    H7 8838   1.137   4.135  11.778  1.7987 -0.3730  0.5211
  593TMC3    C1 8839   1.152   4.251  11.997 -0.0828 -0.0056 -0.2065
  593TMC3    C2 8840   1.171   4.298  12.125 -0.6379  0.3854  0.4751
  593TMC3    C3 8841   1.207   4.429  12.137  0.2342  0.4024  0.1624
  593TMC3    C4 8842   1.164   4.344  11.897  0.0206  0.5812 -0.1326
  593TMC3    C5 8843   1.217   4.472  11.916 -0.7810  0.1821 -0.3280
  593TMC3    C6 8844   1.232   4.519  12.041 -0.0206  0.0390  0.5940
  593TMC3     C 8845   1.094   4.122  11.973  0.0945 -1.1248  0.6271
  593TMC3     O 8846   1.079   4.052  12.076  0.4366 -0.2656 -0.0326
  593TMC3     H 8847   1.163   4.234  12.212  2.6487  2.4926  2.3277
  593TMC3    H1 8848   1.149   4.313  11.794 -2.2786 -0.6791  0.6020
  593TMC3    H2 8849   1.256   4.623  12.061  1.7446 -0.2464 -0.0559
  593TMC3    C7 8850   1.219   4.575  11.813 -0.9743 -0.2792  0.1386
  593TMC3    C8 8851   1.224   4.472  12.278 -0.1421  1.2943 -0.0504
  593TMC3    O1 8852   1.257   4.686  11.841 -0.1928  0.0198  0.1848
  593TMC3    O2 8853   1.143   4.448  12.366 -0.1178  0.9021 -0.1715
  594MPD2     C 8854   0.201   2.989  14.287  0.0308  0.5371  0.5570
  594MPD2    C1 8855   0.212   2.945  14.418  0.3052  0.4269 -0.1684
  594MPD2    C2 8856   0.322   2.973  14.498  0.2967  0.5975  0.2936
  594MPD2    C3 8857   0.422   3.056  14.456  0.3611  0.2895 -1.1552
  594MPD2    C4 8858   0.424   3.097  14.321  0.2730 -0.1095  0.1670
  594MPD2    C5 8859   0.313   3.058  14.241 -0.0702  0.1715  0.0397
  594MPD2     H 8860   0.325   2.939  14.601  0.7618  3.4000  1.2098
  594MPD2    H1 8861   0.499   3.159  14.275 -0.2300  1.3191  1.2647
  594MPD2    H2 8862   0.130   2.966  14.209 -1.1404  0.7439  1.5683
  594MPD2    H3 8863   0.311   3.089  14.138  1.4325 -0.6879 -0.2577
  594MPD2     N 8864   0.518   3.093  14.550 -0.0700  0.0331  0.4094
  594MPD2    H5 8865   0.498   3.068  14.646  1.8574 -1.7829  0.3405
  594MPD2    N1 8866   0.106   2.861  14.450 -0.2702  0.2397  0.3049
  594MPD2    H7 8867   0.041   2.862  14.372 -0.7023  0.9582  0.6698
  595TMC3    C1 8868   0.945   3.132  14.744  0.3305 -0.4260 -0.8779
  595TMC3    C2 8869   0.861   3.113  14.638  0.6008  0.2376 -0.0342
  595TMC3    C3 8870   0.732   3.160  14.643  0.4200 -0.0175 -0.7788
  595TMC3    C4 8871   0.897   3.185  14.858  0.3509  0.5619 -0.5776
  595TMC3    C5 8872   0.767   3.228  14.861  0.5980  0.1278  0.0991
  595TMC3    C6 8873   0.676   3.206  14.759 -0.0953 -0.1278  0.5544
  595TMC3     C 8874   1.092   3.158  14.730  0.0909 -0.2899  0.6830
  595TMC3     O 8875   1.150   3.240  14.799 -0.1863 -0.1338  0.2496
  595TMC3     H 8876   0.904   3.087  14.542 -2.1834  0.7126 -1.4365
  595TMC3    H1 8877   0.961   3.198  14.944 -0.3545 -0.2161  0.0732
  595TMC3    H2 8878   0.571   3.232  14.770 -0.1395 -0.7828  1.6311
  595TMC3    C7 8879   0.723   3.286  14.997 -0.6748 -0.5801  0.3095
  595TMC3    C8 8880   0.646   3.140  14.526 -0.3586 -0.0678 -0.8545
  595TMC3    O1 8881   0.804   3.293  15.092  0.4301 -0.1099  0.1916
  595TMC3    O2 8882   0.707   3.128  14.421  0.1493  0.0549  0.6435
  596MPD2     C 8883   4.302   0.858  16.915 -0.3499  0.5676 -0.1383
  596MPD2    C1 8884   4.299   0.974  16.850  0.0011 -0.0484  0.0640
  596MPD2    C2 8885   4.330   0.972  16.717  0.3400 -0.3575  0.3037
  596MPD2    C3 8886   4.367   0.862  16.643 -0.2443 -0.7885 -0.1129
  596MPD2    C4 8887   4.369   0.746  16.710 -0.3519 -0.2864 -0.4179
  596MPD2    C5 8888   4.334   0.745  16.842 -0.1799 -0.1396  0.4090
  596MPD2     H 8889   4.326   1.067  16.665 -2.0028 -0.8518 -0.4074
  596MPD2    H1 8890   4.386   0.657  16.650  0.1099  0.1552 -0.9330
  596MPD2    H2 8891   4.259   0.854  17.014 -0.2705  1.5434 -0.0690
  596MPD2    H3 8892   4.321   0.650  16.892  3.3676 -0.0599  1.4882
  596MPD2     N 8893   4.382   0.848  16.508  0.0090  0.3968  0.2093
  596MPD2    H5 8894   4.415   0.759  16.471 -1.7285  0.8684 -2.5289
  596MPD2    N1 8895   4.260   1.100  16.908 -0.3458  0.2141 -0.5036
  596MPD2    H7 8896   4.265   1.185  16.853 -0.4371 -0.9255 -2.2553
  597TMC3    C1 8897   4.216   1.264  17.077  0.6043  0.4347 -0.2662
  597TMC3    C2 8898   4.258   1.363  16.993  0.3723  0.4319  0.9269
  597TMC3    C3 8899   4.248   1.492  17.037  0.5660  0.1681 -0.1971
  597TMC3    C4 8900   4.149   1.289  17.195 -0.3112 -0.2174 -0.1577
  597TMC3    C5 8901   4.125   1.418  17.227 -0.5587  0.3333  0.2860
  597TMC3    C6 8902   4.176   1.525  17.152  0.2349  0.3272  0.4120
  597TMC3     C 8903   4.220   1.121  17.037 -0.0302  0.2554  0.1392
  597TMC3     O 8904   4.177   1.046  17.124  0.2142 -0.5835 -0.1707
  597TMC3     H 8905   4.316   1.344  16.904 -1.2942  1.2254 -0.3241
  597TMC3    H1 8906   4.100   1.210  17.251 -0.6916 -0.9331 -1.5153
  597TMC3    H2 8907   4.157   1.626  17.186 -0.4662  0.2911  0.1355
  597TMC3    C7 8908   4.052   1.448  17.347  0.3023 -0.5242 -0.0379
  597TMC3    C8 8909   4.294   1.597  16.945 -0.4792  0.6527 -1.1372
  597TMC3    O1 8910   4.055   1.361  17.434 -0.3567 -0.1910  0.0833
  597TMC3    O2 8911   4.328   1.570  16.828  0.4901  0.0206 -0.7254
  598TMC3    C1 8912   2.108   2.093  15.483 -0.1419  0.5054 -0.3386
  598TMC3    C2 8913   2.029   1.988  15.453  0.2977  0.4834 -0.2241
  598TMC3    C3 8914   1.926   2.017  15.371  0.4429  0.3494 -0.1327
  598TMC3    C4 8915   2.089   2.224  15.451 -0.5435  0.3724 -0.6811
  598TMC3    C5 8916   1.976   2.254  15.380  0.0655 -0.3608  0.3720
  598TMC3    C6 8917   1.903   2.147  15.334  0.3638  0.1048  0.0208
  598TMC3     C 8918   2.249   2.071  15.510  0.4789 -0.4936  0.3046
  598TMC3     O 8919   2.324   2.152  15.456  0.5727 -0.1452  0.5754
  598TMC3     H 8920   2.056   1.885  15.470 -0.0951  0.1742 -1.4625
  598TMC3    H1 8921   2.163   2.292  15.491  1.3121 -0.6262 -2.4352
  598TMC3    H2 8922   1.822   2.186  15.273  0.9083 -1.0640 -1.4776
  598TMC3    C7 8923   1.999   2.348  15.282 -0.0856 -0.4329  0.3783
  598TMC3    C8 8924   1.853   1.904  15.326  0.1040 -0.7082 -0.4286
  598TMC3    O1 8925   1.958   2.322  15.167 -0.0833 -0.4685 -0.2921
  598TMC3    O2 8926   1.841   1.803  15.395 -0.0405  0.0032  0.0609
  599MPD2     C 8927   2.175   4.437  15.853 -0.5774 -0.1552 -0.5355
  599MPD2    C1 8928   2.154   4.313  15.902 -0.0744 -0.0834  0.0086
  599MPD2    C2 8929   2.054   4.300  16.000 -0.2875 -0.2987  0.8395
  599MPD2    C3 8930   1.987   4.410  16.052  0.2920  0.0143  0.0748
  599MPD2    C4 8931   2.009   4.536  16.002 -0.0205 -0.5008  0.1056
  599MPD2    C5 8932   2.108   4.545  15.908  0.1678 -0.6655 -0.4108
  599MPD2     H 8933   2.044   4.200  16.039 -2.8739 -0.3449  0.0228
  599MPD2    H1 8934   1.956   4.619  16.047 -2.1212 -0.8793 -1.6525
  599MPD2    H2 8935   2.256   4.453  15.782  0.4953 -0.7126  0.5542
  599MPD2    H3 8936   2.137   4.646  15.879 -0.7134 -0.1100  0.6184
  599MPD2     N 8937   1.902   4.405  16.162  0.0628  0.7215 -0.3602
  599MPD2    H5 8938   1.878   4.495  16.202  2.1704  1.0660  0.1563
  599MPD2    N1 8939   2.222   4.201  15.846  0.1499  0.6369 -0.0032
  599MPD2    H7 8940   2.308   4.228  15.800 -0.2428  1.5126 -0.2145
  600TMC3    C1 8941   1.795   4.321  16.352  0.1133  0.0766  0.8964
  600TMC3    C2 8942   1.694   4.231  16.385 -0.8341 -0.4812 -0.1744
  600TMC3    C3 8943   1.642   4.253  16.511  0.3295 -0.7987 -0.3265
  600TMC3    C4 8944   1.847   4.410  16.441  0.6844 -0.1887 -0.2560
  600TMC3    C5 8945   1.800   4.408  16.571  0.4885 -0.0958 -0.3403
  600TMC3    C6 8946   1.701   4.329  16.612 -0.0282 -0.9353 -0.2538
  600TMC3     C 8947   1.855   4.288  16.224 -0.2932  0.2712 -0.0273
  600TMC3     O 8948   1.861   4.171  16.197 -0.2049  0.1027  0.3794
  600TMC3     H 8949   1.656   4.156  16.316 -3.2182  0.2228  0.3657
  600TMC3    H1 8950   1.927   4.472  16.402  1.0957 -0.6824 -0.1906
  600TMC3    H2 8951   1.664   4.333  16.714  1.8630  1.8300  0.3359
  600TMC3    C7 8952   1.849   4.510  16.663 -0.3987 -0.2591  0.2120
  600TMC3    C8 8953   1.510   4.197  16.538 -0.0803  0.3517  0.3078
  600TMC3    O1 8954   1.807   4.507  16.777 -0.1046 -0.0935 -0.3898
  600TMC3    O2 8955   1.473   4.203  16.655  1.4582  0.4327 -0.0178
  601MPD2     C 8956   4.098   3.410   0.601 -0.4016 -0.0932 -0.1237
  601MPD2    C1 8957   3.982   3.349   0.638  0.0714 -0.7752 -0.9929
  601MPD2    C2 8958   3.983   3.236   0.716  0.4873 -0.1680 -0.0419
  601MPD2    C3 8959   4.102   3.162   0.732  0.1492  0.1711  0.3062
  601MPD2    C4 8960   4.217   3.221   0.681 -0.8448 -0.3189  0.2179
  601MPD2    C5 8961   4.213   3.348   0.630  0.4262 -0.1172 -1.1435
  601MPD2     H 8962   3.889   3.198   0.754  0.4704  0.2022  0.2924
  601MPD2    H1 8963   4.314   3.175   0.698 -1.2948 -0.1406  3.4007
  601MPD2    H2 8964   4.096   3.507   0.553 -1.6772 -0.1221 -0.1251
  601MPD2    H3 8965   4.307   3.393   0.598  0.3368  1.3417  0.6232
  601MPD2     N 8966   4.112   3.041   0.805  0.1966 -0.8247  0.4719
  601MPD2    H5 8967   4.202   2.996   0.817  0.9650  0.5469 -0.2160
  601MPD2    N1 8968   3.859   3.415   0.608 -0.3133 -0.1592  0.3651
  601MPD2    H7 8969   3.775   3.369   0.642  0.0755 -2.1559 -1.3984
  602TMC3    C1 8970   3.698   3.523   0.479  0.3044 -0.6901 -0.6184
  602TMC3    C2 8971   3.656   3.640   0.425 -0.3893 -0.1488 -0.5443
  602TMC3    C3 8972   3.535   3.640   0.361  0.6785  0.2341  0.6249
  602TMC3    C4 8973   3.638   3.398   0.446 -0.2695  0.3792 -0.3765
  602TMC3    C5 8974   3.534   3.401   0.362 -0.8117  0.0410 -0.0593
  602TMC3    C6 8975   3.483   3.524   0.315  0.4149  0.1037  0.3125
  602TMC3     C 8976   3.835   3.516   0.514 -0.4448 -0.0872  0.0664
  602TMC3     O 8977   3.914   3.608   0.478  0.3108 -0.1561 -0.7163
  602TMC3     H 8978   3.711   3.734   0.427 -1.4481  0.4883 -1.1683
  602TMC3    H1 8979   3.688   3.306   0.477  0.2707  0.5666 -0.6935
  602TMC3    H2 8980   3.391   3.528   0.259  0.9957 -1.1446 -0.7299
  602TMC3    C7 8981   3.511   3.287   0.279 -0.4911 -0.4688  0.0644
  602TMC3    C8 8982   3.511   3.739   0.265  0.5934  0.1002  0.5713
  602TMC3    O1 8983   3.535   3.175   0.322  0.1637 -0.0355 -0.1320
  602TMC3    O2 8984   3.412   3.815   0.265  0.1435 -0.1770 -0.4128
  603TMC3    C1 8985   2.303   3.714  11.444 -0.8249 -0.6930  0.3929
  603TMC3    C2 8986   2.341   3.652  11.565 -0.3644 -0.5501 -0.7130
  603TMC3    C3 8987   2.261   3.680  11.675 -0.3027  0.9563 -0.7691
  603TMC3    C4 8988   2.188   3.785  11.426 -0.1423  0.4294  0.3083
  603TMC3    C5 8989   2.109   3.797  11.539  0.6336 -0.1394 -0.2629
  603TMC3    C6 8990   2.145   3.754  11.665 -0.1939 -0.0588 -0.1481
  603TMC3     C 8991   2.378   3.677  11.328  0.4871 -0.1892 -0.6307
  603TMC3     O 8992   2.306   3.653  11.233  0.2492 -0.0703 -0.2401
  603TMC3     H 8993   2.429   3.591  11.583 -1.4900 -1.9560  0.0363
  603TMC3    H1 8994   2.162   3.816  11.326  0.6720  2.7155  0.7987
  603TMC3    H2 8995   2.074   3.753  11.746  0.2464 -1.6502  0.2123
  603TMC3    C7 8996   2.012   3.907  11.544 -0.0918  0.5791  0.3839
  603TMC3    C8 8997   2.290   3.625  11.802  0.0064 -0.3827  0.1580
  603TMC3    O1 8998   1.996   3.955  11.655  0.6085 -0.4292 -0.4685
  603TMC3    O2 8999   2.348   3.515  11.799  0.0332  0.1965  0.0744
  604MPD2     C 9000   2.990   1.642  16.652  0.2040  0.0225  0.4374
  604MPD2    C1 9001   2.974   1.775  16.626  0.2910 -0.4088 -0.2601
  604MPD2    C2 9002   2.986   1.823  16.498  0.2330 -0.5456  0.0326
  604MPD2    C3 9003   3.020   1.734  16.395  0.7817 -0.2721  0.1205
  604MPD2    C4 9004   3.033   1.602  16.430 -0.0239 -0.0195 -0.1520
  604MPD2    C5 9005   3.020   1.552  16.558 -0.5866  0.2881  0.3453
  604MPD2     H 9006   2.956   1.925  16.476  1.9127  0.0966  0.6689
  604MPD2    H1 9007   3.053   1.529  16.353 -0.5729 -0.6271  0.2827
  604MPD2    H2 9008   2.966   1.599  16.749  1.3798  0.0433  0.7305
  604MPD2    H3 9009   3.025   1.445  16.576  1.4110  0.0813 -1.4317
  604MPD2     N 9010   3.040   1.784  16.266  0.4017  0.6606  0.1093
  604MPD2    H5 9011   3.004   1.876  16.242 -2.4827 -0.8670 -1.4199
  604MPD2    N1 9012   2.935   1.849  16.730 -0.0315  0.5309  0.5744
  604MPD2    H7 9013   2.900   1.803  16.813 -0.3854 -0.2974 -0.0428
  605TMC3    C1 9014   2.904   2.047  16.856  0.0594 -0.6479  0.7909
  605TMC3    C2 9015   2.974   2.145  16.919 -0.7549  0.1012  0.5127
  605TMC3    C3 9016   2.910   2.254  16.973  0.1210  0.3349  0.3733
  605TMC3    C4 9017   2.774   2.070  16.832 -0.0979 -0.3401  0.5954
  605TMC3    C5 9018   2.712   2.163  16.907  0.1823  0.5630  0.3054
  605TMC3    C6 9019   2.776   2.262  16.969  0.0578 -0.4684  0.0668
  605TMC3     C 9020   2.964   1.984  16.737  0.3901 -0.2282 -0.0881
  605TMC3     O 9021   3.015   2.065  16.662  0.5240  0.1236 -0.1042
  605TMC3     H 9022   3.080   2.153  16.899 -0.4002 -1.5999  1.6595
  605TMC3    H1 9023   2.716   2.006  16.766  0.7975  0.3457 -0.8608
  605TMC3    H2 9024   2.723   2.336  17.027  0.2790 -1.3366  1.3648
  605TMC3    C7 9025   2.567   2.165  16.899  0.2898  1.5276 -0.1409
  605TMC3    C8 9026   2.986   2.363  17.029 -0.2572 -0.1830 -0.3646
  605TMC3    O1 9027   2.515   2.266  16.946  0.1826  0.3444 -0.1421
  605TMC3    O2 9028   3.102   2.338  17.025  0.2274  0.4891 -0.1843
  606TMC3    C1 9029   4.363   0.759  17.338  0.2650  1.1613  0.8028
  606TMC3    C2 9030   4.315   0.742  17.468 -0.4603  0.4772 -0.3134
  606TMC3    C3 9031   4.259   0.622  17.501 -0.0635  0.4041  0.4165
  606TMC3    C4 9032   4.376   0.657  17.249 -0.3728  0.0190 -0.4895
  606TMC3    C5 9033   4.310   0.542  17.282  0.7591  0.5216  0.3141
  606TMC3    C6 9034   4.252   0.522  17.408  0.0083  1.1403  0.2400
  606TMC3     C 9035   4.466   0.858  17.325  0.2699  0.5826 -0.1830
  606TMC3     O 9036   4.575   0.820  17.285 -0.2709  0.1132  0.0638
  606TMC3     H 9037   4.328   0.825  17.537 -4.3184  1.6007 -0.9178
  606TMC3    H1 9038   4.427   0.674  17.155 -1.9728  1.1484 -1.1401
  606TMC3    H2 9039   4.201   0.432  17.441  1.3583  1.1367  2.3228
  606TMC3    C7 9040   4.300   0.444  17.172 -0.1478  0.3415  0.6014
  606TMC3    C8 9041   4.272   0.570  17.638 -0.5579  0.4110  0.7261
  606TMC3    O1 9042   4.341   0.474  17.061  0.2717 -0.0018  0.2453
  606TMC3    O2 9043   4.306   0.451  17.649 -0.5710 -0.2083  0.5949
  607MPD2     C 9044   1.152   3.472  11.876  0.5456  0.6614  0.3666
  607MPD2    C1 9045   1.156   3.529  11.997 -0.3689 -0.3046 -0.0048
  607MPD2    C2 9046   1.133   3.457  12.112  0.2869 -0.2339  0.0826
  607MPD2    C3 9047   1.088   3.327  12.106 -0.7314  0.9780  0.5296
  607MPD2    C4 9048   1.067   3.268  11.981  0.2323  0.0100  0.2554
  607MPD2    C5 9049   1.107   3.346  11.870  0.0058 -0.2085  0.2870
  607MPD2     H 9050   1.162   3.504  12.205  0.4027 -2.0173  0.9571
  607MPD2    H1 9051   1.050   3.163  11.957 -2.7201  0.6366 -0.3688
  607MPD2    H2 9052   1.166   3.510  11.776 -2.2061 -0.7440 -0.5484
  607MPD2    H3 9053   1.104   3.295  11.774 -0.4997  0.3554  0.0013
  607MPD2     N 9054   1.087   3.255  12.227 -0.0097 -0.5441 -0.0960
  607MPD2    H5 9055   1.098   3.311  12.311  0.5391 -1.9483  0.7628
  607MPD2    N1 9056   1.211   3.657  12.022 -0.1113  0.2666  0.2740
  607MPD2    H7 9057   1.210   3.698  12.114  0.0174  0.4289  0.2024
  608TMC3    C1 9058   1.355   3.828  12.003  0.5024 -1.5889 -0.0081
  608TMC3    C2 9059   1.414   3.803  12.128  0.1246 -0.5603 -0.1648
  608TMC3    C3 9060   1.465   3.910  12.192 -0.4483  0.4502  0.3306
  608TMC3    C4 9061   1.396   3.943  11.936  0.5093  0.2651 -0.4956
  608TMC3    C5 9062   1.462   4.038  12.003  0.0078 -0.1172  0.6631
  608TMC3    C6 9063   1.486   4.030  12.138 -0.1831 -0.3767 -0.4393
  608TMC3     C 9064   1.283   3.723  11.931  0.8992  0.1645 -0.4350
  608TMC3     O 9065   1.310   3.704  11.813  0.0524 -0.4034 -0.0473
  608TMC3     H 9066   1.414   3.703  12.170 -0.3208 -1.0624 -1.3638
  608TMC3    H1 9067   1.360   3.948  11.833  1.1091  0.4989 -0.6933
  608TMC3    H2 9068   1.540   4.100  12.200  0.6126 -0.7193 -0.7480
  608TMC3    C7 9069   1.507   4.155  11.929 -0.3535 -0.5979  0.2543
  608TMC3    C8 9070   1.505   3.885  12.326  0.4060 -0.0071 -0.0900
  608TMC3    O1 9071   1.529   4.131  11.812  0.4093 -0.2399 -0.5084
  608TMC3    O2 9072   1.584   3.962  12.383  0.2857 -0.0225  0.1582
  609TMC3    C1 9073   0.061   3.571   9.326 -0.1280 -0.1459 -0.0321
  609TMC3    C2 9074   4.714   3.621   9.233 -1.1172 -0.7555  0.0358
  609TMC3    C3 9075   4.672   3.544   9.129 -0.9801 -0.2684  0.2866
  609TMC3    C4 9076   0.109   3.445   9.304 -0.2071 -0.6891 -0.3407
  609TMC3    C5 9077   0.055   3.372   9.205 -1.1072 -0.2188  1.2152
  609TMC3    C6 9078   4.706   3.416   9.111 -0.3223  0.4824 -0.1094
  609TMC3     C 9079   0.093   3.647   9.448 -0.1924 -0.1910  0.1548
  609TMC3     O 9080   0.103   3.770   9.433 -0.3146 -0.1686 -0.1549
  609TMC3     H 9081   4.676   3.721   9.251 -0.0432  0.1525 -2.7717
  609TMC3    H1 9082   0.160   3.394   9.384  0.3887  2.1166  1.0458
  609TMC3    H2 9083   4.682   3.356   9.024  2.8844  1.3509 -1.6137
  609TMC3    C7 9084   0.066   3.229   9.230 -0.3734 -0.6748 -0.0318
  609TMC3    C8 9085   4.563   3.588   9.048  0.1373 -0.1486  0.9505
  609TMC3    O1 9086   0.170   3.184   9.265 -0.2509  0.3208 -0.6078
  609TMC3    O2 9087   4.507   3.502   8.982  0.0892 -0.1279  0.1048
  610TMC3    C1 9088   2.116   3.618  12.862  0.0872 -0.3197  0.2143
  610TMC3    C2 9089   2.076   3.627  12.730  0.1590 -0.1259  0.0928
  610TMC3    C3 9090   2.044   3.509  12.668  1.1242 -0.0154  0.3895
  610TMC3    C4 9091   2.127   3.502  12.922 -0.3941  0.2001 -0.1558
  610TMC3    C5 9092   2.110   3.386  12.847  0.4652  0.5628 -0.0900
  610TMC3    C6 9093   2.062   3.385  12.718 -0.2182 -0.0523 -0.0680
  610TMC3     C 9094   2.169   3.744  12.916 -0.1244 -0.1585 -0.2827
  610TMC3     O 9095   2.224   3.817  12.837 -0.0447  0.1866 -0.3480
  610TMC3     H 9096   2.078   3.721  12.676  0.9044 -0.0407  0.2769
  610TMC3    H1 9097   2.185   3.503  13.013  0.2684 -1.7793 -0.5434
  610TMC3    H2 9098   2.006   3.301  12.678  0.7563 -0.2270 -1.0506
  610TMC3    C7 9099   2.083   3.264  12.929 -0.0198  0.6705  0.8541
  610TMC3    C8 9100   1.949   3.514  12.552 -0.4886 -0.3262 -0.0799
  610TMC3    O1 9101   2.042   3.163  12.864 -0.0936 -0.4398  0.1797
  610TMC3    O2 9102   1.899   3.619  12.523 -0.0160 -0.0296  0.1052
  611MPD2     C 9103   1.051   3.708  10.897  0.3291  0.7382  0.3445
  611MPD2    C1 9104   1.043   3.797  10.792  0.5833 -0.1627 -0.5297
  611MPD2    C2 9105   1.144   3.887  10.772  0.1005  0.3469 -0.0255
  611MPD2    C3 9106   1.252   3.897  10.859 -0.0933  0.6087  0.3197
  611MPD2    C4 9107   1.252   3.816  10.969 -0.0120  0.4313  0.1291
  611MPD2    C5 9108   1.159   3.718  10.985 -0.1591 -0.1792 -0.0812
  611MPD2     H 9109   1.146   3.955  10.688  1.0924 -0.3652 -0.5900
  611MPD2    H1 9110   1.330   3.804  11.044  1.8308 -1.6389 -2.1368
  611MPD2    H2 9111   0.974   3.635  10.920  0.6738  0.3468  0.2360
  611MPD2    H3 9112   1.171   3.654  11.071  1.0215 -1.4666 -1.1880
  611MPD2     N 9113   1.363   3.985  10.845  0.4690 -0.4206  0.5298
  611MPD2    H5 9114   1.409   3.997  10.934  0.8237 -0.4159  0.3456
  611MPD2    N1 9115   0.933   3.781  10.708  0.5666 -0.5323 -0.4124
  611MPD2    H7 9116   0.869   3.705  10.728  1.1767 -1.1498 -0.7998
  612TMC3    C1 9117   1.491   4.161  10.760 -0.4049 -0.1990  0.4390
  612TMC3    C2 9118   1.550   4.180  10.882  0.0513 -0.8337  0.0251
  612TMC3    C3 9119   1.628   4.292  10.905  0.0645  0.8048  0.0402
  612TMC3    C4 9120   1.494   4.267  10.672  0.2183 -0.6500 -0.1357
  612TMC3    C5 9121   1.556   4.384  10.705  0.0411  0.2659  0.4679
  612TMC3    C6 9122   1.624   4.399  10.822 -0.5568 -0.7116  0.1727
  612TMC3     C 9123   1.384   4.067  10.739  0.9640 -0.3138  0.6360
  612TMC3     O 9124   1.325   4.068  10.631 -0.1346  0.1371  0.0985
  612TMC3     H 9125   1.567   4.098  10.950 -0.4198  0.8681  2.1855
  612TMC3    H1 9126   1.468   4.246  10.568  0.0847 -1.0279 -0.0257
  612TMC3    H2 9127   1.686   4.485  10.844 -0.8603 -0.0568 -1.5308
  612TMC3    C7 9128   1.618   4.456  10.596  0.2593 -0.4413 -0.1200
  612TMC3    C8 9129   1.684   4.314  11.033 -0.2942  0.1389  0.2550
  612TMC3    O1 9130   1.735   4.478  10.616  0.4801  0.1132 -0.4031
  612TMC3    O2 9131   1.726   4.430  11.062 -0.4576  0.5019  0.2063
  613MPD2     C 9132   0.226   0.316  16.758  0.5288  0.0997 -1.1322
  613MPD2    C1 9133   0.198   0.406  16.666  0.5812 -0.1210 -0.2799
  613MPD2    C2 9134   0.126   0.367  16.553 -0.0816  0.4231 -0.2514
  613MPD2    C3 9135   0.092   0.224  16.542  0.0980 -0.0303  0.1445
  613MPD2    C4 9136   0.125   0.139  16.646  0.2812  0.0513 -0.8110
  613MPD2    C5 9137   0.188   0.185  16.757 -0.2653 -0.0280 -0.4883
  613MPD2     H 9138   0.121   0.429  16.465 -0.1147  1.4198  0.4534
  613MPD2    H1 9139   0.114   0.032  16.633 -1.9178 -0.2468  3.5199
  613MPD2    H2 9140   0.286   0.337  16.846 -1.4282 -1.6005  0.6027
  613MPD2    H3 9141   0.227   0.130  16.842  0.7613 -0.0222 -0.9594
  613MPD2     N 9142   0.034   0.166  16.422  0.2443  0.1554 -0.2735
  613MPD2    H5 9143   0.031   0.065  16.415 -0.4771  0.2232 -1.0647
  613MPD2    N1 9144   0.270   0.528  16.664  0.0259 -0.2284 -0.9006
  613MPD2    H7 9145   0.346   0.532  16.732 -0.4652 -1.9919 -0.2434
  614TMC3    C1 9146   0.381   0.691  16.541  0.0234  0.0853 -0.0167
  614TMC3    C2 9147   0.453   0.585  16.486  0.4926 -0.1693  0.2532
  614TMC3    C3 9148   0.501   0.597  16.358  0.2271 -0.1962  0.2184
  614TMC3    C4 9149   0.371   0.804  16.464 -0.3367  0.3729 -0.2954
  614TMC3    C5 9150   0.419   0.812  16.336  0.7179  0.0440 -0.1262
  614TMC3    C6 9151   0.487   0.712  16.276  0.1805 -0.7324  0.0193
  614TMC3     C 9152   0.252   0.639  16.589 -1.1663 -0.1341  0.0209
  614TMC3     O 9153   0.154   0.686  16.533 -0.0950  0.6782 -0.6022
  614TMC3     H 9154   0.467   0.490  16.537  1.2827 -0.8830 -1.3026
  614TMC3    H1 9155   0.315   0.890  16.497  0.0723 -0.2715  2.0452
  614TMC3    H2 9156   0.540   0.730  16.184  1.2224 -0.3131  0.7025
  614TMC3    C7 9157   0.455   0.945  16.288  0.1412 -0.5574  0.8035
  614TMC3    C8 9158   0.480   0.474  16.279  0.3118 -0.1592  0.5146
  614TMC3    O1 9159   0.507   1.013  16.375 -0.0516 -0.4412 -0.1363
  614TMC3    O2 9160   0.394   0.405  16.319 -0.0591  0.2984  0.0051
  615MPD2     C 9161   4.078   2.434  16.684  0.1134 -0.3721  0.3155
  615MPD2    C1 9162   4.181   2.469  16.599  0.3536 -1.2532  0.3399
  615MPD2    C2 9163   4.199   2.406  16.481  0.3139  1.0406  0.5432
  615MPD2    C3 9164   4.116   2.298  16.453 -0.1462 -0.4734 -0.3578
  615MPD2    C4 9165   4.022   2.255  16.542 -0.0575  0.2443  0.3462
  615MPD2    C5 9166   3.997   2.324  16.661  0.1541 -0.4197  0.1255
  615MPD2     H 9167   4.276   2.440  16.412  0.6797 -1.0482 -0.0969
  615MPD2    H1 9168   3.957   2.170  16.526 -0.0530  0.5276 -1.1560
  615MPD2    H2 9169   4.060   2.497  16.771 -0.9668  0.0352 -0.2074
  615MPD2    H3 9170   3.915   2.311  16.730 -1.4469 -0.3598 -1.7515
  615MPD2     N 9171   4.119   2.216  16.341 -1.2986  0.0437 -0.9884
  615MPD2    H5 9172   4.082   2.122  16.353 -0.6068 -0.2597 -1.2195
  615MPD2    N1 9173   4.250   2.592  16.627  0.1826  0.4819 -0.5156
  615MPD2    H7 9174   4.202   2.649  16.696 -0.8604 -0.5215 -0.4156
  616TMC3    C1 9175   4.426   2.764  16.606 -0.1121  0.0934 -0.6910
  616TMC3    C2 9176   4.546   2.812  16.556  0.2835  0.0407  0.6971
  616TMC3    C3 9177   4.592   2.937  16.581 -0.0314  0.3473 -0.8099
  616TMC3    C4 9178   4.359   2.831  16.702 -0.8078 -0.1541  0.6559
  616TMC3    C5 9179   4.415   2.948  16.738  0.4076  0.3186 -0.1910
  616TMC3    C6 9180   4.519   3.016  16.672  0.3563 -0.2397 -1.1051
  616TMC3     C 9181   4.362   2.638  16.551  0.4386  0.1701  0.0620
  616TMC3     O 9182   4.429   2.592  16.464  0.2670 -0.3642 -0.2925
  616TMC3     H 9183   4.604   2.739  16.499  0.2526  0.4408  0.1518
  616TMC3    H1 9184   4.284   2.784  16.765  0.0520  1.1671  2.6713
  616TMC3    H2 9185   4.558   3.117  16.684 -0.9615  0.0381  0.9611
  616TMC3    C7 9186   4.357   3.017  16.856  0.0418  0.6021  0.0203
  616TMC3    C8 9187   4.701   3.010  16.518  0.5739 -0.3864  0.2101
  616TMC3    O1 9188   4.283   2.951  16.931 -0.0084  0.5443  0.0776
  616TMC3    O2 9189   4.717   3.128  16.536  0.1910 -0.4437 -0.7483
  617MPD2     C 9190   2.700   0.615  14.108 -0.1724 -0.1996 -0.3094
  617MPD2    C1 9191   2.747   0.524  14.201  0.3840  0.3863  0.3380
  617MPD2    C2 9192   2.663   0.421  14.248 -0.9001 -0.5379 -0.8045
  617MPD2    C3 9193   2.529   0.420  14.211 -0.2072 -0.4079  0.0981
  617MPD2    C4 9194   2.480   0.517  14.121  0.1035  0.2964  0.4311
  617MPD2    C5 9195   2.570   0.607  14.068 -0.1882  0.1263  1.3022
  617MPD2     H 9196   2.697   0.361  14.331 -1.3688  0.5290  0.1662
  617MPD2    H1 9197   2.378   0.513  14.084 -0.2596 -2.9536  1.7632
  617MPD2    H2 9198   2.766   0.692  14.070 -0.5711  0.7278  0.8783
  617MPD2    H3 9199   2.527   0.673  13.994 -0.5998 -1.2281  0.3441
  617MPD2     N 9200   2.437   0.323  14.269 -0.7751  0.5110 -0.3027
  617MPD2    H5 9201   2.346   0.322  14.224 -0.9618 -1.1252  0.1134
  617MPD2    N1 9202   2.886   0.528  14.237 -0.1871  0.4551 -0.5281
  617MPD2    H7 9203   2.944   0.602  14.199 -0.0622  0.6252  0.0017
  618TMC3    C1 9204   3.100   0.462  14.304  0.1827 -0.4206 -1.3172
  618TMC3    C2 9205   3.166   0.356  14.258  0.2720 -0.0928  0.4893
  618TMC3    C3 9206   3.269   0.381  14.172 -0.3223  1.0603  0.0830
  618TMC3    C4 9207   3.151   0.590  14.283  0.1964 -0.5156  0.1592
  618TMC3    C5 9208   3.241   0.607  14.191 -0.1389  0.5972 -0.5636
  618TMC3    C6 9209   3.316   0.504  14.142 -0.7749 -0.4566 -0.2339
  618TMC3     C 9210   2.960   0.441  14.319 -0.0803  0.4708 -0.6517
  618TMC3     O 9211   2.929   0.343  14.381  0.6668  0.0301  0.4315
  618TMC3     H 9212   3.118   0.259  14.257  0.2556 -0.0774 -1.0288
  618TMC3    H1 9213   3.107   0.677  14.330  1.8462  0.0224  0.7217
  618TMC3    H2 9214   3.386   0.520  14.061 -1.9679 -1.2404 -1.4125
  618TMC3    C7 9215   3.177   0.693  14.094 -0.2353  0.4426  0.4642
  618TMC3    C8 9216   3.327   0.267  14.102 -0.5523 -0.9045 -1.0597
  618TMC3    O1 9217   3.058   0.709  14.113  0.2765  0.8115  0.6817
  618TMC3    O2 9218   3.339   0.169  14.176 -0.1282  0.0172  0.3152
  619MPD2     C 9219   4.186   1.702  14.074 -0.8495  0.6388 -1.0102
  619MPD2    C1 9220   4.096   1.792  14.029 -0.0573 -0.0157 -0.4138
  619MPD2    C2 9221   3.967   1.798  14.083  0.9120 -0.0724 -0.2148
  619MPD2    C3 9222   3.933   1.706  14.176  0.4458 -0.0288  0.7508
  619MPD2    C4 9223   4.022   1.608  14.217  0.3431 -0.3269  0.3506
  619MPD2    C5 9224   4.153   1.611  14.172 -0.0401  0.1438  0.4334
  619MPD2     H 9225   3.903   1.883  14.059 -0.3737 -0.8344  0.5445
  619MPD2    H1 9226   3.988   1.538  14.293 -1.1115  0.0244  0.0333
  619MPD2    H2 9227   4.286   1.695  14.033 -0.0355 -0.1352  1.1209
  619MPD2    H3 9228   4.215   1.528  14.203  1.0345  1.0206  0.6366
  619MPD2     N 9229   3.802   1.708  14.237  1.0646 -0.1580  0.0260
  619MPD2    H5 9230   3.762   1.624  14.279  0.3527 -0.3731 -1.0970
  619MPD2    N1 9231   4.129   1.891  13.935 -0.0664  0.1223  0.1833
  619MPD2    H7 9232   4.048   1.944  13.905 -0.4110  1.1374  2.9533
  620TMC3    C1 9233   4.251   2.009  13.767 -0.9520 -0.3377 -0.8803
  620TMC3    C2 9234   4.155   1.989  13.676 -0.2441 -0.0604 -0.8161
  620TMC3    C3 9235   4.153   2.061  13.560  0.0850  0.3228  0.8552
  620TMC3    C4 9236   4.347   2.110  13.749 -0.7419  0.4733 -0.8153
  620TMC3    C5 9237   4.336   2.189  13.638  0.2514 -0.0440 -0.6176
  620TMC3    C6 9238   4.245   2.156  13.541  0.2652 -0.5216  0.2261
  620TMC3     C 9239   4.254   1.923  13.882  0.1972  0.4176  0.6740
  620TMC3     O 9240   4.365   1.895  13.923  0.6039 -0.0332  0.0447
  620TMC3     H 9241   4.083   1.908  13.682 -1.0070  0.7920  1.6641
  620TMC3    H1 9242   4.405   2.132  13.838 -2.5222 -1.7932  0.8980
  620TMC3    H2 9243   4.238   2.210  13.448  1.0272  0.0835  0.5196
  620TMC3    C7 9244   4.359   2.333  13.655  0.1524 -0.1659  0.3718
  620TMC3    C8 9245   4.020   2.118  13.537 -0.3818  0.5883 -0.0421
  620TMC3    O1 9246   4.459   2.375  13.717 -0.0513 -0.2231  0.2449
  620TMC3    O2 9247   4.027   2.235  13.506 -0.1090  0.3562 -0.6143
  621MPD2     C 9248   4.189   3.008   9.952 -0.3182 -0.2637 -0.0952
  621MPD2    C1 9249   4.273   2.901   9.965 -0.3795  0.6107 -0.4045
  621MPD2    C2 9250   4.410   2.915   9.980 -0.1449 -0.1721 -0.0733
  621MPD2    C3 9251   4.467   3.038   9.976 -0.0067  0.4231  0.1586
  621MPD2    C4 9252   4.382   3.150   9.966  0.1136 -0.1051  0.3230
  621MPD2    C5 9253   4.247   3.129   9.958 -0.6449 -0.2485 -0.0429
  621MPD2     H 9254   4.471   2.826   9.995 -0.0546 -0.5364 -2.4743
  621MPD2    H1 9255   4.420   3.249   9.989 -0.2135  0.2299 -0.5589
  621MPD2    H2 9256   4.081   3.005   9.941 -0.2483 -0.0418 -0.8210
  621MPD2    H3 9257   4.176   3.211   9.966  0.4377  0.6891 -0.0664
  621MPD2     N 9258   4.608   3.056   9.978 -0.2841 -0.4143 -0.0947
  621MPD2    H5 9259   4.664   2.973   9.995  0.1351  0.4191  2.6912
  621MPD2    N1 9260   4.230   2.768   9.958  0.3508 -0.6910 -0.1951
  621MPD2    H7 9261   4.295   2.695   9.928 -0.8753 -1.9133  0.1544
  622TMC3    C1 9262   4.079   2.581   9.962 -0.0459  0.4130 -0.1766
  622TMC3    C2 9263   3.982   2.517  10.027 -0.1030  0.0572 -0.0427
  622TMC3    C3 9264   3.966   2.377  10.008  0.4823  0.6011  0.2171
  622TMC3    C4 9265   4.156   2.525   9.862 -0.3208 -0.1182 -0.3667
  622TMC3    C5 9266   4.132   2.388   9.841 -0.4798  0.0735  0.3745
  622TMC3    C6 9267   4.038   2.312   9.912 -0.2228  1.0318  0.1185
  622TMC3     C 9268   4.102   2.725   9.990  0.0917 -0.0527 -0.6525
  622TMC3     O 9269   4.006   2.795  10.022 -0.7455  0.5851  0.4724
  622TMC3     H 9270   3.922   2.580  10.091 -0.2174  0.5759 -0.6548
  622TMC3    H1 9271   4.238   2.567   9.806 -0.7526  1.0054 -0.1425
  622TMC3    H2 9272   4.023   2.205   9.900  1.0397  0.7062  1.4856
  622TMC3    C7 9273   4.220   2.313   9.754  0.0040 -0.6273  0.2458
  622TMC3    C8 9274   3.910   2.296  10.120 -0.0050 -0.5897  0.1333
  622TMC3    O1 9275   4.324   2.358   9.709  0.3629 -0.7339  0.2755
  622TMC3    O2 9276   3.874   2.184  10.092  0.0908 -0.4676 -0.6729
  623MPD2     C 9277   3.348   2.746  16.355 -0.7448 -0.2642 -0.1468
  623MPD2    C1 9278   3.295   2.674  16.461  0.0614 -0.3029 -0.1888
  623MPD2    C2 9279   3.363   2.666  16.585 -0.7592  0.2988  0.2305
  623MPD2    C3 9280   3.478   2.739  16.595 -0.3284 -0.0729  0.2401
  623MPD2    C4 9281   3.536   2.799  16.489  0.2477  0.1509  0.0886
  623MPD2    C5 9282   3.469   2.806  16.367  0.3336 -1.0221 -0.3494
  623MPD2     H 9283   3.335   2.604  16.669  1.2523  0.9666  1.3971
  623MPD2    H1 9284   3.632   2.849  16.494 -0.6331  2.0356 -1.6009
  623MPD2    H2 9285   3.303   2.740  16.257  0.3418  1.5618 -0.7492
  623MPD2    H3 9286   3.512   2.863  16.285  1.1379  0.4394  1.0979
  623MPD2     N 9287   3.546   2.729  16.718  0.3034 -0.7154  0.2448
  623MPD2    H5 9288   3.487   2.692  16.792 -0.4795  1.6384  0.8228
  623MPD2    N1 9289   3.173   2.602  16.432 -0.4802  1.3914 -0.1445
  623MPD2    H7 9290   3.125   2.624  16.345  0.1379 -1.5477 -1.2396
  624TMC3    C1 9291   3.754   2.583  17.047  0.0706  0.4304 -0.7037
  624TMC3    C2 9292   3.658   2.611  17.138 -0.2084 -0.0007  0.2558
  624TMC3    C3 9293   3.558   2.709  17.105  0.6087 -0.6995  0.2391
  624TMC3    C4 9294   3.760   2.649  16.928  0.0877  1.4825 -1.2021
  624TMC3    C5 9295   3.669   2.747  16.906  0.3984 -0.2103 -0.6171
  624TMC3    C6 9296   3.562   2.775  16.984 -0.1726  0.0555 -0.6395
  624TMC3     C 9297   3.871   2.521  17.097 -0.4880  0.2908 -0.4599
  624TMC3     O 9298   3.870   2.460  17.201  0.4369 -0.1650  0.2029
  624TMC3     H 9299   3.652   2.556  17.231  2.5144 -1.9905 -0.7318
  624TMC3    H1 9300   3.818   2.608  16.846 -2.1945 -4.4517  0.1209
  624TMC3    H2 9301   3.485   2.841  16.945 -1.0312 -0.4343  0.2167
  624TMC3    C7 9302   3.664   2.780  16.765 -0.3953 -0.2308  0.0851
  624TMC3    C8 9303   3.417   2.667  17.138 -0.1723 -0.2458  0.0474
  624TMC3    O1 9304   3.763   2.820  16.707 -0.0303  0.3791  0.4403
  624TMC3    O2 9305   3.408   2.547  17.146  0.0381 -0.0812  0.4178
  625MPD2     C 9306   3.779   3.813   1.270  0.2270 -0.0159 -0.3094
  625MPD2    C1 9307   3.838   3.919   1.206  0.8814  0.0289 -0.0612
  625MPD2    C2 9308   3.969   3.925   1.200  0.5442  0.2929  0.3613
  625MPD2    C3 9309   4.052   3.830   1.258 -0.6461 -0.6596 -0.7265
  625MPD2    C4 9310   3.997   3.715   1.310  0.0045  1.1495  0.1736
  625MPD2    C5 9311   3.861   3.713   1.317  0.3096  0.3710 -0.4422
  625MPD2     H 9312   4.011   4.005   1.140 -0.7858 -0.5967 -1.7584
  625MPD2    H1 9313   4.063   3.642   1.355 -1.5735 -0.4768 -0.1502
  625MPD2    H2 9314   3.673   3.791   1.271 -0.0101  1.1754  0.5186
  625MPD2    H3 9315   3.822   3.625   1.366 -0.0107  0.5272 -0.4175
  625MPD2     N 9316   4.195   3.851   1.251  0.5292  0.2142  0.4512
  625MPD2    H5 9317   4.234   3.936   1.212  0.2349  1.0227  1.9211
  625MPD2    N1 9318   3.758   4.018   1.146 -0.2581 -0.4904  0.2588
  625MPD2    H7 9319   3.801   4.080   1.078  3.0679 -2.1958  0.8031
  626TMC3    C1 9320   3.559   4.116   1.060  0.1157  0.3969  0.0606
  626TMC3    C2 9321   3.596   4.094   0.930 -0.1872  0.0910  0.0670
  626TMC3    C3 9322   3.517   4.145   0.833  0.1044 -0.3840 -0.9964
  626TMC3    C4 9323   3.428   4.164   1.094  0.2802  0.5054 -0.2776
  626TMC3    C5 9324   3.348   4.198   0.992  0.2002  0.1204  0.6351
  626TMC3    C6 9325   3.392   4.190   0.860  0.9594 -0.3482 -0.1612
  626TMC3     C 9326   3.625   4.044   1.170 -0.0743 -0.3731  0.6211
  626TMC3     O 9327   3.553   3.994   1.257 -0.7678  0.4656  0.1701
  626TMC3     H 9328   3.691   4.045   0.909  0.5689  0.8600  1.7179
  626TMC3    H1 9329   3.397   4.156   1.197  1.4804  0.4897  0.0833
  626TMC3    H2 9330   3.327   4.230   0.783  1.5414  3.2275  1.2127
  626TMC3    C7 9331   3.211   4.215   1.025 -0.0041  0.5218  0.1701
  626TMC3    C8 9332   3.570   4.184   0.697 -0.0397  0.8870  0.5047
  626TMC3    O1 9333   3.185   4.232   1.144  0.3701 -0.0342 -0.1589
  626TMC3    O2 9334   3.491   4.221   0.611  0.6318 -0.6626 -0.2222
  627MPD2     C 9335   2.774   3.749  14.239  0.5596 -0.2306 -0.2042
  627MPD2    C1 9336   2.706   3.817  14.340  0.5007 -0.7075 -0.1541
  627MPD2    C2 9337   2.573   3.782  14.360 -0.6776 -0.2269  0.5102
  627MPD2    C3 9338   2.507   3.696  14.276 -0.4179  0.6532 -0.0394
  627MPD2    C4 9339   2.567   3.643  14.166 -0.3113  0.3173  0.5141
  627MPD2    C5 9340   2.702   3.666  14.157  0.4275  1.2017  0.9314
  627MPD2     H 9341   2.526   3.824  14.448  0.9458  0.9221  0.8327
  627MPD2    H1 9342   2.516   3.583  14.092 -1.3994 -0.2491  1.7219
  627MPD2    H2 9343   2.880   3.746  14.214  0.4092 -1.3370 -0.6719
  627MPD2    H3 9344   2.766   3.621  14.082 -0.6523 -1.8280  1.8044
  627MPD2     N 9345   2.371   3.669  14.322 -0.1502 -0.5615 -0.2462
  627MPD2    H5 9346   2.340   3.702  14.413  1.1342  1.6114 -0.5779
  627MPD2    N1 9347   2.773   3.897  14.434 -0.8852 -0.1751  0.7562
  627MPD2    H7 9348   2.720   3.921  14.517 -2.0722 -1.3538  0.3373
  628TMC3    C1 9349   2.967   3.988  14.551  0.1387  0.2078  0.6229
  628TMC3    C2 9350   3.078   3.935  14.602 -0.0511  0.6193  0.2623
  628TMC3    C3 9351   3.107   3.960  14.727  0.6567  0.3355  0.0501
  628TMC3    C4 9352   2.886   4.065  14.628  0.3901  0.5229  0.1248
  628TMC3    C5 9353   2.917   4.082  14.760 -0.6858  0.1980 -0.7161
  628TMC3    C6 9354   3.027   4.015  14.815 -0.9442 -0.0803 -0.5588
  628TMC3     C 9355   2.908   3.921  14.435 -0.4219  0.5668 -0.6414
  628TMC3     O 9356   2.991   3.879  14.355  0.9481  0.4359  0.2173
  628TMC3     H 9357   3.147   3.880  14.539 -0.6620 -1.5574  1.4791
  628TMC3    H1 9358   2.797   4.099  14.577 -0.0204 -0.8665 -0.0811
  628TMC3    H2 9359   3.076   4.038  14.909  1.0805  3.3050 -2.4548
  628TMC3    C7 9360   2.856   4.177  14.857  0.0612  0.7766 -0.2789
  628TMC3    C8 9361   3.197   3.857  14.783  0.2248  0.2998  0.4663
  628TMC3    O1 9362   2.905   4.189  14.968 -0.3965 -0.0825 -0.0263
  628TMC3    O2 9363   3.294   3.827  14.709  0.4639 -0.2750  0.2081
  629MPD2     C 9364   0.357   2.985  16.201  0.0852 -0.6453  0.0081
  629MPD2    C1 9365   0.332   2.862  16.244 -0.1347  0.2061 -0.9898
  629MPD2    C2 9366   0.212   2.838  16.305 -0.5447 -0.3535  0.2614
  629MPD2    C3 9367   0.141   2.944  16.357 -0.4784  0.4429 -0.6618
  629MPD2    C4 9368   0.171   3.069  16.316 -0.0908 -0.0880  0.5016
  629MPD2    C5 9369   0.270   3.087  16.226  0.0211 -0.2250  0.2433
  629MPD2     H 9370   0.182   2.737  16.331 -1.4046 -0.0761  0.3623
  629MPD2    H1 9371   0.117   3.157  16.351 -0.7122  0.6378 -2.2804
  629MPD2    H2 9372   0.445   3.010  16.142  0.2763  0.8210  0.9202
  629MPD2    H3 9373   0.291   3.187  16.191 -0.4295 -0.7558 -1.5356
  629MPD2     N 9374   0.032   2.918  16.441 -0.2917  0.2933  0.1053
  629MPD2    H5 9375   0.015   2.820  16.461 -1.0990  0.5610  0.7200
  629MPD2    N1 9376   0.422   2.755  16.218  0.4109 -0.3988 -0.7379
  629MPD2    H7 9377   0.499   2.777  16.155 -0.7155  2.3217 -1.1842
  630TMC3    C1 9378   0.519   2.541  16.197  0.1669 -0.4153  0.3096
  630TMC3    C2 9379   0.645   2.592  16.190  0.1070  1.2100 -0.0290
  630TMC3    C3 9380   0.757   2.514  16.211 -0.4880 -1.2257 -0.1613
  630TMC3    C4 9381   0.510   2.417  16.239 -0.1456  0.1257 -0.6019
  630TMC3    C5 9382   0.617   2.338  16.270 -0.2462 -0.1207  0.0360
  630TMC3    C6 9383   0.741   2.387  16.261 -0.3897 -0.8184 -0.4062
  630TMC3     C 9384   0.417   2.624  16.252  0.2965 -0.0980  0.0088
  630TMC3     O 9385   0.344   2.563  16.329 -0.4014  0.3216 -0.4431
  630TMC3     H 9386   0.648   2.699  16.169 -2.0159  1.5512  1.4010
  630TMC3    H1 9387   0.413   2.375  16.218  0.0626 -0.4619 -0.3938
  630TMC3    H2 9388   0.827   2.328  16.290 -0.3702 -0.0275  1.1255
  630TMC3    C7 9389   0.594   2.256  16.380 -0.1067  0.1875  1.0077
  630TMC3    C8 9390   0.886   2.570  16.246  0.3196  0.2418  0.9218
  630TMC3    O1 9391   0.695   2.201  16.418 -0.0544  0.7578  0.2974
  630TMC3    O2 9392   0.966   2.495  16.301 -0.0712  0.2736  0.0199
  631MPD2     C 9393   3.441   2.296  15.792 -0.3231 -0.2281 -0.1562
  631MPD2    C1 9394   3.548   2.340  15.721 -0.0732  0.0522 -0.4446
  631MPD2    C2 9395   3.670   2.289  15.764  0.0085  0.3020 -0.2423
  631MPD2    C3 9396   3.684   2.186  15.857  0.3612  0.7342 -0.7752
  631MPD2    C4 9397   3.562   2.138  15.914  0.1748  0.2181 -0.2092
  631MPD2    C5 9398   3.443   2.190  15.874 -0.7130  0.1102 -0.2160
  631MPD2     H 9399   3.764   2.334  15.734  1.0750 -1.4615  0.4241
  631MPD2    H1 9400   3.560   2.058  15.987  0.3701 -1.1985 -1.7344
  631MPD2    H2 9401   3.343   2.335  15.766  0.8100 -0.9588 -5.4733
  631MPD2    H3 9402   3.353   2.145  15.916 -0.6049 -1.9509 -2.1665
  631MPD2     N 9403   3.815   2.130  15.879 -0.3105  0.2502 -0.4767
  631MPD2    H5 9404   3.894   2.174  15.832 -0.6363 -1.3774 -2.5567
  631MPD2    N1 9405   3.534   2.450  15.637  0.1252  0.0537 -0.1773
  631MPD2    H7 9406   3.441   2.490  15.641  0.4573  0.8290 -0.1812
  632TMC3    C1 9407   3.580   2.621  15.477  0.1877  0.0991 -0.4942
  632TMC3    C2 9408   3.469   2.696  15.523 -0.1840  0.2515  0.3593
  632TMC3    C3 9409   3.465   2.824  15.477  0.5042  0.3522  0.1185
  632TMC3    C4 9410   3.668   2.668  15.386  0.4789  0.8506  0.4327
  632TMC3    C5 9411   3.661   2.799  15.346 -0.4574  0.2528 -0.8532
  632TMC3    C6 9412   3.561   2.881  15.393 -0.0446 -0.2192 -0.3464
  632TMC3     C 9413   3.630   2.514  15.560 -1.0323 -0.2425 -0.6087
  632TMC3     O 9414   3.748   2.484  15.545  0.3884 -0.0458 -0.3760
  632TMC3     H 9415   3.404   2.667  15.604 -2.5597  1.1100 -1.2432
  632TMC3    H1 9416   3.749   2.604  15.353 -2.0279 -2.0568 -0.0894
  632TMC3    H2 9417   3.556   2.985  15.361 -0.6637  0.2628  1.3494
  632TMC3    C7 9418   3.727   2.838  15.223 -0.5689  0.1822  0.5134
  632TMC3    C8 9419   3.408   2.915  15.574 -0.8446  0.1977 -0.1920
  632TMC3    O1 9420   3.714   2.765  15.126  0.3683 -0.7862  0.3603
  632TMC3    O2 9421   3.320   2.870  15.642 -0.3381  0.7277 -0.0643
  633MPD2     C 9422   3.886   0.548  17.495  0.3102 -0.1190  0.0474
  633MPD2    C1 9423   3.824   0.518  17.374  0.2957 -0.1148 -0.2088
  633MPD2    C2 9424   3.767   0.393  17.356 -0.1935  0.3003  1.1369
  633MPD2    C3 9425   3.762   0.301  17.462  0.0728  0.0926 -0.5727
  633MPD2    C4 9426   3.829   0.331  17.581 -0.8166  0.3600  0.6126
  633MPD2    C5 9427   3.886   0.457  17.596 -0.3524 -0.1534 -0.5287
  633MPD2     H 9428   3.733   0.361  17.259 -0.3766  1.9056  0.6699
  633MPD2    H1 9429   3.819   0.267  17.668  1.0057  1.5967  1.7289
  633MPD2    H2 9430   3.920   0.647  17.524  1.9713 -0.5718 -0.3785
  633MPD2    H3 9431   3.924   0.479  17.695  0.5264 -1.2586 -0.6106
  633MPD2     N 9432   3.698   0.173  17.451  0.1104  0.3835 -0.8591
  633MPD2    H5 9433   3.725   0.097  17.512 -0.0277  0.2495 -0.9656
  633MPD2    N1 9434   3.841   0.606  17.264 -0.1315  0.0538 -0.0680
  633MPD2    H7 9435   3.823   0.562  17.174 -0.2772 -0.4319  0.1995
  634TMC3    C1 9436   3.912   0.781  17.136 -0.2862  0.2575  0.2891
  634TMC3    C2 9437   3.969   0.695  17.051  0.4364 -0.1602 -0.3382
  634TMC3    C3 9438   4.000   0.736  16.927  0.2403 -0.0711  0.2542
  634TMC3    C4 9439   3.887   0.906  17.110 -0.1712  0.2085 -0.1609
  634TMC3    C5 9440   3.919   0.953  16.987  0.0453  0.2902  0.0691
  634TMC3    C6 9441   3.975   0.867  16.891 -0.0767 -0.7392 -0.0091
  634TMC3     C 9442   3.876   0.738  17.265 -0.6299  0.3553  0.5694
  634TMC3     O 9443   3.884   0.821  17.353  0.5309 -0.6452  0.4234
  634TMC3     H 9444   3.973   0.588  17.070  2.0836 -0.2044 -0.9758
  634TMC3    H1 9445   3.825   0.961  17.181 -0.7659  0.1567 -0.6445
  634TMC3    H2 9446   4.005   0.904  16.793  0.8141 -2.5210 -0.4210
  634TMC3    C7 9447   3.890   1.085  16.938 -0.3899 -0.1548 -0.4987
  634TMC3    C8 9448   3.994   0.636  16.821  0.0032 -0.3356  0.1604
  634TMC3    O1 9449   3.916   1.115  16.822 -0.3795  0.2189  0.3079
  634TMC3    O2 9450   3.967   0.526  16.864 -0.0275 -0.4834  0.5293
  635TMC3    C1 9451   3.452   1.998   1.217 -0.5037 -0.5572  0.6672
  635TMC3    C2 9452   3.344   1.958   1.142 -0.2987 -0.1582  0.6313
  635TMC3    C3 9453   3.287   1.834   1.174  0.0360 -0.4228 -0.1292
  635TMC3    C4 9454   3.506   1.922   1.316 -0.2109  0.6478 -0.3409
  635TMC3    C5 9455   3.443   1.807   1.348 -0.2698 -0.2001 -0.3907
  635TMC3    C6 9456   3.341   1.757   1.275 -0.0082 -0.4175 -0.3621
  635TMC3     C 9457   3.508   2.130   1.199  0.6125  0.3974  0.4266
  635TMC3     O 9458   3.622   2.143   1.220 -0.4998  0.4582 -0.1838
  635TMC3     H 9459   3.301   2.021   1.066 -1.0677 -0.6510  0.6568
  635TMC3    H1 9460   3.600   1.948   1.363  0.6202  0.5292 -1.9167
  635TMC3    H2 9461   3.295   1.660   1.293 -0.8471 -0.0015 -0.2524
  635TMC3    C7 9462   3.485   1.731   1.464  0.0813  0.4219  0.6317
  635TMC3    C8 9463   3.153   1.800   1.128 -0.3148 -0.0754  0.5014
  635TMC3    O1 9464   3.603   1.727   1.497  0.3073 -0.2420  0.5534
  635TMC3    O2 9465   3.092   1.724   1.202 -0.7139  0.5200  0.0714
  636MPD2     C 9466   4.707   0.796  15.775 -0.8441  0.9621  0.1004
  636MPD2    C1 9467   4.712   0.783  15.914  0.1949  0.3951 -0.3541
  636MPD2    C2 9468   4.674   0.659  15.967 -0.2086 -0.3449 -0.0676
  636MPD2    C3 9469   4.675   0.542  15.888  0.3183 -0.0199  0.0352
  636MPD2    C4 9470   4.673   0.560  15.754  0.7580  0.0277  0.2833
  636MPD2    C5 9471   4.685   0.679  15.703  0.2617 -0.2654 -0.2345
  636MPD2     H 9472   4.664   0.646  16.074  2.6833  1.1324  0.3816
  636MPD2    H1 9473   4.638   0.477  15.693 -0.0694  0.8545 -0.3582
  636MPD2    H2 9474   4.725   0.880  15.710  1.4800 -1.2152 -2.0713
  636MPD2    H3 9475   4.692   0.689  15.595  1.0054  1.9392  0.0138
  636MPD2     N 9476   4.659   0.414  15.949  0.5313 -0.3263  0.2313
  636MPD2    H5 9477   4.658   0.405  16.050 -3.1985 -0.0864  0.2244
  636MPD2    N1 9478   4.723   0.890  16.005  0.8549  0.4407  0.0237
  636MPD2    H7 9479   4.695   0.876  16.102  1.1594 -0.3345 -0.0027
  637TMC3    C1 9480   4.680   0.187  15.971 -0.0070 -0.2934  0.0348
  637TMC3    C2 9481   4.633   0.210  16.096 -0.1754  0.1081  0.4877
  637TMC3    C3 9482   4.688   0.142  16.204  0.1973  0.5186  0.4966
  637TMC3    C4 9483   0.038   0.097  15.949  0.0362  0.1102 -0.2379
  637TMC3    C5 9484   0.102   0.038  16.053 -0.0518 -0.1195 -0.5749
  637TMC3    C6 9485   0.050   0.054  16.185  0.2167 -0.0721  0.3173
  637TMC3     C 9486   4.677   0.296  15.882 -0.3756 -0.7680 -0.4771
  637TMC3     O 9487   4.702   0.275  15.760 -0.1623  0.1012 -0.5000
  637TMC3     H 9488   4.545   0.267  16.119 -1.0839 -1.2836  0.4678
  637TMC3    H1 9489   0.075   0.091  15.847 -1.8338  1.4562 -0.9725
  637TMC3    H2 9490   0.089   4.723  16.258 -1.7183 -3.8981 -2.2043
  637TMC3    C7 9491   0.245   0.031  16.046 -0.4887  0.0804 -0.1401
  637TMC3    C8 9492   4.712   0.230  16.317 -0.5284  0.4001  0.2063
  637TMC3    O1 9493   0.298   0.031  16.155  0.4413 -0.8550 -0.7280
  637TMC3    O2 9494   4.691   0.348  16.303  0.0147  0.0881 -0.3223
  638MPD2     C 9495   4.624   0.033  14.859 -0.1929 -0.5346 -0.2270
  638MPD2    C1 9496   4.732   4.690  14.860  0.3017 -0.1570 -0.6108
  638MPD2    C2 9497   0.013   4.600  14.960  0.0686  0.1117 -1.1505
  638MPD2    C3 9498   4.660   4.597  15.067 -0.8793  0.1516  0.1677
  638MPD2    C4 9499   4.559   4.692  15.074  1.2166  0.9627  0.2535
  638MPD2    C5 9500   4.540   0.034  14.966 -0.3396  0.5374  0.4591
  638MPD2     H 9501   0.087   4.521  14.952  0.8396  0.6017  1.3640
  638MPD2    H1 9502   4.487   4.695  15.154 -0.8852  0.5999 -1.6295
  638MPD2    H2 9503   4.596   0.093  14.773  4.1581  2.1755  0.2775
  638MPD2    H3 9504   4.451   0.095  14.973  1.2232  2.8431  0.5714
  638MPD2     N 9505   4.670   4.492  15.160  0.2458  0.0017 -0.2185
  638MPD2    H5 9506   0.010   4.429  15.143 -0.5851 -0.7822 -1.1075
  638MPD2    N1 9507   0.072   4.692  14.748 -0.1174 -0.9170  0.4367
  638MPD2    H7 9508   0.032   0.019  14.681 -0.9659 -1.7155  0.1707
  639TMC3    C1 9509   4.584   4.324  15.308 -0.6412  0.1331  0.0890
  639TMC3    C2 9510   4.465   4.267  15.322 -0.6518  0.1994  0.1046
  639TMC3    C3 9511   4.459   4.128  15.348  0.4036 -0.6330 -0.1126
  639TMC3    C4 9512   4.700   4.253  15.310 -0.1124 -0.5885  0.0912
  639TMC3    C5 9513   4.696   4.120  15.338 -1.1509  0.0092  0.0998
  639TMC3    C6 9514   4.577   4.052  15.357 -0.1064 -0.2702  0.2230
  639TMC3     C 9515   4.584   4.467  15.265  0.2090  0.7485 -0.4436
  639TMC3     O 9516   4.497   4.540  15.308  0.1704 -0.1379  0.2171
  639TMC3     H 9517   4.378   4.330  15.306 -1.4525 -0.9768 -0.1798
  639TMC3    H1 9518   0.056   4.306  15.310 -0.4355 -0.0176  1.0684
  639TMC3    H2 9519   4.573   3.943  15.355  1.4923 -0.3895  2.6680
  639TMC3    C7 9520   0.072   4.031  15.318  0.2338 -0.7433 -0.4525
  639TMC3    C8 9521   4.378   4.065  15.252  0.1581 -0.5094 -0.6556
  639TMC3    O1 9522   0.067   3.924  15.377 -0.6214  0.2566  0.6794
  639TMC3    O2 9523   4.440   3.988  15.177 -0.2950 -0.2103  0.7632
  640MPD2     C 9524   1.071   3.356  10.477  0.2673 -0.4751 -0.2578
  640MPD2    C1 9525   1.061   3.355  10.334 -0.1660  0.4902 -0.3694
  640MPD2    C2 9526   1.087   3.473  10.281 -0.4094  0.6455  0.4109
  640MPD2    C3 9527   1.115   3.588  10.347 -0.3938 -0.9069  0.1811
  640MPD2    C4 9528   1.118   3.591  10.485  0.6081 -0.0023  0.2350
  640MPD2    C5 9529   1.099   3.474  10.552  0.0248 -0.3423  0.0244
  640MPD2     H 9530   1.098   3.478  10.173 -4.1294  1.1729  0.0613
  640MPD2    H1 9531   1.137   3.680  10.542 -2.7988  0.9553 -0.1675
  640MPD2    H2 9532   1.067   3.265  10.535  4.5271 -1.2142 -1.0728
  640MPD2    H3 9533   1.098   3.462  10.659  0.6609 -0.1732  0.0488
  640MPD2     N 9534   1.138   3.710  10.280 -0.1321 -0.4480 -0.7783
  640MPD2    H5 9535   1.162   3.789  10.338 -3.2096 -0.0307 -0.0422
  640MPD2    N1 9536   1.054   3.238  10.260 -0.5596 -0.6529  0.3916
  640MPD2    H7 9537   1.050   3.157  10.320 -0.7582  0.0123  1.2704
  641TMC3    C1 9538   1.097   3.092  10.099  0.2068 -0.6674  0.3658
  641TMC3    C2 9539   1.037   3.037   9.992  0.1304  0.0722 -0.2217
  641TMC3    C3 9540   1.068   2.909   9.966  1.2554 -0.9609  1.1248
  641TMC3    C4 9541   1.193   3.030  10.175 -0.3442  0.2754 -0.3772
  641TMC3    C5 9542   1.223   2.905  10.151 -0.5208 -0.4364  0.3061
  641TMC3    C6 9543   1.168   2.848  10.041  0.0611 -0.1917 -0.0882
  641TMC3     C 9544   1.066   3.229  10.126 -0.2719  0.3185 -0.1795
  641TMC3     O 9545   1.039   3.308  10.038 -0.2450  0.1387 -0.1901
  641TMC3     H 9546   0.962   3.084   9.928  1.1640  0.5422 -1.0826
  641TMC3    H1 9547   1.248   3.087  10.249 -0.0935  0.8032 -0.9771
  641TMC3    H2 9548   1.208   2.751  10.013 -0.0241 -0.8885  2.1560
  641TMC3    C7 9549   1.328   2.832  10.236  0.1958  0.2277 -0.9910
  641TMC3    C8 9550   0.977   2.821   9.882 -0.5457  0.1388 -0.3622
  641TMC3    O1 9551   1.337   2.712  10.229 -0.6530 -0.4349  0.0335
  641TMC3    O2 9552   0.897   2.891   9.820 -0.1275 -0.0448  0.3334
  642TMC3    C1 9553   1.313   4.297  12.731  0.2204 -0.0595  0.7513
  642TMC3    C2 9554   1.419   4.329  12.650 -0.0010  0.1569 -0.0824
  642TMC3    C3 9555   1.418   4.279  12.522 -0.8606 -0.4355  0.4774
  642TMC3    C4 9556   1.214   4.222  12.685 -0.6211  0.0119 -0.4837
  642TMC3    C5 9557   1.219   4.179  12.563  0.1706  0.1609  0.6415
  642TMC3    C6 9558   1.315   4.211  12.471  0.3344  0.1505  0.5301
  642TMC3     C 9559   1.279   4.408  12.822  0.7824 -0.1547  0.5578
  642TMC3     O 9560   1.362   4.476  12.885  0.3100 -0.2083  0.3324
  642TMC3     H 9561   1.491   4.404  12.681  1.1413 -0.8714 -0.2617
  642TMC3    H1 9562   1.136   4.185  12.750  0.4739  0.9750  1.3870
  642TMC3    H2 9563   1.315   4.172  12.370 -0.8363  0.9600  0.2170
  642TMC3    C7 9564   1.147   4.055  12.533  0.0818 -0.7366 -0.9482
  642TMC3    C8 9565   1.542   4.276  12.450 -0.8148  0.5218 -0.4473
  642TMC3    O1 9566   1.108   4.045  12.418 -0.4779 -0.3324  0.4812
  642TMC3    O2 9567   1.544   4.259  12.326 -0.4738 -0.4585 -0.0629
  643TMC3    C1 9568   0.730   3.196   0.280  0.4252 -0.0531 -0.4258
  643TMC3    C2 9569   0.616   3.179   0.208 -0.1648  0.5202 -0.1027
  643TMC3    C3 9570   0.614   3.091   0.103  0.3994  1.0159  0.2551
  643TMC3    C4 9571   0.841   3.142   0.226  0.4678  0.5723  0.1935
  643TMC3    C5 9572   0.843   3.058   0.117  0.5170  0.5575  0.4616
  643TMC3    C6 9573   0.721   3.028   0.055  0.3540  0.7030  0.5346
  643TMC3     C 9574   0.728   3.303   0.378 -0.3366  0.3435  0.0238
  643TMC3     O 9575   0.649   3.394   0.375  0.3563 -0.4811  0.2856
  643TMC3     H 9576   0.525   3.218   0.251 -0.7603 -0.0954 -0.7978
  643TMC3    H1 9577   0.934   3.170   0.274  1.7720 -0.3782 -1.7806
  643TMC3    H2 9578   0.718   2.945  17.734 -0.6416  0.2997  1.0600
  643TMC3    C7 9579   0.937   3.113   0.022  0.4885 -0.3491  0.0989
  643TMC3    C8 9580   0.538   3.147  17.736  0.9480 -0.9322 -0.3218
  643TMC3    O1 9581   0.991   3.215   0.056  0.2930  0.0525  0.7198
  643TMC3    O2 9582   0.503   3.059  17.659  0.5135 -0.1918  0.5836
  644MPD2     C 9583   4.542   2.888   8.794 -0.0590 -0.2899 -0.1302
  644MPD2    C1 9584   4.659   2.961   8.831 -0.3835  0.3627  0.3523
  644MPD2    C2 9585   4.664   3.099   8.811 -0.4621 -0.2941 -0.8520
  644MPD2    C3 9586   4.563   3.162   8.740 -0.0350 -0.0805  0.2122
  644MPD2    C4 9587   4.452   3.086   8.691  0.5042  0.3049  0.1904
  644MPD2    C5 9588   4.444   2.952   8.718 -0.7493  0.1472 -1.0362
  644MPD2     H 9589   0.011   3.158   8.841 -2.9947  0.8997  3.8452
  644MPD2    H1 9590   4.369   3.130   8.636 -0.2232 -1.0147  0.2286
  644MPD2    H2 9591   4.527   2.782   8.810  0.0918 -0.4642 -1.1571
  644MPD2    H3 9592   4.354   2.898   8.691 -0.0794 -0.9952 -1.0156
  644MPD2     N 9593   4.582   3.294   8.710 -0.7099  0.2812  0.0078
  644MPD2    H5 9594   4.668   3.339   8.740 -0.1276 -0.3172 -0.7588
  644MPD2    N1 9595   0.034   2.889   8.866 -0.0683 -0.3763  0.0016
  644MPD2    H7 9596   0.015   2.791   8.878 -2.4532  0.3543  2.1154
  645TMC3    C1 9597   4.545   3.527   8.640 -0.5728 -0.3084 -0.9361
  645TMC3    C2 9598   4.661   3.565   8.709  0.2634  0.1342  0.1476
  645TMC3    C3 9599   4.715   3.685   8.695  0.3890  0.6639 -0.0683
  645TMC3    C4 9600   4.473   3.614   8.567  0.1362 -0.1510 -0.7179
  645TMC3    C5 9601   4.535   3.737   8.555 -0.2623 -0.5272 -1.0874
  645TMC3    C6 9602   4.647   3.780   8.624 -0.0714 -0.1888 -0.1538
  645TMC3     C 9603   4.487   3.392   8.661  0.4927 -0.4246 -0.8553
  645TMC3     O 9604   4.367   3.370   8.632  0.0689 -0.2811  0.9760
  645TMC3     H 9605   4.708   3.492   8.775 -0.6839 -1.4580 -0.9245
  645TMC3    H1 9606   4.387   3.582   8.508 -0.2616 -1.8146  0.7767
  645TMC3    H2 9607   4.696   3.875   8.605  0.2592 -0.2194  0.5260
  645TMC3    C7 9608   4.467   3.844   8.477  0.5100 -0.3123  0.2544
  645TMC3    C8 9609   0.068   3.736   8.791 -0.2665 -0.1738 -0.8487
  645TMC3    O1 9610   4.539   3.940   8.446 -0.8265 -0.1566  0.2177
  645TMC3    O2 9611   0.054   3.856   8.813  0.3002  0.1918 -0.4096
  646MPD2     C 9612   0.031   3.206  14.721  0.0094 -0.2713 -0.0432
  646MPD2    C1 9613   4.666   3.128  14.770  0.1920 -1.2132  0.4578
  646MPD2    C2 9614   4.538   3.186  14.762 -0.2181 -0.1134  0.5501
  646MPD2    C3 9615   4.510   3.315  14.708  0.7097  0.2854  0.3699
  646MPD2    C4 9616   4.613   3.381  14.658 -0.4339  0.5531  0.0131
  646MPD2    C5 9617   4.738   3.331  14.670 -0.6033  0.0485  0.5422
  646MPD2     H 9618   4.454   3.131  14.803 -1.2218  2.8385  2.4687
  646MPD2    H1 9619   4.608   3.475  14.605  0.6703  0.0348 -1.0145
  646MPD2    H2 9620   0.131   3.167  14.729 -0.2335 -0.4056  2.2428
  646MPD2    H3 9621   0.085   3.387  14.633 -1.6309  1.9230  1.0276
  646MPD2     N 9622   4.374   3.350  14.696  0.6021 -0.2241  0.0566
  646MPD2    H5 9623   4.307   3.281  14.730  0.1167 -0.7311 -1.9491
  646MPD2    N1 9624   4.698   3.004  14.832 -0.1083  0.1142 -0.0678
  646MPD2    H7 9625   0.058   2.978  14.845  0.2481  0.7141 -1.5809
  647TMC3    C1 9626   4.651   2.804  14.949 -0.3546 -0.1793  0.1069
  647TMC3    C2 9627   4.555   2.718  14.996 -0.2823 -0.0407  0.0027
  647TMC3    C3 9628   4.600   2.606  15.068  0.0031 -0.5105 -0.0283
  647TMC3    C4 9629   0.048   2.780  14.970  0.3959  0.2702  0.0689
  647TMC3    C5 9630   0.086   2.660  15.026 -0.5368  0.5603  0.4011
  647TMC3    C6 9631   0.001   2.575  15.087 -0.0279 -0.2110  0.2602
  647TMC3     C 9632   4.605   2.911  14.865 -1.3751 -0.3761 -0.1109
  647TMC3     O 9633   4.492   2.908  14.824 -0.2088 -1.0166  0.5468
  647TMC3     H 9634   4.448   2.729  14.989 -0.5579 -1.8758  1.4183
  647TMC3    H1 9635   0.122   2.852  14.936 -0.8215  2.2023  1.4963
  647TMC3    H2 9636   0.037   2.476  15.112  0.8413  0.2525  0.8103
  647TMC3    C7 9637   0.222   2.635  15.057  0.2317 -0.0291  0.5808
  647TMC3    C8 9638   4.506   2.504  15.110  0.0160  0.7215 -0.0013
  647TMC3    O1 9639   0.244   2.565  15.155 -0.0839 -0.0510 -0.2866
  647TMC3    O2 9640   4.390   2.518  15.070  0.2020  0.0696  0.2072
  648TMC3    C1 9641   4.380   0.912  16.291 -0.2448  0.0108  0.0098
  648TMC3    C2 9642   4.402   0.780  16.263 -0.0835  0.6558  0.4772
  648TMC3    C3 9643   4.349   0.733  16.146 -0.1883 -0.0542  0.1807
  648TMC3    C4 9644   4.307   0.989  16.206  0.4037  0.5252 -0.4186
  648TMC3    C5 9645   4.261   0.934  16.092  0.6298  0.4336 -0.3051
  648TMC3    C6 9646   4.278   0.809  16.062  0.3644  0.1009  0.4015
  648TMC3     C 9647   4.384   0.958  16.425 -0.6011 -0.6015  0.2680
  648TMC3     O 9648   4.361   1.078  16.452  0.5616  0.5295 -0.3279
  648TMC3     H 9649   4.474   0.729  16.327  0.2591  1.3172  0.6199
  648TMC3    H1 9650   4.279   1.091  16.234 -1.0342  0.2662 -0.8867
  648TMC3    H2 9651   4.216   0.762  15.988  1.5776 -0.8908  0.0199
  648TMC3    C7 9652   4.189   1.019  16.002 -0.1727  0.6287  0.3761
  648TMC3    C8 9653   4.361   0.592  16.118  0.1355 -1.1532  0.1861
  648TMC3    O1 9654   4.195   0.991  15.884 -0.1053 -0.1686  0.2829
  648TMC3    O2 9655   4.379   0.522  16.218  0.3950 -0.1918 -0.0229
  649TMC3    C1 9656   2.965   1.776  13.477 -0.4457 -0.2354 -0.3789
  649TMC3    C2 9657   3.085   1.818  13.527  0.3653 -0.3939 -1.1420
  649TMC3    C3 9658   3.117   1.794  13.656  0.3950  0.9295  0.6039
  649TMC3    C4 9659   2.881   1.699  13.551 -0.2183  0.4388 -0.4866
  649TMC3    C5 9660   2.924   1.664  13.677 -1.0315 -0.6374 -0.5369
  649TMC3    C6 9661   3.043   1.712  13.734 -0.3034  0.2243 -0.0070
  649TMC3     C 9662   2.923   1.818  13.344 -0.1926  0.2409  0.2069
  649TMC3     O 9663   2.799   1.822  13.333 -0.2271  0.0156  0.2680
  649TMC3     H 9664   3.146   1.888  13.471 -0.2800  0.7306 -0.4337
  649TMC3    H1 9665   2.782   1.678  13.513  0.0241  0.3274 -1.0656
  649TMC3    H2 9666   3.054   1.715  13.842  0.1206 -1.9496  0.0128
  649TMC3    C7 9667   2.817   1.623  13.765 -0.1454  0.2190  0.5585
  649TMC3    C8 9668   3.187   1.901  13.729  0.4276  0.4134  0.2112
  649TMC3    O1 9669   2.700   1.646  13.741  0.3041  0.0420 -0.0583
  649TMC3    O2 9670   3.228   1.856  13.838  0.2538  0.5316  0.1357
  650TMC3    C1 9671   0.287   3.491  13.048  0.4178  0.2859  1.6575
  650TMC3    C2 9672   0.291   3.620  13.096 -0.5579 -0.6415 -0.4003
  650TMC3    C3 9673   0.373   3.708  13.033  0.6184 -0.4214  0.0421
  650TMC3    C4 9674   0.346   3.450  12.929  0.1350  0.1179  0.1948
  650TMC3    C5 9675   0.436   3.541  12.871 -0.2043  0.5851  0.1354
  650TMC3    C6 9676   0.447   3.663  12.931 -0.6349  0.0476  0.2775
  650TMC3     C 9677   0.250   3.386  13.149  0.0672  0.6164 -0.0204
  650TMC3     O 9678   0.230   3.418  13.261 -0.5539 -0.1723  0.0198
  650TMC3     H 9679   0.248   3.649  13.192 -0.1861  0.8217 -0.6783
  650TMC3    H1 9680   0.315   3.363  12.873  0.8056  0.2685 -0.4038
  650TMC3    H2 9681   0.523   3.734  12.900  1.1104 -2.0009 -0.1289
  650TMC3    C7 9682   0.427   3.536  12.724 -0.0271 -0.2594  0.3408
  650TMC3    C8 9683   0.345   3.849  13.022 -0.4263 -0.3225 -0.3087
  650TMC3    O1 9684   0.442   3.431  12.663  0.1578  0.3754  0.3033
  650TMC3    O2 9685   0.374   3.903  12.912 -0.1043 -0.5163  0.0261
  651MPD2     C 9686   3.986   1.044  10.871 -0.7168 -0.2781 -0.2708
  651MPD2    C1 9687   3.960   1.179  10.852  0.2106 -0.3384  0.1414
  651MPD2    C2 9688   4.058   1.274  10.872 -0.2261  0.3510 -0.0051
  651MPD2    C3 9689   4.186   1.237  10.906 -0.5394 -0.2770 -0.5649
  651MPD2    C4 9690   4.216   1.094  10.918 -0.6578  0.1538 -0.1677
  651MPD2    C5 9691   4.108   1.007  10.912  0.4888  0.5724  0.3146
  651MPD2     H 9692   4.036   1.378  10.851  0.4784  0.9003  2.0167
  651MPD2    H1 9693   4.311   1.056  10.953 -0.2577  0.6124 -0.7459
  651MPD2    H2 9694   3.908   0.969  10.857  1.2197 -2.4112  0.3229
  651MPD2    H3 9695   4.119   0.901  10.934 -0.0180  0.9471  2.3999
  651MPD2     N 9696   4.277   1.338  10.919  0.1810 -0.1248  0.2561
  651MPD2    H5 9697   4.242   1.433  10.909  0.7437  0.0503 -0.0500
  651MPD2    N1 9698   3.828   1.221  10.834  0.1982  0.6123  0.0154
  651MPD2    H7 9699   3.817   1.321  10.845 -0.6122  0.3668  1.5797
  652TMC3    C1 9700   4.639   1.528  11.157 -0.0005  0.3177  0.1737
  652TMC3    C2 9701   4.574   1.413  11.107 -0.3352  0.1620  0.1742
  652TMC3    C3 9702   4.467   1.428  11.017  0.4301 -0.3978 -0.4017
  652TMC3    C4 9703   4.611   1.651  11.093  0.0342 -0.6977  0.5377
  652TMC3    C5 9704   4.509   1.662  11.006  0.1810 -0.1430 -0.6201
  652TMC3    C6 9705   4.436   1.550  10.966 -0.3030 -0.1491 -0.1359
  652TMC3     C 9706   0.026   1.504  11.228  0.6759 -0.1060  0.0215
  652TMC3     O 9707   0.056   1.391  11.262 -0.2256 -0.6601  0.5074
  652TMC3     H 9708   4.590   1.312  11.143  0.1525  0.3474  0.4683
  652TMC3    H1 9709   4.658   1.741  11.132  1.1684 -2.3763  3.0724
  652TMC3    H2 9710   4.378   1.555  10.875  0.2608 -0.6603 -0.5197
  652TMC3    C7 9711   4.493   1.781  10.934  0.2463  0.5289 -0.0097
  652TMC3    C8 9712   4.401   1.312  10.967  0.6450  0.2441 -0.1071
  652TMC3    O1 9713   4.395   1.784  10.858 -0.1432 -0.0182 -1.0346
  652TMC3    O2 9714   4.469   1.215  10.975  0.1301  0.1888 -0.2762
  653MPD2     C 9715   3.737   0.819   0.175  0.0148 -0.1765  0.1340
  653MPD2    C1 9716   3.635   0.903   0.131  0.3812  0.5948  0.1617
  653MPD2    C2 9717   3.542   0.838   0.050 -0.4785 -0.1609  0.1506
  653MPD2    C3 9718   3.562   0.710   0.003 -0.1394 -0.2612 -0.3296
  653MPD2    C4 9719   3.667   0.633   0.049 -0.2993  0.3219 -0.0920
  653MPD2    C5 9720   3.751   0.687   0.141 -0.4416 -0.6332 -0.1544
  653MPD2     H 9721   3.451   0.893   0.028  0.6822  1.1673 -1.3676
  653MPD2    H1 9722   3.687   0.535   0.007  1.0843  1.1537 -1.4107
  653MPD2    H2 9723   3.811   0.857   0.244  0.1544  0.1969 -0.2196
  653MPD2    H3 9724   3.836   0.636   0.186  0.3801  1.1605  0.3426
  653MPD2     N 9725   3.464   0.659  17.669 -0.0462 -0.1814  0.6736
  653MPD2    H5 9726   3.406   0.718  17.611  0.8833 -0.8318 -0.9267
  653MPD2    N1 9727   3.601   1.029   0.174 -0.3785  0.2103  0.1443
  653MPD2    H7 9728   3.512   1.062   0.139 -1.0588 -0.1064  1.5762
  654TMC3    C1 9729   3.342   0.503  17.549 -0.4289  0.8633 -0.0592
  654TMC3    C2 9730   3.281   0.604  17.481 -0.0957 -0.2181 -0.3770
  654TMC3    C3 9731   3.180   0.567  17.393 -0.2522  0.5577  0.4527
  654TMC3    C4 9732   3.312   0.369  17.525 -0.2479  0.1761 -0.6908
  654TMC3    C5 9733   3.205   0.343  17.447 -0.3269  0.3512  0.0139
  654TMC3    C6 9734   3.144   0.439  17.374 -0.4167 -0.6478 -0.0252
  654TMC3     C 9735   3.448   0.528  17.645 -0.2481 -0.3519  0.2524
  654TMC3     O 9736   3.493   0.432  17.704  0.2084  0.1208  0.2079
  654TMC3     H 9737   3.306   0.709  17.495 -0.6340 -0.1903  0.3704
  654TMC3    H1 9738   3.368   0.290  17.574 -3.2635 -2.2211 -1.0448
  654TMC3    H2 9739   3.061   0.419  17.306 -2.0977 -1.1825  2.1731
  654TMC3    C7 9740   3.158   0.206  17.426  0.2963  0.3611 -0.3718
  654TMC3    C8 9741   3.133   0.652  17.286  0.0020 -0.1556  0.0734
  654TMC3    O1 9742   3.054   0.197  17.374  0.0196 -0.3462 -0.4452
  654TMC3    O2 9743   3.065   0.748  17.320  0.2582 -0.2746  0.2979
  655MPD2     C 9744   4.456   1.158  15.773  0.1170  0.2826 -0.3649
  655MPD2    C1 9745   4.425   1.264  15.688 -0.2490 -0.4518  0.4714
  655MPD2    C2 9746   4.427   1.235  15.553  0.2454 -0.8557  0.0984
  655MPD2    C3 9747   4.454   1.108  15.503 -0.1615  0.4703 -0.3755
  655MPD2    C4 9748   4.466   1.006  15.597  0.4895 -0.0493  0.3563
  655MPD2    C5 9749   4.475   1.035  15.732  0.7138  0.0727  0.5481
  655MPD2     H 9750   4.407   1.317  15.484 -0.7297 -0.7649  0.4824
  655MPD2    H1 9751   4.480   0.904  15.564 -1.0503 -0.3133  0.5319
  655MPD2    H2 9752   4.455   1.181  15.879 -1.6631 -0.2415 -0.2742
  655MPD2    H3 9753   4.501   0.966  15.812  0.7277  1.2849  1.5824
  655MPD2     N 9754   4.444   1.079  15.366  0.4927 -0.1348  0.0915
  655MPD2    H5 9755   4.450   0.979  15.349 -1.4665 -0.4147  0.9471
  655MPD2    N1 9756   4.386   1.395  15.726  0.1451 -0.0428  0.1206
  655MPD2    H7 9757   4.339   1.452  15.657  1.8055  1.5306  0.2745
  656TMC3    C1 9758   4.308   1.552  15.885 -0.2291 -0.4611 -0.2384
  656TMC3    C2 9759   4.270   1.568  16.019  0.4012 -0.3621 -0.6886
  656TMC3    C3 9760   4.156   1.638  16.057 -0.1445 -0.2262 -0.0585
  656TMC3    C4 9761   4.229   1.617  15.793 -0.1938  0.2361  0.2678
  656TMC3    C5 9762   4.115   1.677  15.835 -0.1826 -0.3700 -0.2462
  656TMC3    C6 9763   4.074   1.699  15.966  0.0158  0.9275  0.0337
  656TMC3     C 9764   4.387   1.433  15.854 -0.1554 -0.4276 -0.7338
  656TMC3     O 9765   4.469   1.408  15.939  0.7303  0.0745  0.4184
  656TMC3     H 9766   4.327   1.517  16.095  0.0759 -0.2768 -0.3875
  656TMC3    H1 9767   4.248   1.615  15.686 -2.4385 -1.8984 -0.1024
  656TMC3    H2 9768   3.988   1.759  15.995  0.3977  2.2366 -1.5234
  656TMC3    C7 9769   4.009   1.703  15.731  0.1049  0.3365  0.5538
  656TMC3    C8 9770   4.118   1.644  16.195  0.0212 -0.0198  0.0368
  656TMC3    O1 9771   4.032   1.659  15.621  0.3917  0.0393 -0.0017
  656TMC3    O2 9772   4.042   1.732  16.233 -0.0287 -0.0586 -0.3020
  657TMC3    C1 9773   3.106   0.206  15.243 -0.2309 -0.0323 -0.4085
  657TMC3    C2 9774   3.152   0.241  15.363 -0.0643 -0.0483 -0.9858
  657TMC3    C3 9775   3.163   0.374  15.383 -0.6840 -0.3218 -0.7221
  657TMC3    C4 9776   3.083   0.289  15.137 -0.3573 -0.9555  0.5269
  657TMC3    C5 9777   3.091   0.421  15.156 -0.0861  0.2255  0.4399
  657TMC3    C6 9778   3.130   0.463  15.286 -0.7693 -0.2246 -0.5292
  657TMC3     C 9779   3.076   0.059  15.231 -0.7096  0.2082  0.1905
  657TMC3     O 9780   2.997   0.028  15.145 -0.4283  0.1851  0.2924
  657TMC3     H 9781   3.177   0.172  15.443 -2.9606 -1.2510 -1.1260
  657TMC3    H1 9782   3.067   0.242  15.040  1.0407 -1.6725  0.6434
  657TMC3    H2 9783   3.146   0.569  15.307  0.0062 -0.3599 -0.4308
  657TMC3    C7 9784   3.017   0.504  15.061 -0.8111  0.1462  0.2458
  657TMC3    C8 9785   3.139   0.432  15.511  0.9557  0.3859 -0.5130
  657TMC3    O1 9786   3.017   0.472  14.944 -0.2083 -0.2404  0.0452
  657TMC3    O2 9787   3.033   0.494  15.521  0.0009 -0.0953 -0.5293
  658MPD2     C 9788   4.623   1.263  14.660 -0.0333 -0.1216 -0.1540
  658MPD2    C1 9789   4.601   1.127  14.691 -0.4792 -0.0722  0.4695
  658MPD2    C2 9790   4.641   1.038  14.597  0.1567 -0.0696  0.3721
  658MPD2    C3 9791   4.712   1.069  14.480  0.2159  0.0181  0.2121
  658MPD2    C4 9792   4.735   1.204  14.452 -0.1285  0.0227  0.6019
  658MPD2    C5 9793   4.681   1.295  14.544 -0.0700 -0.5329 -0.0944
  658MPD2     H 9794   4.618   0.935  14.618  4.1716 -1.4030 -1.7542
  658MPD2    H1 9795   0.050   1.236  14.362  2.4200  0.5041  2.2762
  658MPD2    H2 9796   4.590   1.344  14.724  1.8037  1.5808 -1.3888
  658MPD2    H3 9797   4.706   1.400  14.533 -1.1801 -0.1881  0.6984
  658MPD2     N 9798   0.022   0.965  14.397  0.2580 -0.2446  0.2644
  658MPD2    H5 9799   4.732   0.871  14.422 -2.7038  0.5635 -0.0875
  658MPD2    N1 9800   4.524   1.090  14.799  0.5044  0.2081 -0.2190
  658MPD2    H7 9801   4.490   1.175  14.843 -0.9421 -0.4930  0.0184
  659TMC3    C1 9802   4.384   1.000  14.955  0.8131 -0.5099 -0.5382
  659TMC3    C2 9803   4.436   1.093  15.043 -0.4725 -0.2960  0.6990
  659TMC3    C3 9804   4.367   1.099  15.160 -0.0264 -0.6396 -0.1655
  659TMC3    C4 9805   4.277   0.921  14.974 -0.6441  0.0937  0.0256
  659TMC3    C5 9806   4.200   0.953  15.080 -0.5642  0.2975 -0.0719
  659TMC3    C6 9807   4.245   1.035  15.177 -0.6801  0.1752 -0.3720
  659TMC3     C 9808   4.457   0.974  14.832 -0.3487 -0.3282  0.7473
  659TMC3     O 9809   4.428   0.874  14.769 -0.2440 -0.0379  0.0198
  659TMC3     H 9810   4.530   1.146  15.034 -0.9871  0.7082  1.1384
  659TMC3    H1 9811   4.242   0.867  14.886  0.6746  0.1646 -0.5399
  659TMC3    H2 9812   4.188   1.042  15.270  1.4250  0.2662  0.9119
  659TMC3    C7 9813   4.096   0.862  15.123 -0.2570  0.1228  0.1320
  659TMC3    C8 9814   4.433   1.172  15.267 -0.5814  0.0579  0.0304
  659TMC3    O1 9815   4.031   0.889  15.221  0.0639 -0.2297  0.3774
  659TMC3    O2 9816   4.434   1.296  15.258 -0.3185 -0.2280  0.3999
  660MPD2     C 9817   2.651   4.575  12.650 -0.2407 -0.1840  0.2984
  660MPD2    C1 9818   2.534   4.529  12.707 -0.3103  0.2317  0.4724
  660MPD2    C2 9819   2.535   4.437  12.809 -0.0749 -0.3653 -0.1166
  660MPD2    C3 9820   2.656   4.383  12.847  0.1248  0.3483  0.6226
  660MPD2    C4 9821   2.775   4.426  12.784  0.4580  0.7143  0.3085
  660MPD2    C5 9822   2.771   4.522  12.689 -0.0209  0.2477 -0.3033
  660MPD2     H 9823   2.443   4.409  12.858 -0.5104  2.1889  0.5455
  660MPD2    H1 9824   2.870   4.406  12.834 -0.6221 -1.4223  1.5131
  660MPD2    H2 9825   2.643   4.656  12.578 -1.7703 -2.1561 -1.7473
  660MPD2    H3 9826   2.858   4.549  12.631  0.8606  2.3064  1.9790
  660MPD2     N 9827   2.668   4.289  12.950  0.4660 -0.2891  0.3346
  660MPD2    H5 9828   2.761   4.273  12.985 -0.6322 -2.2978  2.3193
  660MPD2    N1 9829   2.421   4.588  12.659 -0.1212  0.4196  0.3737
  660MPD2    H7 9830   2.431   4.676  12.610 -0.2917 -0.3470 -1.0509
  661TMC3    C1 9831   2.198   4.652  12.631 -0.1301  0.9472 -0.2748
  661TMC3    C2 9832   2.240   4.691  12.509 -0.4162  0.0496  0.3677
  661TMC3    C3 9833   2.140   4.703  12.413  0.3431  0.2944  0.5316
  661TMC3    C4 9834   2.067   4.625  12.667  0.2003  0.4486 -0.1972
  661TMC3    C5 9835   1.971   4.647  12.576 -0.2989 -0.7692  0.2435
  661TMC3    C6 9836   2.006   4.685  12.447  0.3267 -1.4062  0.1037
  661TMC3     C 9837   2.293   4.560  12.692  0.1153  0.2625 -0.5741
  661TMC3     O 9838   2.244   4.469  12.758 -0.0015  0.3858  0.6618
  661TMC3     H 9839   2.344   4.689  12.478 -0.9343 -1.1755 -1.2816
  661TMC3    H1 9840   2.047   4.570  12.758 -0.9440  2.7120  0.8975
  661TMC3    H2 9841   1.925   4.711  12.380  1.4417 -1.3522 -1.2219
  661TMC3    C7 9842   1.832   4.655  12.625  0.7423 -0.4722 -0.0094
  661TMC3    C8 9843   2.183   0.000  12.280 -0.3196  0.1254 -1.0100
  661TMC3    O1 9844   1.808   4.669  12.741  0.1056 -0.0126 -0.4908
  661TMC3    O2 9845   2.303   0.028  12.271  0.6675  0.4484 -0.0604
  662MPD2     C 9846   3.139   3.924  17.190 -0.1375  0.0075  0.3729
  662MPD2    C1 9847   3.056   3.910  17.296  0.0017  0.7897  0.0219
  662MPD2    C2 9848   2.972   4.017  17.327  0.0591 -0.4447  0.5428
  662MPD2    C3 9849   2.974   4.136  17.260  0.8788 -0.0501  0.7675
  662MPD2    C4 9850   3.046   4.146  17.146 -0.1807  0.3371  0.2878
  662MPD2    C5 9851   3.117   4.034  17.111 -0.0197  0.4358 -0.2148
  662MPD2     H 9852   2.907   3.998  17.412  0.4759 -0.5155  0.8468
  662MPD2    H1 9853   3.024   4.210  17.061 -1.1288  0.5261  0.6736
  662MPD2    H2 9854   3.222   3.860  17.162  0.0244  0.7889 -0.9818
  662MPD2    H3 9855   3.176   4.038  17.020  0.3408  1.0742  0.0481
  662MPD2     N 9856   2.883   4.238  17.287 -0.7657  0.4219  0.6180
  662MPD2    H5 9857   2.856   4.294  17.207 -0.3391  1.2119  1.0195
  662MPD2    N1 9858   3.053   3.794  17.380 -0.1028 -0.5267 -0.8019
  662MPD2    H7 9859   2.994   3.795  17.464  1.9198 -1.2446  0.6115
  663TMC3    C1 9860   3.044   3.571  17.437 -0.3085  0.5935  0.9156
  663TMC3    C2 9861   2.970   3.617  17.545  0.3566  0.0778 -0.1629
  663TMC3    C3 9862   2.885   3.535  17.611 -0.1579  0.8052 -0.7544
  663TMC3    C4 9863   3.014   3.458  17.368 -0.0645  0.5537 -0.3644
  663TMC3    C5 9864   2.911   3.378  17.421  0.1240  0.3652 -0.3686
  663TMC3    C6 9865   2.852   3.416  17.537 -0.3787  0.7923 -0.2535
  663TMC3     C 9866   3.109   3.674  17.361 -0.0997 -0.0950  0.1856
  663TMC3     O 9867   3.187   3.637  17.277 -0.5186 -0.5888  0.4564
  663TMC3     H 9868   3.009   3.702  17.600  0.9075  0.1763 -0.7042
  663TMC3    H1 9869   3.067   3.432  17.277 -0.5303 -0.2668 -0.4013
  663TMC3    H2 9870   2.753   3.378  17.556 -0.4735  0.8147 -0.7039
  663TMC3    C7 9871   2.833   3.305  17.324 -0.0624 -0.7019 -0.5392
  663TMC3    C8 9872   2.766   3.610  17.657 -0.2392 -0.4706  0.3229
  663TMC3    O1 9873   2.875   3.315  17.210 -0.1235 -0.3772 -0.3989
  663TMC3    O2 9874   2.734   3.708  17.593 -0.2594 -0.4666  0.7563
  664MPD2     C 9875   0.227   2.313  17.402 -0.1703 -0.3125 -0.6589
  664MPD2    C1 9876   0.355   2.290  17.443 -0.1315 -0.0577 -0.3524
  664MPD2    C2 9877   0.391   2.294  17.577  0.6206  0.5135  0.2844
  664MPD2    C3 9878   0.294   2.335  17.671  0.2823 -0.3071  0.0961
  664MPD2    C4 9879   0.165   2.369  17.629  0.3242 -0.2876  0.4064
  664MPD2    C5 9880   0.141   2.364  17.494 -0.6193 -0.3275 -0.5201
  664MPD2     H 9881   0.495   2.284  17.604  1.2001  0.7450 -1.8568
  664MPD2    H1 9882   0.087   2.406  17.694  1.0641  1.2957  0.3860
  664MPD2    H2 9883   0.204   2.325  17.297 -0.1775 -2.1968 -0.8700
  664MPD2    H3 9884   0.046   2.401  17.458 -0.8598 -0.0391  0.4065
  664MPD2     N 9885   0.331   2.332   0.059 -0.1464  0.1211 -0.0605
  664MPD2    H5 9886   0.424   2.299   0.084 -0.4906 -0.4394  0.4947
  664MPD2    N1 9887   0.468   2.267  17.361 -0.4248 -0.6536 -0.5526
  664MPD2    H7 9888   0.561   2.263  17.401 -2.0302 -2.0096  2.9854
  665TMC3    C1 9889   0.315   2.331   0.284 -0.5662  0.0775  0.6613
  665TMC3    C2 9890   0.230   2.278   0.377  0.2380 -0.0132 -0.2154
  665TMC3    C3 9891   0.285   2.256   0.503 -0.2729 -0.1512 -0.3511
  665TMC3    C4 9892   0.443   2.364   0.312 -0.1352  0.4949 -0.1601
  665TMC3    C5 9893   0.490   2.347   0.445 -0.1754  0.5711 -0.5234
  665TMC3    C6 9894   0.410   2.290   0.542  0.2543  0.2629  0.4074
  665TMC3     C 9895   0.250   2.366   0.164 -0.0809 -0.6102 -0.3107
  665TMC3     O 9896   0.134   2.401   0.173 -0.7817 -0.2679 -0.0300
  665TMC3     H 9897   0.129   2.246   0.355 -0.7635  2.5013  0.7389
  665TMC3    H1 9898   0.511   2.416   0.244 -2.2002 -0.1459 -2.6904
  665TMC3    H2 9899   0.443   2.258   0.640  0.9210  1.9235  0.7146
  665TMC3    C7 9900   0.636   2.354   0.460 -0.2688  0.1094 -0.6208
  665TMC3    C8 9901   0.209   2.170   0.594  0.2400  0.7533  0.2633
  665TMC3    O1 9902   0.698   2.329   0.359 -0.1475  0.2347  0.2959
  665TMC3    O2 9903   0.284   2.102   0.662  0.1334  0.2174 -0.1774
  666TMC3    C1 9904   0.083   3.148   9.965 -0.5745 -0.5329  0.3129
  666TMC3    C2 9905   0.135   3.039  10.026  0.0801  0.0861 -0.4276
  666TMC3    C3 9906   0.271   3.027  10.028 -0.0977  0.6481 -0.0733
  666TMC3    C4 9907   0.159   3.258   9.929  0.3203  0.3997  0.2008
  666TMC3    C5 9908   0.294   3.251   9.937 -0.4066 -0.2504  0.7371
  666TMC3    C6 9909   0.355   3.134   9.981  0.0135  0.2284 -0.0664
  666TMC3     C 9910   4.679   3.169   9.957 -0.3025  0.4896 -0.2093
  666TMC3     O 9911   4.639   3.281   9.923  0.1583  0.3794  0.2001
  666TMC3     H 9912   0.072   2.960  10.064  0.9478 -0.4941 -0.1988
  666TMC3    H1 9913   0.117   3.357   9.915 -0.3395 -0.1669 -1.8482
  666TMC3    H2 9914   0.462   3.136   9.999 -0.4927  1.1095  2.8415
  666TMC3    C7 9915   0.363   3.376   9.972 -0.0314 -0.3443 -0.5575
  666TMC3    C8 9916   0.333   2.919  10.114  0.4264 -0.0592  0.1682
  666TMC3    O1 9917   0.445   3.426   9.894 -0.4007 -0.0015  0.6708
  666TMC3    O2 9918   0.256   2.861  10.188  0.1541  0.1878  0.5070
  667MPD2     C 9919   1.829   2.410  14.784  0.3447 -0.1136 -0.2262
  667MPD2    C1 9920   1.740   2.439  14.886  0.1051 -0.4497  0.1485
  667MPD2    C2 9921   1.625   2.355  14.905  0.2833 -0.0559 -0.1909
  667MPD2    C3 9922   1.591   2.257  14.815  0.0053  0.7274 -0.0241
  667MPD2    C4 9923   1.676   2.246  14.705  0.6433 -0.3425 -0.7250
  667MPD2    C5 9924   1.801   2.309  14.694  0.4639 -0.7662 -0.2466
  667MPD2     H 9925   1.570   2.369  14.997 -0.8631 -2.6879 -0.4627
  667MPD2    H1 9926   1.649   2.176  14.627 -0.5740 -0.6577 -0.0182
  667MPD2    H2 9927   1.918   2.470  14.768  0.5941 -0.9181 -1.7802
  667MPD2    H3 9928   1.857   2.299  14.602  0.3634  0.6090 -0.4565
  667MPD2     N 9929   1.470   2.176  14.805 -0.1067 -0.5394  0.0377
  667MPD2    H5 9930   1.455   2.117  14.724 -1.2798 -2.0781  1.3854
  667MPD2    N1 9931   1.767   2.546  14.979  0.7979 -0.1915  0.3649
  667MPD2    H7 9932   1.692   2.563  15.045  1.0564  1.1609  0.2961
  668TMC3    C1 9933   1.894   2.706  15.103  0.0356 -0.3149  0.1890
  668TMC3    C2 9934   1.951   2.830  15.091 -0.4689 -0.2666 -0.4418
  668TMC3    C3 9935   1.963   2.907  15.209  0.0907  0.1385  0.0447
  668TMC3    C4 9936   1.831   2.659  15.218  0.3377  0.1089  0.1394
  668TMC3    C5 9937   1.845   2.740  15.329 -0.5056 -0.6172  0.0032
  668TMC3    C6 9938   1.904   2.866  15.325 -0.3523 -0.0841 -0.7652
  668TMC3     C 9939   1.879   2.629  14.978 -0.3540 -0.3605 -0.4470
  668TMC3     O 9940   1.955   2.658  14.888  0.3503 -0.2076  0.3768
  668TMC3     H 9941   1.991   2.867  14.996  0.2764 -2.3159 -0.9183
  668TMC3    H1 9942   1.811   2.553  15.224  3.7918 -0.6897 -2.3947
  668TMC3    H2 9943   1.904   2.935  15.409  1.7788  0.4166 -1.1746
  668TMC3    C7 9944   1.786   2.692  15.453  0.1612  0.4221 -0.6723
  668TMC3    C8 9945   2.019   3.045  15.199 -0.1741  0.5785  0.0994
  668TMC3    O1 9946   1.827   2.745  15.560  0.5734  0.1416  0.1307
  668TMC3    O2 9947   1.983   3.130  15.282 -0.6644 -0.2796 -0.3391
  669TMC3    C1 9948   4.606   2.527  14.671  0.1363  0.3659  0.7815
  669TMC3    C2 9949   4.487   2.557  14.608  0.2253  0.1757 -0.1643
  669TMC3    C3 9950   4.488   2.664  14.524 -0.0365  0.0131  0.6155
  669TMC3    C4 9951   4.724   2.593  14.651 -0.3508  0.7076  0.1840
  669TMC3    C5 9952   4.715   2.704  14.573  0.0989  0.4259 -1.0050
  669TMC3    C6 9953   4.603   2.736  14.496  0.3229 -0.3564  0.2203
  669TMC3     C 9954   4.610   2.399  14.743 -0.3794  0.1403 -0.0809
  669TMC3     O 9955   4.510   2.333  14.746 -0.5040  0.6809 -0.9004
  669TMC3     H 9956   4.391   2.509  14.619  0.1955  0.1079 -0.7069
  669TMC3    H1 9957   0.079   2.581  14.706 -0.0668  0.1868 -0.4228
  669TMC3    H2 9958   4.582   2.827  14.441 -2.5408 -0.7370  0.6848
  669TMC3    C7 9959   0.093   2.789  14.569  0.1114  0.2512  0.3821
  669TMC3    C8 9960   4.374   2.682  14.435  0.2103 -0.0871  0.1915
  669TMC3    O1 9961   0.160   2.791  14.674 -0.4363  0.3042  0.1369
  669TMC3    O2 9962   4.289   2.594  14.440  0.2159 -0.1696 -0.1179
  670MPD2     C 9963   2.678   0.058  13.442  0.5029  0.4727  0.2371
  670MPD2    C1 9964   2.672   0.150  13.550  0.4620 -0.8324 -0.4666
  670MPD2    C2 9965   2.670   0.102  13.675  0.2385  0.5493 -0.0620
  670MPD2    C3 9966   2.664   4.703  13.693 -0.3297  0.2561 -0.0972
  670MPD2    C4 9967   2.679   4.614  13.587 -0.1096 -0.5827  1.0796
  670MPD2    C5 9968   2.681   4.660  13.459 -0.0396 -0.5016 -0.1779
  670MPD2     H 9969   2.664   0.165  13.763 -0.7201 -1.6429  1.4302
  670MPD2    H1 9970   2.679   4.505  13.590 -0.1739 -0.5603  1.8932
  670MPD2    H2 9971   2.667   0.085  13.337 -1.5345  2.5488  0.9816
  670MPD2    H3 9972   2.688   4.593  13.374  0.8376 -0.5787 -0.0346
  670MPD2     N 9973   2.651   4.667  13.832 -0.1920 -0.5849  0.4394
  670MPD2    H5 9974   2.626   0.007  13.892  1.3550  2.0371 -2.2723
  670MPD2    N1 9975   2.683   0.285  13.533  0.0738 -0.0750  0.0700
  670MPD2    H7 9976   2.668   0.336  13.620  2.9702  0.0748  0.4578
  671TMC3    C1 9977   2.601   4.541  14.036  1.0808 -0.7172  0.1448
  671TMC3    C2 9978   2.659   4.627  14.120  0.4998 -0.3308 -0.3730
  671TMC3    C3 9979   2.686   4.589  14.250 -0.5123 -0.6340 -0.2660
  671TMC3    C4 9980   2.550   4.428  14.086  0.2682 -0.1227 -0.0185
  671TMC3    C5 9981   2.548   4.406  14.223 -0.2550 -0.4583 -0.7955
  671TMC3    C6 9982   2.617   4.491  14.310 -0.0431 -0.7440  0.0002
  671TMC3     C 9983   2.624   4.542  13.885 -0.5516 -0.2676  0.8370
  671TMC3     O 9984   2.614   4.436  13.821  0.1600 -0.1151 -0.7035
  671TMC3     H 9985   2.732   4.691  14.070  1.3133 -0.4615  0.6588
  671TMC3    H1 9986   2.504   4.360  14.015  0.2894 -3.2316  2.9768
  671TMC3    H2 9987   2.612   4.466  14.415 -0.2348  0.0559  0.1873
  671TMC3    C7 9988   2.528   4.266  14.257  0.4208  0.4355 -0.4966
  671TMC3    C8 9989   2.823   4.552  14.273  0.3562  0.2486  1.0477
  671TMC3    O1 9990   2.541   4.191  14.158 -0.6669  0.1701  0.0641
  671TMC3    O2 9991   2.889   4.546  14.174 -0.2647  0.1355 -0.7212
  672MPD2     C 9992   3.060   0.338   1.457  0.4442 -0.2078  0.0925
  672MPD2    C1 9993   3.173   0.257   1.428 -0.6626 -0.0962  0.1970
  672MPD2    C2 9994   3.298   0.283   1.484 -0.9623 -0.4005 -0.3198
  672MPD2    C3 9995   3.315   0.389   1.568 -0.6522  0.1533  0.1609
  672MPD2    C4 9996   3.210   0.470   1.593  0.5125  0.1513 -0.2313
  672MPD2    C5 9997   3.082   0.441   1.549  0.2247 -0.2733 -0.0978
  672MPD2     H 9998   3.383   0.227   1.446 -1.6268 -2.1433  0.7788
  672MPD2    H1 9999   3.222   0.549   1.666  2.6101  0.5764 -1.0220
  672MPD2    H210000   2.961   0.310   1.422  1.3245 -1.2522 -1.5749
  672MPD2    H310001   3.005   0.507   1.586  0.9446  1.0256 -0.9046
  672MPD2     N10002   3.433   0.423   1.634 -0.2718  0.2796 -0.0211
  672MPD2    H510003   3.430   0.507   1.691  0.4866  0.2601  0.0459
  672MPD2    N110004   3.176   0.166   1.319  0.6347 -0.6381  0.1561
  672MPD2    H710005   3.259   0.115   1.291  0.9604 -0.1108  0.1533
  673TMC3    C110006   3.099   0.073   1.117 -0.2111  0.2315 -0.1450
  673TMC3    C210007   3.193   4.718   1.130 -0.0797 -0.1944  0.2812
  673TMC3    C310008   3.205   4.634   1.022 -0.3791  0.3646  0.1711
  673TMC3    C410009   3.027   0.100   1.006 -0.6823 -0.6770  0.0827
  673TMC3    C510010   3.043   0.009   0.900  0.9037 -0.4698 -0.3418
  673TMC3    C610011   3.139   4.651   0.902  0.0175 -0.3061  0.0827
  673TMC3     C10012   3.067   0.153   1.232 -0.6446 -0.0092  0.2697
  673TMC3     O10013   2.974   0.231   1.218 -0.7507 -0.6337  0.3618
  673TMC3     H10014   3.210   4.680   1.230  0.7580 -0.8071 -0.0928
  673TMC3    H110015   2.952   0.176   0.990  1.6122  1.0826 -2.4475
  673TMC3    H210016   3.150   4.585   0.817  0.3267 -0.6104  0.3567
  673TMC3    C710017   3.037   0.072   0.767 -0.1670  0.8345 -0.8377
  673TMC3    C810018   3.338   4.588   0.995  0.3739 -0.5232 -0.2167
  673TMC3    O110019   2.992   0.003   0.676 -0.0644  0.5763  0.1507
  673TMC3    O210020   3.370   4.575   0.878 -0.1679 -0.0770  0.0650
  674MPD2     C10021   3.218   0.328   0.090 -0.1163  0.3092 -0.0502
  674MPD2    C110022   3.125   0.226   0.066 -0.0647 -0.4277  0.5186
  674MPD2    C210023   2.992   0.265   0.057 -0.2295 -0.2915  0.2283
  674MPD2    C310024   2.949   0.396   0.072 -0.3094 -0.1894 -0.1177
  674MPD2    C410025   3.043   0.491   0.087 -0.8232  0.2385 -0.4333
  674MPD2    C510026   3.173   0.457   0.103  0.0083  0.2980 -0.6157
  674MPD2     H10027   2.915   0.189   0.045 -1.6322  1.1135  0.3891
  674MPD2    H110028   3.025   0.598   0.083  1.3616  0.5719 -1.3178
  674MPD2    H210029   3.326   0.324   0.101  0.1465  0.4639 -2.4772
  674MPD2    H310030   3.245   0.537   0.113  1.6290 -1.2773  0.3924
  674MPD2     N10031   2.814   0.425   0.073  0.3264 -0.2904 -0.2636
  674MPD2    H510032   2.759   0.340   0.061  0.8307 -1.0129  2.4980
  674MPD2    N110033   3.178   0.094   0.056  0.7084 -0.6127 -0.3844
  674MPD2    H710034   3.279   0.086   0.061  0.6527 -0.1536  1.2162
  675TMC3    C110035   3.173   4.598   0.049  0.4010 -0.4837 -0.1339
  675TMC3    C210036   3.133   4.487  17.734  0.1066 -0.1077 -0.1816
  675TMC3    C310037   3.211   4.374  17.737  0.0368 -0.3335 -0.6068
  675TMC3    C410038   3.292   4.599   0.128 -0.7446  0.2580 -0.7670
  675TMC3    C510039   3.368   4.481   0.127  0.1534  0.0671  0.1402
  675TMC3    C610040   3.327   4.368   0.055  0.4754  0.5079  0.0144
  675TMC3     C10041   3.098   4.716   0.033  0.0228  0.6071 -0.2716
  675TMC3     O10042   2.981   4.696   0.008 -0.7716  0.0823  0.2726
  675TMC3     H10043   3.036   4.487  17.685 -0.8255  1.3381  1.7000
  675TMC3    H110044   3.313   4.683   0.193 -0.9644 -0.5362  0.3433
  675TMC3    H210045   3.377   4.274   0.073  0.4425  0.0253 -2.4166
  675TMC3    C710046   3.487   4.462   0.212  1.3806  0.1262  0.2297
  675TMC3    C810047   3.167   4.248  17.683 -0.3802 -1.4487 -0.3549
  675TMC3    O110048   3.533   4.348   0.208 -0.0626 -0.7726 -0.1032
  675TMC3    O210049   3.260   4.193  17.625  0.4841 -0.3678 -0.0970
  676MPD2     C10050   0.703   3.900  11.199  0.6625  0.4835 -0.1181
  676MPD2    C110051   0.672   3.788  11.270  0.2871  0.8755 -0.4764
  676MPD2    C210052   0.651   3.667  11.207  0.1536 -0.1353  0.9720
  676MPD2    C310053   0.682   3.655  11.069 -1.2367 -1.0920  0.2347
  676MPD2    C410054   0.721   3.768  11.000 -0.2912  0.0515  0.0464
  676MPD2    C510055   0.728   3.889  11.070 -0.3245  0.0213  0.0008
  676MPD2     H10056   0.606   3.578  11.250  1.6273 -0.8096  1.1278
  676MPD2    H110057   0.760   3.776  10.899  0.1444  3.0512  0.4460
  676MPD2    H210058   0.700   4.001  11.239 -1.4842  0.9216 -1.3775
  676MPD2    H310059   0.768   3.964  11.004  1.5573  0.5352  1.7345
  676MPD2     N10060   0.666   3.524  11.017 -0.8180 -0.7469  0.0066
  676MPD2    H510061   0.636   3.451  11.081  0.6435 -1.1653  0.2120
  676MPD2    N110062   0.637   3.792  11.408  0.3049  0.2341 -0.5620
  676MPD2    H710063   0.622   3.702  11.451  0.9924  0.7298  0.7147
  677TMC3    C110064   0.593   3.880  11.617 -0.4889  0.4158  0.7319
  677TMC3    C210065   0.498   3.781  11.630  0.1293 -0.4806  0.6985
  677TMC3    C310066   0.463   3.752  11.759 -0.3554 -0.1398  0.4376
  677TMC3    C410067   0.634   3.962  11.719 -0.4576  0.2269 -0.0248
  677TMC3    C510068   0.581   3.931  11.840 -0.1540  0.3195 -0.4395
  677TMC3    C610069   0.494   3.832  11.865 -0.0553  0.0510 -0.0382
  677TMC3     C10070   0.653   3.904  11.487 -0.2730 -0.0666 -0.1114
  677TMC3     O10071   0.702   4.015  11.467 -0.4865 -0.4902  0.5774
  677TMC3     H10072   0.460   3.728  11.544 -0.0179  3.0249 -1.3820
  677TMC3    H110073   0.723   4.023  11.713  2.2730 -4.0023 -2.4783
  677TMC3    H210074   0.450   3.824  11.964 -1.2744 -1.1678 -0.6828
  677TMC3    C710075   0.614   4.010  11.960  0.1566 -0.1209  0.1782
  677TMC3    C810076   0.405   3.623  11.789 -0.1676 -0.2639 -0.3649
  677TMC3    O110077   0.588   3.964  12.074  0.0721 -0.1997  0.0567
  677TMC3    O210078   0.446   3.521  11.731  0.0699 -0.4713  0.1408
  678MPD2     C10079   1.780   2.498   1.487  0.0174 -0.6026  0.3926
  678MPD2    C110080   1.803   2.512   1.349 -0.2095  0.2969 -0.2628
  678MPD2    C210081   1.720   2.583   1.268 -0.0070  0.2871 -0.1690
  678MPD2    C310082   1.607   2.638   1.317  0.1830  0.0597 -0.1995
  678MPD2    C410083   1.576   2.616   1.450 -0.7841 -0.1104  0.0612
  678MPD2    C510084   1.660   2.549   1.531  0.4259 -0.7398 -0.1800
  678MPD2     H10085   1.744   2.590   1.162  3.1510  0.8947  0.5944
  678MPD2    H110086   1.489   2.661   1.497 -1.8274 -1.2149 -0.8139
  678MPD2    H210087   1.843   2.431   1.545 -2.0828 -2.2025  0.8353
  678MPD2    H310088   1.633   2.529   1.633 -0.8621  0.9126 -0.1981
  678MPD2     N10089   1.515   2.680   1.221 -0.5116  0.4199 -0.5511
  678MPD2    H510090   1.547   2.677   1.125  0.0174 -0.7741 -0.3304
  678MPD2    N110091   1.920   2.467   1.283 -0.1595 -0.2915  0.1037
  678MPD2    H710092   1.930   2.504   1.190  1.8878 -0.8441  0.1023
  679TMC3    C110093   2.366   2.386   1.258  0.2602  0.3636  0.1303
  679TMC3    C210094   2.252   2.355   1.323 -0.3560  0.7302 -0.8389
  679TMC3    C310095   2.135   2.376   1.253  1.0874 -0.1754  0.4877
  679TMC3    C410096   2.372   2.424   1.129  0.1334 -0.0936 -0.1768
  679TMC3    C510097   2.253   2.441   1.068 -0.6789 -0.1756  0.2013
  679TMC3    C610098   2.131   2.422   1.127  0.0771  0.6096  0.0707
  679TMC3     C10099   2.498   2.363   1.323 -0.9540  0.5841 -0.2513
  679TMC3     O10100   2.595   2.412   1.270  0.4687  0.3700 -0.6122
  679TMC3     H10101   2.257   2.349   1.431  0.1417  0.3546 -0.8832
  679TMC3    H110102   2.461   2.463   1.081 -0.1080  1.5593  0.7122
  679TMC3    H210103   2.038   2.434   1.071 -0.5250 -1.2978  0.6633
  679TMC3    C710104   2.253   2.504   0.942 -0.4472 -0.5831 -0.1169
  679TMC3    C810105   2.010   2.377   1.331 -0.4710 -0.3457 -0.0711
  679TMC3    O110106   2.156   2.569   0.912 -0.4045  0.2794  0.6705
  679TMC3    O210107   2.009   2.321   1.440 -0.4183 -0.5267  0.4749
  680MPD2     C10108   2.109   2.083  13.962  0.0648 -0.2483 -0.1881
  680MPD2    C110109   2.190   2.035  14.066  0.1851  0.3745 -0.4408
  680MPD2    C210110   2.283   2.120  14.127 -0.1180  0.4928  0.1170
  680MPD2    C310111   2.296   2.252  14.084  0.3763  0.0944 -0.3949
  680MPD2    C410112   2.221   2.295  13.978 -0.0497 -0.2389 -1.1051
  680MPD2    C510113   2.128   2.212  13.920 -0.2332 -0.0121 -1.2548
  680MPD2     H10114   2.367   2.088  14.187  1.4848 -1.3202 -3.1014
  680MPD2    H110115   2.239   2.389  13.927 -0.6674  0.5244  0.0778
  680MPD2    H210116   2.027   2.027  13.919 -1.9928  0.1540  3.2708
  680MPD2    H310117   2.073   2.255  13.838 -0.6232  0.5438 -0.7046
  680MPD2     N10118   2.398   2.344  14.127  0.8065 -0.3137 -0.3772
  680MPD2    H510119   2.419   2.422  14.066 -0.8181 -1.2578 -2.1272
  680MPD2    N110120   2.193   1.902  14.112 -0.7267  0.2376  0.0749
  680MPD2    H710121   2.253   1.881  14.191 -0.2044  0.4992 -0.2523
  681TMC3    C110122   2.108   1.689  14.144  0.1432 -0.3617 -0.2929
  681TMC3    C210123   2.017   1.650  14.238 -0.4095  0.3134  0.0788
  681TMC3    C310124   2.062   1.593  14.354 -0.3826 -0.4675  0.7462
  681TMC3    C410125   2.236   1.654  14.148 -0.3892  1.0186  0.0539
  681TMC3    C510126   2.279   1.585  14.262  0.0749 -0.3871  0.3288
  681TMC3    C610127   2.195   1.563  14.367  0.9676  0.3339 -0.0882
  681TMC3     C10128   2.092   1.818  14.087  0.3438 -0.6066 -0.1253
  681TMC3     O10129   1.985   1.843  14.027 -0.3832  0.4863 -0.2822
  681TMC3     H10130   1.913   1.683  14.239 -0.1588  1.0698  1.9321
  681TMC3    H110131   2.301   1.680  14.065 -2.3444  0.3628 -1.6700
  681TMC3    H210132   2.241   1.518  14.455 -1.1966 -0.3372  0.7028
  681TMC3    C710133   2.409   1.526  14.268  0.6062  0.4734  0.0417
  681TMC3    C810134   1.994   1.644  14.469 -0.2680 -0.3858  0.6703
  681TMC3    O110135   2.440   1.461  14.369  0.8955  0.0964 -0.2780
  681TMC3    O210136   1.873   1.646  14.462 -0.6259  0.2225 -0.0797
  682MPD2     C10137   0.071   4.188  11.078 -0.0177  0.0275 -0.3417
  682MPD2    C110138   4.707   4.100  11.060  0.2134 -0.7149  0.0948
  682MPD2    C210139   4.588   4.118  11.131  0.1375 -0.2764  0.5541
  682MPD2    C310140   4.572   4.217  11.228 -0.3772  0.3227  0.2044
  682MPD2    C410141   4.681   4.303  11.255  0.2710 -0.2121 -0.0751
  682MPD2    C510142   0.054   4.288  11.173  0.4999  0.1562 -0.7308
  682MPD2     H10143   4.505   4.051  11.116 -0.9625  1.0788  0.6064
  682MPD2    H110144   4.688   4.380  11.332 -0.2659  1.0882 -1.3265
  682MPD2    H210145   0.169   4.167  11.037  0.7768  0.2946  1.4004
  682MPD2    H310146   0.136   4.360  11.179  0.4556  0.2593 -1.3605
  682MPD2     N10147   4.448   4.230  11.297  0.5048  0.8507 -0.6072
  682MPD2    H510148   4.444   4.303  11.367  1.1194  1.7512 -1.5211
  682MPD2    N110149   4.729   3.993  10.970  0.0009 -0.2774  0.0877
  682MPD2    H710150   0.082   3.984  10.925 -1.1949 -1.9344 -1.9732
  683TMC3    C110151   4.237   4.049  11.573  0.2532 -0.1547  0.0616
  683TMC3    C210152   4.129   3.969  11.535  0.2066 -0.7114 -0.0082
  683TMC3    C310153   4.069   4.006  11.418  0.1266  0.5489 -0.5786
  683TMC3    C410154   4.291   4.149  11.491 -0.0924 -0.0551 -0.4186
  683TMC3    C510155   4.233   4.173  11.368 -0.3619 -0.6386  0.2128
  683TMC3    C610156   4.119   4.105  11.334  0.3300 -0.2908  0.1189
  683TMC3     C10157   4.289   4.037  11.711  0.7196 -0.3462 -0.5154
  683TMC3     O10158   4.366   4.123  11.750  0.0090  0.4948  1.1574
  683TMC3     H10159   4.099   3.876  11.582 -1.0966 -1.0539 -1.4739
  683TMC3    H110160   4.367   4.219  11.526  1.5067 -2.2367  0.5030
  683TMC3    H210161   4.070   4.107  11.237  0.9592  1.1028 -0.1610
  683TMC3    C710162   4.324   4.182  11.260  0.5749 -0.0158 -0.9512
  683TMC3    C810163   3.976   3.904  11.356  0.3743  0.2129 -0.0946
  683TMC3    O110164   4.290   4.127  11.158  0.1547  0.3767  0.3479
  683TMC3    O210165   3.875   3.943  11.300 -0.1507 -0.8708  0.7170
  684MPD2     C10166   2.501   2.539  16.729 -0.3806 -0.0867  0.7652
  684MPD2    C110167   2.635   2.567  16.718 -0.0684  0.5583  0.1339
  684MPD2    C210168   2.684   2.700  16.729 -0.0675 -0.8200  0.3930
  684MPD2    C310169   2.593   2.804  16.749 -0.4370 -0.2012 -0.3766
  684MPD2    C410170   2.461   2.770  16.770 -0.3647 -0.0730 -0.3425
  684MPD2    C510171   2.417   2.644  16.759 -0.6480  0.1915  0.3427
  684MPD2     H10172   2.785   2.732  16.705 -0.5134  2.2186  2.4923
  684MPD2    H110173   2.391   2.846  16.804 -1.4344 -1.1282 -0.2262
  684MPD2    H210174   2.452   2.443  16.714  0.8812 -1.1926  3.8123
  684MPD2    H310175   2.310   2.634  16.777 -0.3663 -0.7650  1.5108
  684MPD2     N10176   2.633   2.940  16.742 -0.2396  0.1889 -0.0462
  684MPD2    H510177   2.560   3.009  16.725  0.8382  1.0851 -1.0853
  684MPD2    N110178   2.730   2.474  16.678  0.3055 -0.3781 -0.5285
  684MPD2    H710179   2.825   2.503  16.658 -0.2555  1.0424 -1.0873
  685TMC3    C110180   2.814   2.313  16.543 -0.6074  0.0882  0.7176
  685TMC3    C210181   2.779   2.298  16.413 -0.1036  0.1269  0.0031
  685TMC3    C310182   2.837   2.380  16.315 -0.0410  0.0491  0.0858
  685TMC3    C410183   2.926   2.386  16.561  0.4536 -0.3562  0.2177
  685TMC3    C510184   2.998   2.450  16.469  0.0369 -0.0962  0.0536
  685TMC3    C610185   2.949   2.450  16.344 -0.2138  0.5998  0.0919
  685TMC3     C10186   2.705   2.355  16.622 -0.0310  0.0166  0.7108
  685TMC3     O10187   2.600   2.293  16.615  0.8352 -0.1053 -0.7569
  685TMC3     H10188   2.697   2.231  16.391  0.3725  0.2135 -2.1068
  685TMC3    H110189   2.965   2.379  16.662  0.1879 -1.4879  0.2502
  685TMC3    H210190   2.997   2.490  16.256  0.3611 -0.9998 -0.3357
  685TMC3    C710191   3.127   2.499  16.507  0.1934  0.4973  0.2767
  685TMC3    C810192   2.737   2.458  16.240  0.3638  0.3523  0.5578
  685TMC3    O110193   3.186   2.438  16.593  0.9245 -0.8473  0.1829
  685TMC3    O210194   2.768   2.486  16.123 -0.1132 -0.3040 -0.5018
  686MPD2     C10195   4.012   2.740  15.853 -0.1928 -0.0921 -0.8601
  686MPD2    C110196   3.938   2.625  15.847 -0.1221  0.1295  0.0250
  686MPD2    C210197   4.001   2.501  15.846  0.4187  0.1706  0.1802
  686MPD2    C310198   4.137   2.491  15.853 -0.2907  0.1750  0.2428
  686MPD2    C410199   4.210   2.610  15.868  0.1438 -0.1211 -0.7561
  686MPD2    C510200   4.147   2.734  15.861  0.2850  0.0755 -0.1476
  686MPD2     H10201   3.942   2.412  15.823 -0.3379  0.3013  1.6393
  686MPD2    H110202   4.317   2.601  15.882 -0.2380 -2.5363  0.6198
  686MPD2    H210203   3.966   2.838  15.846  0.7956  0.3840 -0.7177
  686MPD2    H310204   4.208   2.824  15.865  0.3011  0.1273 -1.4349
  686MPD2     N10205   4.207   2.370  15.839 -0.0142 -0.2404 -0.1757
  686MPD2    H510206   4.300   2.361  15.880  0.7408  1.0976 -1.6017
  686MPD2    N110207   3.799   2.630  15.847 -0.0886  0.7057 -0.4545
  686MPD2    H710208   3.752   2.543  15.870 -0.2449  0.9434  0.1353
  687TMC3    C110209   4.182   2.141  15.882  0.5011  0.2261  0.3515
  687TMC3    C210210   4.079   2.048  15.875 -0.2316  0.0005  0.1540
  687TMC3    C310211   3.994   2.041  15.984 -0.2433  0.0789  0.0039
  687TMC3    C410212   4.223   2.186  16.005 -0.5438 -0.0226 -0.1735
  687TMC3    C510213   4.152   2.157  16.116  0.2388 -0.8075  0.6065
  687TMC3    C610214   4.031   2.091  16.106 -0.0655 -0.2524 -0.3423
  687TMC3     C10215   4.143   2.252  15.799  0.0011 -0.1332 -0.1098
  687TMC3     O10216   4.035   2.232  15.741 -0.6681 -0.2931  0.2080
  687TMC3     H10217   4.056   2.005  15.778 -2.0515  0.0813  0.5654
  687TMC3    H110218   4.320   2.234  16.012 -0.4603 -0.1763 -0.2659
  687TMC3    H210219   3.955   2.097  16.184  1.2631  0.5433  0.8897
  687TMC3    C710220   4.164   2.255  16.217  0.0198 -0.5322 -0.0759
  687TMC3    C810221   3.849   2.031  15.966 -0.2379  0.3635  0.1385
  687TMC3    O110222   4.227   2.357  16.193  0.1592  0.0711 -0.1090
  687TMC3    O210223   3.791   1.988  16.063 -0.1737 -0.0307 -0.0793
  688MPD2     C10224   3.663   1.709  17.574  0.5864 -0.3993 -0.2561
  688MPD2    C110225   3.716   1.583  17.612 -0.1987 -0.3208  0.3577
  688MPD2    C210226   3.817   1.525  17.536  0.2011 -0.0159 -0.6680
  688MPD2    C310227   3.860   1.589  17.421 -0.5746  0.5569  0.7977
  688MPD2    C410228   3.800   1.710  17.384  0.5862  0.3624  0.1913
  688MPD2    C510229   3.705   1.764  17.465  0.4410  0.0830 -0.2142
  688MPD2     H10230   3.861   1.427  17.553 -1.4303 -0.6262  0.0498
  688MPD2    H110231   3.816   1.776  17.299  0.1368  0.2448  0.0164
  688MPD2    H210232   3.590   1.765  17.633 -0.4413 -2.2319  0.2023
  688MPD2    H310233   3.674   1.864  17.439  1.4974  0.1641 -1.1683
  688MPD2     N10234   3.960   1.550  17.325  0.5879 -0.5159  0.1858
  688MPD2    H510235   3.977   1.614  17.249 -1.1839  0.8365  0.9367
  688MPD2    N110236   3.688   1.507  17.726  0.0041  0.1230  0.7624
  688MPD2    H710237   3.740   1.421  17.737  0.4959  0.2563 -0.5738
  689TMC3    C110238   3.596   1.460   0.186 -0.0956  1.0749 -0.1294
  689TMC3    C210239   3.569   1.500   0.321  0.3454 -0.3566 -0.5907
  689TMC3    C310240   3.582   1.408   0.426  0.7909  0.0253 -0.8612
  689TMC3    C410241   3.625   1.326   0.161 -0.4177  0.1811 -0.1716
  689TMC3    C510242   3.636   1.241   0.271 -0.1051 -0.3454 -0.2190
  689TMC3    C610243   3.619   1.278   0.403 -0.1963 -0.4127 -0.5095
  689TMC3     C10244   3.610   1.556   0.081 -0.5387  0.1975  0.4474
  689TMC3     O10245   3.569   1.667   0.100 -0.4654 -0.4529  0.0074
  689TMC3     H10246   3.540   1.602   0.343  0.2779 -0.7230  1.0262
  689TMC3    H110247   3.645   1.280   0.064  1.3905 -1.5233  1.0044
  689TMC3    H210248   3.641   1.201   0.477 -0.7649 -0.0066  0.0718
  689TMC3    C710249   3.680   1.107   0.259  0.2186 -0.0739  0.0876
  689TMC3    C810250   3.518   1.431   0.555  0.0705 -0.1314  0.1351
  689TMC3    O110251   3.776   1.064   0.321 -0.4294  0.6753  0.1910
  689TMC3    O210252   3.551   1.358   0.649  0.1279  0.0103  0.1423
  690MPD2     C10253   0.940   3.315  16.020 -0.0419 -0.6479  0.2773
  690MPD2    C110254   0.887   3.295  15.895 -0.5074 -0.6227  0.4973
  690MPD2    C210255   0.938   3.374  15.794 -0.1971 -0.5279 -0.1068
  690MPD2    C310256   1.037   3.466  15.814  0.3914  0.2533  0.1458
  690MPD2    C410257   1.085   3.484  15.935 -0.3017 -0.2253  0.0612
  690MPD2    C510258   1.028   3.415  16.040 -0.0485 -0.6668 -0.1165
  690MPD2     H10259   0.894   3.359  15.696  1.1699  0.8058 -0.9055
  690MPD2    H110260   1.157   3.557  15.969  0.6291 -0.7991 -0.6824
  690MPD2    H210261   0.906   3.260  16.107  0.9983  0.5127  1.4218
  690MPD2    H310262   1.069   3.427  16.140 -0.5888  0.6660 -0.0494
  690MPD2     N10263   1.093   3.526  15.700 -0.2323 -0.0310  0.2049
  690MPD2    H510264   1.046   3.488  15.618  2.1074  0.2428 -1.2581
  690MPD2    N110265   0.789   3.200  15.851 -0.1062  0.3166 -0.4177
  690MPD2    H710266   0.758   3.201  15.754 -0.2167 -0.4600 -0.3922
  691TMC3    C110267   0.624   3.031  15.855  0.1864  0.4673  0.1259
  691TMC3    C210268   0.537   3.097  15.780  0.0154 -0.6670 -0.4255
  691TMC3    C310269   0.430   3.021  15.732 -0.6349 -0.3312  0.7702
  691TMC3    C410270   0.594   2.902  15.908  0.0161 -0.1099  0.2496
  691TMC3    C510271   0.487   2.833  15.860  0.4861  0.3577  0.7507
  691TMC3    C610272   0.408   2.892  15.764  1.0830  0.0778 -0.1885
  691TMC3     C10273   0.733   3.107  15.930 -0.2582 -0.6835  0.1676
  691TMC3     O10274   0.746   3.085  16.049 -0.1099  0.6373  0.0941
  691TMC3     H10275   0.558   3.197  15.744  2.8725 -0.3048  2.2634
  691TMC3    H110276   0.659   2.861  15.985 -0.1755 -0.1733  0.3753
  691TMC3    H210277   0.323   2.835  15.728  0.3079  0.4582  1.0215
  691TMC3    C710278   0.504   2.694  15.868  0.0630  0.3262 -1.0406
  691TMC3    C810279   0.331   3.089  15.642 -0.4413  0.1115  0.3996
  691TMC3    O110280   0.627   2.674  15.864 -0.8552 -0.3227  0.0651
  691TMC3    O210281   0.283   3.027  15.545  0.7112 -0.1098 -0.5796
  692TMC3    C110282   2.289   3.974  15.840 -0.2055  0.4309  0.5295
  692TMC3    C210283   2.423   4.020  15.862  0.5958 -0.4977  0.2760
  692TMC3    C310284   2.519   3.935  15.902  0.4256  0.5461 -0.1574
  692TMC3    C410285   2.260   3.842  15.862  0.3646 -0.7975  0.4346
  692TMC3    C510286   2.354   3.767  15.920  0.3413 -0.0517  0.0194
  692TMC3    C610287   2.481   3.809  15.945  1.1106 -0.6826 -0.0748
  692TMC3     C10288   2.177   4.071  15.856  0.4950  0.3685  0.0479
  692TMC3     O10289   2.059   4.038  15.878  0.3669 -0.1093 -0.4950
  692TMC3     H10290   2.449   4.120  15.829 -0.7787  0.0890  0.9633
  692TMC3    H110291   2.158   3.808  15.850 -0.3921  1.6589 -0.1734
  692TMC3    H210292   2.564   3.745  15.973  1.5861 -0.1089 -0.1771
  692TMC3    C710293   2.303   3.636  15.959 -0.6435  0.7895 -0.1391
  692TMC3    C810294   2.636   3.984  15.976 -1.1209 -0.5299  0.6225
  692TMC3    O110295   2.190   3.599  15.928  0.4131 -0.4122 -0.5351
  692TMC3    O210296   2.733   3.911  16.006  0.5777 -0.1542 -0.3658
  693MPD2     C10297   1.782   2.996  11.251  1.0877  0.1680 -0.5633
  693MPD2    C110298   1.730   2.896  11.172 -0.1069  0.6462 -0.9905
  693MPD2    C210299   1.808   2.777  11.161  0.3048  0.1972 -0.8514
  693MPD2    C310300   1.921   2.750  11.246  0.7155  0.2653  0.0882
  693MPD2    C410301   1.955   2.848  11.331 -0.0145  0.0256 -0.1078
  693MPD2    C510302   1.886   2.962  11.331  0.0369 -0.3934  0.7798
  693MPD2     H10303   1.782   2.697  11.093 -1.8390  1.0228 -0.9900
  693MPD2    H110304   2.043   2.832  11.393 -1.0379  2.1458  1.8578
  693MPD2    H210305   1.731   3.089  11.276  0.4393 -0.4590  0.4582
  693MPD2    H310306   1.916   3.039  11.401  3.6370 -1.3325  0.2576
  693MPD2     N10307   1.983   2.625  11.243  0.2314 -0.7084  0.6908
  693MPD2    H510308   2.056   2.614  11.312  2.2285  2.1687 -0.9995
  693MPD2    N110309   1.608   2.919  11.110 -0.8156  0.1103 -0.2358
  693MPD2    H710310   1.564   3.010  11.113 -0.2512  0.3716  0.1915
  694TMC3    C110311   1.414   2.848  11.010  1.1568  0.0825 -0.3094
  694TMC3    C210312   1.360   2.753  10.924 -0.1807  0.5161 -0.0972
  694TMC3    C310313   1.244   2.696  10.956 -0.4894  0.3167 -0.2452
  694TMC3    C410314   1.347   2.881  11.128  0.2457 -0.7502 -0.1159
  694TMC3    C510315   1.235   2.805  11.153 -0.0761  0.0447 -0.1756
  694TMC3    C610316   1.181   2.709  11.075  0.2510 -0.2827 -0.0072
  694TMC3     C10317   1.555   2.836  11.021 -0.2801 -0.2954  0.0168
  694TMC3     O10318   1.603   2.741  10.959 -0.3426 -0.3288  0.2266
  694TMC3     H10319   1.410   2.717  10.835  0.9522  0.1017  0.7039
  694TMC3    H110320   1.393   2.933  11.212 -1.1654 -0.9033  0.7655
  694TMC3    H210321   1.090   2.653  11.097  0.8676 -2.1982 -2.3373
  694TMC3    C710322   1.217   2.791  11.300  0.0408  0.7480  0.3557
  694TMC3    C810323   1.173   2.614  10.854 -0.1662 -0.0680 -0.6989
  694TMC3    O110324   1.223   2.892  11.371 -0.2950 -0.9064  0.3638
  694TMC3    O210325   1.078   2.544  10.897 -0.6045 -0.6409 -0.3644
  695MPD2     C10326   2.867   3.631  13.746  0.2572  0.2607  0.6613
  695MPD2    C110327   2.845   3.743  13.820 -0.3175  0.2234  0.1848
  695MPD2    C210328   2.714   3.784  13.831  0.1092 -0.3898  0.5683
  695MPD2    C310329   2.608   3.720  13.769 -1.0334 -0.4664  0.7676
  695MPD2    C410330   2.630   3.613  13.690  0.2147  0.2007  0.5528
  695MPD2    C510331   2.761   3.568  13.685  0.3221  0.1054 -0.7925
  695MPD2     H10332   2.695   3.861  13.905 -0.0590 -0.0051  0.1252
  695MPD2    H110333   2.563   3.555  13.627  1.6833  0.4819 -1.2489
  695MPD2    H210334   2.966   3.590  13.732  0.2718  0.2725  0.7335
  695MPD2    H310335   2.775   3.484  13.618  1.0726  0.2620 -0.8235
  695MPD2     N10336   2.479   3.766  13.803  0.5090 -0.1084 -0.5393
  695MPD2    H510337   2.461   3.851  13.855 -0.4172 -0.1896 -0.7356
  695MPD2    N110338   2.948   3.816  13.879  0.6982  0.3786 -0.4424
  695MPD2    H710339   2.913   3.887  13.943  0.2384 -1.3434  1.2057
  696TMC3    C110340   2.245   3.775  13.823 -0.2947  0.2374 -0.6309
  696TMC3    C210341   2.182   3.743  13.943 -0.6432  0.2012  0.1515
  696TMC3    C310342   2.089   3.826  13.992  0.0451  0.3525 -0.3822
  696TMC3    C410343   2.242   3.896  13.761  0.0695  0.2769  0.3300
  696TMC3    C510344   2.149   3.975  13.821 -1.2123 -0.3249  0.3528
  696TMC3    C610345   2.073   3.946  13.930 -0.9557  0.0835  0.1491
  696TMC3     C10346   2.360   3.688  13.796  0.5991 -0.3494 -0.2062
  696TMC3     O10347   2.338   3.570  13.762  0.2208 -0.0878  0.7059
  696TMC3     H10348   2.197   3.642  13.981  0.2935 -0.1812 -1.2140
  696TMC3    H110349   2.300   3.911  13.670  0.1268 -0.7967  0.1963
  696TMC3    H210350   2.018   4.021  13.986  0.1571 -0.0945  1.4545
  696TMC3    C710351   2.175   4.118  13.780 -0.6035 -0.3130  0.0954
  696TMC3    C810352   2.083   3.836  14.133 -0.3837 -0.1186 -0.9199
  696TMC3    O110353   2.207   4.119  13.663 -0.1768  0.5217 -0.0672
  696TMC3    O210354   1.973   3.846  14.186 -0.1038  0.3806  0.6177
  697MPD2     C10355   1.896   1.295  15.877 -0.2561  0.0201  0.2662
  697MPD2    C110356   1.986   1.209  15.810  0.2630 -0.4001 -0.1785
  697MPD2    C210357   2.081   1.261  15.729 -0.0355  0.3966 -0.8754
  697MPD2    C310358   2.082   1.395  15.697 -0.0590 -0.7758 -0.8412
  697MPD2    C410359   1.991   1.479  15.763 -0.1139  0.4865  0.4135
  697MPD2    C510360   1.910   1.432  15.857  0.3598  0.4656 -0.2001
  697MPD2     H10361   2.167   1.207  15.690 -0.5292 -1.6761  0.8727
  697MPD2    H110362   1.995   1.587  15.763  1.9180  0.4153  0.9110
  697MPD2    H210363   1.813   1.261  15.938 -0.9545 -0.5979 -1.0221
  697MPD2    H310364   1.840   1.496  15.909 -1.6439 -1.7142 -0.2092
  697MPD2     N10365   2.190   1.452  15.619  0.7703 -0.2167 -0.3190
  697MPD2    H510366   2.258   1.383  15.588 -0.7848 -1.3294 -1.2863
  697MPD2    N110367   2.001   1.069  15.837  0.5667  0.3904  0.5691
  697MPD2    H710368   2.091   1.028  15.816  0.0327 -1.4052  1.8192
  698TMC3    C110369   2.299   1.585  15.459 -0.2597  0.3441 -0.3793
  698TMC3    C210370   2.427   1.530  15.477  0.0881  0.7509 -0.1411
  698TMC3    C310371   2.508   1.528  15.370 -0.0552  0.8149  0.6566
  698TMC3    C410372   2.256   1.630  15.336 -0.1200 -0.0823  0.1363
  698TMC3    C510373   2.333   1.597  15.227 -1.6764 -0.8061  1.0429
  698TMC3    C610374   2.469   1.555  15.238  0.6934  1.0158  1.4176
  698TMC3     C10375   2.191   1.574  15.560  0.8506 -0.5390  0.1135
  698TMC3     O10376   2.099   1.649  15.548 -0.6216 -0.4966 -0.0570
  698TMC3     H10377   2.462   1.491  15.572 -0.4930  2.4270  0.7502
  698TMC3    H110378   2.154   1.667  15.330  0.0642  0.7770  2.2909
  698TMC3    H210379   2.536   1.524  15.159 -1.3466 -1.8646  0.8242
  698TMC3    C710380   2.259   1.559  15.109 -0.4976 -0.5533 -0.5185
  698TMC3    C810381   2.642   1.492  15.405 -0.3719 -0.1344  0.6556
  698TMC3    O110382   2.138   1.542  15.135 -0.2228 -0.4699  0.2417
  698TMC3    O210383   2.654   1.406  15.492 -0.0963 -0.5173  0.2085
  699TMC3    C110384   2.589   4.186  13.150  0.3803 -0.8693 -0.1026
  699TMC3    C210385   2.547   4.061  13.194  0.0990  0.1501 -0.4050
  699TMC3    C310386   2.534   4.032  13.327 -0.3562 -0.2694 -0.1277
  699TMC3    C410387   2.603   4.286  13.240  0.7203  0.0136 -0.3783
  699TMC3    C510388   2.571   4.267  13.366  0.2952 -0.2889 -0.0391
  699TMC3    C610389   2.552   4.137  13.415  0.0339  0.2899 -0.5166
  699TMC3     C10390   2.559   4.231  13.018 -1.2912 -0.4466  0.3078
  699TMC3     O10391   2.446   4.215  12.973 -0.1365 -0.1749 -0.3389
  699TMC3     H10392   2.521   3.989  13.117 -0.1348 -0.7981  0.5581
  699TMC3    H110393   2.625   4.383  13.197 -1.1529  0.3470 -0.5779
  699TMC3    H210394   2.545   4.120  13.522  0.1654 -0.8012 -0.6820
  699TMC3    C710395   2.466   4.351  13.418  0.5253 -0.7168 -0.2399
  699TMC3    C810396   2.496   3.899  13.374 -0.5906  0.0113 -0.2809
  699TMC3    O110397   2.449   4.347  13.539  0.4639  0.1294 -0.4440
  699TMC3    O210398   2.480   3.873  13.494  0.1405 -0.1370  0.2238
  700TMC3    C110399   1.934   1.004  17.446  0.0428  0.8336  0.3356
  700TMC3    C210400   2.048   0.983  17.375 -0.0351 -0.0117  0.4417
  700TMC3    C310401   2.158   0.975  17.453 -0.3835  0.1733  0.5211
  700TMC3    C410402   1.931   0.995  17.582  0.5952 -0.4508 -0.1370
  700TMC3    C510403   2.043   0.986  17.653  0.0764 -0.2885  0.1204
  700TMC3    C610404   2.158   0.964  17.589 -0.3076 -0.1171  0.6855
  700TMC3     C10405   1.828   1.083  17.384  0.1524 -0.3668 -0.4529
  700TMC3     O10406   1.761   1.158  17.459  0.1473  0.9520 -0.5055
  700TMC3     H10407   2.053   1.013  17.271  4.5895 -0.5848  0.4675
  700TMC3    H110408   1.835   1.010  17.630  1.9037 -0.5206  2.5153
  700TMC3    H210409   2.247   0.962  17.650  1.2830  0.3400 -1.6380
  700TMC3    C710410   2.061   1.096   0.000 -0.0922 -0.5698 -0.4363
  700TMC3    C810411   2.286   1.017  17.395 -0.0469 -0.3833  0.5124
  700TMC3    O110412   2.149   1.179  17.729  0.2081 -0.3703 -0.3045
  700TMC3    O210413   2.290   0.990  17.276 -0.2113  0.1001  0.0572
  701TMC3    C110414   1.167   0.170  15.626 -0.0659 -1.2265  1.0346
  701TMC3    C210415   1.234   0.088  15.539 -0.0031  0.0521 -0.5259
  701TMC3    C310416   1.319   0.156  15.460  0.2239  0.6350  0.3664
  701TMC3    C410417   1.190   0.302  15.651 -0.0547 -0.3908 -0.1514
  701TMC3    C510418   1.270   0.369  15.566  0.2661 -0.7288 -0.1982
  701TMC3    C610419   1.339   0.298  15.467 -0.2012  0.4929  0.0394
  701TMC3     C10420   1.070   0.115  15.718 -0.2837 -0.4751  1.0255
  701TMC3     O10421   1.066   0.160  15.831 -0.2106  0.3434  0.0536
  701TMC3     H10422   1.229   4.717  15.537 -2.1044  0.1475 -0.2171
  701TMC3    H110423   1.127   0.348  15.727  1.6403  1.1062  0.3572
  701TMC3    H210424   1.406   0.338  15.392 -0.7202  0.5744 -0.3821
  701TMC3    C710425   1.335   0.495  15.606  0.6323 -0.5048  1.3477
  701TMC3    C810426   1.405   0.076  15.380  1.0474 -0.5519  0.0588
  701TMC3    O110427   1.421   0.539  15.532  0.1534 -0.1020 -0.2662
  701TMC3    O210428   1.452   4.716  15.433  0.1226 -0.4677 -0.2693
  702MPD2     C10429   0.728   3.148  10.271  0.0795  0.5443 -0.0103
  702MPD2    C110430   0.737   3.253  10.364 -0.0578  0.3029 -0.0824
  702MPD2    C210431   0.744   3.384  10.319  0.1826  0.7633 -0.0226
  702MPD2    C310432   0.736   3.425  10.190 -0.6330 -0.3982 -0.1467
  702MPD2    C410433   0.725   3.321  10.096  0.0739 -0.3619 -0.4023
  702MPD2    C510434   0.723   3.187  10.137 -0.1105 -0.7036  0.6438
  702MPD2     H10435   0.740   3.462  10.394  0.2580  0.1992  0.5627
  702MPD2    H110436   0.719   3.347   9.991 -2.3209 -2.2026 -0.7095
  702MPD2    H210437   0.726   3.042  10.295  0.1444  0.6333  0.3791
  702MPD2    H310438   0.706   3.114  10.059 -1.2590 -1.6168  1.7551
  702MPD2     N10439   0.737   3.555  10.139 -0.1581 -0.0905 -0.3528
  702MPD2    H510440   0.756   3.554  10.040  1.6164  2.2326 -0.0498
  702MPD2    N110441   0.743   3.247  10.507  0.0140 -0.6863  0.1946
  702MPD2    H710442   0.745   3.335  10.558  1.0917 -2.1613  2.7535
  703TMC3    C110443   0.713   3.704  10.332 -0.0123 -0.2108 -0.3368
  703TMC3    C210444   0.609   3.655  10.402 -0.1380 -0.0857  1.2652
  703TMC3    C310445   0.603   3.673  10.536 -0.3026 -0.6016  0.3786
  703TMC3    C410446   0.804   3.782  10.385  0.5922 -0.6839  0.0416
  703TMC3    C510447   0.797   3.800  10.517 -0.1333 -0.0579  0.0680
  703TMC3    C610448   0.693   3.756  10.598  0.0740  0.2427 -0.1608
  703TMC3     C10449   0.741   3.678  10.195  0.2612  0.2110 -0.3144
  703TMC3     O10450   0.763   3.781  10.135  0.4449  0.2800  0.4550
  703TMC3     H10451   0.538   3.589  10.353 -0.7968  1.8443 -0.4174
  703TMC3    H110452   0.893   3.807  10.328 -0.2340  2.3230  0.0792
  703TMC3    H210453   0.689   3.767  10.706 -0.7714 -2.6159  0.1166
  703TMC3    C710454   0.917   3.843  10.590 -0.4098 -0.3023 -0.3686
  703TMC3    C810455   0.514   3.588  10.615  0.2805  0.1957  0.0275
  703TMC3    O110456   0.999   3.914  10.530  0.3367  0.4963  0.4785
  703TMC3    O210457   0.504   3.472  10.579 -0.5714  0.0670 -0.2929
  704TMC3    C110458   3.498   1.363  13.053  0.0549 -0.1097  0.5262
  704TMC3    C210459   3.503   1.410  12.925  0.4505  0.3285  0.6974
  704TMC3    C310460   3.629   1.431  12.873 -0.0207  0.0884 -0.8053
  704TMC3    C410461   3.603   1.353  13.133  0.5221  1.1619 -0.0131
  704TMC3    C510462   3.729   1.369  13.067 -0.0394 -0.2868 -0.2571
  704TMC3    C610463   3.750   1.415  12.942  0.1298 -0.6069  0.5214
  704TMC3     C10464   3.379   1.291  13.081 -0.3424 -0.1311 -0.2665
  704TMC3     O10465   3.346   1.284  13.195 -0.1615 -0.2375  0.7411
  704TMC3     H10466   3.422   1.448  12.863  0.3054 -1.6456 -0.3309
  704TMC3    H110467   3.592   1.335  13.239 -3.6213 -2.1120 -0.9753
  704TMC3    H210468   3.847   1.393  12.899  0.4799  2.0073 -0.0476
  704TMC3    C710469   3.841   1.347  13.146  0.1797  0.0457 -0.8496
  704TMC3    C810470   3.636   1.449  12.732  0.4964 -0.4319 -0.8481
  704TMC3    O110471   3.927   1.431  13.135 -0.2745  0.1172  0.0030
  704TMC3    O210472   3.533   1.424  12.670 -0.1261  0.0354  0.1520
  705MPD2     C10473   2.700   3.701  16.627 -0.1905  0.2147 -0.4551
  705MPD2    C110474   2.730   3.834  16.658  0.0880  0.1791  0.4940
  705MPD2    C210475   2.630   3.927  16.685  0.3628  0.0887 -0.3870
  705MPD2    C310476   2.498   3.886  16.668  0.0399  0.2839 -0.1018
  705MPD2    C410477   2.479   3.752  16.636  0.4962 -0.1270 -0.0043
  705MPD2    C510478   2.577   3.663  16.647 -0.0019  0.1185 -0.0106
  705MPD2     H10479   2.661   4.029  16.702  0.1519 -0.3045  2.4749
  705MPD2    H110480   2.376   3.720  16.633 -0.1089  1.8423 -0.4172
  705MPD2    H210481   2.765   3.618  16.602 -1.7915 -1.7953  2.0665
  705MPD2    H310482   2.548   3.561  16.625 -0.0517 -0.3762  2.3594
  705MPD2     N10483   2.391   3.974  16.695  0.0949  0.4171  0.1334
  705MPD2    H510484   2.300   3.928  16.693 -0.3583  1.2670  1.1954
  705MPD2    N110485   2.863   3.886  16.648  0.2942 -0.2305 -0.0956
  705MPD2    H710486   2.873   3.987  16.646 -0.5703 -0.1305  0.4653
  706TMC3    C110487   3.300   3.929  16.470 -0.9817 -0.3116 -0.1154
  706TMC3    C210488   3.307   4.055  16.503  0.4570  0.1851 -0.3027
  706TMC3    C310489   3.212   4.106  16.595 -0.3663  0.2763  0.5358
  706TMC3    C410490   3.201   3.851  16.513  0.1251 -0.0050 -0.4527
  706TMC3    C510491   3.102   3.910  16.588  0.0429  0.0034 -0.1963
  706TMC3    C610492   3.102   4.035  16.637 -0.9921  0.1680  0.5311
  706TMC3     C10493   3.385   3.893  16.362  0.4360 -0.4189  0.7029
  706TMC3     O10494   3.506   3.898  16.380  0.9413  0.3621 -0.4239
  706TMC3     H10495   3.375   4.119  16.449  0.6441 -0.2848 -0.6268
  706TMC3    H110496   3.189   3.750  16.475 -1.3741 -0.0049  0.0167
  706TMC3    H210497   3.030   4.081  16.704 -0.7939  0.8567  0.2671
  706TMC3    C710498   2.985   3.813  16.618  0.1116 -0.6128  0.2473
  706TMC3    C810499   3.167   4.232  16.536  0.6783  0.2203  0.1280
  706TMC3    O110500   3.000   3.696  16.593  0.0670 -0.1990  0.2687
  706TMC3    O210501   3.050   4.237  16.505 -0.0560 -0.4082  0.2032
  707TMC3    C110502   4.409   2.678   1.577 -0.5220 -0.5674  0.1906
  707TMC3    C210503   4.455   2.569   1.643 -0.7217  0.5262  0.6135
  707TMC3    C310504   4.364   2.479   1.691 -0.0591  0.4294 -0.3862
  707TMC3    C410505   4.278   2.694   1.551 -0.0774 -0.9345 -0.7125
  707TMC3    C510506   4.192   2.606   1.608  0.1805 -0.4938 -0.3182
  707TMC3    C610507   4.230   2.499   1.682  0.1392 -0.1054 -0.4748
  707TMC3     C10508   4.509   2.764   1.509  0.6182  0.0484  0.4944
  707TMC3     O10509   4.625   2.752   1.535  0.6398 -0.2894 -0.3675
  707TMC3     H10510   4.562   2.551   1.645 -0.3333  2.6280 -2.6157
  707TMC3    H110511   4.243   2.783   1.501  3.2902  1.0255  0.3779
  707TMC3    H210512   4.161   2.432   1.730 -0.2446  0.8340  0.2876
  707TMC3    C710513   4.054   2.656   1.622 -0.4028 -0.0260 -0.1950
  707TMC3    C810514   4.405   2.357   1.759  0.2751 -0.2569  0.1503
  707TMC3    O110515   4.026   2.768   1.578 -0.3231 -0.1131  0.1293
  707TMC3    O210516   4.312   2.294   1.807 -0.6264 -0.7501 -0.1895
  708MPD2     C10517   1.313   2.701  13.809  0.5821 -0.4076  0.1332
  708MPD2    C110518   1.237   2.655  13.919  0.4235 -0.1988  0.4919
  708MPD2    C210519   1.305   2.614  14.037  0.5802  0.2835  0.4348
  708MPD2    C310520   1.446   2.617  14.042 -0.3522 -0.1507 -0.2178
  708MPD2    C410521   1.515   2.656  13.932 -0.3867  0.0456 -0.1022
  708MPD2    C510522   1.447   2.695  13.815 -0.1651  0.1379 -0.3497
  708MPD2     H10523   1.243   2.585  14.121 -4.3456  3.1059 -2.2549
  708MPD2    H110524   1.623   2.658  13.938 -0.5403 -1.1237  2.8301
  708MPD2    H210525   1.264   2.723  13.715  0.4535 -2.0027 -0.1761
  708MPD2    H310526   1.500   2.730  13.726  1.0560 -0.5011  0.1251
  708MPD2     N10527   1.518   2.573  14.154  0.2907 -0.3788 -0.2061
  708MPD2    H510528   1.618   2.587  14.169 -0.4142  3.4760  1.0118
  708MPD2    N110529   1.107   2.640  13.899  0.3418  0.5596  0.1510
  708MPD2    H710530   1.075   2.639  13.803 -0.3219  1.4077  0.3614
  709TMC3    C110531   0.910   2.536  13.962 -0.1907  0.3628 -0.2701
  709TMC3    C210532   0.921   2.446  13.855 -0.3530  0.3202 -0.2020
  709TMC3    C310533   0.898   2.313  13.878 -0.2187  0.3335  0.0100
  709TMC3    C410534   0.843   2.493  14.068 -0.0157 -0.1864  0.0376
  709TMC3    C510535   0.826   2.354  14.094 -0.2818  0.3241 -0.2313
  709TMC3    C610536   0.848   2.263  13.995 -0.3294 -0.3241  0.0659
  709TMC3     C10537   1.008   2.636  13.994 -0.2140 -0.4491 -0.0002
  709TMC3     O10538   1.007   2.681  14.107  0.1270 -0.2602 -0.5077
  709TMC3     H10539   0.996   2.467  13.779 -0.5462 -0.4520 -0.6138
  709TMC3    H110540   0.831   2.568  14.145 -3.0081 -1.2285  0.5769
  709TMC3    H210541   0.834   2.158  14.015 -1.2351 -0.4868 -1.4311
  709TMC3    C710542   0.885   2.321  14.225  0.2185  0.0694 -0.0815
  709TMC3    C810543   0.902   2.220  13.760  0.0043  1.0807 -0.0788
  709TMC3    O110544   0.991   2.260  14.216 -0.2328 -0.3724 -0.7675
  709TMC3    O210545   0.931   2.107  13.779 -0.7014  0.2116  0.1316
  710TMC3    C110546   2.063   3.249   0.547  0.2309  0.4474 -0.5385
  710TMC3    C210547   2.145   3.306   0.455  0.2441  0.4063 -0.0205
  710TMC3    C310548   2.265   3.254   0.425 -0.1296  0.2383 -0.1276
  710TMC3    C410549   2.104   3.137   0.613  0.3267 -0.5544 -0.1661
  710TMC3    C510550   2.222   3.074   0.576 -0.1089  0.2621 -0.7239
  710TMC3    C610551   2.300   3.133   0.482 -0.9195  0.4450 -0.2723
  710TMC3     C10552   1.933   3.304   0.582 -0.0913  0.0900 -0.0104
  710TMC3     O10553   1.853   3.224   0.627 -0.4036 -0.1901 -0.0897
  710TMC3     H10554   2.110   3.394   0.402 -0.5805 -0.4876 -0.9654
  710TMC3    H110555   2.032   3.090   0.680  1.4561 -0.9880  0.7480
  710TMC3    H210556   2.399   3.093   0.463  0.0983  1.7941  2.1671
  710TMC3    C710557   2.256   2.946   0.635  0.9142  0.1558 -0.3933
  710TMC3    C810558   2.351   3.312   0.318  0.3829  0.5221 -1.2505
  710TMC3    O110559   2.183   2.914   0.724  0.3319 -0.1944 -0.4665
  710TMC3    O210560   2.430   3.240   0.253  0.1808 -0.1347 -0.4657
  711TMC3    C110561   1.994   4.431  15.102 -0.7571  0.5000  0.8386
  711TMC3    C210562   2.050   4.365  15.203 -0.0270  0.0944  0.4525
  711TMC3    C310563   2.074   4.431  15.314  0.4328 -0.0247  0.2155
  711TMC3    C410564   1.953   4.565  15.109  0.5530 -0.0086  0.1043
  711TMC3    C510565   1.972   4.624  15.235  0.2119  0.1412 -0.1539
  711TMC3    C610566   2.033   4.567  15.337 -0.5782 -0.2158 -0.5273
  711TMC3     C10567   1.949   4.349  14.993  0.2420  0.5653 -0.2275
  711TMC3     O10568   1.909   4.238  15.010 -0.8223 -0.8187 -0.2014
  711TMC3     H10569   2.074   4.259  15.197 -0.0314  0.1694 -0.8820
  711TMC3    H110570   1.895   4.624  15.039  3.5801  3.3267  0.3853
  711TMC3    H210571   2.042   4.606  15.438  1.3775  0.6428 -1.0600
  711TMC3    C710572   1.923   0.021  15.252 -0.2283 -0.3482 -0.1586
  711TMC3    C810573   2.161   4.364  15.413 -0.5290 -0.4283 -0.1932
  711TMC3    O110574   1.808   0.040  15.213 -0.3140  0.4280  0.3167
  711TMC3    O210575   2.170   4.245  15.410  0.5547  0.2788  0.3226
  712MPD2     C10576   3.168   1.128  14.351 -0.0055 -0.0411 -0.2150
  712MPD2    C110577   3.136   1.178  14.225  0.3882  0.1908 -0.5707
  712MPD2    C210578   3.209   1.291  14.177  0.0719 -0.2462 -0.3950
  712MPD2    C310579   3.307   1.352  14.258  0.1637 -0.8342  0.1009
  712MPD2    C410580   3.337   1.288  14.372  0.1858  0.3187 -0.5706
  712MPD2    C510581   3.274   1.174  14.416 -0.7519 -0.4672 -0.2119
  712MPD2     H10582   3.166   1.327  14.084  2.9708  0.1232 -1.5808
  712MPD2    H110583   3.416   1.329  14.432 -2.1379  1.1653  1.9134
  712MPD2    H210584   3.109   1.056  14.406  0.3655 -1.1460 -1.2516
  712MPD2    H310585   3.297   1.146  14.519 -0.5987  3.0687  0.7111
  712MPD2     N10586   3.374   1.470  14.227  0.3554 -0.1332  0.1104
  712MPD2    H510587   3.453   1.492  14.286  0.3383  1.4045 -0.4361
  712MPD2    N110588   3.036   1.119  14.144 -0.1161  0.4307  0.0270
  712MPD2    H710589   3.050   1.147  14.047  3.1300  2.2880  1.0183
  713TMC3    C110590   3.410   1.683  14.144 -0.0968 -0.2268  0.2016
  713TMC3    C210591   3.535   1.679  14.198  0.3521 -0.0567 -0.3116
  713TMC3    C310592   3.585   1.800  14.251  0.3331  0.4173 -0.0318
  713TMC3    C410593   3.333   1.798  14.145  0.0997  0.7089  0.2140
  713TMC3    C510594   3.380   1.912  14.211  0.1041  0.2086 -0.1311
  713TMC3    C610595   3.505   1.915  14.260  0.0409 -0.5138 -0.2919
  713TMC3     C10596   3.332   1.562  14.133  0.3891 -0.3999  0.1192
  713TMC3     O10597   3.230   1.562  14.069  0.1349  0.2312  0.7476
  713TMC3     H10598   3.599   1.593  14.181  1.5646  0.2570  2.6435
  713TMC3    H110599   3.230   1.797  14.114 -0.6400  0.6775  2.6921
  713TMC3    H210600   3.548   2.007  14.300 -1.0166 -0.5152  0.8363
  713TMC3    C710601   3.291   2.026  14.234 -0.3962  0.2249  0.0280
  713TMC3    C810602   3.727   1.818  14.251  0.3266 -0.0467 -0.4042
  713TMC3    O110603   3.338   2.116  14.303 -0.0194  0.3013 -0.0811
  713TMC3    O210604   3.761   1.936  14.239 -0.5603  0.2951 -0.7456
  714MPD2     C10605   0.891   4.414   1.789 -0.0424 -0.2671  0.2995
  714MPD2    C110606   0.904   4.390   1.652  0.0364  0.1764 -0.3287
  714MPD2    C210607   0.805   4.436   1.571 -0.3468 -0.0925 -0.0964
  714MPD2    C310608   0.687   4.485   1.631 -1.1396 -0.3115 -0.3495
  714MPD2    C410609   0.666   4.498   1.770 -0.0130  0.2967  0.5038
  714MPD2    C510610   0.773   4.459   1.848  0.4278  0.2730 -0.4106
  714MPD2     H10611   0.807   4.420   1.463 -2.0017  1.0374 -0.2828
  714MPD2    H110612   0.571   4.525   1.815 -0.6522 -2.1474  0.6363
  714MPD2    H210613   0.964   4.400   1.868 -0.0370  2.7011  0.8510
  714MPD2    H310614   0.766   4.461   1.957  1.9677 -0.0102 -0.3056
  714MPD2     N10615   0.580   4.524   1.546  0.3179 -0.4547 -0.1127
  714MPD2    H510616   0.598   4.503   1.448 -1.3532 -0.3182 -0.4480
  714MPD2    N110617   1.029   4.337   1.604  0.2733 -0.1401 -0.3273
  714MPD2    H710618   1.097   4.313   1.676 -1.7155  0.7482  1.8599
  715TMC3    C110619   1.189   4.259   1.437 -0.2670 -0.2567 -0.3412
  715TMC3    C210620   1.206   4.169   1.335 -0.2163 -0.3383 -0.3388
  715TMC3    C310621   1.342   4.156   1.299 -0.6730  0.5073 -0.0664
  715TMC3    C410622   1.291   4.317   1.514  0.1811  0.0586  0.2555
  715TMC3    C510623   1.421   4.279   1.487  0.7446  0.2293 -0.1650
  715TMC3    C610624   1.447   4.201   1.383 -0.5171  0.4470  0.1646
  715TMC3     C10625   1.051   4.305   1.470 -0.2445 -0.4026 -0.1185
  715TMC3     O10626   0.975   4.298   1.374 -0.2936  0.2619  0.2196
  715TMC3     H10627   1.128   4.135   1.268  0.3340  0.1395 -1.2183
  715TMC3    H110628   1.268   4.374   1.603  0.6564  2.4591 -1.1724
  715TMC3    H210629   1.553   4.197   1.358 -1.0727 -0.2396 -2.0992
  715TMC3    C710630   1.538   4.324   1.559  0.1441 -0.9398  0.1702
  715TMC3    C810631   1.378   4.042   1.215 -0.5261 -0.2982 -1.1911
  715TMC3    O110632   1.643   4.336   1.492 -0.1021  0.4576  0.1278
  715TMC3    O210633   1.297   3.956   1.208  0.3444 -0.3299  0.8521
  716MPD2     C10634   0.983   2.464   9.830 -0.3008  0.3843  0.0594
  716MPD2    C110635   0.934   2.591   9.813 -0.1723 -0.1945  0.1254
  716MPD2    C210636   0.824   2.621   9.736  0.6383 -0.0570  0.1914
  716MPD2    C310637   0.758   2.510   9.672  0.3636  0.2366 -0.1439
  716MPD2    C410638   0.810   2.380   9.694 -0.3802 -0.6916  0.0936
  716MPD2    C510639   0.920   2.353   9.773 -1.1552 -0.3339  0.0270
  716MPD2     H10640   0.785   2.720   9.718  1.3892 -0.0978 -1.7274
  716MPD2    H110641   0.782   2.291   9.639  0.7068 -0.9745  0.0020
  716MPD2    H210642   1.076   2.446   9.882 -0.3438 -0.6181 -0.2068
  716MPD2    H310643   0.963   2.254   9.781  1.1240  0.5053 -1.6082
  716MPD2     N10644   0.635   2.530   9.603  0.3997  0.0778 -0.4211
  716MPD2    H510645   0.619   2.629   9.588  0.1594  0.3808  1.9180
  716MPD2    N110646   1.005   2.689   9.888 -0.2058 -0.5056  0.3506
  716MPD2    H710647   1.075   2.655   9.953 -1.5371 -2.6556  0.6788
  717TMC3    C110648   0.423   2.467   9.494 -1.1239 -0.5373 -0.5658
  717TMC3    C210649   0.374   2.589   9.477 -0.0253  0.4092 -0.3098
  717TMC3    C310650   0.240   2.603   9.465  0.2320  0.7440  0.1466
  717TMC3    C410651   0.340   2.359   9.504 -0.0729 -0.4998 -0.6671
  717TMC3    C510652   0.210   2.377   9.504  0.4448  0.6280 -0.0698
  717TMC3    C610653   0.152   2.501   9.487 -0.2753 -0.2613 -0.0785
  717TMC3     C10654   0.563   2.432   9.537  0.1025 -0.2794  0.1597
  717TMC3     O10655   0.598   2.315   9.525 -0.0594 -0.6548 -0.2217
  717TMC3     H10656   0.437   2.676   9.464  0.8682 -0.4753 -1.9895
  717TMC3    H110657   0.376   2.258   9.487  2.1195  0.1876 -0.1829
  717TMC3    H210658   0.047   2.517   9.507 -0.0030  1.3180  0.0842
  717TMC3    C710659   0.113   2.266   9.522  0.0985 -0.0571  0.6486
  717TMC3    C810660   0.189   2.733   9.417  0.1247  0.3080  0.1457
  717TMC3    O110661   4.735   2.286   9.502  0.3805 -0.1380 -0.1185
  717TMC3    O210662   0.266   2.828   9.393 -0.2612 -0.0524 -0.1883
  718MPD2     C10663   4.171   1.833  12.626 -0.2135 -0.2795  0.1810
  718MPD2    C110664   4.222   1.709  12.635 -0.2946  0.4804  0.4953
  718MPD2    C210665   4.238   1.643  12.757  0.6673  0.0359 -1.3955
  718MPD2    C310666   4.204   1.712  12.876 -0.3448  0.1445 -0.1943
  718MPD2    C410667   4.151   1.841  12.872 -1.2718 -0.1016 -0.1146
  718MPD2    C510668   4.135   1.900  12.746  0.2401 -0.4340  0.2402
  718MPD2     H10669   4.297   1.552  12.754  0.7790  0.0073  2.6347
  718MPD2    H110670   4.135   1.905  12.958 -1.7873  2.3039 -1.9894
  718MPD2    H210671   4.154   1.893  12.537 -0.7460 -3.0211 -1.5564
  718MPD2    H310672   4.106   2.004  12.733  1.3989 -0.0224  0.8205
  718MPD2     N10673   4.246   1.654  12.993  0.2430  0.1665 -0.1093
  718MPD2    H510674   4.294   1.565  12.999  0.3241  0.0729 -2.3719
  718MPD2    N110675   4.274   1.640  12.520  0.3651 -0.1511 -0.2994
  718MPD2    H710676   4.322   1.553  12.539 -0.1096  0.0156  1.6851
  719TMC3    C110677   4.401   1.623  12.336  0.0110 -0.0993 -0.3351
  719TMC3    C210678   4.395   1.488  12.362  0.0015  0.1547  0.0600
  719TMC3    C310679   4.512   1.426  12.393 -0.2217  0.2221 -0.4627
  719TMC3    C410680   4.521   1.696  12.336  0.4213  0.4886 -0.5226
  719TMC3    C510681   4.634   1.628  12.370 -0.2733  0.3441 -0.4534
  719TMC3    C610682   4.631   1.493  12.398 -0.5097  0.0343 -0.4447
  719TMC3     C10683   4.293   1.699  12.400 -0.3448  0.3912  0.0302
  719TMC3     O10684   4.275   1.815  12.369  0.2805 -0.1124 -0.3128
  719TMC3     H10685   4.304   1.435  12.336  0.2468  0.4253 -1.3515
  719TMC3    H110686   4.513   1.803  12.316 -0.5504  0.6212  0.5863
  719TMC3    H210687   4.720   1.439  12.429  0.8465  2.2841 -0.3855
  719TMC3    C710688   0.028   1.690  12.359  0.1411  0.1036  0.7364
  719TMC3    C810689   4.483   1.354  12.514  0.3559 -0.5967 -0.1426
  719TMC3    O110690   0.116   1.616  12.319 -0.2078  0.3247  0.2632
  719TMC3    O210691   4.369   1.372  12.558 -0.3516 -0.2345  0.0247
  720MPD2     C10692   3.460   2.743  14.061  0.2700  0.6969 -0.5053
  720MPD2    C110693   3.528   2.855  14.008  0.1302  0.1159  0.8195
  720MPD2    C210694   3.621   2.922  14.093 -0.3053  0.1291  0.3047
  720MPD2    C310695   3.660   2.872  14.217  0.0795 -0.1768 -0.1937
  720MPD2    C410696   3.597   2.761  14.268 -0.7248 -0.0654 -0.4249
  720MPD2    C510697   3.500   2.702  14.189  0.0855  0.3517  0.4791
  720MPD2     H10698   3.660   3.012  14.047  0.4159 -1.6173 -2.5227
  720MPD2    H110699   3.602   2.720  14.368 -0.6271 -1.6801 -1.0935
  720MPD2    H210700   3.394   2.671  14.014 -1.2260  0.4689  1.9133
  720MPD2    H310701   3.450   2.614  14.229 -1.1623  0.6344 -0.4731
  720MPD2     N10702   3.774   2.932  14.276  0.1341  0.0596  0.5058
  720MPD2    H510703   3.814   3.014  14.232  1.3264 -0.3674  0.7848
  720MPD2    N110704   3.501   2.901  13.879  0.1698  0.5021 -0.0131
  720MPD2    H710705   3.544   2.987  13.846  1.9907 -0.2372  0.3981
  721TMC3    C110706   3.944   2.954  14.425  0.7989  0.3284 -0.3047
  721TMC3    C210707   3.982   2.956  14.559 -0.0675 -0.7060 -0.0010
  721TMC3    C310708   4.091   3.020  14.605 -0.2648  0.1575  0.0171
  721TMC3    C410709   4.020   3.025  14.331 -0.4735 -0.0411 -0.5717
  721TMC3    C510710   4.142   3.083  14.374 -0.7284 -0.1035  0.2826
  721TMC3    C610711   4.181   3.078  14.512  0.0701  0.9093  0.3996
  721TMC3     C10712   3.821   2.892  14.400 -0.2469 -0.4912  0.2042
  721TMC3     O10713   3.778   2.816  14.485  0.4487 -0.0701  0.2760
  721TMC3     H10714   3.918   2.904  14.629 -1.6728  2.3826  0.7850
  721TMC3    H110715   4.014   3.001  14.226 -1.4445 -0.4124 -0.4276
  721TMC3    H210716   4.262   3.142  14.545  2.2554 -1.6212 -0.0587
  721TMC3    C710717   4.246   3.132  14.286  0.1467 -0.3911 -0.2290
  721TMC3    C810718   4.100   3.076  14.740 -0.0938  0.1387 -0.2662
  721TMC3    O110719   4.349   3.166  14.329  0.0963 -0.1484 -0.1716
  721TMC3    O210720   4.173   3.170  14.748  0.0152  0.0269 -0.5795
  722MPD2     C10721   2.347   1.597  13.776 -0.1419  0.5704 -1.0449
  722MPD2    C110722   2.260   1.704  13.743  0.0762 -0.2663  0.3545
  722MPD2    C210723   2.135   1.673  13.702  0.2357 -0.3978  0.1824
  722MPD2    C310724   2.095   1.541  13.691 -0.0254 -0.2984 -0.2140
  722MPD2    C410725   2.182   1.441  13.725  0.0618  0.9170  0.3327
  722MPD2    C510726   2.305   1.470  13.766  0.3998 -0.2952 -0.1285
  722MPD2     H10727   2.062   1.751  13.685 -0.7086 -1.1231  0.9039
  722MPD2    H110728   2.163   1.334  13.724  1.7930  0.6149  0.3288
  722MPD2    H210729   2.453   1.606  13.799 -0.5287  2.1232  0.1143
  722MPD2    H310730   2.366   1.388  13.802  0.3529 -0.8311 -1.2717
  722MPD2     N10731   1.963   1.506  13.647  0.1523  0.8492 -0.4193
  722MPD2    H510732   1.912   1.582  13.602  0.5077  1.1966 -0.2322
  722MPD2    N110733   2.305   1.839  13.754 -0.3725  0.0786  0.2676
  722MPD2    H710734   2.248   1.898  13.694 -0.8377 -1.5597 -0.8971
  723TMC3    C110735   1.767   1.388  13.598  0.7533  0.5556  0.2755
  723TMC3    C210736   1.693   1.275  13.620  0.0913  0.5833 -0.5409
  723TMC3    C310737   1.586   1.246  13.540  0.1237  0.5683 -0.1825
  723TMC3    C410738   1.732   1.472  13.497  0.8599 -0.1290 -0.4406
  723TMC3    C510739   1.612   1.449  13.432  0.1810 -0.4912 -0.0712
  723TMC3    C610740   1.541   1.330  13.444 -0.4017  0.4856  0.4362
  723TMC3     C10741   1.893   1.390  13.667  0.2999  0.5253  0.1338
  723TMC3     O10742   1.933   1.292  13.726  0.1541 -0.1710  0.1991
  723TMC3     H10743   1.716   1.202  13.697 -1.4313  0.9755  0.2853
  723TMC3    H110744   1.798   1.551  13.463 -1.3412  1.4738 -1.0180
  723TMC3    H210745   1.456   1.304  13.382  0.2985  0.7709 -0.6244
  723TMC3    C710746   1.589   1.517  13.312  0.1796 -0.4361  0.4259
  723TMC3    C810747   1.539   1.108  13.540  0.5503  0.3371 -0.0265
  723TMC3    O110748   1.566   1.440  13.218  0.1443  0.1827  0.2053
  723TMC3    O210749   1.557   1.040  13.640 -0.0224 -0.2812  0.2855
  724TMC3    C110750   2.493   0.324  11.022 -0.0697  0.1936  0.2484
  724TMC3    C210751   2.451   0.257  10.912  0.0092  0.3081 -0.3004
  724TMC3    C310752   2.546   0.232  10.812  0.2913  0.5382  0.0195
  724TMC3    C410753   2.619   0.355  11.043 -0.2330  0.8579  0.2508
  724TMC3    C510754   2.713   0.315  10.948  0.3090  0.8696 -0.2265
  724TMC3    C610755   2.680   0.241  10.838 -1.1545 -0.4858 -0.3857
  724TMC3     C10756   2.400   0.328  11.125  0.2462 -0.0924  0.4786
  724TMC3     O10757   2.291   0.275  11.101  0.2165 -0.2575 -0.0339
  724TMC3     H10758   2.347   0.263  10.881 -0.2052  0.0307  0.3831
  724TMC3    H110759   2.655   0.436  11.105 -2.1136  0.8807  1.2872
  724TMC3    H210760   2.753   0.222  10.760 -2.7046 -0.4395 -1.8515
  724TMC3    C710761   2.806   0.415  10.915  0.2008 -0.6155 -0.2594
  724TMC3    C810762   2.510   0.300  10.686  0.5638 -0.1328 -0.2704
  724TMC3    O110763   2.750   0.500  10.848  0.1010  0.3661  0.3181
  724TMC3    O210764   2.402   0.267  10.636 -0.2764  0.5638  0.3533
  725TMC3    C110765   4.166   3.895  13.054 -0.7477 -0.4503 -0.5820
  725TMC3    C210766   4.035   3.931  13.045 -0.2653  0.0667 -0.3206
  725TMC3    C310767   3.974   3.901  12.927 -0.6599  0.5494 -0.0514
  725TMC3    C410768   4.228   3.816  12.956 -0.0331 -0.4773 -0.3754
  725TMC3    C510769   4.163   3.793  12.838  0.1201 -0.7216  1.1222
  725TMC3    C610770   4.028   3.832  12.820 -0.0154 -0.0170  0.0240
  725TMC3     C10771   4.233   3.917  13.181  0.4927  0.0899  0.9220
  725TMC3     O10772   4.164   3.978  13.263  0.1104  0.0706 -0.2664
  725TMC3     H10773   3.983   3.991  13.120 -0.6071 -0.6821  0.0415
  725TMC3    H110774   4.333   3.789  12.964 -0.0117  0.0265  1.0544
  725TMC3    H210775   3.978   3.816  12.725  0.9395 -2.8392 -0.0260
  725TMC3    C710776   4.198   3.671  12.774  0.0668 -0.5878 -0.1916
  725TMC3    C810777   3.835   3.954  12.906  1.0469 -0.2943 -0.2747
  725TMC3    O110778   4.114   3.614  12.704  0.6261 -0.6137 -0.2417
  725TMC3    O210779   3.774   3.992  13.008  0.5138 -0.1471  0.0935
  726MPD2     C10780   1.689   0.425  10.745  0.5169  0.3803 -0.6068
  726MPD2    C110781   1.600   0.484  10.653 -1.2555 -0.0787 -0.2086
  726MPD2    C210782   1.466   0.469  10.655 -0.0104  0.8456 -0.0575
  726MPD2    C310783   1.414   0.414  10.777  0.7661  0.3800 -0.2366
  726MPD2    C410784   1.500   0.360  10.873  0.0257  1.0600  0.4020
  726MPD2    C510785   1.635   0.357  10.848  0.8194 -0.5945 -0.4117
  726MPD2     H10786   1.412   0.519  10.576 -0.6595  2.2235  1.2379
  726MPD2    H110787   1.461   0.311  10.962 -0.5145  4.4028  2.0146
  726MPD2    H210788   1.796   0.436  10.734  0.7319  1.6331  2.6801
  726MPD2    H310789   1.704   0.321  10.923  1.0473 -0.0931 -0.3811
  726MPD2     N10790   1.271   0.397  10.791  0.3549  0.5992 -0.0063
  726MPD2    H510791   1.241   0.380  10.887 -0.6201  0.2132 -0.3833
  726MPD2    N110792   1.648   0.571  10.553  0.8458 -0.5468 -0.1822
  726MPD2    H710793   1.576   0.613  10.496  0.9776 -1.3312 -0.9170
  727TMC3    C110794   1.777   0.753  10.482  0.5102  0.2562 -0.0254
  727TMC3    C210795   1.830   0.856  10.541  0.4765  0.1622 -0.0817
  727TMC3    C310796   1.790   0.982  10.512 -0.6502  0.2426 -0.2348
  727TMC3    C410797   1.713   0.768  10.362 -0.4580 -0.0015 -0.3436
  727TMC3    C510798   1.680   0.896  10.333  0.8923  0.3080  0.4727
  727TMC3    C610799   1.714   1.007  10.405 -0.0367 -0.1520  0.2264
  727TMC3     C10800   1.776   0.624  10.551 -0.1689 -0.3166  0.1025
  727TMC3     O10801   1.877   0.604  10.615  0.0425  0.3606 -0.1171
  727TMC3     H10802   1.889   0.844  10.631  2.7684 -0.4470 -1.6744
  727TMC3    H110803   1.694   0.684  10.296 -1.5970  0.3775 -0.5002
  727TMC3    H210804   1.698   1.104  10.359 -0.6502 -0.4914 -0.2842
  727TMC3    C710805   1.578   0.895  10.226  0.1464 -0.2735  0.1039
  727TMC3    C810806   1.834   1.092  10.603 -0.4224 -0.4162  0.4229
  727TMC3    O110807   1.563   0.806  10.146  0.0255  0.2326  0.5215
  727TMC3    O210808   1.915   1.063  10.688  0.3255 -0.3813  0.0627
  728TMC3    C110809   1.257   3.624  15.561 -0.3289 -0.0697  0.3619
  728TMC3    C210810   1.390   3.628  15.539  0.2362 -0.4884 -0.3542
  728TMC3    C310811   1.431   3.659  15.411 -0.0357  0.0699 -0.7757
  728TMC3    C410812   1.163   3.654  15.458  0.3441 -0.1659  0.0294
  728TMC3    C510813   1.211   3.689  15.337 -1.2298 -0.0785 -0.3568
  728TMC3    C610814   1.346   3.682  15.309  1.3839 -0.0121 -0.3139
  728TMC3     C10815   1.214   3.591  15.691 -0.8564 -0.1915  0.1110
  728TMC3     O10816   1.289   3.612  15.784 -0.1531  0.0723 -0.4124
  728TMC3     H10817   1.463   3.610  15.617 -1.1261  0.1549  1.0464
  728TMC3    H110818   1.058   3.650  15.487  0.9937 -2.5605  2.1370
  728TMC3    H210819   1.385   3.721  15.216  1.1844 -1.4585 -1.0048
  728TMC3    C710820   1.116   3.686  15.230 -0.2308  0.6859  0.4593
  728TMC3    C810821   1.557   3.718  15.403  0.2947  0.2236 -0.5270
  728TMC3    O110822   1.007   3.628  15.252  0.2876 -0.2110 -0.3068
  728TMC3    O210823   1.568   3.809  15.321  0.1843  0.2094 -0.2033
  729MPD2     C10824   3.598   4.235  16.664  0.0307  0.5584  0.2121
  729MPD2    C110825   3.624   4.369  16.691 -0.0647  0.8628 -0.3641
  729MPD2    C210826   3.579   4.435  16.804  0.0432 -0.0800  0.7474
  729MPD2    C310827   3.505   4.363  16.892  0.2959 -0.3249  0.5378
  729MPD2    C410828   3.473   4.229  16.862  0.4194 -0.2427 -0.0840
  729MPD2    C510829   3.517   4.172  16.749  0.1627 -0.0607 -0.1548
  729MPD2     H10830   3.605   4.537  16.831  1.1199 -0.7567  2.2977
  729MPD2    H110831   3.416   4.172  16.935 -2.0077  1.1921 -0.8654
  729MPD2    H210832   3.641   4.175  16.585 -0.6010  2.0383 -1.2526
  729MPD2    H310833   3.492   4.067  16.739 -2.4999  0.5977 -0.3673
  729MPD2     N10834   3.462   4.416  17.013  0.0543 -0.0686 -0.8135
  729MPD2    H510835   3.432   4.359  17.092  3.6471  0.3114  0.8163
  729MPD2    N110836   3.706   4.437  16.602  0.2827 -0.2024 -0.3177
  729MPD2    H710837   3.751   4.390  16.525 -0.4831 -1.5895  0.0805
  730TMC3    C110838   3.547   4.572  17.180 -0.6315  0.2733 -0.1509
  730TMC3    C210839   3.664   4.506  17.202  0.2675  0.9784 -0.4187
  730TMC3    C310840   3.763   4.558  17.282 -0.6601  0.4840 -0.4470
  730TMC3    C410841   3.521   4.693  17.235 -0.1890 -0.2303  0.3816
  730TMC3    C510842   3.610   4.733  17.331 -0.0713 -0.1770 -0.0642
  730TMC3    C610843   3.724   4.664  17.360 -0.3997  0.0412 -0.0977
  730TMC3     C10844   3.474   4.549  17.050 -0.3551 -0.3194 -0.2709
  730TMC3     O10845   3.441   4.650  16.991 -0.8848  0.6009  0.1613
  730TMC3     H10846   3.674   4.409  17.154 -3.7771 -0.3736  1.5005
  730TMC3    H110847   3.443   0.023  17.204  0.6463  0.7770  0.4526
  730TMC3    H210848   3.797   4.701  17.431  0.6605 -2.5151  0.1388
  730TMC3    C710849   3.613   0.139  17.352 -0.5728 -0.2944  0.1977
  730TMC3    C810850   3.881   4.570  17.196 -0.0596  0.4823 -0.8435
  730TMC3    O110851   3.546   0.212  17.287  0.4226 -0.0090 -0.5985
  730TMC3    O210852   3.886   4.505  17.093  0.5451 -0.1397 -0.6687
  731MPD2     C10853   2.782   3.433  12.243 -0.4421  0.2545  0.3501
  731MPD2    C110854   2.909   3.463  12.290  0.1623  0.3976 -0.9786
  731MPD2    C210855   2.950   3.437  12.424  0.2484 -0.2342  0.4864
  731MPD2    C310856   2.854   3.374  12.507  0.3632 -0.5049  0.3275
  731MPD2    C410857   2.730   3.330  12.454  0.5844 -0.5765 -0.1985
  731MPD2    C510858   2.691   3.360  12.321  0.4204 -0.9225 -0.1007
  731MPD2     H10859   3.047   3.463  12.466 -0.8954  2.2245  1.6596
  731MPD2    H110860   2.654   3.284  12.516  1.1043  0.4587  1.2169
  731MPD2    H210861   2.740   3.463  12.147  0.6100  0.1849 -0.1344
  731MPD2    H310862   2.588   3.336  12.294  0.1301  1.6311 -1.3673
  731MPD2     N10863   2.904   3.340  12.640 -0.2402 -0.7870 -0.0095
  731MPD2    H510864   2.998   3.368  12.663 -1.1534  2.8323 -0.6385
  731MPD2    N110865   2.990   3.540  12.203  0.1950  0.1564 -0.1024
  731MPD2    H710866   2.961   3.534  12.106 -1.5921  1.0067  0.3669
  732TMC3    C110867   3.205   3.599  12.112 -0.2621 -0.2020 -0.4641
  732TMC3    C210868   3.204   3.493  12.030  0.6468 -0.0882  0.6284
  732TMC3    C310869   3.325   3.439  11.986 -0.0081  0.2710  0.2087
  732TMC3    C410870   3.321   3.660  12.127 -0.9423  0.6175 -0.0811
  732TMC3    C510871   3.438   3.606  12.092 -0.3009 -0.2582 -0.4315
  732TMC3    C610872   3.449   3.490  12.018  0.0540  0.0498 -0.3180
  732TMC3     C10873   3.115   3.589  12.230  0.0574  0.9999  0.3910
  732TMC3     O10874   3.168   3.641  12.325  0.5602 -0.1907 -0.2619
  732TMC3     H10875   3.112   3.459  11.983  0.1217  0.3270  1.3385
  732TMC3    H110876   3.319   3.756  12.177 -0.7060 -0.2662  1.6270
  732TMC3    H210877   3.542   3.441  11.993  0.9668  1.4796  0.3491
  732TMC3    C710878   3.542   3.638  12.187 -0.7192  0.3424  0.2099
  732TMC3    C810879   3.323   3.307  11.921  0.6121  0.1105  0.0598
  732TMC3    O110880   3.552   3.754  12.222  0.5594 -0.2335  0.0760
  732TMC3    O210881   3.421   3.260  11.866  0.5136 -0.1912 -0.4108
  733TMC3    C110882   4.226   1.443  13.379  0.3215 -0.3521  0.3256
  733TMC3    C210883   4.223   1.563  13.319  0.1950 -0.3832  0.7832
  733TMC3    C310884   4.282   1.583  13.205 -0.0548 -0.0986  0.4662
  733TMC3    C410885   4.311   1.342  13.335  0.2527 -0.2597 -0.1198
  733TMC3    C510886   4.394   1.380  13.227 -0.3175  0.0643 -0.3864
  733TMC3    C610887   4.368   1.491  13.157  0.0633  0.1931 -0.5370
  733TMC3     C10888   4.099   1.411  13.441 -0.1629  0.6461  0.5149
  733TMC3     O10889   4.009   1.490  13.439 -0.3142 -0.0602  0.6092
  733TMC3     H10890   4.135   1.626  13.327 -0.2068 -1.0981  2.0163
  733TMC3    H110891   4.328   1.243  13.373 -1.2404 -0.3130  0.4201
  733TMC3    H210892   4.445   1.514  13.085 -1.5911 -0.7274 -2.5849
  733TMC3    C710893   4.472   1.277  13.160  0.3954 -0.0330 -0.0079
  733TMC3    C810894   4.222   1.687  13.119 -0.6094  0.2740  0.0382
  733TMC3    O110895   4.546   1.216  13.231 -0.0613  0.0745 -0.2938
  733TMC3    O210896   4.169   1.788  13.163 -0.0480  0.2831  0.5076
  734MPD2     C10897   1.513   3.521  12.680 -0.3617 -0.7168 -0.6587
  734MPD2    C110898   1.396   3.513  12.609  0.2187  0.4888 -0.3252
  734MPD2    C210899   1.365   3.611  12.515  0.2539 -0.1408 -0.0602
  734MPD2    C310900   1.454   3.714  12.488 -0.1556  0.5400  0.1626
  734MPD2    C410901   1.574   3.720  12.558  0.0709  0.3696  0.1346
  734MPD2    C510902   1.601   3.625  12.661 -0.0322 -0.1521  0.2572
  734MPD2     H10903   1.269   3.627  12.468 -0.3336 -1.4315  0.7199
  734MPD2    H110904   1.647   3.797  12.537 -2.1369  1.7960 -2.3862
  734MPD2    H210905   1.530   3.446  12.756 -0.6898 -0.2403 -0.1132
  734MPD2    H310906   1.686   3.629  12.728 -0.3482  0.1819  0.6382
  734MPD2     N10907   1.415   3.802  12.387  0.2084  0.1146  0.6365
  734MPD2    H510908   1.328   3.779  12.340  0.5546  2.1780 -1.0296
  734MPD2    N110909   1.313   3.396  12.635  0.8135 -0.2984 -0.6792
  734MPD2    H710910   1.330   3.341  12.719 -0.2614  3.6327  2.1057
  735TMC3    C110911   1.190   3.221  12.558 -0.2718  0.5345 -0.9114
  735TMC3    C210912   1.091   3.183  12.471  0.4922 -0.0776 -0.2892
  735TMC3    C310913   1.120   3.089  12.380 -0.2291  0.1090  0.1886
  735TMC3    C410914   1.310   3.157  12.559 -0.8866  0.1408  0.2209
  735TMC3    C510915   1.333   3.061  12.460  0.5653 -0.0893  0.1439
  735TMC3    C610916   1.244   3.032  12.359 -0.3215 -0.7132 -0.2045
  735TMC3     C10917   1.209   3.364  12.548 -0.1664  0.5142 -0.0326
  735TMC3     O10918   1.180   3.411  12.437  0.0416  0.6704  0.1136
  735TMC3     H10919   0.996   3.236  12.480  0.0010 -0.9781 -0.1676
  735TMC3    H110920   1.391   3.184  12.627 -0.4747 -1.3889  0.3266
  735TMC3    H210921   1.263   2.989  12.262  0.5900 -2.0678  0.5892
  735TMC3    C710922   1.451   2.976  12.469 -0.6470 -0.2509 -0.0621
  735TMC3    C810923   1.068   3.118  12.245  0.3276  0.6465 -0.5360
  735TMC3    O110924   1.532   3.013  12.554  0.3533  0.3197 -0.1424
  735TMC3    O210925   1.065   3.034  12.162  0.0410  0.1515 -0.3618
  736MPD2     C10926   1.526   2.675  12.276  0.9251  0.4238  0.2596
  736MPD2    C110927   1.553   2.783  12.355  0.7778  0.3420 -0.2769
  736MPD2    C210928   1.688   2.819  12.374 -0.1702  0.2326  1.1496
  736MPD2    C310929   1.789   2.741  12.320 -0.2058  1.1851  0.3084
  736MPD2    C410930   1.757   2.631  12.251  0.1078 -0.2264  0.8022
  736MPD2    C510931   1.626   2.595  12.232 -0.5577  0.0163  0.0562
  736MPD2     H10932   1.716   2.908  12.431  3.5370 -1.3917  1.8960
  736MPD2    H110933   1.838   2.569  12.214 -0.0067 -0.7342  1.4037
  736MPD2    H210934   1.424   2.650  12.248  0.1658  3.7700  0.0211
  736MPD2    H310935   1.604   2.506  12.174 -2.7835 -0.1470  1.1547
  736MPD2     N10936   1.919   2.777  12.317  0.3125 -0.4242 -0.0108
  736MPD2    H510937   1.991   2.715  12.282 -0.1561 -0.7175 -0.4420
  736MPD2    N110938   1.442   2.859  12.395 -0.2310  0.5976 -0.4947
  736MPD2    H710939   1.350   2.828  12.367 -0.5616  1.0698  0.0869
  737TMC3    C110940   2.115   2.918  12.323  0.7542 -0.1969 -0.1611
  737TMC3    C210941   2.159   3.039  12.367  0.5007  0.2031  0.4129
  737TMC3    C310942   2.239   3.115  12.288  0.0818  0.3701  0.2831
  737TMC3    C410943   2.146   2.880  12.197  0.3287  0.8842  0.7249
  737TMC3    C510944   2.243   2.949  12.123 -0.0087  0.3679  0.5986
  737TMC3    C610945   2.284   3.076  12.166 -0.2796 -0.4001 -0.3645
  737TMC3     C10946   1.975   2.896  12.362  0.3591  0.7169  0.0087
  737TMC3     O10947   1.925   2.987  12.425  0.1516  0.1412 -0.2066
  737TMC3     H10948   2.151   3.070  12.471  0.7929  1.8178 -0.0557
  737TMC3    H110949   2.121   2.779  12.168  0.0719  0.4540  2.3955
  737TMC3    H210950   2.380   3.117  12.135 -0.0438  0.4115  1.4464
  737TMC3    C710951   2.319   2.868  12.024 -0.6253  0.3198  0.4638
  737TMC3    C810952   2.242   3.253  12.322  0.1857  1.0812 -0.1972
  737TMC3    O110953   2.309   2.746  12.047 -0.1173  0.2026  0.4617
  737TMC3    O210954   2.210   3.292  12.434 -0.1817 -0.0503  0.4722
  738MPD2     C10955   2.926   1.520  15.490  0.3841 -0.7859 -0.1429
  738MPD2    C110956   2.865   1.603  15.407 -0.2022  0.1598 -0.5114
  738MPD2    C210957   2.921   1.721  15.365 -0.1840  0.4773  0.2622
  738MPD2    C310958   3.047   1.757  15.406  0.1358 -0.1935  1.1791
  738MPD2    C410959   3.110   1.673  15.499  1.1927 -0.5833 -0.1385
  738MPD2    C510960   3.049   1.555  15.540  0.2316  0.0283  0.1836
  738MPD2     H10961   2.860   1.787  15.303  1.0155  0.5861 -0.7919
  738MPD2    H110962   3.215   1.690  15.520  1.4632 -0.4863 -1.5385
  738MPD2    H210963   2.883   1.423  15.513 -0.0810 -0.5718 -0.1202
  738MPD2    H310964   3.102   1.492  15.611  0.1853  2.4163  2.3333
  738MPD2     N10965   3.116   1.872  15.357 -0.6404  0.5089  0.5924
  738MPD2    H510966   3.214   1.881  15.383 -0.2884  3.3721 -1.7796
  738MPD2    N110967   2.734   1.578  15.354 -0.3838  0.8354 -0.2332
  738MPD2    H710968   2.703   1.651  15.290  0.9713  2.4160  0.9264
  739TMC3    C110969   3.155   2.056  15.212  0.7203  0.9135 -0.2992
  739TMC3    C210970   3.114   2.124  15.104  0.4101  0.5149 -0.3396
  739TMC3    C310971   3.196   2.193  15.022 -0.0604 -0.2027 -0.5609
  739TMC3    C410972   3.289   2.048  15.243  0.1179 -0.1760  0.1733
  739TMC3    C510973   3.376   2.122  15.157 -0.6582  0.1311 -0.3156
  739TMC3    C610974   3.331   2.188  15.046  0.4075 -0.0276  0.3780
  739TMC3     C10975   3.062   1.971  15.276 -0.3946 -0.2695  0.3456
  739TMC3     O10976   2.947   2.010  15.260  0.0486  0.4509  0.4041
  739TMC3     H10977   3.008   2.126  15.082  0.1098  1.9488  1.2311
  739TMC3    H110978   3.344   1.984  15.310  1.1476  0.9060  0.3610
  739TMC3    H210979   3.408   2.229  14.982 -2.1380 -0.3930 -2.9125
  739TMC3    C710980   3.520   2.096  15.165 -0.0140 -0.0779 -0.3626
  739TMC3    C810981   3.146   2.259  14.904 -0.3067 -0.4828 -0.1211
  739TMC3    O110982   3.579   2.055  15.069 -0.6027 -0.0630 -0.4522
  739TMC3    O210983   3.030   2.236  14.875 -0.4655 -0.2277 -0.1579
  740TMC3    C110984   3.025   3.553  14.636  0.0894 -0.3731 -0.1860
  740TMC3    C210985   3.133   3.504  14.705 -0.3788 -0.1329 -0.4572
  740TMC3    C310986   3.231   3.445  14.629  0.1990 -0.2856 -0.7148
  740TMC3    C410987   3.023   3.565  14.496  0.3261 -0.0612  0.3795
  740TMC3    C510988   3.119   3.499  14.428  0.1986 -0.4452 -0.1051
  740TMC3    C610989   3.228   3.444  14.489  0.1868  0.4580  0.8403
  740TMC3     C10990   2.916   3.621  14.707  0.6379  0.8214  0.2669
  740TMC3     O10991   2.856   3.707  14.640 -0.5383  0.2660  0.1621
  740TMC3     H10992   3.135   3.499  14.813  0.3627  0.4221 -0.4439
  740TMC3    H110993   2.934   3.596  14.442  0.2111  0.2366  0.7388
  740TMC3    H210994   3.317   3.409  14.438 -0.1061  1.4847 -0.3754
  740TMC3    C710995   3.121   3.498  14.278 -0.6215  0.0404 -0.2967
  740TMC3    C810996   3.357   3.423  14.694 -0.0805 -0.5252 -0.7729
  740TMC3    O110997   3.109   3.596  14.208  0.2428  0.6747  0.5559
  740TMC3    O210998   3.459   3.457  14.630  0.2873 -0.4905  0.4374
  741TMC3    C110999   2.900   2.732  14.743  0.7884  1.1380 -0.2997
  741TMC3    C211000   2.759   2.712  14.731 -0.4075 -0.2854 -0.9044
  741TMC3    C311001   2.699   2.632  14.818  1.0758  0.0892  0.0797
  741TMC3    C411002   2.972   2.678  14.841  0.3486 -0.6983 -0.7109
  741TMC3    C511003   2.908   2.598  14.932  0.3732 -0.4597  0.1971
  741TMC3    C611004   2.773   2.571  14.923 -0.0337  0.2311 -0.4707
  741TMC3     C11005   2.960   2.801  14.638  0.4466  0.4305  0.3296
  741TMC3     O11006   2.892   2.831  14.542 -0.4386  0.5704 -0.2843
  741TMC3     H11007   2.710   2.758  14.646  1.5825 -1.2773 -2.5589
  741TMC3    H111008   3.079   2.694  14.842  0.0950  0.9514  0.5941
  741TMC3    H211009   2.710   2.501  14.977  0.8927 -1.0310 -1.0096
  741TMC3    C711010   2.992   2.545  15.041  0.4296 -0.6928  0.1399
  741TMC3    C811011   2.584   2.563  14.757  0.3056 -0.6617 -0.2647
  741TMC3    O111012   3.113   2.562  15.026  0.0372 -0.1952  0.1847
  741TMC3    O211013   2.528   2.637  14.678 -0.3158  0.5233  0.8118
  742TMC3    C111014   2.473   0.939  15.753  0.0504  0.7672 -0.2055
  742TMC3    C211015   2.418   0.915  15.629 -0.0777 -0.1516 -0.4732
  742TMC3    C311016   2.505   0.869  15.534 -0.0063 -0.0622  0.3394
  742TMC3    C411017   2.600   0.896  15.785  0.7317  0.5218 -0.5221
  742TMC3    C511018   2.679   0.842  15.687 -0.0508  1.1421  0.3876
  742TMC3    C611019   2.631   0.831  15.562 -0.3033 -0.6219  0.8822
  742TMC3     C11020   2.377   0.954  15.861  0.1534 -0.3269  0.0468
  742TMC3     O11021   2.263   0.922  15.827  0.9106  0.4230 -0.5778
  742TMC3     H11022   2.323   0.963  15.609 -1.3205 -0.4907  4.4847
  742TMC3    H111023   2.635   0.888  15.887 -2.2164  0.0838  0.4634
  742TMC3    H211024   2.693   0.794  15.481  1.4669  0.7847  1.5884
  742TMC3    C711025   2.829   0.821  15.685  0.0625  0.0571  0.1911
  742TMC3    C811026   2.462   0.871  15.397  0.2959  0.0032  0.0959
  742TMC3    O111027   2.882   0.756  15.594 -0.0170 -0.2617 -0.4402
  742TMC3    O211028   2.505   0.778  15.330  0.4277 -0.6150  0.2015
  743MPD2     C11029   0.419   1.267   1.115  0.5936 -0.2587 -0.0999
  743MPD2    C111030   0.437   1.397   1.169  0.6382  0.3495  0.1166
  743MPD2    C211031   0.562   1.451   1.186 -0.5023 -0.8322  0.3332
  743MPD2    C311032   0.671   1.378   1.161 -0.3832 -0.0490  0.1079
  743MPD2    C411033   0.652   1.247   1.121  0.0260  0.0754  0.6544
  743MPD2    C511034   0.528   1.194   1.096  0.2485 -0.6342  0.3078
  743MPD2     H11035   0.572   1.551   1.227  0.2399 -1.2022  1.0483
  743MPD2    H111036   0.738   1.186   1.098  1.1505  1.7096  0.4777
  743MPD2    H211037   0.317   1.232   1.099  0.7325 -1.0190  0.6895
  743MPD2    H311038   0.504   1.100   1.048  0.5218 -0.9377  0.7641
  743MPD2     N11039   0.791   1.436   1.173  0.1134 -0.9275  0.6674
  743MPD2    H511040   0.808   1.523   1.221  0.7902 -0.2786 -0.7543
  743MPD2    N111041   0.312   1.466   1.200  1.3017  0.9071  0.6118
  743MPD2    H711042   0.225   1.423   1.171  0.3771  1.4731  2.5588
  744TMC3    C111043   0.181   1.649   1.270 -0.2845 -0.3232  0.3406
  744TMC3    C211044   0.130   1.727   1.375 -1.0958 -0.1014 -0.4062
  744TMC3    C311045   0.024   1.818   1.347  0.3707 -0.4611 -0.4450
  744TMC3    C411046   0.144   1.670   1.140  0.4313  0.3339  1.1318
  744TMC3    C511047   0.042   1.759   1.114 -0.1106 -0.6053 -0.5565
  744TMC3    C611048   4.715   1.838   1.213 -0.5668  0.2145  0.0453
  744TMC3     C11049   0.303   1.576   1.282  0.4482 -0.2666 -0.3994
  744TMC3     O11050   0.392   1.614   1.359 -0.4025 -0.6125 -0.3399
  744TMC3     H11051   0.168   1.721   1.477 -1.3212 -0.7344 -0.3584
  744TMC3    H111052   0.200   1.621   1.062 -0.4678 -1.1506  1.4183
  744TMC3    H211053   4.643   1.915   1.189  0.9373  0.9127 -2.3410
  744TMC3    C711054   0.061   1.825   0.983 -0.5375  0.4174  0.7703
  744TMC3    C811055   4.721   1.923   1.440  0.4998  0.1833  0.5928
  744TMC3    O111056   0.169   1.841   0.935 -0.4048 -0.5528 -0.0683
  744TMC3    O211057   4.673   2.023   1.387 -0.0853 -0.3525  0.3683
  745TMC3    C111058   2.842   0.996  14.095  0.5364  0.1034 -0.2053
  745TMC3    C211059   2.752   0.929  14.166  1.0106 -0.4386 -0.0089
  745TMC3    C311060   2.618   0.960  14.153 -0.6117 -0.1840  1.0261
  745TMC3    C411061   2.804   1.095  14.007 -0.1762 -0.5765 -0.5237
  745TMC3    C511062   2.667   1.115  13.990 -0.3033  0.1083 -0.5808
  745TMC3    C611063   2.564   1.044  14.060 -0.5714  0.5013 -0.0853
  745TMC3     C11064   2.942   1.027  14.192 -0.6446 -0.6582 -0.0864
  745TMC3     O11065   2.909   1.008  14.307  0.4279  0.1044 -0.3606
  745TMC3     H11066   2.780   0.847  14.231 -1.8468  0.4760  2.3865
  745TMC3    H111067   2.884   1.158  13.970 -0.3131 -0.9362 -1.4494
  745TMC3    H211068   2.459   1.068  14.056 -0.3144  1.6695  0.2124
  745TMC3    C711069   2.624   1.178  13.870 -0.2065 -0.5185 -0.1467
  745TMC3    C811070   2.551   0.976  14.276  0.1521  0.1411  0.0050
  745TMC3    O111071   2.505   1.214  13.857  0.2684 -0.3043 -0.1314
  745TMC3    O211072   2.429   0.995  14.276  0.1484  0.0288 -0.1696
  746TMC3    C111073   0.700   3.343  10.886 -0.0096  0.9102  0.9119
  746TMC3    C211074   0.761   3.277  10.777  0.2967  0.4053 -0.1738
  746TMC3    C311075   0.706   3.168  10.724  0.3731 -0.0509  0.6113
  746TMC3    C411076   0.586   3.285  10.931 -0.3537 -0.1815  0.3401
  746TMC3    C511077   0.535   3.173  10.876  0.2897  0.0543  0.2083
  746TMC3    C611078   0.595   3.108  10.775  0.1507  0.1920  0.6518
  746TMC3     C11079   0.713   3.486  10.894 -0.2843 -0.6314  0.2073
  746TMC3     O11080   0.772   3.544  10.805  0.1979  0.2865  0.2835
  746TMC3     H11081   0.848   3.323  10.732  0.7044  0.0740  0.2739
  746TMC3    H111082   0.509   3.335  10.989  2.3639 -0.4080  4.1961
  746TMC3    H211083   0.560   3.016  10.729 -2.5588  1.2388  0.5872
  746TMC3    C711084   0.409   3.111  10.922  0.4698 -0.3869  0.3996
  746TMC3    C811085   0.725   3.133  10.584  0.3223 -0.6439  0.1375
  746TMC3    O111086   0.355   3.042  10.840  0.3761 -0.3325 -0.1489
  746TMC3    O211087   0.691   3.022  10.545 -0.2084  0.4716  0.2659
  747TMC3    C111088   3.037   3.196  11.313 -0.1051 -0.5045 -0.1413
  747TMC3    C211089   2.944   3.102  11.351 -0.2860  0.4435  0.2682
  747TMC3    C311090   2.905   3.105  11.485  0.3293  0.0347 -0.2931
  747TMC3    C411091   3.093   3.287  11.398 -0.1004  0.0831 -0.6899
  747TMC3    C511092   3.043   3.289  11.525 -0.2914 -0.3163 -0.1357
  747TMC3    C611093   2.948   3.198  11.572 -0.1262 -1.0524  0.3844
  747TMC3     C11094   3.085   3.206  11.173 -0.3916 -0.1020  0.1159
  747TMC3     O11095   3.153   3.302  11.138  0.1783  0.2598 -0.7852
  747TMC3     H11096   2.889   3.040  11.281  0.0040  1.4826 -0.8741
  747TMC3    H111097   3.165   3.358  11.360  2.1884 -2.9878 -2.0959
  747TMC3    H211098   2.919   3.204  11.676 -2.7680 -1.2518 -0.3385
  747TMC3    C711099   3.090   3.390  11.620 -0.0552  0.0727 -0.2388
  747TMC3    C811100   2.835   2.985  11.524  0.0626  0.2888  0.4406
  747TMC3    O111101   3.015   3.432  11.707 -0.0227 -0.6190 -0.1481
  747TMC3    O211102   2.850   2.886  11.451 -0.0918 -0.1906 -0.0200
  748MPD2     C11103   0.037   3.110   1.588 -0.1991 -0.1805 -1.0535
  748MPD2    C111104   0.028   3.202   1.490 -0.0174  0.5620 -0.2651
  748MPD2    C211105   0.140   3.254   1.428 -0.6408  0.1440  0.1084
  748MPD2    C311106   0.262   3.207   1.463  0.1551 -0.2601 -0.0221
  748MPD2    C411107   0.268   3.096   1.543 -0.1170  0.0161  0.8640
  748MPD2    C511108   0.155   3.048   1.604  0.7956 -0.4343  0.8104
  748MPD2     H11109   0.128   3.336   1.358 -1.6774  0.6042  0.8294
  748MPD2    H111110   0.361   3.045   1.564  2.2761  3.7335 -0.7924
  748MPD2    H211111   4.689   3.067   1.638 -0.4349  1.1976 -0.2849
  748MPD2    H311112   0.158   2.967   1.676 -1.1644 -1.5526 -0.3357
  748MPD2     N11113   0.372   3.288   1.413 -0.3822  0.4671  0.3871
  748MPD2    H511114   0.347   3.377   1.370  2.5758  1.7095  1.3109
  748MPD2    N111115   4.644   3.262   1.451 -0.1097  0.3276  0.0270
  748MPD2    H711116   4.653   3.320   1.368  1.9162 -0.2212 -0.1461
  749TMC3    C111117   0.587   3.366   1.435  0.8567  0.0139 -0.4765
  749TMC3    C211118   0.677   3.390   1.540 -0.4461 -0.0546  0.1761
  749TMC3    C311119   0.764   3.497   1.541 -0.0277 -0.0454 -0.0310
  749TMC3    C411120   0.573   3.462   1.338 -0.2690 -0.0947  0.5061
  749TMC3    C511121   0.653   3.574   1.346  0.9520 -0.0593 -0.5514
  749TMC3    C611122   0.746   3.594   1.443  0.1893  0.7488 -0.4885
  749TMC3     C11123   0.499   3.252   1.441 -0.2336  0.4804 -0.3215
  749TMC3     O11124   0.546   3.151   1.491 -0.5182 -0.4188 -0.3690
  749TMC3     H11125   0.686   3.316   1.620  1.9744  2.0124  1.8156
  749TMC3    H111126   0.493   3.457   1.265  0.5782 -1.7712 -0.3102
  749TMC3    H211127   0.820   3.672   1.428  1.6278 -0.5803 -0.3666
  749TMC3    C711128   0.640   3.684   1.256  0.8094  0.0539 -0.2909
  749TMC3    C811129   0.900   3.455   1.563 -0.1341  0.4065  0.6996
  749TMC3    O111130   0.656   3.800   1.297  0.2476 -0.1484 -0.1814
  749TMC3    O211131   0.975   3.541   1.608 -0.4721 -0.1360  0.2545
  750MPD2     C11132   0.361   0.477  11.563  0.7554 -0.9502 -0.2146
  750MPD2    C111133   0.284   0.381  11.497 -0.4573 -0.3025 -0.4691
  750MPD2    C211134   0.346   0.307  11.392  0.0825  0.2586 -0.1164
  750MPD2    C311135   0.480   0.342  11.351  0.1973 -0.8372  0.5046
  750MPD2    C411136   0.550   0.441  11.420  0.6527 -0.2079 -0.4644
  750MPD2    C511137   0.487   0.501  11.527  0.1647 -0.2738  0.0795
  750MPD2     H11138   0.292   0.226  11.343  0.8130 -0.5201  0.3678
  750MPD2    H111139   0.655   0.457  11.398 -0.1273  1.5283 -3.0196
  750MPD2    H211140   0.327   0.527  11.653  1.8524  1.4965 -1.1426
  750MPD2    H311141   0.549   0.581  11.565 -1.1518  0.7095  0.1447
  750MPD2     N11142   0.561   0.282  11.257  0.0899 -0.1458 -0.2071
  750MPD2    H511143   0.653   0.324  11.245 -1.3725  2.5172 -2.1204
  750MPD2    N111144   0.147   0.354  11.525  0.1288  0.0678 -0.2123
  750MPD2    H711145   0.107   0.399  11.607 -0.8808 -1.2700  0.0272
  751TMC3    C111146   0.641   0.105  11.137 -1.1872 -0.3880 -0.2675
  751TMC3    C211147   0.738   0.082  11.230 -0.2546 -0.2610  0.4638
  751TMC3    C311148   0.792   4.693  11.237 -0.7364 -0.2635 -0.4247
  751TMC3    C411149   0.610   0.022  11.040 -0.3862 -0.4831 -0.5979
  751TMC3    C511150   0.693   4.653  11.022 -0.7029 -0.4825  0.1547
  751TMC3    C611151   0.782   4.621  11.123 -0.1680 -0.4768 -1.0891
  751TMC3     C11152   0.529   0.166  11.197 -0.5439 -0.4543 -0.6391
  751TMC3     O11153   0.422   0.113  11.174 -0.0651  0.4430  0.2097
  751TMC3     H11154   0.758   0.160  11.303 -0.4208  0.3545 -0.1501
  751TMC3    H111155   0.546   0.052  10.958  0.5509 -1.2346 -1.6073
  751TMC3    H211156   0.842   4.531  11.114  0.1624 -0.3990  0.3291
  751TMC3    C711157   0.684   4.579  10.899 -0.3588  0.1923  1.1969
  751TMC3    C811158   0.757   4.615  11.356  0.0882  0.9454  0.1576
  751TMC3    O111159   0.623   4.623  10.804 -0.3985 -0.8047  0.5913
  751TMC3    O211160   0.777   4.493  11.358  0.2666 -0.5485 -0.3434
  752TMC3    C111161   4.370   4.019  17.198 -0.5907  0.1668  0.4259
  752TMC3    C211162   4.406   3.906  17.266 -0.4118  1.0219 -0.3478
  752TMC3    C311163   4.363   3.896  17.395 -0.7896 -0.2715 -0.2256
  752TMC3    C411164   4.292   4.110  17.249  0.4721 -0.2190 -0.5288
  752TMC3    C511165   4.260   4.098  17.386  0.1781 -0.8102 -0.3082
  752TMC3    C611166   4.293   3.986  17.461  0.1236  0.4605  0.6046
  752TMC3     C11167   4.411   4.020  17.058 -0.5359 -0.1014 -0.1258
  752TMC3     O11168   4.513   3.956  17.028 -0.4560 -0.3788 -0.0063
  752TMC3     H11169   4.452   3.821  17.217  1.9965  2.6085 -0.8226
  752TMC3    H111170   4.280   4.203  17.194  0.5930 -0.8983 -1.7164
  752TMC3    H211171   4.269   3.980  17.566 -1.8925  2.9330  0.2956
  752TMC3    C711172   4.168   4.198  17.441 -0.0875  0.3078 -0.3810
  752TMC3    C811173   4.388   3.764  17.449  0.7340 -0.2348 -0.2204
  752TMC3    O111174   4.101   4.158  17.536 -0.2192  0.1246 -0.9546
  752TMC3    O211175   4.498   3.722  17.433 -0.2566 -0.2957 -0.0896
  753TMC3    C111176   1.173   1.075  13.614 -0.2645  0.1316  0.0982
  753TMC3    C211177   1.158   1.047  13.749 -0.4631 -0.3503 -0.1045
  753TMC3    C311178   1.148   0.916  13.778 -0.5080  0.0457 -0.5656
  753TMC3    C411179   1.165   0.983  13.514 -0.1648  0.0919 -0.2991
  753TMC3    C511180   1.160   0.849  13.544  0.4921 -0.3733 -0.6022
  753TMC3    C611181   1.150   0.820  13.679 -0.5976  0.2437  0.2243
  753TMC3     C11182   1.192   1.211  13.572 -0.2759 -0.4418 -0.8668
  753TMC3     O11183   1.164   1.241  13.454 -0.0465  0.0325  0.1833
  753TMC3     H11184   1.144   1.123  13.826  1.1708  1.6031 -1.7618
  753TMC3    H111185   1.162   1.007  13.408  2.9889 -1.8482 -0.8501
  753TMC3    H211186   1.130   0.719  13.714  0.6701  0.4366  1.5232
  753TMC3    C711187   1.119   0.753  13.443 -0.2115  0.0704  0.1215
  753TMC3    C811188   1.178   0.864  13.908 -0.1744 -0.4582 -0.3575
  753TMC3    O111189   1.087   0.795  13.332 -0.1495 -0.0717  0.3726
  753TMC3    O211190   1.132   0.753  13.937 -0.3460  0.3931 -0.3580
  754MPD2     C11191   0.528   4.641  13.240 -0.1057  0.2108  0.5935
  754MPD2    C111192   0.514   4.568  13.354 -0.6810 -0.4225  0.2641
  754MPD2    C211193   0.388   4.543  13.399 -0.1846  0.2016 -0.1797
  754MPD2    C311194   0.275   4.577  13.328 -0.2351  0.1420 -0.5318
  754MPD2    C411195   0.287   4.664  13.221  0.7212  0.2709 -0.3724
  754MPD2    C511196   0.412   4.692  13.181  0.2267  0.0687 -0.0618
  754MPD2     H11197   0.377   4.480  13.487  0.2167  0.1396 -0.1743
  754MPD2    H111198   0.202   4.700  13.164 -0.6022 -2.5903 -0.1967
  754MPD2    H211199   0.626   4.667  13.202 -0.7411  2.1792  0.3117
  754MPD2    H311200   0.425   0.011  13.089 -0.9324  2.6844  1.4230
  754MPD2     N11201   0.142   4.552  13.373  0.1499  0.2388  0.0107
  754MPD2    H511202   0.063   4.584  13.317 -0.1186  1.0866  0.8787
  754MPD2    N111203   0.627   4.505  13.403 -0.6952 -0.2836  0.4134
  754MPD2    H711204   0.701   4.496  13.335 -0.3969  0.8204  0.5819
  755MPD2     C11205   4.161   0.130  13.015 -0.5103 -0.1318 -0.6237
  755MPD2    C111206   4.102   0.075  13.125  0.6963  0.6402 -0.1664
  755MPD2    C211207   4.180   4.729  13.208  0.9586 -0.0926  0.2640
  755MPD2    C311208   4.310   4.702  13.182 -0.9514  0.4627  0.6178
  755MPD2    C411209   4.368   0.006  13.063 -0.2879  1.0127 -0.5230
  755MPD2    C511210   4.288   0.082  12.978  0.2842  0.4678 -0.0734
  755MPD2     H11211   4.140   4.694  13.302  1.3340  3.1288  1.6088
  755MPD2    H111212   4.468   4.718  13.032 -0.5954  0.9200 -1.4331
  755MPD2    H211213   4.104   0.195  12.950 -2.5275 -1.6762 -0.3684
  755MPD2    H311214   4.327   0.113  12.882 -1.0644  1.7700 -0.1863
  755MPD2     N11215   4.402   4.642  13.270  0.7852  0.8624  0.0120
  755MPD2    H511216   4.496   4.622  13.238 -0.3934 -1.7230 -1.8196
  755MPD2    N111217   3.969   0.116  13.170  0.3709  0.4413 -0.6802
  755MPD2    H711218   3.942   0.081  13.261 -0.2346  2.3807 -0.1043
  756MPD2     C11219   4.416   1.178  10.015 -0.2771  0.4851  0.3793
  756MPD2    C111220   4.372   1.094  10.107 -0.3041  0.4372 -0.1618
  756MPD2    C211221   4.254   1.023  10.082 -0.4381 -0.0542 -0.3209
  756MPD2    C311222   4.187   1.040   9.963 -0.6998  0.3961  1.3324
  756MPD2    C411223   4.226   1.137   9.882 -0.3059  1.1241  0.2856
  756MPD2    C511224   4.344   1.209   9.905 -0.5626  0.5579  0.7473
  756MPD2     H11225   4.224   0.954  10.161  1.1969 -0.9571 -0.4905
  756MPD2    H111226   4.174   1.173   9.793  0.5794  1.6323 -0.0296
  756MPD2    H211227   4.508   1.234  10.027 -0.6158  1.2504 -0.5846
  756MPD2    H311228   4.376   1.282   9.832  0.6127 -1.7072 -0.9939
  756MPD2     N11229   4.074   0.964   9.935  0.5180  0.1150  0.0192
  756MPD2    H511230   4.054   0.895  10.007  2.3224 -0.6289 -0.1912
  756MPD2    N111231   4.450   1.064  10.223  0.1071 -0.5423  0.3245
  756MPD2    H711232   4.422   0.980  10.271 -0.7227 -0.7998 -0.6234
  757MPD2     C11233   3.927   0.133  10.240  0.8709  0.1492 -0.5959
  757MPD2    C111234   4.010   0.239  10.243 -0.1810  0.2378  0.1931
  757MPD2    C211235   3.993   0.359  10.169 -0.5205  0.0343  0.7333
  757MPD2    C311236   3.884   0.376  10.085  0.2113  0.0701  0.3576
  757MPD2    C411237   3.800   0.265  10.078 -0.6407  0.0811  0.3396
  757MPD2    C511238   3.816   0.152  10.160  0.4106  0.2500  0.4933
  757MPD2     H11239   4.059   0.443  10.186 -1.8619  0.9612  1.3889
  757MPD2    H111240   3.718   0.267  10.006 -2.7019 -1.3968  2.6218
  757MPD2    H211241   3.941   0.040  10.295  0.1751 -0.0445 -0.7521
  757MPD2    H311242   3.746   0.071  10.145 -0.8351  1.4785 -0.2785
  757MPD2     N11243   3.863   0.504  10.019 -0.0119 -0.1088  0.6659
  757MPD2    H511244   3.934   0.574  10.038  0.9733 -0.8447 -0.3659
  757MPD2    N111245   4.106   0.233  10.345 -0.0172 -0.1064  0.0105
  757MPD2    H711246   4.114   0.148  10.400  0.5056 -0.0799 -0.0335
  758MPD2     C11247   0.316   4.034  16.069 -0.3318 -0.5173 -0.0912
  758MPD2    C111248   0.437   4.033  16.133  0.2983 -0.4568 -0.1607
  758MPD2    C211249   0.430   4.071  16.266  0.0066 -0.7859 -0.1912
  758MPD2    C311250   0.309   4.081  16.340 -0.5729  0.8622  0.4270
  758MPD2    C411251   0.194   4.074  16.270  0.3871  0.3708  0.0425
  758MPD2    C511252   0.201   4.047  16.140  0.1913  0.3605  1.1647
  758MPD2     H11253   0.525   4.083  16.316 -0.8156  2.8545  0.5213
  758MPD2    H111254   0.099   4.073  16.323 -0.6887 -0.5816 -1.8720
  758MPD2    H211255   0.321   4.015  15.962  0.3852 -2.7013  0.3230
  758MPD2    H311256   0.107   4.046  16.085  0.6882 -0.0616  0.3163
  758MPD2     N11257   0.308   4.103  16.482 -0.2397 -0.0647  0.9878
  758MPD2    H511258   0.226   4.064  16.527 -0.2831 -1.0542  0.0531
  758MPD2    N111259   0.557   3.985  16.070  0.4145 -0.5558  0.0700
  758MPD2    H711260   0.545   3.930  15.986 -1.2151 -1.2100  0.7357
  759MPD2     C11261   3.779   3.351  10.661  0.3133  0.2033 -0.1531
  759MPD2    C111262   3.818   3.235  10.598 -0.4164 -0.6642 -0.1157
  759MPD2    C211263   3.941   3.238  10.538 -0.2451 -0.4172  0.4995
  759MPD2    C311264   4.015   3.355  10.520  0.8091 -0.7010 -0.0404
  759MPD2    C411265   3.964   3.470  10.582 -0.1921 -0.2795  0.2332
  759MPD2    C511266   3.847   3.470  10.643  0.2738  0.3445 -0.9025
  759MPD2     H11267   3.977   3.147  10.491 -0.4460  0.1997 -0.8357
  759MPD2    H111268   4.027   3.558  10.573  1.7518 -1.5410  1.2348
  759MPD2    H211269   3.679   3.361  10.701  0.8019  0.3017  1.0626
  759MPD2    H311270   3.811   3.562  10.687  0.5289  0.0439 -0.0696
  759MPD2     N11271   4.140   3.350  10.449 -0.1738 -0.0334 -0.5113
  759MPD2    H511272   4.171   3.261  10.411 -1.6251 -0.9379  0.4070
  759MPD2    N111273   3.758   3.109  10.605  0.1179 -0.4192 -0.4406
  759MPD2    H711274   3.800   3.026  10.563  1.6805  0.0510  0.1851
  760MPD2     C11275   3.158   0.221  12.351  0.8291  0.8703  0.3419
  760MPD2    C111276   3.291   0.222  12.312  1.0302 -0.1623 -0.3858
  760MPD2    C211277   3.357   0.103  12.288 -0.0480  0.1693  0.2216
  760MPD2    C311278   3.284   4.724  12.296  0.1052 -1.1773  0.2714
  760MPD2    C411279   3.149   4.728  12.330  0.1023  0.2469  0.1490
  760MPD2    C511280   3.082   0.109  12.354 -0.3447 -0.1654  0.6951
  760MPD2     H11281   3.465   0.104  12.275  0.0574 -1.2423  0.9602
  760MPD2    H111282   3.089   4.638  12.342 -1.1226  0.8931 -1.1264
  760MPD2    H211283   3.109   0.317  12.365  1.1856  0.5220  3.9949
  760MPD2    H311284   2.976   0.114  12.375 -0.6610  0.9972 -1.1201
  760MPD2     N11285   3.333   4.595  12.282  0.5342  0.3157  0.2520
  760MPD2    H511286   3.271   4.522  12.315 -1.7529  1.6912 -0.9740
  760MPD2    N111287   3.368   0.341  12.301 -0.3474 -0.2264  0.4151
  760MPD2    H711288   3.469   0.334  12.299 -0.3358 -0.0347  0.3458
  761MPD2     C11289   0.303   4.599  11.575 -0.0971 -0.1995 -0.2585
  761MPD2    C111290   0.382   4.498  11.511  0.1820  0.7338  0.5168
  761MPD2    C211291   0.511   4.534  11.471  0.6576  0.1846  0.7826
  761MPD2    C311292   0.558   4.666  11.482 -0.1446  0.0700  0.0612
  761MPD2    C411293   0.484   0.027  11.537 -0.1378  0.0212  0.3140
  761MPD2    C511294   0.361   4.728  11.588  0.8262  0.8343 -0.0949
  761MPD2     H11295   0.578   4.458  11.432  0.8111  1.9858 -2.5243
  761MPD2    H111296   0.522   0.129  11.544  0.5464 -0.2528  0.5368
  761MPD2    H211297   0.204   4.584  11.617 -0.0004  0.0364  0.0510
  761MPD2    H311298   0.298   0.065  11.636 -2.1574 -3.1329  2.2061
  761MPD2     N11299   0.683   4.698  11.433  0.3351 -0.5420 -0.0844
  761MPD2    H511300   0.701   0.060  11.430 -0.8541 -0.2782  1.7140
  761MPD2    N111301   0.328   4.368  11.498 -0.0527 -0.2293 -0.0644
  761MPD2    H711302   0.237   4.363  11.544  0.9906 -2.7463  1.7185
  762MPD2     C11303   0.236   3.536  11.055  0.2909 -0.0880  0.4596
  762MPD2    C111304   0.282   3.665  11.044 -0.7871  0.9597  0.0398
  762MPD2    C211305   0.354   3.693  10.935  0.1633  0.2243  0.2015
  762MPD2    C311306   0.373   3.617  10.821 -0.3014 -0.5260  0.9349
  762MPD2    C411307   0.316   3.488  10.837  1.1109 -0.1033 -0.1729
  762MPD2    C511308   0.249   3.446  10.951  0.6497 -0.4441 -0.6721
  762MPD2     H11309   0.404   3.789  10.926  0.7594 -0.0452  0.6467
  762MPD2    H111310   0.320   3.418  10.754 -0.0837 -1.5934  1.0138
  762MPD2    H211311   0.188   3.505  11.147  0.9870  0.2832  0.9566
  762MPD2    H311312   0.184   3.359  10.945 -0.0345 -0.1923  2.9720
  762MPD2     N11313   0.454   3.660  10.715  0.1096 -0.1902  0.1534
  762MPD2    H511314   0.469   3.759  10.728 -1.0735 -0.1650  1.4083
  762MPD2    N111315   0.259   3.759  11.149 -0.3638 -0.0062 -0.0199
  762MPD2    H711316   0.217   3.727  11.236  0.4091 -0.7351  0.0933
  763MPD2     C11317   2.292   3.910  16.278  1.4218 -0.1027  0.8047
  763MPD2    C111318   2.186   3.993  16.263 -0.1201  0.2972 -1.0339
  763MPD2    C211319   2.207   4.124  16.304  0.4952  0.0571  0.2194
  763MPD2    C311320   2.326   4.167  16.363  0.1502 -0.1522 -0.4429
  763MPD2    C411321   2.434   4.082  16.364  0.3486 -0.0781 -0.6203
  763MPD2    C511322   2.415   3.955  16.316 -0.6157 -0.9168  0.2141
  763MPD2     H11323   2.122   4.190  16.289  0.5021  0.0646  0.2133
  763MPD2    H111324   2.529   4.103  16.410  1.0307 -1.1654 -1.5271
  763MPD2    H211325   2.301   3.808  16.243 -2.0928 -0.5359  1.1213
  763MPD2    H311326   2.491   3.886  16.351 -0.3063 -0.7568 -0.1369
  763MPD2     N11327   2.342   4.294  16.418 -0.3680 -0.6348  0.0071
  763MPD2    H511328   2.437   4.328  16.432 -0.0049 -1.2135 -1.0887
  763MPD2    N111329   2.068   3.955  16.211 -0.1886  0.0973  0.5145
  763MPD2    H711330   1.989   4.018  16.199 -2.0102 -2.2552  0.1003
  764MPD2     C11331   0.383   0.324  17.527  0.4360  0.2857  0.4176
  764MPD2    C111332   0.248   0.346  17.506  0.1355  0.1640 -0.6038
  764MPD2    C211333   0.170   0.313  17.616  0.1021 -0.4550  0.0728
  764MPD2    C311334   0.221   0.257  17.731 -0.1976 -0.4363 -0.0372
  764MPD2    C411335   0.353   0.225  17.749  0.3344  0.0969  0.6224
  764MPD2    C511336   0.434   0.267  17.644 -0.1215  0.2892 -0.2078
  764MPD2     H11337   0.063   0.325  17.602  0.1769  0.2394  0.0578
  764MPD2    H111338   0.395   0.169   0.082  1.6607  0.8581  0.4615
  764MPD2    H211339   0.449   0.344  17.444  0.2721  2.2440  0.7673
  764MPD2    H311340   0.542   0.261  17.655 -0.3470 -2.7447  0.3107
  764MPD2     N11341   0.124   0.208   0.076 -0.3506  0.1497 -0.7997
  764MPD2    H511342   0.029   0.234   0.052  0.2411  1.9225 -1.2143
  764MPD2    N111343   0.190   0.390  17.386 -0.0822 -0.2338  0.1566
  764MPD2    H711344   0.089   0.390  17.375  0.0023  1.7449 -0.5303
  765MPD2     C11345   4.716   3.450  15.582 -0.1682  0.0989 -0.7495
  765MPD2    C111346   0.076   3.502  15.664 -0.2931 -0.0000 -0.0805
  765MPD2    C211347   0.191   3.423  15.687 -0.2574  0.0266  0.1089
  765MPD2    C311348   0.197   3.300  15.634  0.7137 -0.6868  0.3564
  765MPD2    C411349   0.107   3.258  15.537  0.0009  0.0595  0.3059
  765MPD2    C511350   0.003   3.339  15.504  0.4975  0.4967 -0.7524
  765MPD2     H11351   0.257   3.457  15.766  3.0645  1.0270 -3.0890
  765MPD2    H111352   0.113   3.157  15.498 -0.9451 -0.0652  0.4799
  765MPD2    H211353   4.620   3.499  15.579 -0.5848 -0.6305  0.6322
  765MPD2    H311354   4.659   3.288  15.453 -0.2812  1.5844 -0.5961
  765MPD2     N11355   0.303   3.216  15.676  0.2027  0.2363 -0.4915
  765MPD2    H511356   0.349   3.239  15.764 -0.1540  0.1897 -0.2922
  765MPD2    N111357   0.051   3.625  15.727  0.0746 -0.2033 -0.4741
  765MPD2    H711358   4.692   3.654  15.717  0.0315  0.2022  1.1002
  766MPD2     C11359   4.173   3.932  15.555  0.3495  0.1296 -0.3082
  766MPD2    C111360   4.289   3.853  15.582 -0.1552 -0.4331  0.5556
  766MPD2    C211361   4.334   3.765  15.492 -0.0903  0.1593 -0.7529
  766MPD2    C311362   4.272   3.751  15.377 -0.7345 -0.3754 -0.6273
  766MPD2    C411363   4.153   3.804  15.358  0.8865  0.1839  0.1147
  766MPD2    C511364   4.099   3.895  15.447  0.4064 -0.2100 -0.3925
  766MPD2     H11365   4.438   3.734  15.495 -0.6431 -1.8878 -2.9804
  766MPD2    H111366   4.102   3.778  15.266  0.0220  0.1758  0.5974
  766MPD2    H211367   4.137   4.019  15.608  1.7621  0.5770 -0.1067
  766MPD2    H311368   4.003   3.941  15.428  0.7951  0.7101 -0.1325
  766MPD2     N11369   4.330   3.687  15.264  0.0186  0.2966  0.2617
  766MPD2    H511370   4.279   3.696  15.177 -0.6978 -1.4896  0.4879
  766MPD2    N111371   4.373   3.892  15.687  0.1730  0.1139 -0.5596
  766MPD2    H711372   4.357   3.977  15.742  0.0511  0.5186 -1.2218
  767MPD2     C11373   4.027   4.139  15.178  0.4867  0.4201  0.0255
  767MPD2    C111374   4.153   4.086  15.155 -0.0481 -0.3316  0.7206
  767MPD2    C211375   4.176   4.004  15.047  0.2933 -0.1510  0.4313
  767MPD2    C311376   4.073   3.979  14.964  0.5804 -0.1872 -0.2182
  767MPD2    C411377   3.948   4.036  14.979  0.4777  0.7197 -0.5742
  767MPD2    C511378   3.926   4.115  15.090  0.3584  0.1951  0.1074
  767MPD2     H11379   4.274   3.968  15.017  0.2622 -0.2188  0.4112
  767MPD2    H111380   3.868   4.022  14.907 -0.6494  1.2586  0.5673
  767MPD2    H211381   4.001   4.199  15.265 -0.7168  0.3668 -0.2974
  767MPD2    H311382   3.829   4.161  15.101 -0.3782 -0.8072 -2.2389
  767MPD2     N11383   4.095   3.875  14.869 -0.4626  0.0287  0.1682
  767MPD2    H511384   4.187   3.833  14.872 -0.5590 -0.0461  2.3809
  767MPD2    N111385   4.251   4.116  15.252 -0.3347  0.1561 -0.6158
  767MPD2    H711386   4.227   4.178  15.329  1.3122 -1.4947  1.2253
  768MPD2     C11387   0.289   2.807  10.621  0.2074 -0.0463 -0.1072
  768MPD2    C111388   0.238   2.734  10.728  0.1916 -0.7687 -0.7762
  768MPD2    C211389   0.327   2.680  10.821  0.0518 -0.2041  0.0082
  768MPD2    C311390   0.461   2.699  10.801 -0.1949  0.3463  0.2653
  768MPD2    C411391   0.512   2.768  10.693  0.2710 -0.8997  0.5036
  768MPD2    C511392   0.425   2.816  10.598 -0.2616  0.3515  0.2313
  768MPD2     H11393   0.294   2.634  10.913 -1.1571 -1.7350 -1.1817
  768MPD2    H111394   0.619   2.775  10.679  0.0909  0.1957 -0.3104
  768MPD2    H211395   0.228   2.865  10.553  2.4679 -1.4837 -3.3667
  768MPD2    H311396   0.462   2.863  10.507 -2.5299  1.4020 -0.1461
  768MPD2     N11397   0.560   2.656  10.896 -0.2201  0.2323  0.2118
  768MPD2    H511398   0.658   2.678  10.881  0.0583 -1.8737 -1.1133
  768MPD2    N111399   0.101   2.720  10.747 -0.4074 -0.1890 -0.1070
  768MPD2    H711400   0.078   2.658  10.823 -0.0677  1.7226  1.5528
  769MPD2     C11401   1.556   4.652  14.922  0.3173  0.5786  0.4055
  769MPD2    C111402   1.486   0.028  14.899 -0.0719 -0.3620  0.0717
  769MPD2    C211403   1.446   0.099  15.013  0.5056 -0.7718  0.2562
  769MPD2    C311404   1.471   0.052  15.139  0.1461  0.2835  0.4132
  769MPD2    C411405   1.535   4.671  15.154  0.3982 -0.2984 -0.2469
  769MPD2    C511406   1.579   4.601  15.044  0.5153  0.5467  0.0488
  769MPD2     H11407   1.394   0.193  15.001  0.6752 -0.7717 -0.5107
  769MPD2    H111408   1.567   4.635  15.251  2.5281  0.5113 -0.6255
  769MPD2    H211409   1.578   4.590  14.836 -0.9223 -1.4174  1.5351
  769MPD2    H311410   1.627   4.507  15.068 -1.1065 -1.0597 -2.9432
  769MPD2     N11411   1.415   0.119  15.250  0.0084  0.0690 -0.0756
  769MPD2    H511412   1.383   0.211  15.223  0.0113  0.1364  0.1493
  769MPD2    N111413   1.458   0.073  14.761 -0.6518  0.3674 -0.8048
  769MPD2    H711414   1.478   0.007  14.687  0.0902  0.0765 -0.3457
  770MPD2     C11415   0.636   4.671  14.841 -0.0170  0.7518  1.0993
  770MPD2    C111416   0.763   4.610  14.838 -0.1334  0.0550 -0.1925
  770MPD2    C211417   0.859   4.674  14.753 -0.1362  0.0504  0.9438
  770MPD2    C311418   0.847   0.064  14.701 -1.0218 -0.0777 -0.6483
  770MPD2    C411419   0.721   0.124  14.702  0.2127  0.8588 -0.0913
  770MPD2    C511420   0.620   0.055  14.775  0.5503  0.4762 -0.4929
  770MPD2     H11421   0.959   4.636  14.736 -0.3121 -0.1838  0.4318
  770MPD2    H111422   0.700   0.210  14.640 -2.4824  0.8355  0.7775
  770MPD2    H211423   0.553   4.631  14.899 -0.6434  0.7947  0.2347
  770MPD2    H311424   0.523   0.101  14.788 -0.4225 -1.5390 -0.7588
  770MPD2     N11425   0.960   0.105  14.620 -0.5531  0.7533  0.0964
  770MPD2    H511426   1.033   0.035  14.622 -1.8431 -0.7032 -3.0614
  770MPD2    N111427   0.789   4.484  14.898  0.0370 -0.1253 -0.6013
  770MPD2    H711428   0.705   4.447  14.942  0.1053  1.2433  0.6761
  771MPD2     C11429   1.972   2.671  13.811 -0.4015  0.4218 -0.5225
  771MPD2    C111430   1.891   2.772  13.758  0.4796 -0.2019  0.1332
  771MPD2    C211431   1.786   2.735  13.673 -0.5441 -0.1248  0.2947
  771MPD2    C311432   1.751   2.605  13.659 -0.5856  0.2779 -0.2360
  771MPD2    C411433   1.836   2.502  13.710  0.0881 -0.7091 -0.0644
  771MPD2    C511434   1.941   2.541  13.786  0.3477  0.0603 -0.2701
  771MPD2     H11435   1.725   2.811  13.624  0.7213  1.1136  0.6676
  771MPD2    H111436   1.818   2.396  13.694  3.5257 -1.0891 -1.5560
  771MPD2    H211437   2.054   2.705  13.872  0.0714  1.3824 -1.7007
  771MPD2    H311438   2.012   2.469  13.827  0.6889  0.7313  0.3033
  771MPD2     N11439   1.652   2.572  13.571 -0.3278 -0.1585 -0.2313
  771MPD2    H511440   1.633   2.638  13.497 -0.9125 -1.4878 -1.2733
  771MPD2    N111441   1.927   2.910  13.773 -0.5678  0.4178 -0.2419
  771MPD2    H711442   1.859   2.974  13.731 -0.2315  0.0546 -1.3396
  772MPD2     C11443   1.858   3.547  14.130 -0.0685  0.4442  0.4416
  772MPD2    C111444   1.795   3.444  14.061 -0.4522 -0.2633  0.1592
  772MPD2    C211445   1.671   3.402  14.104 -0.3551  0.0405 -0.0962
  772MPD2    C311446   1.598   3.464  14.204 -0.2914 -0.5053  0.1646
  772MPD2    C411447   1.665   3.564  14.277 -0.2841 -0.4109  0.1182
  772MPD2    C511448   1.793   3.605  14.238  0.9010 -0.8909 -0.5527
  772MPD2     H11449   1.629   3.322  14.044  1.7104 -1.0915 -0.0350
  772MPD2    H111450   1.612   3.617  14.354 -0.6852  0.1507 -0.5440
  772MPD2    H211451   1.951   3.590  14.097 -0.2678  0.7591  0.2966
  772MPD2    H311452   1.832   3.693  14.287 -0.3505  0.3225 -1.7711
  772MPD2     N11453   1.460   3.433  14.228  0.1448  0.0200  0.1036
  772MPD2    H511454   1.416   3.480  14.306  0.5825 -1.1558  1.0566
  772MPD2    N111455   1.851   3.373  13.952 -0.4048 -0.6081  0.6750
  772MPD2    H711456   1.812   3.285  13.922  0.6920 -0.8790  0.0658
  773MPD2     C11457   0.907   4.173   0.171  0.1266  0.2332 -0.0326
  773MPD2    C111458   0.866   4.047   0.131 -0.5156  0.2934  1.2146
  773MPD2    C211459   0.904   3.935   0.201 -1.2560 -0.2415  0.0931
  773MPD2    C311460   0.991   3.948   0.304 -0.4439 -0.0222 -0.1591
  773MPD2    C411461   1.026   4.069   0.345  0.0873  0.5006  1.1320
  773MPD2    C511462   0.981   4.184   0.289  0.5194  0.1465  0.1183
  773MPD2     H11463   0.869   3.843   0.156 -2.7499  1.7316 -2.7954
  773MPD2    H111464   1.094   4.077   0.430  1.7147 -1.5331  0.0225
  773MPD2    H211465   0.872   4.259   0.116 -2.3931 -0.5866  0.2967
  773MPD2    H311466   1.020   4.278   0.327 -0.5464  0.4671  0.4163
  773MPD2     N11467   1.053   3.828   0.350 -0.9145 -0.4391 -0.2530
  773MPD2    H511468   1.046   3.748   0.288 -2.0505  1.6979 -2.8592
  773MPD2    N111469   0.792   4.042   0.006 -0.5758 -0.7012  0.1213
  773MPD2    H711470   0.749   3.952  17.741  0.3603 -1.1449  0.0893
  774MPD2     C11471   4.698   3.972  13.873 -0.0721  0.8067  0.0636
  774MPD2    C111472   0.092   3.932  13.871  0.0186 -0.6127  0.0766
  774MPD2    C211473   0.200   4.024  13.879  0.0015 -0.3279  0.3440
  774MPD2    C311474   0.170   4.156  13.858 -0.6848 -0.5187 -0.1580
  774MPD2    C411475   0.038   4.195  13.854 -0.0994 -0.2093  0.0584
  774MPD2    C511476   4.673   4.108  13.866  0.1290 -0.0519  0.2462
  774MPD2     H11477   0.303   3.992  13.888  0.0905  0.4637  2.1456
  774MPD2    H111478   0.012   4.299  13.836 -1.4920 -0.5374  0.2083
  774MPD2    H211479   4.627   3.893  13.896  2.5336 -2.2325 -2.3423
  774MPD2    H311480   4.570   4.137  13.876 -0.1555 -1.3480  1.1681
  774MPD2     N11481   0.277   4.246  13.845  0.1282 -0.6677  0.0960
  774MPD2    H511482   0.363   4.192  13.848  0.3975 -0.2353  0.1137
  774MPD2    N111483   0.105   3.794  13.880 -0.2322 -0.4075 -0.2818
  774MPD2    H711484   0.018   3.742  13.876  0.3223 -1.2975 -0.8893
  775MPD2     C11485   1.377   0.176  15.916  0.2372  0.2011  0.1962
  775MPD2    C111486   1.375   0.281  16.009 -0.1762  0.0577 -0.6551
  775MPD2    C211487   1.473   0.379  16.003 -0.3146  0.3909 -0.0766
  775MPD2    C311488   1.574   0.376  15.902  0.1493 -0.2064  0.0728
  775MPD2    C411489   1.578   0.275  15.811 -0.1630 -0.3155 -0.6400
  775MPD2    C511490   1.486   0.175  15.827  0.4034 -0.4989 -0.0120
  775MPD2     H11491   1.469   0.462  16.073  1.5586  0.0523  0.4475
  775MPD2    H111492   1.626   0.292  15.715  0.2597 -0.5440 -0.4653
  775MPD2    H211493   1.304   0.096  15.927 -0.4259  0.3516 -3.2757
  775MPD2    H311494   1.484   0.093  15.755 -0.1346 -0.8933  0.4447
  775MPD2     N11495   1.676   0.469  15.886 -0.4519  0.0045  0.5605
  775MPD2    H511496   1.728   0.460  15.799 -1.8975  0.8095 -0.3899
  775MPD2    N111497   1.278   0.263  16.113  0.1910 -0.1989  0.7626
  775MPD2    H711498   1.210   0.187  16.107  0.0580  0.0108 -0.2641
  776MPD2     C11499   4.113   0.707  11.610  0.4073  0.0546  0.7226
  776MPD2    C111500   4.253   0.698  11.616 -0.4143  0.5014 -0.3934
  776MPD2    C211501   4.323   0.814  11.635  0.1433  0.3472  0.2625
  776MPD2    C311502   4.256   0.938  11.649 -0.2559 -0.5875 -0.2423
  776MPD2    C411503   4.118   0.941  11.647 -0.1403 -0.2391  0.1592
  776MPD2    C511504   4.048   0.826  11.626 -0.4010 -0.4396  0.6036
  776MPD2     H11505   4.430   0.804  11.618 -0.0173 -2.0155  0.6252
  776MPD2    H111506   4.057   1.030  11.654  1.4210  1.0693 -3.0637
  776MPD2    H211507   4.057   0.618  11.582 -0.4054  1.5822 -2.4737
  776MPD2    H311508   3.942   0.828  11.603  0.2594 -2.8857 -2.5987
  776MPD2     N11509   4.332   1.065  11.652 -0.9222 -0.6069 -0.3236
  776MPD2    H511510   4.282   1.152  11.668  0.1329  0.3347 -2.2031
  776MPD2    N111511   4.316   0.566  11.605 -0.7618  0.7183  0.6136
  776MPD2    H711512   4.256   0.486  11.584  2.3503 -1.6024  0.6180
  777MPD2     C11513   1.046   2.289   0.763  1.1076  0.5742 -0.2575
  777MPD2    C111514   0.953   2.369   0.830 -0.1518 -0.0176 -0.7428
  777MPD2    C211515   0.830   2.391   0.773  0.1056  0.3205  0.9258
  777MPD2    C311516   0.804   2.343   0.643  1.3900 -0.4014 -0.0939
  777MPD2    C411517   0.894   2.265   0.574 -0.4044  0.0818 -0.6931
  777MPD2    C511518   1.015   2.234   0.641 -0.5888  0.4191  0.2246
  777MPD2     H11519   0.749   2.439   0.827 -0.2139  0.0250  0.7042
  777MPD2    H111520   0.884   2.217   0.477 -0.5847 -1.6787  0.1830
  777MPD2    H211521   1.142   2.268   0.807  0.9001 -1.4616 -0.7698
  777MPD2    H311522   1.086   2.169   0.591 -1.8721 -1.8388  1.3122
  777MPD2     N11523   0.683   2.375   0.588  0.1096  0.0407 -0.1282
  777MPD2    H511524   0.611   2.422   0.641  1.0637  0.1235  1.0953
  777MPD2    N111525   0.981   2.412   0.963 -0.7449 -0.6259 -0.5368
  777MPD2    H711526   1.057   2.357   1.002 -1.2529  0.4471  1.9515
  778MPD2     C11527   2.164   3.301  15.128  0.2289 -0.5512  0.2225
  778MPD2    C111528   2.201   3.173  15.081 -0.2953 -0.2166  0.3909
  778MPD2    C211529   2.307   3.170  14.993 -0.2972 -0.2254 -0.0176
  778MPD2    C311530   2.378   3.283  14.946 -0.5094  0.7138  0.4957
  778MPD2    C411531   2.337   3.406  14.996 -0.0736 -0.3414 -0.4395
  778MPD2    C511532   2.238   3.412  15.089  0.1252  0.3605  0.5999
  778MPD2     H11533   2.345   3.072  14.971 -3.1622 -1.1706 -0.8476
  778MPD2    H111534   2.377   3.499  14.959 -2.1743  0.4613 -0.6925
  778MPD2    H211535   2.080   3.323  15.193 -1.0709 -0.0794 -1.5949
  778MPD2    H311536   2.206   3.507  15.130 -1.9786  0.7488 -1.9213
  778MPD2     N11537   2.494   3.268  14.869 -0.2917 -0.3272  0.0854
  778MPD2    H511538   2.538   3.177  14.873  0.0874 -0.1346  0.2800
  778MPD2    N111539   2.135   3.052  15.115 -0.2315  0.2153 -0.0893
  778MPD2    H711540   2.147   2.963  15.069  0.0129 -1.0827  2.5174
  779MPD2     C11541   1.473   1.927  14.484  0.6433 -0.4856  0.1230
  779MPD2    C111542   1.597   1.859  14.479 -0.5938 -0.5555  0.3150
  779MPD2    C211543   1.710   1.924  14.425  0.3718 -1.0970  0.3863
  779MPD2    C311544   1.694   2.048  14.369 -0.0718  0.5807 -0.2270
  779MPD2    C411545   1.568   2.103  14.363  0.4101  0.2818 -1.1728
  779MPD2    C511546   1.462   2.040  14.416  0.0241  0.0019  0.6339
  779MPD2     H11547   1.808   1.879  14.432  1.5553  1.1637 -1.6941
  779MPD2    H111548   1.551   2.204  14.326 -0.9725  0.8725  1.0376
  779MPD2    H211549   1.381   1.875  14.510  0.1698  0.3252  0.0603
  779MPD2    H311550   1.363   2.083  14.412 -0.0661 -0.2906 -0.4271
  779MPD2     N11551   1.809   2.119  14.321  0.4305  0.6491 -0.4384
  779MPD2    H511552   1.900   2.095  14.360  1.2756  2.5493 -1.2470
  779MPD2    N111553   1.619   1.726  14.529  0.5516  0.0643  0.0713
  779MPD2    H711554   1.707   1.680  14.509 -0.1759 -1.2819 -0.0451
  780MPD2     C11555   1.383   1.428   1.762 -0.6513 -0.2781 -0.0408
  780MPD2    C111556   1.305   1.392   1.650  0.3615  0.4048  0.6080
  780MPD2    C211557   1.354   1.426   1.517  0.5990 -0.0460  0.1074
  780MPD2    C311558   1.472   1.499   1.507  0.3121 -0.7331  0.2480
  780MPD2    C411559   1.537   1.539   1.621 -0.0943 -0.1520  0.5654
  780MPD2    C511560   1.489   1.507   1.743 -0.1416  0.6028  0.0210
  780MPD2     H11561   1.303   1.400   1.426 -0.3223 -0.8362  0.8496
  780MPD2    H111562   1.634   1.586   1.610 -0.4592  0.2510 -0.8479
  780MPD2    H211563   1.352   1.404   1.863  2.5366 -1.1224  0.7465
  780MPD2    H311564   1.541   1.532   1.835  1.6175 -0.1339 -0.7626
  780MPD2     N11565   1.515   1.533   1.377 -0.2801  0.0048 -0.0916
  780MPD2    H511566   1.469   1.493   1.296 -1.0279 -0.0756  0.3721
  780MPD2    N111567   1.192   1.312   1.667 -0.7790  0.1810 -0.1610
  780MPD2    H711568   1.164   1.279   1.758  1.6023 -0.4271  0.3361
  781MPD2     C11569   2.481   3.877  12.306  0.1118  0.4846 -0.0835
  781MPD2    C111570   2.601   3.855  12.371  0.8972  0.1798 -0.3054
  781MPD2    C211571   2.711   3.924  12.324 -0.9116  1.0427 -0.9127
  781MPD2    C311572   2.696   4.008  12.217 -0.0211  1.1077 -0.2764
  781MPD2    C411573   2.576   4.026  12.154 -0.2969  0.1897 -0.2494
  781MPD2    C511574   2.465   3.962  12.199  0.3015  1.0421  0.0052
  781MPD2     H11575   2.797   3.921  12.389 -0.1095  1.5336 -1.9448
  781MPD2    H111576   2.563   4.103  12.079 -2.0252 -1.5502 -1.7335
  781MPD2    H211577   2.389   3.833  12.342  0.9651 -0.6717  0.6766
  781MPD2    H311578   2.368   3.992  12.162 -0.5121 -2.0142 -0.3540
  781MPD2     N11579   2.804   4.073  12.157 -0.5010  0.1435  0.2839
  781MPD2    H511580   2.780   4.140  12.084 -0.6224 -0.5190 -0.2905
  781MPD2    N111581   2.611   3.771  12.482  0.2775  0.0693  0.0673
  781MPD2    H711582   2.705   3.766  12.520  0.3998  0.3340 -0.1961
  782MPD2     C11583   0.595   4.696  10.310  0.4170 -0.1108 -0.7438
  782MPD2    C111584   0.727   4.693  10.329 -0.0977  0.0871  0.0354
  782MPD2    C211585   0.785   0.047  10.415 -0.7241  0.0089 -0.9337
  782MPD2    C311586   0.703   0.117  10.496 -0.6363 -0.2080  0.0772
  782MPD2    C411587   0.567   0.115  10.488 -0.1757  0.1843 -0.3096
  782MPD2    C511588   0.515   0.039  10.388  0.7196 -0.1439  0.0789
  782MPD2     H11589   0.891   0.062  10.430 -0.8946  1.6761 -1.4036
  782MPD2    H111590   0.504   0.170  10.557 -0.1074  0.9575 -0.8611
  782MPD2    H211591   0.543   4.633  10.239  0.1461 -0.5633 -0.1383
  782MPD2    H311592   0.407   0.033  10.380  0.6693  0.0013  0.6528
  782MPD2     N11593   0.773   0.203  10.587 -0.2350  0.5879 -0.1262
  782MPD2    H511594   0.869   0.174  10.605 -1.5819 -2.9476  1.1972
  782MPD2    N111595   0.805   4.603  10.256 -0.1594 -0.8275  0.0744
  782MPD2    H711596   0.747   4.548  10.193  0.1385 -0.0050 -0.9182
  783MPD2     C11597   0.685   4.232  10.857 -0.5079  0.9040 -0.4321
  783MPD2    C111598   0.726   4.350  10.820  0.7268 -0.0685 -0.7886
  783MPD2    C211599   0.747   4.371  10.689  0.3048 -0.1307  0.5281
  783MPD2    C311600   0.754   4.271  10.595 -0.1311 -0.0160 -0.3393
  783MPD2    C411601   0.729   4.141  10.639  1.1058  0.0131  0.6946
  783MPD2    C511602   0.694   4.126  10.768 -0.0321  0.0561  0.2382
  783MPD2     H11603   0.773   4.471  10.657 -1.1018  0.0070 -0.2106
  783MPD2    H111604   0.742   4.057  10.572  0.9881  1.6916 -1.4594
  783MPD2    H211605   0.664   4.208  10.960 -2.7803  0.6545 -0.9356
  783MPD2    H311606   0.685   4.026  10.810 -5.1123 -0.9434 -3.2132
  783MPD2     N11607   0.799   4.308  10.467 -0.0725 -0.2172 -0.0438
  783MPD2    H511608   0.828   4.405  10.459 -0.4599  0.0256  1.5109
  783MPD2    N111609   0.713   4.449  10.923 -0.1542  0.1563 -0.0319
  783MPD2    H711610   0.697   4.417  11.018  2.4597 -1.1078 -0.0041
  784MPD2     C11611   3.826   4.448   1.085 -0.2348 -0.4563  0.5696
  784MPD2    C111612   3.746   4.405   1.189  0.6777  0.3509 -0.2371
  784MPD2    C211613   3.611   4.438   1.199 -0.2149  0.1934  0.2695
  784MPD2    C311614   3.544   4.510   1.104  0.1862 -0.4005 -0.9113
  784MPD2    C411615   3.629   4.553   1.002  0.6156 -0.6645 -0.3654
  784MPD2    C511616   3.767   4.527   0.988 -0.7383  0.1029  0.3880
  784MPD2     H11617   3.556   4.401   1.284 -0.9413  1.3768  0.3147
  784MPD2    H111618   3.588   4.610   0.920  0.6080  3.3527  2.4529
  784MPD2    H211619   3.932   4.425   1.074 -0.4382 -0.4812 -1.3352
  784MPD2    H311620   3.823   4.563   0.903  2.9214  1.1806  3.2467
  784MPD2     N11621   3.405   4.542   1.104  0.2253  0.2374  0.2611
  784MPD2    H511622   3.374   4.528   1.200 -0.9634  0.2742 -0.1103
  784MPD2    N111623   3.804   4.344   1.298  0.2728 -0.3814 -0.0015
  784MPD2    H711624   3.736   4.326   1.372  0.1324  0.6943  0.1439
  785MPD2     C11625   3.541   2.912  10.247 -0.4173 -0.2921 -0.5464
  785MPD2    C111626   3.483   3.009  10.169 -0.6771 -0.5123 -0.4177
  785MPD2    C211627   3.515   3.016  10.033  0.4038  0.0181  0.0444
  785MPD2    C311628   3.609   2.927   9.974  0.0672  0.1198  0.1375
  785MPD2    C411629   3.673   2.829  10.050 -0.7527  0.3761 -0.9361
  785MPD2    C511630   3.624   2.821  10.175 -0.1650  0.0003  0.1989
  785MPD2     H11631   3.463   3.087   9.970 -0.0721  0.8347  1.3640
  785MPD2    H111632   3.736   2.756  10.001 -0.4188  0.3195 -0.4245
  785MPD2    H211633   3.528   2.896  10.354 -0.7509 -1.1865 -0.7239
  785MPD2    H311634   3.655   2.735  10.233 -2.5509 -0.1845  1.2356
  785MPD2     N11635   3.634   2.951   9.840 -0.7029 -0.0120 -0.2556
  785MPD2    H511636   3.587   3.028   9.793 -0.3985  0.6832  0.5762
  785MPD2    N111637   3.402   3.120  10.215  0.1653 -0.0944  0.0938
  785MPD2    H711638   3.379   3.194  10.149 -0.2218  0.7215  1.1444
  786MPD2     C11639   2.227   1.094  14.996  0.8131  0.0232 -0.2286
  786MPD2    C111640   2.294   0.976  15.015  0.0075  0.7863  0.1815
  786MPD2    C211641   2.344   0.934  15.135 -0.4097 -0.6374  0.0482
  786MPD2    C311642   2.329   1.011  15.241  0.6106  0.2116  0.4301
  786MPD2    C411643   2.275   1.138  15.218 -0.5201 -0.4425 -0.1859
  786MPD2    C511644   2.227   1.179  15.099 -0.2664 -0.2375  0.1519
  786MPD2     H11645   2.399   0.841  15.143  1.4636  0.5005  0.5996
  786MPD2    H111646   2.278   1.202  15.305 -1.7732  0.5953 -0.9016
  786MPD2    H211647   2.193   1.131  14.900 -0.3902 -0.1883  0.1174
  786MPD2    H311648   2.181   1.277  15.088  0.9062  0.2745 -0.1831
  786MPD2     N11649   2.378   0.975  15.370  0.0043 -0.7665  0.4367
  786MPD2    H511650   2.373   1.044  15.444 -0.4622 -2.4038  1.9278
  786MPD2    N111651   2.300   0.879  14.911 -0.3998 -0.4605  0.0092
  786MPD2    H711652   2.358   0.797  14.930 -0.4010 -0.2091  1.1069
  787MPD2     C11653   2.623   0.344  14.887  0.7034 -0.2443  0.3763
  787MPD2    C111654   2.636   0.409  14.766 -0.1721 -0.1133  0.5632
  787MPD2    C211655   2.741   0.371  14.683  0.2643 -0.8550 -0.5223
  787MPD2    C311656   2.830   0.267  14.726  0.2398  0.2526  0.3398
  787MPD2    C411657   2.821   0.205  14.849 -0.8616  0.4554 -0.0379
  787MPD2    C511658   2.712   0.254  14.930  0.6432 -0.0811  0.1398
  787MPD2     H11659   2.752   0.410  14.583  0.8735  0.2156 -0.0468
  787MPD2    H111660   2.890   0.127  14.879  0.1793  0.8392 -1.4219
  787MPD2    H211661   2.553   0.375  14.964  0.2766 -0.4514  0.0719
  787MPD2    H311662   2.686   0.196  15.018 -2.0112  1.1421  0.1680
  787MPD2     N11663   2.932   0.240  14.634 -0.6622  0.4476 -0.3657
  787MPD2    H511664   2.937   0.303  14.555 -1.4742 -0.9462 -1.5283
  787MPD2    N111665   2.539   0.500  14.724 -0.4472 -0.8101 -0.3231
  787MPD2    H711666   2.466   0.514  14.793 -0.5268 -0.9536 -0.3776
  788MPD2     C11667   4.698   4.349   1.092 -0.1621  0.0805 -0.3507
  788MPD2    C111668   4.700   4.243   1.003  0.3718  0.0373  0.1862
  788MPD2    C211669   4.738   4.266   0.873 -0.3211  0.2150 -0.5323
  788MPD2    C311670   0.026   4.394   0.826  0.7514  0.7488  0.1172
  788MPD2    C411671   0.033   4.490   0.920  0.0473 -0.1305 -0.4388
  788MPD2    C511672   4.733   4.474   1.052  0.1452 -0.6511 -0.3454
  788MPD2     H11673   4.730   4.177   0.812 -2.8853 -0.3813  0.6597
  788MPD2    H111674   0.051   4.590   0.881 -0.9348  1.0587  2.1328
  788MPD2    H211675   4.677   4.336   1.197  0.0506 -2.0185 -0.5720
  788MPD2    H311676   4.722   4.552   1.126 -0.4173 -1.1182  0.0754
  788MPD2     N11677   0.051   4.441   0.693 -0.7529  0.4179 -0.1540
  788MPD2    H511678   0.056   4.539   0.668  1.4240 -0.0799 -1.7287
  788MPD2    N111679   4.656   4.113   1.043 -0.1179  0.2842  0.4418
  788MPD2    H711680   4.653   4.045   0.968  0.4257  0.6098  0.1322
  789MPD2     C11681   4.270   3.587  15.852  0.2654  0.5397 -0.0264
  789MPD2    C111682   4.359   3.563  15.954  0.4546 -0.2763  0.0474
  789MPD2    C211683   4.343   3.630  16.073 -0.2034  0.3533  0.3792
  789MPD2    C311684   4.230   3.715  16.087 -0.1853  0.1827 -0.5879
  789MPD2    C411685   4.135   3.735  15.992  0.0153  0.6341 -0.1113
  789MPD2    C511686   4.162   3.670  15.872  0.0574 -0.0797 -0.5238
  789MPD2     H11687   4.397   3.605  16.163  0.1092  0.0568  0.1074
  789MPD2    H111688   4.048   3.798  16.009  0.7521  1.4867  0.4689
  789MPD2    H211689   4.278   3.535  15.757  1.6698 -1.5440  1.2436
  789MPD2    H311690   4.097   3.682  15.786 -0.0957  0.9166 -0.2673
  789MPD2     N11691   4.199   3.782  16.207 -0.1480  1.1860 -0.1980
  789MPD2    H511692   4.120   3.843  16.191 -0.0714  1.3189 -0.0671
  789MPD2    N111693   4.465   3.471  15.932  0.9913 -0.3082 -0.0854
  789MPD2    H711694   4.453   3.407  15.854 -0.5998 -0.4253  0.2728
  790MPD2     C11695   0.833   0.807  13.728  0.9820  0.3559 -0.0086
  790MPD2    C111696   0.809   0.668  13.741  0.0598 -0.5998  0.1461
  790MPD2    C211697   0.742   0.599  13.648 -0.3075  0.2977 -0.1706
  790MPD2    C311698   0.692   0.654  13.533 -0.1021  0.5071 -0.2457
  790MPD2    C411699   0.716   0.785  13.519 -0.0065  0.0642 -0.7703
  790MPD2    C511700   0.788   0.859  13.611 -0.1331  0.1611  0.4193
  790MPD2     H11701   0.711   0.497  13.667  1.3859 -0.3497 -0.9056
  790MPD2    H111702   0.688   0.841  13.430  0.4120 -0.1740 -1.0526
  790MPD2    H211703   0.880   0.861  13.809  0.9951 -1.7519  1.3975
  790MPD2    H311704   0.806   0.965  13.595 -1.6814  0.4895  0.8410
  790MPD2     N11705   0.616   0.581  13.443  0.3626  0.1068 -0.1359
  790MPD2    H511706   0.628   0.480  13.433  1.8642  0.1295  1.5581
  790MPD2    N111707   0.849   0.610  13.866  0.3383  0.3931 -0.1092
  790MPD2    H711708   0.918   0.666  13.914  1.0305 -1.1235  0.6717
  791MPD2     C11709   0.049   0.703  12.938 -0.1465 -0.6791 -0.4973
  791MPD2    C111710   0.072   0.569  12.957  0.2293 -0.1511  0.0900
  791MPD2    C211711   4.721   0.483  12.901  0.7782 -0.3405 -0.3362
  791MPD2    C311712   4.601   0.531  12.831 -0.3560  0.6251 -0.0130
  791MPD2    C411713   4.589   0.663  12.812 -0.4574 -0.2434 -0.5077
  791MPD2    C511714   4.681   0.745  12.863  0.1958  0.8030  0.1738
  791MPD2     H11715   0.002   0.376  12.911 -0.6624 -0.5741 -0.1437
  791MPD2    H111716   4.506   0.703  12.756  0.1122  1.5924 -0.0193
  791MPD2    H211717   0.111   0.778  12.986  1.7122 -1.4666 -1.7019
  791MPD2    H311718   4.670   0.850  12.839 -0.5487  0.4037 -1.2105
  791MPD2     N11719   4.506   0.438  12.782  0.5493 -0.2388  0.9679
  791MPD2    H511720   4.532   0.340  12.782 -0.7460 -0.5886 -1.9268
  791MPD2    N111721   0.184   0.531  13.033  0.0939 -0.0589 -0.2340
  791MPD2    H711722   0.243   0.610  13.058 -1.6936  0.6582  1.7384
  792MPD2     C11723   0.647   0.743  11.130 -0.2521 -0.3075 -0.1596
  792MPD2    C111724   0.555   0.751  11.230  0.1924 -0.1751  0.1968
  792MPD2    C211725   0.440   0.680  11.222  0.0522 -0.2813  0.0461
  792MPD2    C311726   0.425   0.597  11.110 -0.5860 -0.0452  0.2770
  792MPD2    C411727   0.520   0.590  11.012 -0.1430 -0.5039  0.4299
  792MPD2    C511728   0.637   0.656  11.024 -0.1476  0.7003  0.2681
  792MPD2     H11729   0.363   0.684  11.299  0.2292  2.1258  0.0993
  792MPD2    H111730   0.505   0.541  10.917  1.0575  1.9264 -0.9930
  792MPD2    H211731   0.726   0.817  11.126  2.4697 -3.2368 -0.9329
  792MPD2    H311732   0.707   0.650  10.941 -0.9282  0.0612 -0.3389
  792MPD2     N11733   0.319   0.508  11.091  0.1609 -0.5099 -0.4404
  792MPD2    H511734   0.341   0.435  11.023 -0.2873  0.3433 -1.5094
  792MPD2    N111735   0.586   0.841  11.338  0.3397 -0.0242  0.2254
  792MPD2    H711736   0.680   0.877  11.347  0.5128  0.1493 -2.1150
  793MPD2     C11737   4.242   0.729  10.750 -0.4131 -0.0400  0.5299
  793MPD2    C111738   4.370   0.778  10.781 -1.1240  0.1437 -0.8676
  793MPD2    C211739   4.454   0.700  10.860  0.6966 -0.0013 -1.0690
  793MPD2    C311740   4.410   0.591  10.932 -0.1260  0.1135 -0.5475
  793MPD2    C411741   4.279   0.550  10.904 -0.1625 -0.5754  0.1503
  793MPD2    C511742   4.203   0.609  10.808  0.0124 -0.1645 -0.7416
  793MPD2     H11743   4.558   0.728  10.875  0.9508 -1.0586 -0.8466
  793MPD2    H111744   4.243   0.459  10.951 -3.0156  0.4567 -0.0911
  793MPD2    H211745   4.178   0.788  10.685 -1.0053  0.2915  1.4048
  793MPD2    H311746   4.101   0.578  10.787 -0.4685 -0.1616  1.6552
  793MPD2     N11747   4.502   0.519  11.012  0.0361 -0.1188  0.7337
  793MPD2    H511748   4.594   0.563  11.010 -0.3022  0.6125  1.1888
  793MPD2    N111749   4.415   0.886  10.704 -0.8725  0.2593  0.0019
  793MPD2    H711750   4.345   0.934  10.648 -1.0549  0.6963  0.5980
  794MPD2     C11751   0.635   4.356  16.951  0.0162 -0.1204  0.1079
  794MPD2    C111752   0.528   4.283  17.008 -0.0972 -0.5778 -0.3141
  794MPD2    C211753   0.401   4.285  16.938  0.2944 -0.0169 -0.3657
  794MPD2    C311754   0.394   4.352  16.814 -0.3803  0.0029 -0.0923
  794MPD2    C411755   0.500   4.420  16.759  0.1288 -0.0172  0.7476
  794MPD2    C511756   0.618   4.424  16.832 -0.3999 -0.1736  0.4204
  794MPD2     H11757   0.314   4.244  16.988  0.7002 -1.4269 -0.8088
  794MPD2    H111758   0.496   4.479  16.668 -2.6459 -0.3933  0.6273
  794MPD2    H211759   0.735   4.349  16.991  1.0921 -0.1640 -2.5975
  794MPD2    H311760   0.706   4.463  16.782 -2.1495  0.7078 -1.9878
  794MPD2     N11761   0.274   4.356  16.746  0.6783 -0.2840 -0.1175
  794MPD2    H511762   0.270   4.410  16.660 -3.7340  0.0737  0.3036
  794MPD2    N111763   0.539   4.225  17.136  0.4074 -0.4858  0.3719
  794MPD2    H711764   0.460   4.177  17.178 -1.4671  1.3092 -1.1178
  795MPD2     C11765   2.912   2.354  14.101 -0.1674 -0.8516 -0.0964
  795MPD2    C111766   2.880   2.226  14.066  0.7220  0.1214  0.4282
  795MPD2    C211767   2.971   2.126  14.092  0.5373 -0.5880 -0.2324
  795MPD2    C311768   3.091   2.146  14.154 -0.1968 -0.0966 -0.3980
  795MPD2    C411769   3.120   2.276  14.195  0.0124 -0.0687  0.5718
  795MPD2    C511770   3.035   2.378  14.169 -0.1577  0.6155 -0.1451
  795MPD2     H11771   2.954   2.032  14.041 -2.5471  0.8931 -1.9424
  795MPD2    H111772   3.209   2.302  14.253  1.3232  0.8190 -1.8145
  795MPD2    H211773   2.851   2.439  14.070  1.7275  1.0349  1.3107
  795MPD2    H311774   3.063   2.478  14.197 -0.7968  0.7077  0.1355
  795MPD2     N11775   3.176   2.032  14.161  0.1949 -0.1825 -0.1632
  795MPD2    H511776   3.141   1.947  14.120  0.3525 -0.3739  0.0950
  795MPD2    N111777   2.762   2.199  13.989  0.4680 -0.4014 -0.0345
  795MPD2    H711778   2.737   2.102  13.969  0.0370 -0.4440  0.7305
  796MPD2     C11779   2.317   3.302  16.353 -0.0220  0.9460  0.7505
  796MPD2    C111780   2.443   3.348  16.333  0.5078  0.2727  0.3515
  796MPD2    C211781   2.463   3.439  16.230 -0.3114 -0.2658 -0.4587
  796MPD2    C311782   2.360   3.475  16.146 -0.0778  0.5365 -0.5860
  796MPD2    C411783   2.236   3.413  16.160  0.3398  0.6108  0.4542
  796MPD2    C511784   2.213   3.332  16.273 -0.1787 -0.0460 -0.5938
  796MPD2     H11785   2.564   3.475  16.216 -0.5044  0.3500 -0.2849
  796MPD2    H111786   2.160   3.420  16.082  1.2526  0.6731 -0.4273
  796MPD2    H211787   2.298   3.240  16.441  0.9554 -0.7125 -0.2046
  796MPD2    H311788   2.119   3.284  16.298  0.0226 -0.1355 -0.0035
  796MPD2     N11789   2.387   3.584  16.059 -0.5981  0.3414 -0.0000
  796MPD2    H511790   2.472   3.630  16.088 -1.3083  0.9428  1.1154
  796MPD2    N111791   2.539   3.307  16.429  0.1850  0.3415 -0.2859
  796MPD2    H711792   2.509   3.244  16.503 -2.3220  1.2830 -0.5164
  797MPD2     C11793   3.503   3.096   0.051 -0.0308 -0.8839  0.3083
  797MPD2    C111794   3.528   3.235   0.045 -0.3798 -0.1802  0.3960
  797MPD2    C211795   3.579   3.292  17.676 -0.3707  0.5357 -0.2721
  797MPD2    C311796   3.599   3.207  17.569 -0.3841  0.3855  0.5929
  797MPD2    C411797   3.563   3.074  17.571  0.2392 -0.5867 -0.1344
  797MPD2    C511798   3.515   3.020  17.693 -0.3232 -0.2077  0.1210
  797MPD2     H11799   3.614   3.395  17.668 -0.6996  0.5507 -1.4605
  797MPD2    H111800   3.574   3.017  17.479  0.2986  0.3815 -0.7234
  797MPD2    H211801   3.454   3.050   0.136 -2.1510 -1.3098 -1.1363
  797MPD2    H311802   3.493   2.915  17.704 -2.1643  0.1456 -0.2096
  797MPD2     N11803   3.667   3.265  17.463 -0.6338  0.4328 -0.6370
  797MPD2    H511804   3.691   3.362  17.476 -1.7811  0.1330  3.4550
  797MPD2    N111805   3.510   3.324   0.151 -0.3683  0.2035 -0.1750
  797MPD2    H711806   3.524   3.423   0.134 -1.0911  0.5929  1.4968
  798MPD2     C11807   3.568   3.866  17.518 -0.4914 -0.0809 -0.4124
  798MPD2    C111808   3.663   3.767  17.552  0.3796  0.0515  0.1478
  798MPD2    C211809   3.668   3.725  17.685  0.3687 -0.0091 -0.1920
  798MPD2    C311810   3.590   3.784   0.033  0.3893 -0.0621 -0.1172
  798MPD2    C411811   3.505   3.891   0.001  0.7826  0.1615  0.6480
  798MPD2    C511812   3.496   3.923  17.617  0.5611 -0.1435  0.4385
  798MPD2     H11813   3.717   3.633  17.714  0.8684  0.0420 -0.8834
  798MPD2    H111814   3.446   3.945   0.073 -0.2568  1.7075 -1.3742
  798MPD2    H211815   3.555   3.906  17.418 -1.5099 -2.3614 -1.1915
  798MPD2    H311816   3.438   4.011  17.589 -0.9430 -1.1821  0.2555
  798MPD2     N11817   3.597   3.720   0.165 -0.2042 -0.6731  0.4532
  798MPD2    H511818   3.665   3.644   0.170 -0.0454 -0.6312 -1.1420
  798MPD2    N111819   3.733   3.706  17.444  0.1621 -0.0072  0.3682
  798MPD2    H711820   3.704   3.744  17.354 -0.9332 -0.5386  0.4946
  799MPD2     C11821   2.760   4.451  14.944  0.1545  0.7213  0.3814
  799MPD2    C111822   2.703   4.381  14.837  0.0205 -1.0450 -0.2265
  799MPD2    C211823   2.604   4.440  14.764 -0.5904  0.1676  0.5123
  799MPD2    C311824   2.554   4.565  14.795  0.5432  0.5877 -0.0851
  799MPD2    C411825   2.618   4.637  14.897 -0.1140 -0.1002 -0.0668
  799MPD2    C511826   2.722   4.579  14.966 -0.3117 -0.2316 -0.5627
  799MPD2     H11827   2.564   4.380  14.683 -0.5355  0.2980  0.3885
  799MPD2    H111828   2.589   0.002  14.917  2.2052  0.2400  1.6199
  799MPD2    H211829   2.848   4.419  14.999 -1.6006  2.2835  4.0804
  799MPD2    H311830   2.773   4.634  15.044  0.1775 -0.8042 -0.4785
  799MPD2     N11831   2.454   4.634  14.727  0.5953 -0.1931  0.6927
  799MPD2    H511832   2.440   4.729  14.759  0.8167 -0.1763  0.7401
  799MPD2    N111833   2.758   4.258  14.799 -0.1980  0.0242 -0.3030
  799MPD2    H711834   2.730   4.226  14.706 -0.2062 -3.0112  0.7286
  800MPD2     C11835   2.618   1.120  14.775  0.3574 -0.1479  0.2898
  800MPD2    C111836   2.736   1.105  14.710 -0.0835  0.6095 -0.3386
  800MPD2    C211837   2.738   1.061  14.579 -0.3183  0.2289 -0.3065
  800MPD2    C311838   2.621   1.051  14.504  0.5669 -0.5758  0.0014
  800MPD2    C411839   2.502   1.065  14.571  0.3733 -0.6646  0.0296
  800MPD2    C511840   2.502   1.094  14.707  0.3928  0.0414 -0.5767
  800MPD2     H11841   2.831   1.044  14.528 -0.5563 -2.7199  0.2426
  800MPD2    H111842   2.410   1.076  14.515 -0.0892  1.8382  1.2808
  800MPD2    H211843   2.622   1.166  14.873  0.7891 -1.7556  1.0224
  800MPD2    H311844   2.403   1.118  14.744 -0.2711 -2.4779 -0.7444
  800MPD2     N11845   2.642   1.011  14.374 -0.3414 -0.1253  0.0623
  800MPD2    H511846   2.741   1.005  14.350 -0.0451  1.7003  0.8750
  800MPD2    N111847   2.850   1.125  14.789 -0.1189  0.2059 -0.4405
  800MPD2    H711848   2.835   1.186  14.868  1.7111 -1.4803  1.2332
  801MPD2     C11849   3.038   1.773  14.771  0.4198 -0.2415 -0.2648
  801MPD2    C111850   3.003   1.702  14.882 -0.0604  0.0418  0.1718
  801MPD2    C211851   2.906   1.747  14.968 -0.2177 -0.5416  0.0180
  801MPD2    C311852   2.860   1.876  14.945  0.3269  0.4552 -1.1887
  801MPD2    C411853   2.914   1.962  14.848  0.1871 -0.6688 -0.0138
  801MPD2    C511854   3.001   1.905  14.756 -0.1259 -0.4612  0.5343
  801MPD2     H11855   2.869   1.680  15.045  1.8295 -0.4376  1.0820
  801MPD2    H111856   2.885   2.065  14.827 -2.1744 -1.3622 -0.1404
  801MPD2    H211857   3.100   1.731  14.692  0.5803 -1.3899  0.4632
  801MPD2    H311858   3.031   1.973  14.677 -0.7888 -0.3077  0.4168
  801MPD2     N11859   2.770   1.940  15.029  0.1036  0.1960 -0.0480
  801MPD2    H511860   2.746   2.038  15.014 -0.0414 -0.0001 -1.1200
  801MPD2    N111861   3.038   1.566  14.899 -0.1315 -0.4342 -0.4226
  801MPD2    H711862   2.997   1.516  14.977 -0.2660  0.5473  0.1397
  802MPD2     C11863   2.864   2.108   0.469  0.4512 -0.1213  0.5102
  802MPD2    C111864   2.771   2.118   0.367 -0.1539  0.0570 -0.0434
  802MPD2    C211865   2.800   2.067   0.241 -0.0181 -0.3979  0.0001
  802MPD2    C311866   2.917   1.992   0.218  0.4732 -0.2771 -0.7947
  802MPD2    C411867   3.003   1.982   0.321  0.2661  0.7881  0.6735
  802MPD2    C511868   2.979   2.043   0.436 -0.1202  0.6132  0.4616
  802MPD2     H11869   2.722   2.067   0.166 -1.5770 -2.0028  1.6309
  802MPD2    H111870   3.094   1.924   0.310 -0.9985 -1.0758  0.0689
  802MPD2    H211871   2.852   2.157   0.566  2.0213 -0.9467  1.1307
  802MPD2    H311872   3.049   2.026   0.516  1.9565  1.2397 -1.2294
  802MPD2     N11873   2.931   1.917   0.097 -0.2173  0.3221  0.2235
  802MPD2    H511874   2.856   1.925   0.030  0.6424  2.3677 -0.5017
  802MPD2    N111875   2.647   2.191   0.375  1.1657  0.0681  0.6886
  802MPD2    H711876   2.592   2.197   0.290  1.8660  2.6513  0.4102
  803MPD2     C11877   3.165   1.024  12.055  0.5036 -0.4093 -0.0854
  803MPD2    C111878   3.264   1.083  12.134  0.5430 -0.5371  0.2540
  803MPD2    C211879   3.270   1.059  12.266  1.0700 -0.1301  0.9977
  803MPD2    C311880   3.191   0.959  12.321 -0.1000 -0.4504 -0.5675
  803MPD2    C411881   3.094   0.893  12.245  0.3589  0.0501  0.3075
  803MPD2    C511882   3.078   0.934  12.112  0.1005  0.2003 -0.0316
  803MPD2     H11883   3.332   1.126  12.325 -0.5373  1.5885  0.7671
  803MPD2    H111884   3.029   0.818  12.287 -2.1205  0.8464 -2.1307
  803MPD2    H211885   3.147   1.050  11.951  0.6284 -0.7251 -0.1866
  803MPD2    H311886   2.995   0.893  12.056 -0.9673 -0.5382  2.1108
  803MPD2     N11887   3.198   0.917  12.457  0.3860 -0.4815 -0.7768
  803MPD2    H511888   3.133   0.844  12.484 -0.0289 -0.3228 -1.3404
  803MPD2    N111889   3.362   1.171  12.083  0.0326  0.4987  0.5704
  803MPD2    H711890   3.404   1.239  12.146  0.1428  0.3638  0.6423
  804MPD2     C11891   3.213   1.776  17.267 -0.1672 -0.9619  0.6416
  804MPD2    C111892   3.293   1.766  17.379 -0.4993 -0.3638 -0.0423
  804MPD2    C211893   3.296   1.884  17.450 -0.1970 -0.7134 -0.0055
  804MPD2    C311894   3.239   2.004  17.407  0.0016  0.0763  0.4345
  804MPD2    C411895   3.172   2.005  17.287 -0.2678 -0.2660 -0.0235
  804MPD2    C511896   3.153   1.888  17.226  0.2754  0.4712  0.2566
  804MPD2     H11897   3.357   1.890  17.539  0.4667  3.4415 -0.7261
  804MPD2    H111898   3.122   2.093  17.246  0.1892 -0.1801 -0.3911
  804MPD2    H211899   3.190   1.695  17.198 -1.3246  0.5848 -0.7732
  804MPD2    H311900   3.092   1.893  17.136 -1.8066 -1.3511  1.5658
  804MPD2     N11901   3.273   2.120  17.481  0.0698 -0.9731 -0.4635
  804MPD2    H511902   3.327   2.099  17.564 -0.0245 -1.2868 -0.4810
  804MPD2    N111903   3.362   1.648  17.424  0.8582  0.2106 -0.5062
  804MPD2    H711904   3.403   1.655  17.516  2.3548 -2.1306 -0.9927
  805MPD2     C11905   2.422   4.271  15.523  0.1241 -0.7894 -0.0221
  805MPD2    C111906   2.377   4.404  15.530 -0.1210  0.1316  0.1960
  805MPD2    C211907   2.446   4.497  15.609  0.1762  0.1268  0.6013
  805MPD2    C311908   2.558   4.456  15.686 -0.3376 -0.2692 -0.8925
  805MPD2    C411909   2.595   4.323  15.679  0.2964 -0.7562 -0.1104
  805MPD2    C511910   2.529   4.236  15.595 -0.3784  0.2721 -0.3561
  805MPD2     H11911   2.402   4.594  15.628 -1.0271 -0.2030 -0.5055
  805MPD2    H111912   2.671   4.279  15.742  1.5946  1.8254  0.1545
  805MPD2    H211913   2.375   4.199  15.458  0.5368  2.2943 -3.7314
  805MPD2    H311914   2.570   4.136  15.586 -0.3615  0.2399  0.0731
  805MPD2     N11915   2.612   4.546  15.780 -0.0225 -0.3356  0.3719
  805MPD2    H511916   2.571   4.639  15.779  0.3061 -0.1878  1.1264
  805MPD2    N111917   2.259   4.449  15.467 -0.0813 -0.5498  0.3030
  805MPD2    H711918   2.247   4.549  15.470 -1.2169 -0.7088  1.2528
  806MPD2     C11919   3.064   3.788   0.147  0.0035  0.2926 -0.1415
  806MPD2    C111920   2.959   3.871   0.176  0.4538 -0.8913 -1.1464
  806MPD2    C211921   2.959   4.002   0.121  0.0684 -0.3806  0.5512
  806MPD2    C311922   3.068   4.043   0.045 -0.0650 -1.1444 -0.0247
  806MPD2    C411923   3.159   3.953   0.001  0.7018  0.6139 -0.0598
  806MPD2    C511924   3.156   3.825   0.050  0.8138  0.7992 -0.0435
  806MPD2     H11925   2.886   4.070   0.161  1.0673 -0.1634  2.0116
  806MPD2    H111926   3.241   3.974  17.683 -0.1566  0.2084 -1.2428
  806MPD2    H211927   3.075   3.689   0.191  0.9379 -0.4303 -1.9976
  806MPD2    H311928   3.231   3.756   0.012  1.0427  2.6593 -2.9329
  806MPD2     N11929   3.065   4.183   0.016 -0.1333  0.0998 -0.0356
  806MPD2    H511930   3.002   4.248   0.062  0.2654  0.4532  0.0159
  806MPD2    N111931   2.860   3.819   0.252  0.2153 -0.4483  0.0099
  806MPD2    H711932   2.868   3.727   0.293 -2.8874 -0.2302  1.0811
  807MPD2     C11933   2.698   3.181   0.575  0.2413  0.3340 -0.1004
  807MPD2    C111934   2.594   3.253   0.629  0.0467  0.3626 -0.2558
  807MPD2    C211935   2.517   3.207   0.735 -0.3141 -0.7414 -0.2820
  807MPD2    C311936   2.537   3.081   0.786 -0.4079 -0.3970  0.0340
  807MPD2    C411937   2.636   2.999   0.729  0.0414  0.5765 -0.4335
  807MPD2    C511938   2.714   3.056   0.629 -0.4441 -0.4190 -0.2156
  807MPD2     H11939   2.441   3.266   0.784  1.1012  1.9578 -1.3720
  807MPD2    H111940   2.657   2.895   0.750 -0.4822  0.3458 -1.0543
  807MPD2    H211941   2.775   3.207   0.504 -0.1466  2.4172  0.2536
  807MPD2    H311942   2.796   3.000   0.585 -0.9882  0.3949 -2.2962
  807MPD2     N11943   2.456   3.031   0.892  0.3229  0.3536  0.4277
  807MPD2    H511944   2.384   3.096   0.922 -2.0681 -1.4241 -1.4208
  807MPD2    N111945   2.567   3.384   0.580 -0.3968  0.7526 -0.6153
  807MPD2    H711946   2.495   3.436   0.629 -1.3741  0.2299 -1.5170
  808MPD2     C11947   3.381   1.320  10.460 -0.8012 -0.1066  0.0349
  808MPD2    C111948   3.264   1.389  10.484  0.0819  0.3142  0.3696
  808MPD2    C211949   3.266   1.530  10.468  0.3165  0.2884  0.1962
  808MPD2    C311950   3.379   1.593  10.422  0.0166  0.6796  0.0482
  808MPD2    C411951   3.486   1.522  10.395 -0.1320  0.4689 -0.2035
  808MPD2    C511952   3.485   1.393  10.414  0.0374 -0.2093 -0.2877
  808MPD2     H11953   3.176   1.590  10.472  0.3599  0.3247  0.7205
  808MPD2    H111954   3.574   1.571  10.355 -0.5657 -0.1266 -1.8740
  808MPD2    H211955   3.400   1.215  10.482  0.0628  0.2324  0.9337
  808MPD2    H311956   3.576   1.346  10.380  0.4569  1.4537 -1.4728
  808MPD2     N11957   3.394   1.729  10.383  0.2978 -0.2194  0.1248
  808MPD2    H511958   3.486   1.764  10.360  0.9418 -1.3037  1.0468
  808MPD2    N111959   3.150   1.334  10.536  0.2290 -0.1313  0.8696
  808MPD2    H711960   3.103   1.394  10.603  0.5971 -0.0466  1.0525
  809MPD2     C11961   3.270   2.064   9.465 -0.3076  0.2461  0.3812
  809MPD2    C111962   3.365   1.987   9.528 -0.1399  0.0983 -0.3970
  809MPD2    C211963   3.369   1.988   9.665  0.2339 -0.8821 -0.0725
  809MPD2    C311964   3.294   2.073   9.741 -0.1550 -1.0573 -0.0043
  809MPD2    C411965   3.216   2.163   9.674  0.1944  0.2657  0.0415
  809MPD2    C511966   3.203   2.161   9.540  0.2241 -0.6386  0.5312
  809MPD2     H11967   3.441   1.918   9.706  3.2917  1.3830 -1.6541
  809MPD2    H111968   3.149   2.226   9.731  0.7733 -0.8169  1.9346
  809MPD2    H211969   3.267   2.083   9.358  1.8790 -1.3135  0.0526
  809MPD2    H311970   3.140   2.236   9.493  1.7502 -1.0388 -2.1613
  809MPD2     N11971   3.300   2.088   9.881  0.3261 -0.7542  0.3303
  809MPD2    H511972   3.252   2.166   9.923 -0.7865 -0.1573 -2.0287
  809MPD2    N111973   3.450   1.894   9.466 -0.1210  0.0374  0.4192
  809MPD2    H711974   3.506   1.838   9.529 -0.7890  0.1553  1.1067
  810MPD2     C11975   2.749   0.890  10.935 -0.4391  0.2065  0.8935
  810MPD2    C111976   2.631   0.881  10.991  0.7502  0.7683 -0.0775
  810MPD2    C211977   2.577   1.001  11.041  0.2945 -0.0715  0.0774
  810MPD2    C311978   2.633   1.124  11.011 -0.3521 -0.3829 -0.3238
  810MPD2    C411979   2.756   1.124  10.956 -0.0077  0.5220 -0.2616
  810MPD2    C511980   2.811   1.008  10.920 -0.4724  0.1540  0.3468
  810MPD2     H11981   2.489   0.987  11.103  1.3758 -0.4261  1.5319
  810MPD2    H111982   2.817   1.210  10.929  1.0435  0.3239  1.4592
  810MPD2    H211983   2.792   0.800  10.892  0.4323  0.1230  1.9296
  810MPD2    H311984   2.912   1.018  10.882 -1.5651 -0.2201 -2.6630
  810MPD2     N11985   2.561   1.246  11.029 -0.3985 -0.4847 -0.3520
  810MPD2    H511986   2.614   1.331  11.019 -0.3478 -0.3606  0.9374
  810MPD2    N111987   2.569   0.748  10.994  0.1836 -0.1936  0.2796
  810MPD2    H711988   2.608   0.676  10.934  1.3972  0.0314  0.7873
  811MPD2     C11989   2.073   0.731  10.342  0.1080  0.4761 -0.0507
  811MPD2    C111990   2.140   0.778  10.450 -1.0883  0.0831 -0.0467
  811MPD2    C211991   2.152   0.916  10.466 -0.7613  0.6080 -1.0762
  811MPD2    C311992   2.094   1.000  10.374 -0.6999 -0.2322 -0.7068
  811MPD2    C411993   2.032   0.953  10.259  0.2501  0.2140  0.5680
  811MPD2    C511994   2.011   0.815  10.255 -0.1867  0.4403  0.0844
  811MPD2     H11995   2.200   0.958  10.554  0.4802 -0.6920 -1.1390
  811MPD2    H111996   1.990   1.026  10.191 -0.5756 -1.0018 -0.2234
  811MPD2    H211997   2.053   0.626  10.329 -1.8877  0.7412  0.8441
  811MPD2    H311998   1.948   0.773  10.177 -0.4710 -0.5338  0.8520
  811MPD2     N11999   2.100   1.137  10.397  0.3964 -0.4770  0.5497
  811MPD2    H512000   2.150   1.171  10.479  1.3130  0.1563 -0.2799
  811MPD2    N112001   2.190   0.681  10.541  0.0091 -0.7439 -0.6050
  811MPD2    H712002   2.169   0.582  10.536  0.6553 -0.9306  0.4921
  812MPD2     C12003   1.067   0.391  12.045 -0.4866 -0.9214  0.5523
  812MPD2    C112004   1.063   0.495  12.137  0.4036 -0.2586 -0.0779
  812MPD2    C212005   1.152   0.484  12.244  0.1950 -0.0640  0.0676
  812MPD2    C312006   1.248   0.385  12.255  0.2601  0.4281  0.1326
  812MPD2    C412007   1.257   0.286  12.157  0.9864 -0.2089 -0.4121
  812MPD2    C512008   1.161   0.287  12.055 -1.0580  0.5124 -0.4779
  812MPD2     H12009   1.161   0.552  12.328  2.1918 -0.3841  0.1135
  812MPD2    H112010   1.340   0.216  12.152  0.5288 -0.9450  2.0317
  812MPD2    H212011   1.015   0.402  11.950  1.4472  0.3949 -0.3425
  812MPD2    H312012   1.176   0.217  11.974 -0.7600  0.8750 -0.7320
  812MPD2     N12013   1.334   0.392  12.362  0.0452  1.0921 -0.1878
  812MPD2    H512014   1.320   0.462  12.434 -0.4756  2.7939 -1.9371
  812MPD2    N112015   0.971   0.604  12.114 -0.3113 -0.4645 -0.4145
  812MPD2    H712016   0.980   0.686  12.173 -1.0929  0.5549 -1.7072
  813MPD2     C12017   0.658   2.072  12.818  0.0000 -0.5409  0.3928
  813MPD2    C112018   0.563   2.173  12.823  0.1476  0.8059  0.4357
  813MPD2    C212019   0.484   2.175  12.932 -0.2384 -0.0383 -0.9866
  813MPD2    C312020   0.500   2.086  13.040  0.0897  0.2119  0.1205
  813MPD2    C412021   0.593   1.987  13.033 -0.1330  0.3805 -0.0524
  813MPD2    C512022   0.676   1.985  12.921  0.4590  0.7992  0.3145
  813MPD2     H12023   0.405   2.249  12.941 -0.5903 -0.3494 -1.5032
  813MPD2    H112024   0.604   1.904  13.103  0.1607  0.9709  0.6003
  813MPD2    H212025   0.715   2.058  12.727  1.6567  2.5478  0.9378
  813MPD2    H312026   0.757   1.912  12.919 -1.0018 -0.7670 -1.7313
  813MPD2     N12027   0.405   2.104  13.146 -0.1882  0.5530 -0.2369
  813MPD2    H512028   0.325   2.166  13.137 -1.9156 -1.7558 -0.7780
  813MPD2    N112029   0.562   2.269  12.712  0.2943 -0.1265  0.4502
  813MPD2    H712030   0.600   2.231  12.626  0.2319 -1.8104  1.1657
  814MPD2     C12031   0.985   3.579  12.644 -0.3474  0.2867 -0.0678
  814MPD2    C112032   0.973   3.645  12.527 -0.2253  0.3804  0.0662
  814MPD2    C212033   1.028   3.771  12.524  0.1141 -0.7270 -0.6246
  814MPD2    C312034   1.099   3.829  12.631  0.1015  0.4507  0.4851
  814MPD2    C412035   1.118   3.753  12.742 -0.3448  0.8703 -1.0492
  814MPD2    C512036   1.060   3.627  12.749 -0.3055  0.7912  0.0363
  814MPD2     H12037   0.993   3.833  12.442  2.5761  1.6609  0.1411
  814MPD2    H112038   1.163   3.796  12.831  1.7082 -1.5467 -0.9327
  814MPD2    H212039   0.938   3.483  12.661  3.9633 -2.0997 -1.6227
  814MPD2    H312040   1.061   3.568  12.839  2.6743  0.7041 -0.0456
  814MPD2     N12041   1.152   3.961  12.633 -0.4469 -0.0925  0.5936
  814MPD2    H512042   1.200   3.997  12.715  0.6239  1.1830 -0.5908
  814MPD2    N112043   0.907   3.591  12.414 -0.0698 -0.0847  0.8287
  814MPD2    H712044   0.904   3.650  12.332 -2.4508  0.4805  1.3131
  815MPD2     C12045   1.365   1.561  12.391  0.4703  0.0194 -1.2405
  815MPD2    C112046   1.375   1.675  12.314  0.1455  0.6680 -0.1657
  815MPD2    C212047   1.264   1.733  12.265  0.0176  0.6505  0.6202
  815MPD2    C312048   1.143   1.669  12.285 -0.1113  0.2176 -0.2976
  815MPD2    C412049   1.136   1.551  12.358 -0.2219  0.0083 -0.5636
  815MPD2    C512050   1.248   1.498  12.410  0.2127 -0.0009 -0.0126
  815MPD2     H12051   1.266   1.820  12.200  2.7790 -0.1736 -0.3726
  815MPD2    H112052   1.044   1.498  12.381 -0.1016  1.0656  2.3509
  815MPD2    H212053   1.451   1.512  12.436 -1.1333 -0.8857  0.8716
  815MPD2    H312054   1.248   1.401  12.457  0.7639 -0.0260 -0.0658
  815MPD2     N12055   1.034   1.730  12.219 -0.4847  0.8442  0.0677
  815MPD2    H512056   1.053   1.810  12.159 -0.6920  0.5403 -0.4005
  815MPD2    N112057   1.504   1.736  12.295  0.1358  0.6656 -0.4215
  815MPD2    H712058   1.582   1.683  12.334  1.0039  1.6702 -0.8050
  816MPD2     C12059   2.529   1.249  17.531 -0.7372 -0.2914 -0.0186
  816MPD2    C112060   2.470   1.163  17.435 -0.2399 -1.0158  0.2046
  816MPD2    C212061   2.525   1.150  17.314  1.1737 -0.1820  0.0351
  816MPD2    C312062   2.608   1.253  17.270 -0.6069  0.4075 -0.6843
  816MPD2    C412063   2.653   1.349  17.354  0.1293  0.0637  0.0355
  816MPD2    C512064   2.619   1.337  17.493 -0.6818  0.2986  0.9524
  816MPD2     H12065   2.483   1.082  17.240  0.6855 -0.8271  0.8996
  816MPD2    H112066   2.730   1.417  17.319 -1.2646  1.1775 -0.8404
  816MPD2    H212067   2.501   1.252  17.636 -1.5708 -1.1169 -0.2116
  816MPD2    H312068   2.646   1.409  17.570 -1.3244  1.7250 -0.1692
  816MPD2     N12069   2.653   1.253  17.134  0.0564 -0.0046  0.0029
  816MPD2    H512070   2.631   1.169  17.081  1.1405 -0.3595  0.1196
  816MPD2    N112071   2.359   1.093  17.479  0.6246  0.1341  0.0248
  816MPD2    H712072   2.317   1.109  17.570 -2.9406 -2.6993 -1.0876
  817MPD2     C12073   1.010   2.788   9.370 -0.3598 -0.3878  0.4245
  817MPD2    C112074   0.960   2.663   9.370 -0.0195 -0.3822 -0.1000
  817MPD2    C212075   0.832   2.653   9.313  0.1024  0.0388  0.1905
  817MPD2    C312076   0.767   2.761   9.262 -0.0364 -0.2599  0.2205
  817MPD2    C412077   0.830   2.880   9.258 -0.3989  0.1140 -0.2152
  817MPD2    C512078   0.948   2.895   9.313  0.1663  0.0105 -0.1961
  817MPD2     H12079   0.782   2.557   9.311 -2.1256  1.1708  1.5654
  817MPD2    H112080   0.789   2.968   9.211 -0.3662  0.3049  0.1160
  817MPD2    H212081   1.104   2.812   9.418  2.2330 -3.8107 -2.9146
  817MPD2    H312082   0.995   2.992   9.309  0.8972 -0.4460 -2.3262
  817MPD2     N12083   0.636   2.739   9.201 -0.2689  0.3911 -0.2055
  817MPD2    H512084   0.613   2.641   9.189  0.7229  0.1716 -0.3762
  817MPD2    N112085   1.027   2.553   9.429 -0.4330 -0.3020 -0.5199
  817MPD2    H712086   0.984   2.461   9.420  0.6667 -0.8779  0.1574
  818MPD2     C12087   0.303   3.780  10.280  0.0069  0.1806 -0.1247
  818MPD2    C112088   0.252   3.672  10.342 -0.5339  0.0515  0.5148
  818MPD2    C212089   0.256   3.553  10.275 -0.5375  0.2805  0.1117
  818MPD2    C312090   0.320   3.537  10.158  0.7964  0.1013 -0.1420
  818MPD2    C412091   0.373   3.644  10.103  0.3754 -0.7342  0.1090
  818MPD2    C512092   0.360   3.770  10.160  0.3191  0.7267 -0.4159
  818MPD2     H12093   0.182   3.483  10.313 -0.9345  0.9013  0.4951
  818MPD2    H112094   0.413   3.638  10.002 -0.8609  0.0883 -0.4330
  818MPD2    H212095   0.306   3.876  10.329 -2.3662  0.2745 -0.1959
  818MPD2    H312096   0.391   3.862  10.111 -0.4666  0.7957 -0.7774
  818MPD2     N12097   0.313   3.413  10.095 -0.0732  0.0265  0.1873
  818MPD2    H512098   0.255   3.347  10.146 -0.4684 -0.0339 -0.3359
  818MPD2    N112099   0.181   3.677  10.461 -0.6783  0.2727  0.8906
  818MPD2    H712100   0.145   3.593  10.506 -1.8248  0.0476 -0.4110
  819MPD2     C12101   2.926   0.017  15.562  0.5697 -0.1907  0.5407
  819MPD2    C112102   2.913   4.620  15.563  0.3059  1.1117  0.3128
  819MPD2    C212103   2.993   4.551  15.645  0.2924  0.4289  0.1915
  819MPD2    C312104   3.072   4.608  15.742 -0.3764 -0.2727 -0.3796
  819MPD2    C412105   3.088   0.009  15.744 -0.4463 -0.8589 -1.1467
  819MPD2    C512106   3.015   0.078  15.643 -0.3613 -0.0917 -0.9669
  819MPD2     H12107   2.986   4.443  15.650 -2.0444  0.4985 -1.3835
  819MPD2    H112108   3.139   0.057  15.826 -2.8894 -0.6567  0.2740
  819MPD2    H212109   2.877   0.086  15.494 -1.6825 -0.0071  2.3383
  819MPD2    H312110   3.034   0.185  15.638 -0.8388 -0.0936 -2.7870
  819MPD2     N12111   3.133   4.520  15.833 -0.6634 -0.5085  0.5093
  819MPD2    H512112   3.091   4.429  15.845  1.1720 -1.4828 -0.4735
  819MPD2    N112113   2.828   4.566  15.467  0.3777  0.0839 -0.9632
  819MPD2    H712114   2.768   4.636  15.426 -1.1256 -1.9167 -2.1759
  820MPD2     C12115   2.206   0.229  15.380  0.0756 -0.3037  0.6379
  820MPD2    C112116   2.150   0.127  15.304 -0.4713 -0.1854 -0.2628
  820MPD2    C212117   2.231   0.034  15.238  0.2640 -0.1519  0.0912
  820MPD2    C312118   2.365   0.044  15.261  0.9144  0.0750 -0.2094
  820MPD2    C412119   2.417   0.161  15.318  0.5756  0.1760 -0.6327
  820MPD2    C512120   2.340   0.253  15.378  0.4118 -0.5207  0.3734
  820MPD2     H12121   2.190   4.691  15.178  0.5633 -0.4327  0.2603
  820MPD2    H112122   2.525   0.170  15.327  0.8750 -2.6112 -1.2251
  820MPD2    H212123   2.149   0.302  15.434  0.5374  0.8331 -0.4074
  820MPD2    H312124   2.383   0.334  15.435 -1.3809  1.6041 -1.2899
  820MPD2     N12125   2.460   4.682  15.219 -0.3363 -0.4371  0.4364
  820MPD2    H512126   2.556   4.702  15.244 -0.2645 -1.1864  0.7433
  820MPD2    N112127   2.003   0.118  15.308  0.1325  0.3663 -0.1214
  820MPD2    H712128   1.960   0.203  15.342 -0.4003 -0.1121  0.3958
  821MPD2     C12129   2.638   1.341  13.620  0.0191  0.4639 -0.0950
  821MPD2    C112130   2.732   1.263  13.668 -0.1009 -0.3237  0.3721
  821MPD2    C212131   2.861   1.270  13.622 -0.1172 -0.3186 -0.0689
  821MPD2    C312132   2.887   1.349  13.511  0.9068 -0.2168 -0.0822
  821MPD2    C412133   2.776   1.415  13.452 -0.1414  0.1424 -0.8647
  821MPD2    C512134   2.652   1.408  13.508  0.2299 -0.4144  0.6336
  821MPD2     H12135   2.941   1.216  13.671 -1.6687 -2.6818 -0.1533
  821MPD2    H112136   2.785   1.478  13.364 -1.0107  0.3294 -0.8263
  821MPD2    H212137   2.538   1.344  13.662 -0.4883 -1.3448 -1.1582
  821MPD2    H312138   2.568   1.462  13.466  0.3524 -0.1968  0.6702
  821MPD2     N12139   3.019   1.373  13.464 -0.2091 -0.5432  0.0524
  821MPD2    H512140   3.021   1.447  13.394  1.0733  1.0302  1.7337
  821MPD2    N112141   2.726   1.188  13.780 -0.2046  0.0032  0.6055
  821MPD2    H712142   2.818   1.146  13.795 -0.1062  0.0592  0.1661
  822MPD2     C12143   4.049   1.247  15.881 -0.4817 -0.0386  0.1669
  822MPD2    C112144   4.036   1.206  16.014 -0.0578 -0.1008  0.0037
  822MPD2    C212145   3.961   1.283  16.106 -0.0893 -0.2059 -0.2245
  822MPD2    C312146   3.892   1.390  16.058  0.7129 -0.4794 -0.4837
  822MPD2    C412147   3.888   1.431  15.928  0.0664  0.2011  0.6877
  822MPD2    C512148   3.974   1.361  15.842  0.1217  0.4001 -0.1786
  822MPD2     H12149   3.931   1.239  16.201 -0.4564 -0.9044 -0.6666
  822MPD2    H112150   3.829   1.512  15.886 -0.0814 -1.6730 -2.7586
  822MPD2    H212151   4.107   1.186  15.812 -2.8832 -0.6977 -1.2712
  822MPD2    H312152   3.968   1.402  15.742 -0.1889  2.0202  0.4893
  822MPD2     N12153   3.823   1.460  16.164 -0.2856  0.1601 -0.3960
  822MPD2    H512154   3.828   1.423  16.258  0.8639  0.2471 -0.4243
  822MPD2    N112155   4.115   1.106  16.069 -0.9973 -0.5259 -0.2042
  822MPD2    H712156   4.104   1.079  16.166  1.0059 -0.5574  0.0146
  823MPD2     C12157   3.660   1.543  16.982 -0.4886 -0.2794 -0.3518
  823MPD2    C112158   3.695   1.472  16.872  0.0703 -0.4814  0.0847
  823MPD2    C212159   3.749   1.342  16.884  0.0349  0.1205 -0.3874
  823MPD2    C312160   3.777   1.295  17.012 -0.2695 -0.4211  0.4984
  823MPD2    C412161   3.744   1.364  17.119  0.7976  0.0099 -0.1845
  823MPD2    C512162   3.685   1.483  17.106 -0.3205  0.8366 -0.8721
  823MPD2     H12163   3.776   1.280  16.799  0.5874  0.6496 -0.6059
  823MPD2    H112164   3.748   1.334  17.224 -1.2134  0.2585 -0.0314
  823MPD2    H212165   3.605   1.637  16.982 -0.9203 -0.5321  1.2321
  823MPD2    H312166   3.667   1.536  17.199  0.9197  0.4794 -0.4266
  823MPD2     N12167   3.837   1.165  17.037  0.1439 -0.0839  0.0827
  823MPD2    H512168   3.836   1.133  17.134 -0.7434  1.2744  0.5377
  823MPD2    N112169   3.669   1.535  16.745 -0.0780  0.1064  0.4210
  823MPD2    H712170   3.649   1.635  16.746  3.5527  0.8085  1.8570
  824MPD2     C12171   4.300   0.316  16.034  0.1816 -0.3075  0.5378
  824MPD2    C112172   4.325   0.417  15.943 -0.2892  0.1687  0.0771
  824MPD2    C212173   4.335   0.389  15.810  0.5108  0.5535 -1.4914
  824MPD2    C312174   4.354   0.259  15.765  0.0307 -0.4790  0.4379
  824MPD2    C412175   4.323   0.153  15.859  0.3529 -0.0862  0.3693
  824MPD2    C512176   4.297   0.186  15.991 -0.3380  0.1686  0.5486
  824MPD2     H12177   4.354   0.470  15.740  2.7389  0.1081 -1.4128
  824MPD2    H112178   4.321   0.048  15.834  1.9923 -0.7957  3.2262
  824MPD2    H212179   4.268   0.330  16.137 -0.1149  0.9854  0.2562
  824MPD2    H312180   4.277   0.114  16.069 -1.2377 -1.7856 -1.4686
  824MPD2     N12181   4.392   0.244  15.634 -0.2623  0.3650  0.3255
  824MPD2    H512182   4.410   0.332  15.587  0.4839  0.8688  1.5647
  824MPD2    N112183   4.322   0.550  15.988 -0.4343  0.2043 -0.3090
  824MPD2    H712184   4.327   0.618  15.913 -0.3468  0.2842 -0.2306
  825MPD2     C12185   4.729   0.634  15.017  0.2822  0.0998 -0.7450
  825MPD2    C112186   4.725   0.625  15.159  0.5273  0.5646  0.9600
  825MPD2    C212187   0.007   0.742  15.235  0.3378  0.1209 -0.2717
  825MPD2    C312188   0.028   0.863  15.174 -0.6236  0.0882 -0.1722
  825MPD2    C412189   0.015   0.877  15.035 -0.2678  0.2540  0.3152
  825MPD2    C512190   0.003   0.759  14.960  0.0850 -0.1827 -0.6316
  825MPD2     H12191   0.000   0.732  15.342 -0.1250 -1.1510 -0.4211
  825MPD2    H112192   0.017   0.972  14.982  1.0630  1.8724  3.2895
  825MPD2    H212193   4.717   0.542  14.960  0.8396 -0.1497 -0.4699
  825MPD2    H312194   0.006   0.768  14.852  1.5081 -2.4052 -0.7835
  825MPD2     N12195   0.041   0.990  15.243 -0.6372 -0.3167 -0.4166
  825MPD2    H512196   0.057   1.059  15.169  0.1290 -1.2868 -1.1661
  825MPD2    N112197   4.700   0.500  15.215  0.2394 -0.1038  0.3708
  825MPD2    H712198   4.700   0.416  15.159  1.3712  0.7552 -0.9173
  826MPD2     C12199   4.075   4.648  13.723  0.4658  0.4642  0.5366
  826MPD2    C112200   4.054   0.033  13.680  0.2160  0.1558 -0.2903
  826MPD2    C212201   3.959   0.117  13.745  0.1744 -0.0170 -0.7560
  826MPD2    C312202   3.889   0.069  13.856 -0.6641 -0.5051 -0.0115
  826MPD2    C412203   3.911   4.682  13.894 -0.1162  0.1347 -0.1640
  826MPD2    C512204   3.994   4.604  13.820  0.0007 -0.4759  0.1151
  826MPD2     H12205   3.954   0.222  13.719 -1.0999 -0.0063 -0.4765
  826MPD2    H112206   3.852   4.644  13.977  0.0165 -1.6101 -0.8651
  826MPD2    H212207   4.133   4.574  13.669 -0.7083 -1.5024  1.9754
  826MPD2    H312208   4.002   4.500  13.851 -3.4410 -1.4053 -1.9921
  826MPD2     N12209   3.797   0.148  13.932  0.0269 -0.4504 -0.5276
  826MPD2    H512210   3.745   0.099  14.004  1.0004  1.0071  1.1553
  826MPD2    N112211   4.136   0.074  13.575 -0.0916 -0.7703  0.3189
  826MPD2    H712212   4.219   0.020  13.552  1.4243  1.7354 -0.2296
  827MPD2     C12213   0.416   2.237  10.304 -0.1579  0.8691  0.4476
  827MPD2    C112214   0.425   2.124  10.388 -0.3534 -0.4786 -0.0714
  827MPD2    C212215   0.302   2.069  10.431  0.0202  0.1746 -0.1664
  827MPD2    C312216   0.183   2.120  10.388  0.1971 -0.3178  0.4911
  827MPD2    C412217   0.177   2.231  10.309  0.2989 -0.3729 -0.9282
  827MPD2    C512218   0.290   2.287  10.274 -0.6672 -0.3586 -0.3161
  827MPD2     H12219   0.292   1.987  10.501  0.4610  0.4665  0.2389
  827MPD2    H112220   0.082   2.276  10.283  0.2901 -0.0217 -0.3081
  827MPD2    H212221   0.507   2.283  10.267 -0.2025 -0.6746 -1.5859
  827MPD2    H312222   0.290   2.366  10.200 -0.9559  0.2639  0.3463
  827MPD2     N12223   0.074   2.035  10.404 -0.1975 -0.1944 -0.2779
  827MPD2    H512224   0.087   1.941  10.440 -1.3750 -0.9546 -1.8700
  827MPD2    N112225   0.547   2.065  10.408  0.1414 -0.1932 -0.0297
  827MPD2    H712226   0.624   2.109  10.358 -1.7227  2.1609 -0.8035
  828MPD2     C12227   3.298   1.675  12.792 -0.2641  0.2676  0.2258
  828MPD2    C112228   3.245   1.641  12.667  0.7298  0.2135  0.2772
  828MPD2    C212229   3.314   1.676  12.557  0.1902  0.4014  0.1161
  828MPD2    C312230   3.418   1.759  12.566  0.8266 -0.2532 -0.4899
  828MPD2    C412231   3.467   1.803  12.684  0.0743 -0.4703  0.3505
  828MPD2    C512232   3.412   1.747  12.793  0.5841 -0.4736  0.0996
  828MPD2     H12233   3.267   1.658  12.461  1.3952 -1.6061 -0.0975
  828MPD2    H112234   3.544   1.878  12.693 -0.0715 -0.2963  0.1597
  828MPD2    H212235   3.248   1.637  12.881 -1.1669 -0.8789 -0.7724
  828MPD2    H312236   3.453   1.782  12.887  1.2529 -1.3114  0.1141
  828MPD2     N12237   3.472   1.831  12.459  0.1803  0.1660  0.4719
  828MPD2    H512238   3.527   1.914  12.479  0.7188  0.4108 -1.9212
  828MPD2    N112239   3.115   1.582  12.652 -0.1991 -0.6820  0.2135
  828MPD2    H712240   3.077   1.580  12.558 -0.9241  1.5881  0.4815
  829MPD2     C12241   2.696   1.570  11.942  0.2424 -0.2931  0.3698
  829MPD2    C112242   2.598   1.521  12.025 -0.3059 -0.5097 -0.3414
  829MPD2    C212243   2.602   1.536  12.163  0.5810  0.3250  0.7543
  829MPD2    C312244   2.713   1.596  12.219  0.6675  0.2329  0.3999
  829MPD2    C412245   2.816   1.649  12.141  0.1359 -0.2217 -0.2403
  829MPD2    C512246   2.803   1.637  12.003 -0.2087  0.1030 -0.6145
  829MPD2     H12247   2.519   1.503  12.224 -0.0919 -2.0527 -1.4009
  829MPD2    H112248   2.910   1.678  12.187  0.7364 -1.5059 -0.6488
  829MPD2    H212249   2.686   1.569  11.835  1.1279 -0.6536  0.2890
  829MPD2    H312250   2.878   1.690  11.945  0.4192  0.2316  0.3152
  829MPD2     N12251   2.741   1.589  12.358  1.0962  0.6185  0.2174
  829MPD2    H512252   2.821   1.645  12.386  0.7433  1.3812 -0.3000
  829MPD2    N112253   2.490   1.455  11.975  0.0141 -0.1774 -0.1713
  829MPD2    H712254   2.413   1.439  12.039  0.1921  0.3843  0.1806
  830MPD2     C12255   3.168   3.917  15.657  0.0339 -0.2230  0.7099
  830MPD2    C112256   3.276   3.965  15.735  0.0034  0.3800  0.3016
  830MPD2    C212257   3.405   3.938  15.696 -0.5600  0.1349  0.2942
  830MPD2    C312258   3.426   3.882  15.568 -0.3163  0.2476 -0.4618
  830MPD2    C412259   3.322   3.824  15.494  0.4597  0.4767  0.1839
  830MPD2    C512260   3.197   3.847  15.538  0.1360 -0.4580  0.3057
  830MPD2     H12261   3.486   3.970  15.760 -0.5735 -0.1405  0.4472
  830MPD2    H112262   3.333   3.779  15.396 -2.6864  3.4367 -1.5300
  830MPD2    H212263   3.064   3.947  15.669 -0.0368  1.2041 -3.5626
  830MPD2    H312264   3.114   3.807  15.480 -1.7426 -0.1934  2.8487
  830MPD2     N12265   3.558   3.863  15.525 -0.3147 -0.2277  0.2039
  830MPD2    H512266   3.563   3.795  15.449 -1.2112  0.0782 -0.1363
  830MPD2    N112267   3.248   4.051  15.850  0.5392 -0.4552 -0.0045
  830MPD2    H712268   3.151   4.079  15.865  0.4498 -0.7611 -0.0285
  831MPD2     C12269   4.083   1.570  16.481 -0.5412  0.2154 -0.1252
  831MPD2    C112270   4.098   1.480  16.383 -0.1151  0.2716  0.9211
  831MPD2    C212271   4.085   1.348  16.406  0.2334  0.2065 -0.3112
  831MPD2    C312272   4.018   1.308  16.518 -0.2164  0.6785 -0.1737
  831MPD2    C412273   3.995   1.403  16.618 -0.2319 -0.2993 -0.6837
  831MPD2    C512274   4.033   1.536  16.600 -0.1324  0.2501 -0.2731
  831MPD2     H12275   4.116   1.275  16.332 -0.7809 -2.4038  1.8648
  831MPD2    H112276   3.944   1.371  16.708 -2.8842  1.7093 -1.4491
  831MPD2    H212277   4.099   1.674  16.458 -0.4132  0.2652  0.1799
  831MPD2    H312278   4.001   1.619  16.662  0.8142 -1.1485  2.0683
  831MPD2     N12279   3.968   1.178  16.541  0.1040  0.8843 -0.6344
  831MPD2    H512280   3.928   1.153  16.631 -0.6414  0.2404 -1.1451
  831MPD2    N112281   4.142   1.521  16.256 -0.5822 -0.1115 -0.1929
  831MPD2    H712282   4.185   1.445  16.204  1.2190  0.0339  1.0561
  832MPD2     C12283   2.288   1.905  17.604  0.4510 -0.4251  0.2826
  832MPD2    C112284   2.234   2.007  17.530 -0.7848 -0.0453 -0.2114
  832MPD2    C212285   2.115   1.991  17.464 -0.4001 -0.3976 -0.2957
  832MPD2    C312286   2.042   1.873  17.478  0.5543  0.8587 -0.0811
  832MPD2    C412287   2.095   1.772  17.555  0.3450  0.0887 -0.2988
  832MPD2    C512288   2.218   1.787  17.616  0.4884  0.1726 -0.2106
  832MPD2     H12289   2.071   2.071  17.406 -0.2423 -0.6389 -0.7512
  832MPD2    H112290   2.043   1.679  17.581  1.2380  0.2696  2.1522
  832MPD2    H212291   2.378   1.920  17.662 -0.4702 -1.2600  1.9414
  832MPD2    H312292   2.250   1.701  17.674  0.0301 -0.4178 -0.8354
  832MPD2     N12293   1.916   1.844  17.417 -0.3421 -0.0004 -0.1297
  832MPD2    H512294   1.877   1.752  17.432  0.4863 -0.3902 -0.3985
  832MPD2    N112295   2.320   2.123  17.526  0.4389  0.0438  0.3573
  832MPD2    H712296   2.408   2.124  17.578  0.0787  0.8603  0.9614
  833MPD2     C12297   4.332   4.255  13.178 -0.1032  0.8233 -0.9068
  833MPD2    C112298   4.261   4.328  13.084 -0.7015  0.2019 -0.3731
  833MPD2    C212299   4.307   4.340  12.956  0.1481  0.0751  0.0710
  833MPD2    C312300   4.429   4.285  12.915 -0.7194 -0.1772 -0.0605
  833MPD2    C412301   4.503   4.212  13.006  0.1639  0.1404  0.5503
  833MPD2    C512302   4.451   4.196  13.140  0.5825  0.5564  0.5182
  833MPD2     H12303   4.240   4.389  12.886 -0.9089 -0.8305  0.4481
  833MPD2    H112304   4.591   4.154  12.979  0.1674  0.3927  0.0135
  833MPD2    H212305   4.295   4.235  13.278 -0.5785  0.3712 -1.1701
  833MPD2    H312306   4.502   4.134  13.212  1.1433 -0.5421 -0.8227
  833MPD2     N12307   4.463   4.300  12.781  0.0880  0.1016 -0.8154
  833MPD2    H512308   4.397   4.356  12.728 -0.3298 -0.5547 -0.9784
  833MPD2    N112309   4.125   4.374  13.106  0.3672 -0.2807 -0.8694
  833MPD2    H712310   4.092   4.429  13.028  2.3998  2.4716  0.2100
  834MPD2     C12311   4.255   3.743  11.935  0.1454 -0.3274  0.4063
  834MPD2    C112312   4.279   3.874  11.901  0.2471 -0.4159 -0.3081
  834MPD2    C212313   4.338   3.953  11.999  0.3027 -0.1414  0.0345
  834MPD2    C312314   4.365   3.914  12.129 -0.1640 -0.1778  0.4065
  834MPD2    C412315   4.354   3.776  12.155 -0.1277  1.0866 -0.3479
  834MPD2    C512316   4.285   3.700  12.057  0.4222 -0.1183  0.0449
  834MPD2     H12317   4.360   4.056  11.973  0.6408 -0.2217  0.0037
  834MPD2    H112318   4.381   3.738  12.253  0.7514  3.7303  0.4329
  834MPD2    H212319   4.211   3.678  11.861  1.2276 -2.6283  1.7802
  834MPD2    H312320   4.281   3.592  12.070  0.5689 -0.1301 -0.0038
  834MPD2     N12321   4.427   4.010  12.211  0.0597 -0.2265 -0.6374
  834MPD2    H512322   4.448   4.103  12.176  1.7225  0.6486  2.7258
  834MPD2    N112323   4.253   3.915  11.768 -0.1583  0.3551 -0.1965
  834MPD2    H712324   4.215   3.838  11.714 -2.3238  2.0390 -1.1074
  835MPD2     C12325   4.227   1.988  11.154  0.2287  0.1826 -0.3037
  835MPD2    C112326   4.126   2.054  11.222 -0.0587  0.4042 -0.7639
  835MPD2    C212327   4.098   2.025  11.352 -0.0022  0.0271  0.3989
  835MPD2    C312328   4.169   1.925  11.413  0.0297  0.7838  0.1958
  835MPD2    C412329   4.269   1.860  11.346 -1.3917  0.3253  0.1562
  835MPD2    C512330   4.292   1.888  11.213 -0.0519 -0.4802  0.5213
  835MPD2     H12331   4.020   2.078  11.406 -0.5577  0.0854 -0.4739
  835MPD2    H112332   4.328   1.783  11.394  2.6452  2.1967 -1.8218
  835MPD2    H212333   4.259   2.014  11.054  2.0207  0.4451  0.3399
  835MPD2    H312334   4.369   1.835  11.157 -1.2962 -0.6387 -1.0483
  835MPD2     N12335   4.152   1.891  11.551  0.2064 -0.8647 -0.4766
  835MPD2    H512336   4.210   1.812  11.574  1.0874 -0.0904 -0.0172
  835MPD2    N112337   4.066   2.175  11.173 -0.0528  0.0821 -0.5488
  835MPD2    H712338   4.010   2.224  11.242 -0.2371  0.9491 -1.3181
  836MPD2     C12339   3.691   2.277  12.015  0.1532  0.0447  0.5099
  836MPD2    C112340   3.743   2.174  12.091 -0.3754 -0.2768  0.0776
  836MPD2    C212341   3.708   2.168  12.229 -0.5648 -0.8339 -0.5089
  836MPD2    C312342   3.626   2.269  12.285  0.0663 -0.4381  0.4184
  836MPD2    C412343   3.579   2.368  12.203 -0.3591 -0.4742 -0.6960
  836MPD2    C512344   3.612   2.380  12.070 -0.4422  0.5494 -0.1434
  836MPD2     H12345   3.757   2.097  12.295 -1.2687  0.1277  1.0459
  836MPD2    H112346   3.507   2.438  12.244 -0.8173 -2.6905  2.2499
  836MPD2    H212347   3.720   2.278  11.910 -0.3786  1.9878  0.3702
  836MPD2    H312348   3.566   2.462  12.017 -1.9758 -0.7655 -0.8648
  836MPD2     N12349   3.588   2.284  12.421  0.0401 -0.1028  0.6912
  836MPD2    H512350   3.544   2.373  12.445  1.6152  0.6949  0.5963
  836MPD2    N112351   3.829   2.082  12.027 -0.1113  0.6475 -0.6165
  836MPD2    H712352   3.842   2.082  11.926  2.1503  0.0342 -0.3300
  837MPD2     C12353   2.516   1.858  10.361 -0.1080 -0.6114 -0.0455
  837MPD2    C112354   2.399   1.849  10.435  0.1791  0.0572  0.3316
  837MPD2    C212355   2.342   1.966  10.492 -0.2153 -0.5004  0.0510
  837MPD2    C312356   2.404   2.089  10.478 -0.6248 -0.3531  0.0897
  837MPD2    C412357   2.515   2.102  10.396  0.5854 -0.4594 -0.0191
  837MPD2    C512358   2.578   1.981  10.356 -1.3996  0.3506 -0.0239
  837MPD2     H12359   2.244   1.966  10.538 -0.1129 -2.3188  0.2468
  837MPD2    H112360   2.576   2.188  10.369  1.1768 -0.6322  0.7688
  837MPD2    H212361   2.570   1.770  10.328 -0.0240 -1.0282  1.1871
  837MPD2    H312362   2.679   1.975  10.316 -0.5242 -0.9914  2.4170
  837MPD2     N12363   2.330   2.194  10.524  0.3353 -0.8130  0.1573
  837MPD2    H512364   2.237   2.182  10.563  1.4277 -2.3552  2.3140
  837MPD2    N112365   2.329   1.734  10.453 -0.1074  0.3643  0.6451
  837MPD2    H712366   2.257   1.742  10.525 -0.3026 -0.4624  0.5345
  838MPD2     C12367   0.428   0.251  12.256  0.3287 -0.1687 -0.4646
  838MPD2    C112368   0.466   0.146  12.174  0.8002  0.2565  0.3280
  838MPD2    C212369   0.398   0.027  12.185  0.6969  0.3922  0.5149
  838MPD2    C312370   0.305   0.005  12.285 -0.4684  0.0010  0.5081
  838MPD2    C412371   0.280   0.104  12.375 -0.6466  0.2975  0.0639
  838MPD2    C512372   0.339   0.230  12.356 -0.1913  0.0913  0.2754
  838MPD2     H12373   0.415   4.683  12.115 -1.1515  1.2791 -0.9756
  838MPD2    H112374   0.199   0.091  12.447 -1.6367  3.9165 -0.4420
  838MPD2    H212375   0.488   0.341  12.253 -0.5166  0.4263  0.3874
  838MPD2    H312376   0.317   0.302  12.434  1.5066  0.2771  0.5808
  838MPD2     N12377   0.252   4.616  12.291  0.1152 -0.7169  0.1751
  838MPD2    H512378   0.254   4.552  12.212  0.8984  0.9243 -1.1533
  838MPD2    N112379   0.568   0.153  12.076  0.4165  0.0490  0.5924
  838MPD2    H712380   0.594   0.062  12.041 -1.8815  0.2248 -1.6323
  839MPD2     C12381   0.753   4.193  12.153  0.1206  0.5185  0.4109
  839MPD2    C112382   0.739   4.221  12.018  0.3457  0.2559 -0.5940
  839MPD2    C212383   0.775   4.346  11.969 -0.0052 -0.6977 -1.1583
  839MPD2    C312384   0.835   4.440  12.054  0.2742  0.2111  0.2909
  839MPD2    C412385   0.849   4.409  12.192 -0.3635 -0.4955  0.9119
  839MPD2    C512386   0.796   4.295  12.239  0.0088  0.3317  0.1321
  839MPD2     H12387   0.754   4.371  11.866 -1.1070 -5.3727 -2.1041
  839MPD2    H112388   0.901   4.479  12.257 -0.2551  1.5345 -1.3287
  839MPD2    H212389   0.725   4.098  12.197  2.5743 -0.1856  0.4439
  839MPD2    H312390   0.798   4.277  12.346  0.0274  0.2098  0.1101
  839MPD2     N12391   0.880   4.569  12.009 -0.3184  0.0082  0.0408
  839MPD2    H512392   0.910   4.636  12.079 -0.2324  0.5731 -0.5353
  839MPD2    N112393   0.683   4.126  11.927 -0.2962  0.2986  0.4808
  839MPD2    H712394   0.676   4.145  11.828 -0.6241 -1.3799  0.1839
  840MPD2     C12395   1.023   2.458  10.394  0.4273  0.8191 -0.7329
  840MPD2    C112396   1.029   2.380  10.514 -0.1076 -0.5155  0.1184
  840MPD2    C212397   1.089   2.444  10.625 -0.0473 -0.2390  0.2710
  840MPD2    C312398   1.149   2.571  10.614  0.9172 -0.7793 -0.4659
  840MPD2    C412399   1.144   2.634  10.492 -0.0698 -0.9839 -0.5491
  840MPD2    C512400   1.080   2.582  10.387  0.6734 -0.7255  0.1291
  840MPD2     H12401   1.091   2.402  10.725 -1.0025 -0.4537  0.1984
  840MPD2    H112402   1.196   2.728  10.475  0.4198 -1.0409  0.6150
  840MPD2    H212403   0.971   2.417  10.309 -0.7822  1.4077 -0.2744
  840MPD2    H312404   1.071   2.641  10.297  1.9152  2.0679  1.8548
  840MPD2     N12405   1.203   2.640  10.724  0.3921 -0.0012  0.1893
  840MPD2    H512406   1.266   2.717  10.705 -0.4769 -0.3147 -4.0228
  840MPD2    N112407   0.968   2.251  10.514  0.4084  0.1503 -0.0625
  840MPD2    H712408   0.924   2.220  10.428  1.1851  2.0362 -1.1233
  841MPD2     C12409   0.960   1.546  14.248 -0.1904 -0.0172  0.4630
  841MPD2    C112410   0.896   1.503  14.369  0.2808  0.0181  0.0044
  841MPD2    C212411   0.953   1.547  14.490 -0.4866 -0.1470  0.4130
  841MPD2    C312412   1.055   1.646  14.492 -0.6137 -0.3310  0.4189
  841MPD2    C412413   1.116   1.673  14.373  0.6540  0.0939 -0.3832
  841MPD2    C512414   1.076   1.622  14.261  0.0156 -0.6735  0.0452
  841MPD2     H12415   0.916   1.510  14.584  0.6204 -0.0948  0.8743
  841MPD2    H112416   1.191   1.751  14.363  1.0809 -0.4102 -1.0400
  841MPD2    H212417   0.924   1.522  14.148  1.0372  0.1974 -0.0276
  841MPD2    H312418   1.120   1.656  14.168 -0.8041 -0.0617 -0.1124
  841MPD2     N12419   1.082   1.725  14.607  0.2909  0.1098  0.6463
  841MPD2    H512420   1.044   1.682  14.690  3.8288 -0.6018  1.8932
  841MPD2    N112421   0.781   1.421  14.372  0.9531  0.0396  0.1737
  841MPD2    H712422   0.752   1.391  14.464 -0.2573 -0.8308 -0.4902
  842MPD2     C12423   0.275   2.205  16.568  0.0791 -0.1278 -0.0658
  842MPD2    C112424   0.411   2.203  16.543 -0.0676  0.0376 -0.7500
  842MPD2    C212425   0.493   2.159  16.647 -0.0851  0.1128  0.5263
  842MPD2    C312426   0.436   2.111  16.767  0.5444 -0.7087 -0.3902
  842MPD2    C412427   0.296   2.104  16.780 -0.2814 -0.0117  0.5200
  842MPD2    C512428   0.213   2.149  16.680 -0.3356 -0.2612  0.9646
  842MPD2     H12429   0.600   2.158  16.630 -0.3000 -0.2790 -0.7527
  842MPD2    H112430   0.253   2.063  16.871 -0.4723  0.2875  0.5635
  842MPD2    H212431   0.206   2.241  16.493 -0.7722  0.0128  0.7842
  842MPD2    H312432   0.105   2.140  16.686 -0.0788 -2.4986  2.4239
  842MPD2     N12433   0.523   2.080  16.875  0.5122 -0.0581 -0.3525
  842MPD2    H512434   0.483   2.066  16.967  0.1721 -3.7078 -1.0766
  842MPD2    N112435   0.460   2.252  16.423 -0.3420 -0.0745 -0.2587
  842MPD2    H712436   0.390   2.282  16.356 -1.0642  0.7978  0.8713
  843MPD2     C12437   3.512   3.691   0.801 -0.4909  0.0081  0.1259
  843MPD2    C112438   3.579   3.604   0.893  0.0025  0.1780 -0.4632
  843MPD2    C212439   3.715   3.625   0.907  0.6316  0.0310 -0.5876
  843MPD2    C312440   3.791   3.713   0.831  0.4305 -0.2602  0.2493
  843MPD2    C412441   3.724   3.796   0.746 -0.7364  0.2543 -0.1134
  843MPD2    C512442   3.585   3.788   0.733 -0.1619  0.1327  0.0394
  843MPD2     H12443   3.773   3.564   0.976 -1.2592 -1.8260 -0.6267
  843MPD2    H112444   3.781   3.856   0.676 -2.2852 -0.7100 -2.2138
  843MPD2    H212445   3.405   3.690   0.784 -0.5468 -0.8557  0.5080
  843MPD2    H312446   3.542   3.850   0.654  1.6437  0.9849 -0.2976
  843MPD2     N12447   3.933   3.731   0.842  0.1062  0.2962 -0.4168
  843MPD2    H512448   3.980   3.792   0.775  0.0135  1.6565  0.7530
  843MPD2    N112449   3.502   3.517   0.969 -0.0636 -0.3552 -0.0057
  843MPD2    H712450   3.402   3.530   0.958  0.1895 -1.4511 -3.5891
  844MPD2     C12451   1.995   1.408  16.705 -0.4132 -0.6653  0.0815
  844MPD2    C112452   1.976   1.524  16.641 -0.4863 -0.1228 -0.0130
  844MPD2    C212453   1.944   1.637  16.709  0.7098 -0.0316 -0.3108
  844MPD2    C312454   1.932   1.642  16.848  0.2728 -0.0438  0.6667
  844MPD2    C412455   1.932   1.517  16.910 -0.3002  0.1238  0.4560
  844MPD2    C512456   1.965   1.399  16.839 -0.5379 -0.0762 -0.4246
  844MPD2     H12457   1.932   1.727  16.650 -1.1641 -0.4976 -0.6224
  844MPD2    H112458   1.916   1.506  17.017  0.4895 -0.2980  0.5306
  844MPD2    H212459   2.012   1.312  16.659  2.2949 -0.4120  0.5393
  844MPD2    H312460   1.975   1.305  16.893  1.3780  0.2293 -0.2541
  844MPD2     N12461   1.921   1.767  16.915  0.6432 -0.4066 -0.6484
  844MPD2    H512462   1.909   1.850  16.859  2.0069  0.8876  0.9668
  844MPD2    N112463   2.003   1.540  16.505  0.2903 -0.3184  0.5607
  844MPD2    H712464   2.001   1.635  16.469 -0.9138 -0.8930 -0.8820
  845MPD2     C12465   1.928   2.759  17.198 -0.4112 -0.2758  0.1123
  845MPD2    C112466   2.000   2.684  17.286 -0.1210  0.3019 -0.2805
  845MPD2    C212467   2.020   2.551  17.264 -0.2338  0.1643  0.3180
  845MPD2    C312468   1.969   2.486  17.157  0.2954 -0.6219 -0.0022
  845MPD2    C412469   1.901   2.564  17.063  0.0738 -1.0723  0.3392
  845MPD2    C512470   1.891   2.696  17.079  0.3156  0.0279 -0.3777
  845MPD2     H12471   2.076   2.488  17.333 -1.4774 -0.7838  0.4631
  845MPD2    H112472   1.879   2.535  16.961  0.9252 -1.6439  0.3235
  845MPD2    H212473   1.897   2.862  17.209 -0.0719 -0.0507 -1.0493
  845MPD2    H312474   1.841   2.748  16.998 -2.1224  3.6110  3.3861
  845MPD2     N12475   1.995   2.348  17.151 -0.2674 -0.1387 -0.0867
  845MPD2    H512476   2.063   2.307  17.214  0.3415  1.9055  0.5804
  845MPD2    N112477   2.032   2.758  17.406  0.2824  0.2110  0.5230
  845MPD2    H712478   1.993   2.851  17.412  1.9609  0.9383  0.1952
  846MPD2     C12479   3.222   3.235  13.837 -0.2471 -0.0772 -0.4826
  846MPD2    C112480   3.213   3.365  13.859  0.2170 -0.1138  0.2972
  846MPD2    C212481   3.180   3.409  13.983 -0.2868 -0.0289 -0.3715
  846MPD2    C312482   3.164   3.326  14.092 -0.0630 -0.3212  0.3225
  846MPD2    C412483   3.168   3.193  14.068  0.3968 -0.4998 -0.3370
  846MPD2    C512484   3.189   3.154  13.939  0.2703 -0.3801 -0.0833
  846MPD2     H12485   3.190   3.516  14.000  0.0257 -0.0177 -0.6211
  846MPD2    H112486   3.147   3.116  14.141  0.7375  0.4820  0.8065
  846MPD2    H212487   3.236   3.195  13.737  2.2638 -1.4510  0.4138
  846MPD2    H312488   3.200   3.049  13.915 -1.1553 -0.3837 -0.7203
  846MPD2     N12489   3.148   3.368  14.227 -0.4942 -0.4981 -0.3283
  846MPD2    H512490   3.136   3.287  14.287 -0.8675  1.6397  2.4485
  846MPD2    N112491   3.243   3.466  13.764  0.4121  0.0057  0.7368
  846MPD2    H712492   3.226   3.563  13.786 -0.4032 -0.0262  0.2820
  847MPD2     C12493   3.349   4.313  14.980  0.1119 -0.0282  0.4801
  847MPD2    C112494   3.483   4.348  15.007  0.3620  0.6422  0.0300
  847MPD2    C212495   3.567   4.318  14.904 -0.0471 -0.0220  0.0670
  847MPD2    C312496   3.525   4.250  14.788 -0.3804  0.9067 -0.0147
  847MPD2    C412497   3.398   4.198  14.775 -0.3578 -0.3796  0.1919
  847MPD2    C512498   3.311   4.235  14.873  0.6389  0.4768 -0.2731
  847MPD2     H12499   3.672   4.343  14.907 -0.1383  0.1211  1.8688
  847MPD2    H112500   3.370   4.135  14.692  1.3052 -1.3668  0.3721
  847MPD2    H212501   3.275   4.334  15.057 -1.2200 -1.0626 -0.5347
  847MPD2    H312502   3.209   4.200  14.871  1.7159 -2.7010 -0.5311
  847MPD2     N12503   3.617   4.232  14.680  0.4699 -0.4420 -0.3928
  847MPD2    H512504   3.576   4.174  14.607 -0.0196 -2.9750  1.8664
  847MPD2    N112505   3.526   4.408  15.124  0.0564 -0.0106  0.8772
  847MPD2    H712506   3.464   4.466  15.179 -1.4502 -0.3837 -0.4324
  848MPD2     C12507   1.440   2.077  16.742  0.6979  1.0178  0.7227
  848MPD2    C112508   1.480   2.150  16.847 -0.0049 -0.0902 -0.2812
  848MPD2    C212509   1.499   2.289  16.846 -0.0942 -0.6355 -0.4802
  848MPD2    C312510   1.461   2.363  16.730  0.1821 -0.4573  0.3273
  848MPD2    C412511   1.400   2.290  16.631 -0.0974  0.5895  0.1610
  848MPD2    C512512   1.401   2.150  16.630 -0.1536  0.1663  0.3362
  848MPD2     H12513   1.528   2.341  16.936  0.2449 -0.0016 -0.9549
  848MPD2    H112514   1.345   2.330  16.546 -0.3030 -0.5277 -0.2279
  848MPD2    H212515   1.429   1.970  16.727 -0.8191  1.5068 -1.7633
  848MPD2    H312516   1.355   2.101  16.545 -0.6774 -2.1567  1.9728
  848MPD2     N12517   1.451   2.503  16.728  0.5896  0.6685 -0.4761
  848MPD2    H512518   1.405   2.550  16.651  0.6936 -0.0292 -0.9549
  848MPD2    N112519   1.523   2.088  16.966  0.0815  0.1324 -0.9410
  848MPD2    H712520   1.576   2.131  17.041 -0.8024  0.6348 -0.6029
  849MPD2     C12521   0.830   2.465  14.560 -0.0828  0.0970 -0.0144
  849MPD2    C112522   0.897   2.434  14.441 -0.1539  0.0721  0.1314
  849MPD2    C212523   1.037   2.428  14.443  0.0200 -0.7371  0.1944
  849MPD2    C312524   1.102   2.448  14.565  0.9904 -0.3470  0.2284
  849MPD2    C412525   1.040   2.455  14.686  1.0640  0.4527  0.4234
  849MPD2    C512526   0.902   2.467  14.680  0.3893 -0.1399  0.7278
  849MPD2     H12527   1.093   2.408  14.353 -0.8078  1.9185 -0.8954
  849MPD2    H112528   1.080   2.440  14.786 -3.1055 -2.7892  1.6005
  849MPD2    H212529   0.722   2.469  14.573 -0.1857  2.3362 -1.4469
  849MPD2    H312530   0.858   2.481  14.778  0.6572 -0.0904  0.8414
  849MPD2     N12531   1.246   2.446  14.565  0.3717 -0.0473  0.3284
  849MPD2    H512532   1.287   2.430  14.473  0.5622  0.1274  0.3827
  849MPD2    N112533   0.826   2.394  14.326  0.1446 -0.2219 -0.1913
  849MPD2    H712534   0.731   2.427  14.311  0.2926 -0.3109 -1.3442
  850MPD2     C12535   3.876   0.399  15.119 -0.1886 -0.9819  0.2131
  850MPD2    C112536   3.843   0.511  15.204 -0.1834  0.0994  0.2808
  850MPD2    C212537   3.908   0.629  15.173 -0.3302 -0.7286  0.8613
  850MPD2    C312538   4.006   0.644  15.066  0.0779 -0.0101  0.2707
  850MPD2    C412539   4.012   0.539  14.980  0.4496  0.5450  0.3392
  850MPD2    C512540   3.951   0.420  15.004 -0.2854 -0.4214 -0.7798
  850MPD2     H12541   3.899   0.713  15.241  0.2538  0.3253 -0.3517
  850MPD2    H112542   4.076   0.537  14.892 -0.0710  0.4349 -0.0390
  850MPD2    H212543   3.840   0.298  15.127  0.9455 -1.5824 -2.3458
  850MPD2    H312544   3.951   0.342  14.928  1.1315 -0.3231 -0.8737
  850MPD2     N12545   4.090   0.752  15.050 -0.2099 -0.1261 -0.4536
  850MPD2    H512546   4.153   0.741  14.971 -0.0832  0.1525 -0.3910
  850MPD2    N112547   3.771   0.490  15.326  0.5929  0.0793  0.4230
  850MPD2    H712548   3.744   0.393  15.338  1.8767 -0.5131 -1.5224
  851MPD2     C12549   4.032   0.063  15.656 -0.7025 -0.2125  0.4437
  851MPD2    C112550   3.898   0.071  15.689 -0.4960  0.4516 -0.3883
  851MPD2    C212551   3.826   4.697  15.736  1.2241  0.6391  0.4816
  851MPD2    C312552   3.888   4.579  15.743 -0.6092 -0.0959 -0.6077
  851MPD2    C412553   4.013   4.566  15.701  0.4869  0.0143  0.3646
  851MPD2    C512554   4.080   4.676  15.664  0.2287 -0.0815  0.4889
  851MPD2     H12555   3.721   4.701  15.762  1.5510  0.6836  1.7609
  851MPD2    H112556   4.067   4.472  15.704 -0.1275 -0.3677 -0.5023
  851MPD2    H212557   4.083   0.155  15.631 -1.1045 -0.3338 -0.8372
  851MPD2    H312558   4.184   4.659  15.637  0.3052 -1.1308  1.4730
  851MPD2     N12559   3.807   4.460  15.754 -0.2629 -0.3028 -0.5880
  851MPD2    H512560   3.712   4.481  15.783 -0.1411 -1.7801  0.8696
  851MPD2    N112561   3.831   0.191  15.677  0.6840  0.1726 -0.6234
  851MPD2    H712562   3.878   0.271  15.636 -0.4054 -0.3760 -2.9221
  852MPD2     C12563   4.246   3.396   9.705 -0.0718 -0.3933  0.5719
  852MPD2    C112564   4.130   3.399   9.772  0.5665 -0.5137 -0.2903
  852MPD2    C212565   4.104   3.487   9.870 -0.2238  0.3531  0.3237
  852MPD2    C312566   4.189   3.585   9.903  0.2287  0.1523  0.3162
  852MPD2    C412567   4.314   3.583   9.841  0.1071 -0.5159  0.5245
  852MPD2    C512568   4.341   3.486   9.743  0.1742 -0.1656  0.2646
  852MPD2     H12569   4.009   3.479   9.919 -0.1522 -0.4454  0.3209
  852MPD2    H112570   4.391   3.654   9.870 -2.2944  2.8588 -1.3507
  852MPD2    H212571   4.272   3.328   9.624  1.6606  0.6635  0.2264
  852MPD2    H312572   4.436   3.498   9.693  0.3171  1.1216  0.8232
  852MPD2     N12573   4.154   3.684  10.001  0.1933 -0.4539  0.0057
  852MPD2    H512574   4.058   3.671  10.032  0.2762  0.3025  0.5703
  852MPD2    N112575   4.019   3.311   9.730 -0.7679 -0.3903  0.1045
  852MPD2    H712576   3.935   3.333   9.782  0.1907 -1.6766  2.1799
  853MPD2     C12577   0.284   2.723  12.496 -0.1363 -0.2171 -0.0953
  853MPD2    C112578   0.227   2.844  12.482 -0.2879  0.0023  0.3441
  853MPD2    C212579   0.219   2.903  12.359  0.3230  0.1829  0.6978
  853MPD2    C312580   0.262   2.839  12.249 -1.0360 -0.1625  0.4016
  853MPD2    C412581   0.319   2.720  12.260 -0.4234 -0.4235 -0.1663
  853MPD2    C512582   0.325   2.658  12.380  0.0681  0.2262  0.2260
  853MPD2     H12583   0.175   3.003  12.357  1.0956  0.5136 -0.1181
  853MPD2    H112584   0.363   2.666  12.177 -2.2243  0.0320 -1.3892
  853MPD2    H212585   0.299   2.688  12.598  0.4912 -0.5057 -0.2918
  853MPD2    H312586   0.367   2.559  12.384  0.1785  0.3054  0.9043
  853MPD2     N12587   0.247   2.888  12.115  0.4105  0.4286  0.0112
  853MPD2    H512588   0.263   2.816  12.045  1.3269 -0.7472  1.4322
  853MPD2    N112589   0.172   2.891  12.604 -0.2769 -0.3726 -0.4368
  853MPD2    H712590   0.165   2.825  12.681  1.6649 -2.9285 -2.4654
  854MPD2     C12591   1.998   3.232  13.273  0.2520 -0.4254 -0.2638
  854MPD2    C112592   2.058   3.189  13.160  0.1819 -0.3997  0.2650
  854MPD2    C212593   2.114   3.062  13.142  0.3471  0.5210 -0.0633
  854MPD2    C312594   2.108   2.973  13.246 -0.0883 -0.0555 -0.3296
  854MPD2    C412595   2.047   3.013  13.364  0.3190 -0.0902 -0.2549
  854MPD2    C512596   1.994   3.138  13.378  0.2753 -0.5753 -0.8130
  854MPD2     H12597   2.168   3.042  13.051  0.0634 -2.1018  0.3525
  854MPD2    H112598   2.049   2.951  13.452 -2.6813  1.6951  1.0859
  854MPD2    H212599   1.958   3.332  13.281 -0.2243 -0.6240 -0.1564
  854MPD2    H312600   1.960   3.175  13.474  1.0219  0.7647 -1.0802
  854MPD2     N12601   2.170   2.845  13.252  0.3118  0.5023  0.2960
  854MPD2    H512602   2.173   2.798  13.342  0.8269  1.4950  0.7998
  854MPD2    N112603   2.076   3.288  13.061 -0.0494 -0.2199 -0.1327
  854MPD2    H712604   2.057   3.383  13.090 -2.4299 -0.8656  0.4550
  855MPD2     C12605   2.630   2.941  13.898  0.5103 -0.7321 -0.6122
  855MPD2    C112606   2.637   2.805  13.895 -0.1389  0.5342 -0.0711
  855MPD2    C212607   2.600   2.743  13.769 -0.0400 -0.2335  0.0707
  855MPD2    C312608   2.550   2.813  13.668  1.0309 -0.0767  0.2439
  855MPD2    C412609   2.534   2.948  13.677  0.1391 -0.0518 -0.4216
  855MPD2    C512610   2.574   3.012  13.792  0.0656 -0.1419 -0.2149
  855MPD2     H12611   2.612   2.635  13.769  1.1467 -0.1086  1.9962
  855MPD2    H112612   2.497   3.018  13.604 -0.5876 -1.3984 -1.3372
  855MPD2    H212613   2.655   2.995  13.988 -1.2838 -1.9537  0.6225
  855MPD2    H312614   2.559   3.118  13.811 -0.8715 -0.0254 -1.5834
  855MPD2     N12615   2.516   2.764  13.544  0.5793  0.0547 -0.0945
  855MPD2    H512616   2.470   2.828  13.480 -0.7222 -0.0968  0.6784
  855MPD2    N112617   2.678   2.718  13.995 -0.1864 -0.0974  0.2095
  855MPD2    H712618   2.666   2.622  13.966  0.1321 -0.1447  0.2413
  856MPD2     C12619   0.159   3.377  14.355 -0.6085 -0.3888  0.5044
  856MPD2    C112620   0.181   3.495  14.304 -0.1618 -0.2866 -0.3677
  856MPD2    C212621   0.069   3.566  14.258  0.8365  0.2089  0.7950
  856MPD2    C312622   4.678   3.523  14.269  0.2008  0.2079  0.7928
  856MPD2    C412623   4.665   3.394  14.321 -0.3754 -1.0763 -0.2189
  856MPD2    C512624   0.037   3.320  14.355 -0.7102 -0.0839  0.2099
  856MPD2     H12625   0.093   3.661  14.213  0.4064 -0.4357 -0.7749
  856MPD2    H112626   4.570   3.347  14.345 -0.0983 -1.1196  0.8148
  856MPD2    H212627   0.235   3.302  14.371  0.4267  0.2869 -1.2227
  856MPD2    H312628   0.031   3.219  14.393  1.8926 -1.0771 -1.9633
  856MPD2     N12629   4.568   3.599  14.231 -0.7053  0.1079 -0.3214
  856MPD2    H512630   4.478   3.553  14.226 -1.0771  0.8104 -0.1170
  856MPD2    N112631   0.308   3.563  14.309 -0.8552 -0.2121 -0.3045
  856MPD2    H712632   0.306   3.659  14.277  1.9984 -0.8935 -2.5534
  857MPD2     C12633   1.421   0.689  13.263 -0.3215  0.3137 -0.3668
  857MPD2    C112634   1.418   0.804  13.188  0.0350 -0.6327  0.7618
  857MPD2    C212635   1.438   0.927  13.235  0.0133  0.1224  0.0162
  857MPD2    C312636   1.459   0.942  13.371 -1.4883  0.2309 -0.4516
  857MPD2    C412637   1.472   0.820  13.447 -0.2708 -0.3487 -0.3815
  857MPD2    C512638   1.450   0.696  13.395 -0.4961  0.0029  0.4263
  857MPD2     H12639   1.425   1.010  13.167  1.7336  2.6338  2.7601
  857MPD2    H112640   1.500   0.825  13.552  0.9226  2.0852 -0.8161
  857MPD2    H212641   1.381   0.594  13.231  2.2850 -0.7598 -0.4208
  857MPD2    H312642   1.454   0.605  13.454  0.8619  1.3831  2.4271
  857MPD2     N12643   1.496   1.069  13.417 -0.2379  0.3603  0.1424
  857MPD2    H512644   1.481   1.145  13.350  2.7319 -0.7899 -1.8402
  857MPD2    N112645   1.382   0.789  13.050 -0.0112 -0.5355  0.1179
  857MPD2    H712646   1.335   0.706  13.016 -0.8470 -0.4878  1.1503
  858MPD2     C12647   2.503   0.316  16.746 -0.1149  0.0442  0.4698
  858MPD2    C112648   2.505   0.182  16.777  0.1419 -0.3408 -0.8643
  858MPD2    C212649   2.489   0.147  16.911 -0.4488 -0.1956  1.1236
  858MPD2    C312650   2.487   0.240  17.013  0.1734  1.0408  0.1356
  858MPD2    C412651   2.487   0.370  16.974 -0.0479  0.6259 -0.1334
  858MPD2    C512652   2.499   0.407  16.842  0.3688 -0.5573 -0.7361
  858MPD2     H12653   2.459   0.046  16.938 -0.5314 -0.0422  1.6007
  858MPD2    H112654   2.490   0.454  17.043  0.2887 -0.0251  0.6365
  858MPD2    H212655   2.500   0.344  16.641 -0.2726 -1.9909 -0.0605
  858MPD2    H312656   2.504   0.512  16.815  0.6004  0.6032  3.9252
  858MPD2     N12657   2.472   0.210  17.148 -0.1800 -0.2358  0.7441
  858MPD2    H512658   2.453   0.286  17.213 -1.2266  0.6077 -0.5384
  858MPD2    N112659   2.501   0.092  16.667  0.3318 -0.0447 -0.7400
  858MPD2    H712660   2.483   0.138  16.579  2.7173 -1.4971 -1.9967
  859MPD2     C12661   0.613   2.184  15.589 -0.7083 -0.3441  0.3605
  859MPD2    C112662   0.748   2.197  15.603 -0.2587 -0.6771  0.3648
  859MPD2    C212663   0.822   2.104  15.677 -0.2338  0.0253  0.7565
  859MPD2    C312664   0.758   1.976  15.704 -0.2457 -0.4287  0.0731
  859MPD2    C412665   0.626   1.962  15.669  0.1312 -0.4256  0.1255
  859MPD2    C512666   0.552   2.064  15.619 -0.0650 -0.6151  0.0781
  859MPD2     H12667   0.924   2.125  15.705 -0.3163  1.0690  0.2695
  859MPD2    H112668   0.576   1.868  15.693 -0.8756  0.5763  1.9496
  859MPD2    H212669   0.559   2.262  15.537  1.5289  0.3300 -0.9825
  859MPD2    H312670   0.450   2.042  15.589  0.3722 -2.8849  0.2449
  859MPD2     N12671   0.837   1.871  15.753  0.6159  0.3882 -0.4246
  859MPD2    H512672   0.796   1.779  15.757  2.2691 -0.3844 -1.2537
  859MPD2    N112673   0.805   2.312  15.541 -0.8369  0.1243  0.0094
  859MPD2    H712674   0.754   2.386  15.493  0.6345  1.5042  0.5515
  860MPD2     C12675   3.226   3.060  11.794  0.2099 -0.9789  0.1277
  860MPD2    C112676   3.172   3.112  11.907 -0.0863  0.4663 -0.3934
  860MPD2    C212677   3.059   3.052  11.968  0.4011  0.4212 -0.2891
  860MPD2    C312678   3.010   2.933  11.919 -0.1656  0.5011 -0.3409
  860MPD2    C412679   3.067   2.878  11.810  0.2824 -1.2163 -0.0714
  860MPD2    C512680   3.167   2.948  11.745 -0.0343 -0.2466 -0.3517
  860MPD2     H12681   3.025   3.082  12.066  0.0925  0.0348 -0.2786
  860MPD2    H112682   3.042   2.779  11.773 -0.8855 -1.4670  1.3975
  860MPD2    H212683   3.303   3.111  11.737 -0.8086  2.0590  1.4708
  860MPD2    H312684   3.213   2.909  11.655 -0.3925 -0.7242 -0.3298
  860MPD2     N12685   2.921   2.863  11.999  0.3874  0.0280 -0.1900
  860MPD2    H512686   2.885   2.911  12.081  0.8558 -1.3563  0.8232
  860MPD2    N112687   3.215   3.230  11.967 -0.2910 -0.4463 -0.0586
  860MPD2    H712688   3.162   3.266  12.045  1.9464 -1.7613  2.0680
  861MPD2     C12689   1.809   1.023  11.210 -0.4835 -0.6696  0.0872
  861MPD2    C112690   1.711   1.009  11.304  0.3294  0.4999 -0.4614
  861MPD2    C212691   1.589   1.067  11.274  0.2356  0.5296 -0.7455
  861MPD2    C312692   1.570   1.139  11.156  0.1723 -0.3640 -0.3009
  861MPD2    C412693   1.675   1.143  11.059  0.3341  0.1255 -0.3428
  861MPD2    C512694   1.792   1.072  11.083 -0.2634  0.7937  0.3176
  861MPD2     H12695   1.522   1.076  11.359 -1.9189  0.5525 -2.4302
  861MPD2    H112696   1.666   1.196  10.965 -0.2526 -0.6146 -0.7012
  861MPD2    H212697   1.910   0.986  11.224 -1.5031 -2.1064  3.5617
  861MPD2    H312698   1.868   1.065  11.006  0.1789  0.1908  0.8137
  861MPD2     N12699   1.457   1.220  11.126  0.2322 -0.0181 -0.2375
  861MPD2    H512700   1.467   1.274  11.041  0.8843  2.0452  1.1369
  861MPD2    N112701   1.741   0.945  11.428  0.3829  0.1752 -0.4193
  861MPD2    H712702   1.673   0.940  11.504  0.7011  0.6432 -0.1021
  862MPD2     C12703   1.124   1.580  10.599  0.4635 -0.1851 -0.7044
  862MPD2    C112704   1.149   1.474  10.678  0.2997  0.2339 -0.0409
  862MPD2    C212705   1.113   1.354  10.625  0.0789 -0.4018  0.1061
  862MPD2    C312706   1.058   1.338  10.500 -0.1894  0.0943 -0.3313
  862MPD2    C412707   1.031   1.446  10.424 -0.3817 -1.2692 -0.4981
  862MPD2    C512708   1.059   1.571  10.480 -0.0513 -0.1323  0.2077
  862MPD2     H12709   1.112   1.264  10.686 -0.4957 -1.1643 -1.0249
  862MPD2    H112710   0.975   1.440  10.331 -1.7308  1.5648  0.1367
  862MPD2    H212711   1.123   1.681  10.638 -0.9882 -0.8447  0.9392
  862MPD2    H312712   1.041   1.663  10.426  1.9868  0.1150 -0.0537
  862MPD2     N12713   1.026   1.210  10.454  0.4769 -0.3171  0.5994
  862MPD2    H512714   0.951   1.206  10.385 -0.7979 -0.9618  2.0118
  862MPD2    N112715   1.198   1.483  10.808 -0.1948 -0.4051  0.3849
  862MPD2    H712716   1.212   1.396  10.860 -1.0576 -0.5101  0.4359
  863MPD2     C12717   0.966   3.756  16.660  0.4980 -0.1192  0.7935
  863MPD2    C112718   0.926   3.831  16.772  0.6553 -0.3166 -0.5765
  863MPD2    C212719   1.010   3.833  16.885 -0.9378  0.0383  0.1559
  863MPD2    C312720   1.116   3.739  16.883 -0.0413 -1.1288  0.4847
  863MPD2    C412721   1.155   3.671  16.774  0.0313  0.6289 -0.0897
  863MPD2    C512722   1.077   3.685  16.660 -0.3078 -0.2975  0.6815
  863MPD2     H12723   0.992   3.906  16.963 -1.4361 -0.3003  0.3561
  863MPD2    H112724   1.234   3.597  16.771 -1.2816 -0.7927  0.3793
  863MPD2    H212725   0.902   3.755  16.573 -0.1506  2.8434  1.2308
  863MPD2    H312726   1.092   3.625  16.570  2.1684  2.3747 -0.6873
  863MPD2     N12727   1.202   3.720  16.996 -0.1217 -0.6093 -0.4443
  863MPD2    H512728   1.276   3.653  16.980  0.4012 -0.4920  1.5103
  863MPD2    N112729   0.808   3.909  16.765  0.6803  0.2901 -0.0010
  863MPD2    H712730   0.765   3.923  16.674  1.2441 -0.7042 -0.4180
  864MPD2     C12731   1.195   0.029  17.609  0.6379  0.5311 -0.1165
  864MPD2    C112732   1.245   4.711  17.496 -0.4169 -0.6719 -0.2517
  864MPD2    C212733   1.337   0.050  17.422  0.7753  0.9699  0.5461
  864MPD2    C312734   1.370   0.176  17.463  0.4602  0.0336  0.3849
  864MPD2    C412735   1.321   0.231  17.577  0.1973  0.1276  0.9572
  864MPD2    C512736   1.232   0.157  17.646 -0.4751  0.1770  0.5832
  864MPD2     H12737   1.375   0.017  17.327  2.1420  1.7285  0.8359
  864MPD2    H112738   1.338   0.332  17.612 -0.7740  0.7410 -0.3463
  864MPD2    H212739   1.142   4.701  17.678 -1.3559  0.1473 -2.0101
  864MPD2    H312740   1.201   0.187  17.745 -0.4723  0.9657  0.3489
  864MPD2     N12741   1.473   0.250  17.399  0.1912  0.0269  0.0846
  864MPD2    H512742   1.477   0.350  17.417  2.7896  0.0386 -0.4755
  864MPD2    N112743   1.192   4.591  17.448  0.1874 -0.7026  0.0297
  864MPD2    H712744   1.116   4.551  17.502  0.4379  1.7699  2.2042
  865MPD2     C12745   1.254   0.750  16.724  0.0133  0.1504  0.1036
  865MPD2    C112746   1.224   0.621  16.755 -0.7426 -0.6612 -0.1933
  865MPD2    C212747   1.287   0.565  16.862 -1.0276  0.7171  0.1051
  865MPD2    C312748   1.382   0.636  16.933 -0.1871 -0.5937 -0.5577
  865MPD2    C412749   1.405   0.768  16.897  0.8447  0.0574  0.2902
  865MPD2    C512750   1.334   0.828  16.798 -0.2575 -0.1289 -0.7347
  865MPD2     H12751   1.279   0.460  16.890 -2.0243  0.6563 -0.3969
  865MPD2    H112752   1.491   0.817  16.943  0.3395  0.8668  0.3677
  865MPD2    H212753   1.212   0.796  16.635  1.1605  0.0078 -0.4984
  865MPD2    H312754   1.347   0.929  16.762  1.4707  0.2986  1.1027
  865MPD2     N12755   1.464   0.576  17.027  0.2275 -0.0201  0.1820
  865MPD2    H512756   1.442   0.479  17.048 -0.6115 -0.3342 -2.2161
  865MPD2    N112757   1.162   0.546  16.660  0.0826  0.0533 -0.6729
  865MPD2    H712758   1.145   0.590  16.570  1.4679  1.7368 -0.1152
  866MPD2     C12759   2.540   1.447  11.425  0.4235 -0.1604  0.4420
  866MPD2    C112760   2.478   1.328  11.399  0.0655 -0.0149  0.2887
  866MPD2    C212761   2.339   1.324  11.381 -0.1306  0.3487  0.0702
  866MPD2    C312762   2.256   1.439  11.391 -0.3576 -0.1322  0.6680
  866MPD2    C412763   2.320   1.544  11.445  0.8925 -0.4472  0.1567
  866MPD2    C512764   2.458   1.556  11.462 -0.8645 -0.7572  0.0678
  866MPD2     H12765   2.291   1.230  11.358  0.8931  0.3150 -1.8779
  866MPD2    H112766   2.265   1.628  11.486  0.6410 -0.0498 -1.0086
  866MPD2    H212767   2.647   1.451  11.437  0.2686 -0.5740  1.9062
  866MPD2    H312768   2.491   1.649  11.506 -1.5350 -1.1156  1.3398
  866MPD2     N12769   2.118   1.438  11.380 -0.4469 -0.1252  0.2125
  866MPD2    H512770   2.077   1.529  11.396 -2.0614  0.0681 -4.9657
  866MPD2    N112771   2.557   1.215  11.396 -0.2723  0.1507 -0.2008
  866MPD2    H712772   2.657   1.232  11.409 -0.5194  0.9429  0.6536
  867MPD2     C12773   4.382   0.137  16.592 -0.3071  0.4599  0.0114
  867MPD2    C112774   4.450   0.068  16.683 -0.0159  0.1416 -0.4773
  867MPD2    C212775   4.503   0.137  16.794  0.5223  0.3635 -0.6071
  867MPD2    C312776   4.485   0.277  16.800  0.5283  0.8402  0.2087
  867MPD2    C412777   4.409   0.347  16.705 -0.0159 -0.0598 -0.3037
  867MPD2    C512778   4.359   0.271  16.600 -0.4840  0.4483  0.0999
  867MPD2     H12779   4.562   0.086  16.870 -1.0033  0.2537  0.5222
  867MPD2    H112780   4.396   0.454  16.716  0.1993 -0.1129  0.4511
  867MPD2    H212781   4.327   0.081  16.517  3.7125 -1.3908 -1.5855
  867MPD2    H312782   4.289   0.327  16.539 -1.8328 -0.5452  0.7288
  867MPD2     N12783   4.568   0.351  16.892  0.0768 -0.4120 -0.2080
  867MPD2    H512784   4.549   0.450  16.903 -1.5957 -0.9584  2.0156
  867MPD2    N112785   4.466   4.670  16.667  0.0306  0.3724  0.4273
  867MPD2    H712786   4.414   4.623  16.593  2.2675 -1.4829  0.0269
  868MPD2     C12787   2.232   4.512  13.179 -0.2585  0.0905 -0.0353
  868MPD2    C112788   2.279   4.475  13.305 -0.2808 -0.5303 -0.5463
  868MPD2    C212789   2.193   4.477  13.411 -0.2491 -0.5012 -0.3052
  868MPD2    C312790   2.054   4.491  13.397 -0.1070 -0.3305 -0.5601
  868MPD2    C412791   2.011   4.530  13.270  0.0764 -0.1053  0.2911
  868MPD2    C512792   2.103   4.546  13.171 -0.3239  0.3559 -0.3583
  868MPD2     H12793   2.230   4.460  13.512 -2.9281 -1.1311  0.5898
  868MPD2    H112794   1.908   4.554  13.246  0.9659  2.1904 -1.2585
  868MPD2    H212795   2.293   4.506  13.090  1.5164  0.2942  1.1777
  868MPD2    H312796   2.062   4.584  13.078 -0.1536 -0.7445 -0.8891
  868MPD2     N12797   1.966   4.495  13.510  0.0905 -0.0615 -0.1652
  868MPD2    H512798   2.008   4.483  13.601  0.7540  0.9563 -0.3410
  868MPD2    N112799   2.400   4.407  13.307 -0.0466  0.1319 -0.6304
  868MPD2    H712800   2.456   4.399  13.223 -0.9398 -2.1049 -1.0145
  869MPD2     C12801   2.943   1.914   1.471 -0.2998 -0.6141 -0.0958
  869MPD2    C112802   3.016   2.013   1.405  0.4808 -0.6753  0.0783
  869MPD2    C212803   3.134   2.064   1.469 -0.1979 -0.0295 -0.7182
  869MPD2    C312804   3.192   2.006   1.580 -0.2153  0.2653  0.4472
  869MPD2    C412805   3.124   1.903   1.634  0.1037 -0.3317 -0.5586
  869MPD2    C512806   3.001   1.864   1.585 -0.1904 -0.2920  0.3877
  869MPD2     H12807   3.199   2.127   1.410 -1.6503 -0.9879 -3.3606
  869MPD2    H112808   3.157   1.858   1.727 -0.1947  0.0912 -0.2482
  869MPD2    H212809   2.842   1.885   1.446 -0.3290  0.4418 -1.1790
  869MPD2    H312810   2.947   1.781   1.629 -0.2030 -0.4370  0.0987
  869MPD2     N12811   3.318   2.044   1.632 -0.5906  0.4824  0.2621
  869MPD2    H512812   3.359   1.985   1.703 -0.8184  1.4648  1.2150
  869MPD2    N112813   2.967   2.056   1.279  0.2454  0.4279  0.5724
  869MPD2    H712814   2.871   2.029   1.261 -0.0805  1.8861  0.1138
  870MPD2     C12815   2.713   0.483   1.977 -0.1070 -0.3423 -0.1531
  870MPD2    C112816   2.833   0.520   1.924 -0.5961  1.0199 -0.2783
  870MPD2    C212817   2.847   0.640   1.861 -0.5498  0.0954 -0.1734
  870MPD2    C312818   2.737   0.716   1.838 -0.0560  0.5827  0.5954
  870MPD2    C412819   2.616   0.678   1.890 -0.2200 -0.2780  0.4695
  870MPD2    C512820   2.605   0.559   1.961  0.4775  0.1341 -0.3324
  870MPD2     H12821   2.941   0.660   1.809 -0.5578 -1.1456 -0.6699
  870MPD2    H112822   2.525   0.733   1.869  0.5468  0.2723 -1.3506
  870MPD2    H212823   2.721   0.383   2.019 -1.5849 -0.6661 -0.6550
  870MPD2    H312824   2.507   0.524   1.993  1.4097  0.1332  2.5225
  870MPD2     N12825   2.748   0.825   1.748 -0.1118 -0.5484  0.7082
  870MPD2    H512826   2.829   0.820   1.687 -1.5339  1.9567 -1.3639
  870MPD2    N112827   2.938   0.435   1.944 -0.7200 -0.3154  0.2536
  870MPD2    H712828   2.912   0.340   1.969 -1.5245 -0.6989 -2.0519
  871MPD2     C12829   4.071   0.661  16.469 -0.2217  0.8530 -0.4257
  871MPD2    C112830   4.015   0.606  16.581 -0.2833 -0.0502  0.3853
  871MPD2    C212831   3.967   0.471  16.576 -0.0695  0.0494  0.7176
  871MPD2    C312832   3.998   0.395  16.465 -0.4991  0.3965 -0.6537
  871MPD2    C412833   4.059   0.449  16.353  0.2284  0.4377 -0.0189
  871MPD2    C512834   4.087   0.585  16.358 -0.0189 -1.1366 -0.3723
  871MPD2     H12835   3.909   0.434  16.660  0.2267 -2.1826 -0.0707
  871MPD2    H112836   4.077   0.395  16.261  1.0916  1.7266 -0.6111
  871MPD2    H212837   4.117   0.759  16.467 -1.0457  1.2397 -0.2080
  871MPD2    H312838   4.130   0.637  16.274 -1.1733  0.5539  0.0903
  871MPD2     N12839   3.966   0.258  16.473  0.2345  0.5313 -0.3998
  871MPD2    H512840   3.908   0.236  16.554  0.6871 -1.2364 -0.5626
  871MPD2    N112841   4.022   0.684  16.700  0.1760 -0.4663  0.4545
  871MPD2    H712842   4.045   0.782  16.701  1.4700 -0.7629  0.0258
  872MPD2     C12843   4.388   3.357  13.832 -0.2229  0.0041 -0.3305
  872MPD2    C112844   4.466   3.315  13.937 -0.3883  0.2789  0.0378
  872MPD2    C212845   4.411   3.243  14.043  0.1306 -0.2214  0.4009
  872MPD2    C312846   4.274   3.222  14.047 -0.1161 -0.4745 -0.8371
  872MPD2    C412847   4.197   3.252  13.944  0.9255  0.1264 -0.4508
  872MPD2    C512848   4.251   3.325  13.840  0.0505 -0.3442 -0.4345
  872MPD2     H12849   4.474   3.214  14.126  1.7796 -1.2259 -1.1872
  872MPD2    H112850   4.089   3.242  13.944  1.2492 -3.4459  3.7221
  872MPD2    H212851   4.433   3.418  13.755 -0.1931 -3.4565 -3.0478
  872MPD2    H312852   4.183   3.357  13.762  0.0678 -3.1092 -1.5908
  872MPD2     N12853   4.201   3.170  14.160  0.2538 -0.2911  0.4173
  872MPD2    H512854   4.101   3.165  14.143  0.2812  1.6937 -0.3449
  872MPD2    N112855   4.595   3.368  13.931 -0.3477 -0.0241 -0.4399
  872MPD2    H712856   4.622   3.436  13.860 -2.8301  0.7054 -0.6784
  873MPD2     C12857   0.988   2.660   0.541  0.5427 -0.0919  0.0890
  873MPD2    C112858   1.096   2.620   0.617 -0.2596 -0.2479  0.6344
  873MPD2    C212859   1.183   2.521   0.571 -0.7277  0.2543  0.5384
  873MPD2    C312860   1.169   2.468   0.442 -0.0694 -0.6898  0.0666
  873MPD2    C412861   1.059   2.509   0.370  0.4676 -0.5342 -0.2632
  873MPD2    C512862   0.970   2.600   0.421 -0.7475 -0.6325  0.4620
  873MPD2     H12863   1.254   2.474   0.638  0.0598  0.1620 -0.3637
  873MPD2    H112864   1.046   2.491   0.264 -0.7276  1.7825 -0.5134
  873MPD2    H212865   0.912   2.728   0.577  0.2726  1.4035 -3.2951
  873MPD2    H312866   0.888   2.634   0.358 -0.8133 -2.2794 -0.3575
  873MPD2     N12867   1.255   2.373   0.386 -0.5433  0.4380 -0.5033
  873MPD2    H512868   1.233   2.326   0.299  0.5519 -0.0385 -0.5287
  873MPD2    N112869   1.106   2.684   0.741  0.4186 -0.3479  0.3918
  873MPD2    H712870   1.025   2.730   0.781 -0.6934  0.2271 -2.4665
  874MPD2     C12871   1.021   2.901  16.151  0.3973 -0.4264  0.2094
  874MPD2    C112872   1.012   2.791  16.233  0.4196 -0.3018 -0.0971
  874MPD2    C212873   1.096   2.780  16.348 -0.6440  0.4589 -0.1271
  874MPD2    C312874   1.180   2.891  16.371 -0.9291 -0.2559  0.0820
  874MPD2    C412875   1.197   2.992  16.277 -0.0709  0.3796  0.9683
  874MPD2    C512876   1.114   3.001  16.171 -0.1690 -0.3141  0.0758
  874MPD2     H12877   1.078   2.702  16.420 -4.5987  1.4869 -0.0165
  874MPD2    H112878   1.272   3.071  16.277  1.3425 -0.9580 -1.9895
  874MPD2    H212879   0.958   2.907  16.063 -0.9877  0.7251  1.2854
  874MPD2    H312880   1.127   3.084  16.102  0.4156 -0.9359 -0.5604
  874MPD2     N12881   1.260   2.870  16.481 -0.3724 -0.2474  0.4741
  874MPD2    H512882   1.234   2.788  16.535  0.2916  0.3228  1.6588
  874MPD2    N112883   0.906   2.699  16.198  0.9312 -0.1886  0.1091
  874MPD2    H712884   0.851   2.735  16.120 -0.6954 -1.5108  0.6407
  875MPD2     C12885   2.181   1.323  14.633 -0.1134 -0.0238  0.0947
  875MPD2    C112886   2.092   1.380  14.728 -0.4452 -0.3069  0.4688
  875MPD2    C212887   2.129   1.437  14.846  0.0785 -0.1295 -0.3803
  875MPD2    C312888   2.267   1.450  14.883  0.6943 -0.4611 -0.7913
  875MPD2    C412889   2.354   1.409  14.780 -0.2829 -0.2601 -0.3131
  875MPD2    C512890   2.309   1.346  14.662 -0.2667  0.3549 -0.2116
  875MPD2     H12891   2.057   1.485  14.912  0.7039  0.0748  0.1558
  875MPD2    H112892   2.461   1.404  14.797 -0.1582  0.5223 -0.9198
  875MPD2    H212893   2.148   1.266  14.547 -1.0950  1.8029 -0.7345
  875MPD2    H312894   2.379   1.301  14.592  0.1528  1.8521 -0.7726
  875MPD2     N12895   2.325   1.525  14.997  0.1789 -0.0623  0.3687
  875MPD2    H512896   2.426   1.524  15.010  0.3070 -2.0324 -0.7183
  875MPD2    N112897   1.953   1.372  14.704  0.2765 -0.4677 -0.1285
  875MPD2    H712898   1.902   1.402  14.786 -0.8979 -0.0694 -0.9908
  876MPD2     C12899   0.945   2.612  15.847 -0.6195 -0.6162 -0.0086
  876MPD2    C112900   1.074   2.640  15.890 -0.2191 -0.0654 -0.1104
  876MPD2    C212901   1.142   2.546  15.961 -0.5928  0.2242  0.1684
  876MPD2    C312902   1.084   2.429  15.989 -0.4978  0.0597 -0.0950
  876MPD2    C412903   0.958   2.395  15.945 -0.0058  0.6733 -0.1783
  876MPD2    C512904   0.895   2.490  15.867 -0.0013  0.1086 -0.1496
  876MPD2     H12905   1.244   2.565  15.992 -0.6988  2.4112 -0.8461
  876MPD2    H112906   0.914   2.297  15.958  2.1165 -0.2934 -0.4435
  876MPD2    H212907   0.883   2.685  15.796 -0.8889  0.4262  1.8014
  876MPD2    H312908   0.799   2.478  15.818 -0.0633  0.3308 -0.0841
  876MPD2     N12909   1.168   2.338  16.062  0.1255 -0.6132 -0.5389
  876MPD2    H512910   1.269   2.350  16.061  0.0176  0.3145 -0.5232
  876MPD2    N112911   1.140   2.761  15.860  0.0699 -0.0408  0.5097
  876MPD2    H712912   1.240   2.764  15.879  0.2635 -1.1647 -0.2906
  877MPD2     C12913   1.169   3.322  15.241  0.3547 -0.3049  0.2160
  877MPD2    C112914   1.290   3.296  15.305  0.3156 -0.7673 -0.4733
  877MPD2    C212915   1.406   3.332  15.242  0.3334  0.6246  0.4146
  877MPD2    C312916   1.405   3.382  15.110 -0.0052 -0.1058  0.4892
  877MPD2    C412917   1.286   3.396  15.042 -0.4902  0.4734 -0.4878
  877MPD2    C512918   1.169   3.366  15.107 -0.1232 -0.4029 -0.2039
  877MPD2     H12919   1.495   3.333  15.304  0.7638 -1.5345 -0.1789
  877MPD2    H112920   1.291   3.406  14.934  1.3457  1.5346 -0.3094
  877MPD2    H212921   1.068   3.307  15.277 -0.2212  0.0486 -1.2541
  877MPD2    H312922   1.074   3.368  15.055 -0.4183 -0.1260  0.3487
  877MPD2     N12923   1.525   3.412  15.042  0.2441  0.1058  0.0460
  877MPD2    H512924   1.514   3.417  14.941 -0.5223 -0.3992  0.0973
  877MPD2    N112925   1.302   3.262  15.440  0.3698  0.2267  0.2381
  877MPD2    H712926   1.397   3.246  15.471  0.3825 -0.8847 -0.3926
  878MPD2     C12927   0.808   2.130  13.259 -0.1873  0.0335 -0.5428
  878MPD2    C112928   0.791   2.265  13.279 -0.5049  0.1973  0.1969
  878MPD2    C212929   0.805   2.318  13.405  0.0682 -0.5478  0.6983
  878MPD2    C312930   0.837   2.231  13.508 -0.8388  0.6002  0.4736
  878MPD2    C412931   0.853   2.098  13.488 -0.5973 -0.5692  0.3066
  878MPD2    C512932   0.825   2.045  13.363  0.3922  0.6871  0.1551
  878MPD2     H12933   0.785   2.421  13.433 -0.2178 -1.5241  4.0371
  878MPD2    H112934   0.860   2.023  13.566 -2.7605 -0.7611  0.3006
  878MPD2    H212935   0.776   2.078  13.170  0.3872  0.4054 -0.9671
  878MPD2    H312936   0.824   1.936  13.359  1.2267  0.7464 -1.9673
  878MPD2     N12937   0.857   2.282  13.646  0.2807  0.3050  0.5453
  878MPD2    H512938   0.836   2.380  13.663  1.5438  0.3676  1.7358
  878MPD2    N112939   0.757   2.345  13.165 -0.4503  0.1585 -0.1469
  878MPD2    H712940   0.754   2.304  13.072 -0.1447 -0.0450 -0.0637
  879MPD2     C12941   1.381   3.103  17.347  0.6955  0.5201  0.0773
  879MPD2    C112942   1.412   3.202  17.259 -0.6220  0.6247  0.0865
  879MPD2    C212943   1.355   3.199  17.134 -0.1093  0.3131  0.5037
  879MPD2    C312944   1.266   3.104  17.103 -0.1426 -0.0782  0.2201
  879MPD2    C412945   1.239   3.005  17.193  0.1183 -0.3228  0.0077
  879MPD2    C512946   1.295   3.007  17.315 -0.8696  0.1481 -0.0988
  879MPD2     H12947   1.385   3.274  17.061 -3.6293  1.1064 -0.0874
  879MPD2    H112948   1.172   2.922  17.175 -0.0061 -0.6573  1.9865
  879MPD2    H212949   1.429   3.101  17.444  1.4777 -3.6164 -0.4068
  879MPD2    H312950   1.263   2.938  17.392  0.5670  0.6788  0.9850
  879MPD2     N12951   1.195   3.096  16.976 -0.3033  0.0432 -0.4370
  879MPD2    H512952   1.146   3.012  16.947 -0.3326  0.5990 -2.0261
  879MPD2    N112953   1.500   3.305  17.304 -0.0694  0.3553  0.1241
  879MPD2    H712954   1.526   3.308  17.402  2.2075 -1.4836 -0.4390
  880MPD2     C12955   3.185   0.460   0.464 -0.5450 -0.2807 -0.6681
  880MPD2    C112956   3.230   0.484   0.594  0.4726  0.1508  0.6180
  880MPD2    C212957   3.205   0.396   0.696  0.5354 -0.0248 -0.2204
  880MPD2    C312958   3.129   0.285   0.674  0.9990 -0.4519 -0.4021
  880MPD2    C412959   3.084   0.258   0.550 -0.0045 -0.5114  0.5021
  880MPD2    C512960   3.116   0.339   0.446  0.1408  0.0237 -0.0292
  880MPD2     H12961   3.236   0.411   0.799  1.6233 -2.4125 -0.2044
  880MPD2    H112962   3.019   0.173   0.533 -1.5701  0.6960  0.4112
  880MPD2    H212963   3.206   0.526   0.380 -0.6513 -0.9311 -1.2077
  880MPD2    H312964   3.063   0.320   0.354  1.3140 -2.4308 -0.2135
  880MPD2     N12965   3.103   0.193   0.782 -0.1548 -0.3678  0.1900
  880MPD2    H512966   3.157   0.208   0.866  1.4241 -0.5267 -0.7932
  880MPD2    N112967   3.300   0.604   0.606  0.1692 -0.0010 -0.0690
  880MPD2    H712968   3.291   0.672   0.531 -0.6666  0.5937  0.5691
  881MPD2     C12969   3.102   1.451   0.221  0.5919  0.2483 -0.4829
  881MPD2    C112970   3.202   1.357   0.186 -0.0438 -0.0209 -0.2154
  881MPD2    C212971   3.251   1.274   0.288 -0.1307 -0.5187  0.8018
  881MPD2    C312972   3.192   1.271   0.411  0.7786  0.3160  0.3368
  881MPD2    C412973   3.092   1.356   0.441 -0.0824 -0.6116 -0.0404
  881MPD2    C512974   3.046   1.444   0.345  0.3217  0.4001 -0.7300
  881MPD2     H12975   3.334   1.205   0.273  1.4252  1.9882 -2.2017
  881MPD2    H112976   3.041   1.347   0.536 -1.6832 -2.4950 -1.0732
  881MPD2    H212977   3.068   1.530   0.156 -1.7084 -0.9230 -0.6928
  881MPD2    H312978   2.967   1.509   0.381  0.1906 -0.4176  0.4497
  881MPD2     N12979   3.234   1.177   0.506  0.3573  0.1821 -0.2344
  881MPD2    H512980   3.184   1.192   0.593 -2.3478  1.5741 -2.0537
  881MPD2    N112981   3.271   1.360   0.067 -0.3161 -0.3904  0.1064
  881MPD2    H712982   3.235   1.422  17.746  1.7919 -0.4926 -1.0642
  882MPD2     C12983   1.530   3.081  14.483  0.5796 -0.0777  0.2983
  882MPD2    C112984   1.496   3.180  14.572  0.5355  0.2233 -0.3966
  882MPD2    C212985   1.365   3.184  14.621  0.3474  0.0846  0.1340
  882MPD2    C312986   1.273   3.081  14.589  0.4216  0.5680  0.2110
  882MPD2    C412987   1.316   2.978  14.507  0.2053 -0.9058 -0.4099
  882MPD2    C512988   1.441   2.984  14.454 -0.1307  0.0863  0.8021
  882MPD2     H12989   1.332   3.273  14.673 -2.0659 -0.5136 -0.3652
  882MPD2    H112990   1.245   2.899  14.484 -0.7389 -0.1703 -0.0313
  882MPD2    H212991   1.628   3.066  14.440  0.9232  0.2035  0.9743
  882MPD2    H312992   1.472   2.902  14.389  1.1466  1.2343 -0.0340
  882MPD2     N12993   1.141   3.079  14.633  0.1260 -0.2398  0.1442
  882MPD2    H512994   1.086   3.005  14.591  0.0775 -0.3502  0.4036
  882MPD2    N112995   1.592   3.289  14.591  0.0258  0.1015  0.1695
  882MPD2    H712996   1.675   3.284  14.533  0.2303 -0.3604  0.5014
  883MPD2     C12997   3.110   3.008  16.622  0.2498  0.4723  0.3408
  883MPD2    C112998   3.173   3.073  16.517 -0.0845  0.1888  0.4048
  883MPD2    C212999   3.305   3.116  16.531  0.4162  0.7579 -0.3386
  883MPD2    C313000   3.374   3.105  16.649  0.6486 -0.5848 -0.2077
  883MPD2    C413001   3.301   3.053  16.755 -0.3548 -1.1513 -0.2217
  883MPD2    C513002   3.179   2.998  16.738  0.2981  0.6348 -0.1281
  883MPD2     H13003   3.355   3.148  16.440  0.0683 -0.9849 -1.1472
  883MPD2    H113004   3.348   3.018  16.846  0.2198  0.7885  0.2179
  883MPD2    H213005   3.011   2.965  16.621 -0.0336  1.1190  1.1258
  883MPD2    H313006   3.147   2.940  16.823  0.2182  0.2648 -0.4132
  883MPD2     N13007   3.508   3.155  16.657  0.4807 -0.0189 -0.1875
  883MPD2    H513008   3.546   3.193  16.570 -0.3028 -1.3119 -1.0953
  883MPD2    N113009   3.112   3.104  16.392  0.9614  0.0081  0.2581
  883MPD2    H713010   3.171   3.164  16.334  1.2148 -0.6945 -0.2158
  884MPD2     C13011   0.474   3.846  15.083 -0.1850  0.0866  0.7926
  884MPD2    C113012   0.491   3.984  15.077  0.1815  0.0343  0.0415
  884MPD2    C213013   0.388   4.062  15.127 -0.6957  0.7125 -0.3833
  884MPD2    C313014   0.269   4.005  15.177  0.2826  0.3297 -0.3492
  884MPD2    C413015   0.248   3.866  15.159 -0.1838  0.1162  0.2590
  884MPD2    C513016   0.357   3.792  15.116 -0.6487 -1.1813  0.8496
  884MPD2     H13017   0.398   4.170  15.120 -1.0242  0.6853 -1.3729
  884MPD2    H113018   0.151   3.820  15.177 -0.5129  1.0977  0.9826
  884MPD2    H213019   0.560   3.781  15.075 -2.3756 -2.6866 -0.4037
  884MPD2    H313020   0.346   3.685  15.104  0.0372 -1.3344  1.5785
  884MPD2     N13021   0.173   4.085  15.237  0.9089  0.0146 -0.4683
  884MPD2    H513022   0.181   4.184  15.217 -0.4619  0.3228  0.4426
  884MPD2    N113023   0.606   4.050  15.049  0.0356  0.1618 -0.0436
  884MPD2    H713024   0.594   4.151  15.050 -0.8074  0.0597 -0.6161
  885MPD2     C13025   3.903   4.132   0.579  0.2900  0.1066 -0.1347
  885MPD2    C113026   3.775   4.163   0.563  0.2839  0.7062 -0.3037
  885MPD2    C213027   3.720   4.164   0.435  0.2200  0.3336  0.2781
  885MPD2    C313028   3.796   4.140   0.325 -0.5274  0.0196 -0.0158
  885MPD2    C413029   3.932   4.117   0.344 -0.8316 -0.0415 -0.2055
  885MPD2    C513030   3.984   4.118   0.471  0.6202  0.7482  0.1421
  885MPD2     H13031   3.617   4.199   0.429  1.1688  2.7262 -2.1870
  885MPD2    H113032   3.999   4.107   0.259  0.5249  0.3108  0.8254
  885MPD2    H213033   3.949   4.111   0.675  0.3680 -0.8071 -0.3628
  885MPD2    H313034   4.089   4.095   0.488 -0.1277 -1.7113  1.5378
  885MPD2     N13035   3.740   4.152   0.193  0.0222 -0.3768  0.3404
  885MPD2    H513036   3.659   4.212   0.184 -1.0798 -2.1659 -1.5913
  885MPD2    N113037   3.708   4.155   0.684  0.5428 -0.4417  0.3795
  885MPD2    H713038   3.759   4.152   0.772  0.2988  1.8382  0.5940
  886MPD2     C13039   4.329   2.158  15.433 -0.2454 -0.1590  0.3827
  886MPD2    C113040   4.455   2.184  15.468 -0.4752  0.1189 -0.1344
  886MPD2    C213041   4.529   2.270  15.390 -0.2653  0.3869  0.4155
  886MPD2    C313042   4.479   2.342  15.288 -0.5088  0.4144  0.0964
  886MPD2    C413043   4.347   2.322  15.263 -0.2054 -0.2960 -0.5797
  886MPD2    C513044   4.285   2.225  15.325  0.0636  0.1948 -0.1075
  886MPD2     H13045   4.632   2.294  15.413  0.1696  0.0610 -1.2169
  886MPD2    H113046   4.296   2.365  15.177 -0.7560  1.1423  0.4695
  886MPD2    H213047   4.255   2.088  15.471 -0.0699 -0.0783  0.8713
  886MPD2    H313048   4.186   2.199  15.289 -0.3136  0.3106  0.8591
  886MPD2     N13049   4.552   2.434  15.219  1.0140  0.1485  0.1143
  886MPD2    H513050   4.644   2.459  15.254  0.4074 -0.8318  2.4445
  886MPD2    N113051   4.513   2.142  15.584  0.1476 -0.2332  0.3274
  886MPD2    H713052   4.600   2.192  15.598  1.3961 -2.4520  0.5479
  887MPD2     C13053   0.419   2.191  15.884 -0.5621 -0.2044  0.4638
  887MPD2    C113054   0.298   2.256  15.870  0.2256  0.2283 -0.3273
  887MPD2    C213055   0.292   2.394  15.861  0.8638  0.3871  0.1052
  887MPD2    C313056   0.405   2.470  15.879 -0.3790 -0.3874  0.1167
  887MPD2    C413057   0.524   2.405  15.890  0.1532  0.6145 -0.0682
  887MPD2    C513058   0.528   2.270  15.899 -0.2191 -0.0153 -0.1566
  887MPD2     H13059   0.195   2.440  15.842  0.1324 -0.5395  1.5049
  887MPD2    H113060   0.625   2.442  15.903  0.0727  1.1506 -0.9485
  887MPD2    H213061   0.435   2.083  15.879 -1.7022 -0.5091  3.2526
  887MPD2    H313062   0.626   2.226  15.913  0.7325  1.1573 -3.3011
  887MPD2     N13063   0.393   2.610  15.872 -0.0807 -0.1176  0.2815
  887MPD2    H513064   0.300   2.650  15.867  1.0948  2.5931  0.0793
  887MPD2    N113065   0.172   2.191  15.848  0.1898 -0.0435 -1.2560
  887MPD2    H713066   0.096   2.255  15.828  2.3595  2.1620 -2.4764
  888MPD2     C13067   2.169   2.509  15.096 -0.7157  0.5036  0.1596
  888MPD2    C113068   2.155   2.531  15.239 -0.2176  0.9982 -0.5206
  888MPD2    C213069   2.222   2.637  15.291  0.4312  0.0722 -0.5251
  888MPD2    C313070   2.299   2.725  15.210 -0.3142 -0.1942  0.3380
  888MPD2    C413071   2.306   2.698  15.073 -0.1164 -0.0689 -0.0426
  888MPD2    C513072   2.251   2.582  15.020  0.3864 -0.5060  0.1984
  888MPD2     H13073   2.220   2.656  15.398 -0.0686  2.1808 -0.9193
  888MPD2    H113074   2.360   2.769  15.011 -0.1668  1.6639  1.8813
  888MPD2    H213075   2.128   2.420  15.048  0.2382  0.1061  0.0842
  888MPD2    H313076   2.262   2.565  14.914 -1.8532  1.2058 -0.2952
  888MPD2     N13077   2.338   2.847  15.263 -0.4085  0.1605  0.4917
  888MPD2    H513078   2.317   2.859  15.362 -0.7395  1.3591  0.2713
  888MPD2    N113079   2.079   2.449  15.327  0.3075 -0.0214  0.7929
  888MPD2    H713080   2.089   2.455  15.428 -1.9321 -1.9405  1.1068
  889MPD2     C13081   1.534   1.702  13.106  0.2295  0.0650  0.0409
  889MPD2    C113082   1.563   1.746  13.232 -0.1542 -0.3149 -0.5336
  889MPD2    C213083   1.533   1.878  13.269  0.6824 -0.0548  0.7949
  889MPD2    C313084   1.503   1.970  13.174  0.4682 -0.4019 -0.1286
  889MPD2    C413085   1.479   1.934  13.046 -0.9369 -0.2092  1.2124
  889MPD2    C513086   1.495   1.800  13.009  0.3922  0.3898  0.2170
  889MPD2     H13087   1.563   1.909  13.368 -0.5102  0.1877  1.0877
  889MPD2    H113088   1.456   2.009  12.971  3.3900 -1.4454 -1.3715
  889MPD2    H213089   1.554   1.602  13.068  1.7014 -0.3335  1.8282
  889MPD2    H313090   1.477   1.769  12.907 -0.3232 -0.0079  0.4679
  889MPD2     N13091   1.491   2.103  13.227 -0.5434  0.0020 -0.3774
  889MPD2    H513092   1.513   2.129  13.323  0.1686 -0.3712 -0.4417
  889MPD2    N113093   1.596   1.652  13.331 -0.0791  0.1903 -0.7856
  889MPD2    H713094   1.614   1.697  13.420 -1.9829 -0.1046 -0.2372
  890MPD2     C13095   0.975   3.755  14.749 -0.7541  0.2304 -0.4663
  890MPD2    C113096   1.090   3.837  14.772 -0.7182  0.3722 -0.2976
  890MPD2    C213097   1.141   3.834  14.892  0.0885  0.0499  0.6289
  890MPD2    C313098   1.092   3.751  14.990  0.4804  0.2954 -0.2767
  890MPD2    C413099   0.980   3.674  14.968 -0.1878 -0.2902  0.5312
  890MPD2    C513100   0.925   3.680  14.845 -0.1112 -0.1304  0.9360
  890MPD2     H13101   1.225   3.891  14.930  1.3557 -0.0557 -2.0116
  890MPD2    H113102   0.937   3.601  15.036 -0.3488 -0.3273  0.3918
  890MPD2    H213103   0.928   3.749  14.651  1.4688  0.7344 -1.5468
  890MPD2    H313104   0.842   3.614  14.825  1.9318 -2.5422  0.3936
  890MPD2     N13105   1.167   3.752  15.116  0.1009  0.7202 -0.1405
  890MPD2    H513106   1.261   3.788  15.126  0.4901 -0.1243 -0.7345
  890MPD2    N113107   1.154   3.907  14.669  0.3469  0.1950  0.2348
  890MPD2    H713108   1.115   3.888  14.577  2.6969 -1.8317 -0.3502
  891MPD2     C13109   4.213   2.600  16.983  0.2384 -0.8924 -0.3759
  891MPD2    C113110   4.118   2.531  17.050  0.1745  0.0419  0.6129
  891MPD2    C213111   4.153   2.433  17.151 -0.2349 -0.8145 -0.0107
  891MPD2    C313112   4.293   2.413  17.177 -0.3138  0.2895 -0.2734
  891MPD2    C413113   4.387   2.477  17.093  0.3183 -0.1896  0.7880
  891MPD2    C513114   4.348   2.568  16.998 -0.4346 -0.6536 -0.3374
  891MPD2     H13115   4.085   2.367  17.204 -0.0798  0.4623  1.7515
  891MPD2    H113116   4.489   2.441  17.085 -0.2825 -1.9488  0.9757
  891MPD2    H213117   4.197   2.674  16.905  1.8298 -2.8993 -2.5810
  891MPD2    H313118   4.429   2.604  16.936 -0.7218 -0.9415 -0.8826
  891MPD2     N13119   4.344   2.325  17.277  0.5148 -0.1954  0.1985
  891MPD2    H513120   4.270   2.273  17.324 -1.6849  0.8955 -2.0739
  891MPD2    N113121   3.981   2.558  17.022  0.2394  0.3659 -0.1331
  891MPD2    H713122   3.966   2.631  16.953  0.0402 -2.7137 -3.3225
  892MPD2     C13123   0.301   3.381  15.286  0.3320  0.1486  0.1113
  892MPD2    C113124   0.278   3.419  15.154  0.2051  0.3434  0.2544
  892MPD2    C213125   0.380   3.401  15.057 -0.4759  0.5247  0.4306
  892MPD2    C313126   0.503   3.346  15.097 -0.1545  0.1721  0.3298
  892MPD2    C413127   0.531   3.310  15.232 -0.2868 -0.4611  0.0985
  892MPD2    C513128   0.429   3.332  15.322  0.7919  0.2351 -0.5234
  892MPD2     H13129   0.377   3.433  14.954 -0.8285 -0.0910  0.2481
  892MPD2    H113130   0.620   3.255  15.261 -0.7487 -0.9651  0.5516
  892MPD2    H213131   0.229   3.405  15.363 -0.1304 -0.3978 -0.1516
  892MPD2    H313132   0.435   3.302  15.426 -0.4556  0.4541 -0.3875
  892MPD2     N13133   0.592   3.326  14.991 -0.0378  0.6168 -0.1663
  892MPD2    H513134   0.565   3.355  14.897 -1.9527 -2.5191 -0.6237
  892MPD2    N113135   0.156   3.481  15.134 -0.0408  0.2301 -0.1609
  892MPD2    H713136   0.085   3.486  15.206  0.8970 -0.2591  0.8041
  893MPD2     C13137   1.926   1.733   2.133  0.3312 -0.1421 -0.3252
  893MPD2    C113138   1.908   1.732   1.993  0.4039  0.5053 -0.0506
  893MPD2    C213139   1.782   1.758   1.937 -0.3141  0.4054 -0.7254
  893MPD2    C313140   1.679   1.798   2.019 -0.1437 -0.3574 -0.1931
  893MPD2    C413141   1.695   1.785   2.160  0.1077 -0.3378 -0.2485
  893MPD2    C513142   1.812   1.745   2.211  0.2161 -0.1228  0.3443
  893MPD2     H13143   1.764   1.758   1.831  0.0506  0.0605 -0.7871
  893MPD2    H113144   1.603   1.810   2.210  0.4982 -1.9251  1.2419
  893MPD2    H213145   2.026   1.725   2.172 -0.1446  0.2759  0.9790
  893MPD2    H313146   1.827   1.741   2.318 -1.1822  1.3843  0.5913
  893MPD2     N13147   1.547   1.820   1.967  0.1611  0.0792 -0.4641
  893MPD2    H513148   1.470   1.805   2.032 -0.5014  1.7737 -0.8499
  893MPD2    N113149   2.024   1.695   1.920  0.6626 -0.1691 -0.4042
  893MPD2    H713150   2.107   1.671   1.973  1.9617  1.4851 -1.7069
  894MPD2     C13151   0.256   3.800   1.202  0.4678  0.4882 -0.3484
  894MPD2    C113152   0.219   3.851   1.325 -0.1717 -0.2521  0.2321
  894MPD2    C213153   0.228   3.989   1.355  0.2655 -0.2598 -0.2835
  894MPD2    C313154   0.263   4.079   1.256 -0.4545 -0.0857 -0.6309
  894MPD2    C413155   0.293   4.033   1.133 -0.4882  0.1576 -0.1004
  894MPD2    C513156   0.280   3.899   1.108 -0.0161  0.0832 -0.4555
  894MPD2     H13157   0.220   4.017   1.459  1.3702 -2.5131  0.4030
  894MPD2    H113158   0.313   4.104   1.054  1.4112  1.0943  1.2068
  894MPD2    H213159   0.247   3.696   1.173  0.3013  0.3581  0.1735
  894MPD2    H313160   0.290   3.871   1.004 -0.7918  2.9734 -1.3033
  894MPD2     N13161   0.270   4.213   1.295  0.3274  0.2035  0.6391
  894MPD2    H513162   0.257   4.238   1.392  1.0639  0.0150  0.7842
  894MPD2    N113163   0.179   3.769   1.433  0.3130 -0.6599 -0.2620
  894MPD2    H713164   0.139   3.816   1.513  2.1792  0.3369  0.0717
  895MPD2     C13165   4.184   2.822  13.552 -0.2834 -0.0430  0.0506
  895MPD2    C113166   4.097   2.721  13.505 -0.1606  0.2468 -0.2232
  895MPD2    C213167   4.129   2.585  13.521 -1.0805  0.6348  0.5426
  895MPD2    C313168   4.239   2.542  13.587 -0.0511 -0.4786  0.7422
  895MPD2    C413169   4.321   2.639  13.642  0.0711  0.0396 -0.2274
  895MPD2    C513170   4.294   2.773  13.622  0.0624 -0.5019  0.0598
  895MPD2     H13171   4.059   2.507  13.492  2.7389 -1.5957 -2.6594
  895MPD2    H113172   4.415   2.613  13.690  0.0916  2.2214  0.9085
  895MPD2    H213173   4.152   2.926  13.544  0.0349  0.1030  0.6821
  895MPD2    H313174   4.359   2.848  13.666  0.2742  0.1377 -1.3506
  895MPD2     N13175   4.256   2.403  13.594  0.1304 -0.3041  0.3340
  895MPD2    H513176   4.174   2.351  13.564 -1.2999  1.2398  1.5772
  895MPD2    N113177   3.978   2.752  13.432 -0.7117 -0.0206 -0.1745
  895MPD2    H713178   3.927   2.665  13.415 -1.7406  0.6259 -0.4302
  896MPD2     C13179   2.036   0.278   1.745 -0.4368  0.2998  0.4089
  896MPD2    C113180   2.012   0.235   1.611  0.3076  0.1336  0.9861
  896MPD2    C213181   1.883   0.200   1.568  0.1258  0.0102  0.4002
  896MPD2    C313182   1.786   0.189   1.658 -0.0400  0.0861  0.3984
  896MPD2    C413183   1.808   0.235   1.787  0.3278  0.3341 -0.6060
  896MPD2    C513184   1.930   0.283   1.832  0.8424  0.3902  0.1865
  896MPD2     H13185   1.848   0.169   1.471  2.1492  2.6228 -1.1589
  896MPD2    H113186   1.731   0.235   1.863  0.6297 -0.0852 -0.2984
  896MPD2    H213187   2.131   0.313   1.784  0.5175  0.2158 -1.8670
  896MPD2    H313188   1.945   0.330   1.928 -0.1610  0.8280  0.1276
  896MPD2     N13189   1.661   0.138   1.622 -0.2997 -0.3957 -0.1217
  896MPD2    H513190   1.659   0.132   1.520  3.0746  0.8746 -0.2357
  896MPD2    N113191   2.123   0.231   1.523  0.1477 -0.2874  0.0666
  896MPD2    H713192   2.212   0.259   1.563 -1.8971  0.9207  3.7569
  897MPD2     C13193   2.567   2.056  10.783 -0.2226 -0.0924  0.5708
  897MPD2    C113194   2.554   2.192  10.804 -0.3760 -0.4872  0.5056
  897MPD2    C213195   2.456   2.232  10.893 -0.3855 -0.4498 -0.5446
  897MPD2    C313196   2.375   2.138  10.960  0.2184  0.0330  0.1478
  897MPD2    C413197   2.403   2.006  10.945  0.0695  1.1514  0.5334
  897MPD2    C513198   2.489   1.965  10.853  0.4856  0.3102 -0.0568
  897MPD2     H13199   2.433   2.337  10.907  1.0910 -0.2562  0.3989
  897MPD2    H113200   2.360   1.922  10.999  0.3616  1.8337  1.8329
  897MPD2    H213201   2.630   2.028  10.699  3.4254 -1.5911  3.8103
  897MPD2    H313202   2.491   1.857  10.843 -1.0297  0.3753 -1.0844
  897MPD2     N13203   2.267   2.181  11.040 -0.2299 -0.5841 -0.0233
  897MPD2    H513204   2.279   2.276  11.072 -1.4286 -0.4747  0.1089
  897MPD2    N113205   2.634   2.282  10.738 -0.2357  0.0347  0.5085
  897MPD2    H713206   2.695   2.244  10.666 -1.0826  0.6721 -0.5492
  898MPD2     C13207   4.049   2.568   0.656 -0.1955 -0.3250  0.0110
  898MPD2    C113208   4.188   2.584   0.670 -0.2274 -0.5301  0.0679
  898MPD2    C213209   4.241   2.689   0.594  1.0368  0.4961 -0.3249
  898MPD2    C313210   4.168   2.771   0.508  0.1609  0.2224 -0.0505
  898MPD2    C413211   4.035   2.745   0.491 -0.0084 -0.2590  0.5588
  898MPD2    C513212   3.983   2.645   0.567  0.1300  0.1659 -0.4667
  898MPD2     H13213   4.346   2.711   0.608  1.7223 -1.5463 -2.4452
  898MPD2    H113214   3.971   2.805   0.427  2.0394  2.2222  0.8083
  898MPD2    H213215   3.990   2.499   0.714  1.5064 -0.4580  1.5787
  898MPD2    H313216   3.875   2.638   0.556  0.3274 -1.7914 -1.2004
  898MPD2     N13217   4.232   2.878   0.447  0.7269  0.9211  0.2819
  898MPD2    H513218   4.333   2.878   0.453  0.7451  0.6178  0.0031
  898MPD2    N113219   4.269   2.508   0.754 -0.2041 -0.7772  0.5142
  898MPD2    H713220   4.364   2.539   0.770 -0.5510  1.3337 -1.5687
  899MPD2     C13221   0.975   3.257  17.273  0.1005 -0.5518  0.7164
  899MPD2    C113222   1.036   3.306  17.384  0.4359  0.5224  0.6264
  899MPD2    C213223   1.024   3.236  17.507  0.7205 -0.2032 -0.4058
  899MPD2    C313224   0.922   3.144  17.528  0.5437 -0.5572 -0.2192
  899MPD2    C413225   0.857   3.111  17.415 -0.3383  0.2076  0.0973
  899MPD2    C513226   0.882   3.159  17.295 -0.6363  0.1151 -0.3737
  899MPD2     H13227   1.095   3.268  17.582 -0.1834 -3.6540  1.9296
  899MPD2    H113228   0.796   3.022  17.424  0.9273 -0.6185  0.6557
  899MPD2    H213229   0.987   3.302  17.175  0.0935 -1.4267  0.3085
  899MPD2    H313230   0.813   3.141  17.213  1.8083 -0.2840 -2.3411
  899MPD2     N13231   0.888   3.085  17.643  0.4338  0.3169 -0.6722
  899MPD2    H513232   0.820   3.009  17.644 -0.4353  1.1117  0.8507
  899MPD2    N113233   1.121   3.420  17.359  0.3641  0.1687  0.3149
  899MPD2    H713234   1.126   3.446  17.261  0.3696 -2.6242 -0.4101
  900MPD2     C13235   0.485   0.460  12.739  0.4537 -0.3445 -0.1075
  900MPD2    C113236   0.377   0.380  12.737 -0.3622  0.1092  0.0210
  900MPD2    C213237   0.262   0.434  12.690 -0.3335  0.4159  0.0660
  900MPD2    C313238   0.252   0.570  12.638 -0.2502 -0.0708  0.1150
  900MPD2    C413239   0.362   0.647  12.646  0.3795 -0.4041  0.3251
  900MPD2    C513240   0.478   0.593  12.692  0.4185  0.7504  0.7962
  900MPD2     H13241   0.172   0.375  12.675  0.9359 -1.9886  1.8361
  900MPD2    H113242   0.362   0.754  12.633  0.7934 -0.5875 -1.2091
  900MPD2    H213243   0.581   0.422  12.773  0.3372 -0.9491 -0.4518
  900MPD2    H313244   0.572   0.647  12.699  1.2539 -0.2051 -2.9669
  900MPD2     N13245   0.131   0.610  12.583 -0.1350 -0.4520  0.2266
  900MPD2    H513246   0.046   0.554  12.585 -0.8123  0.5929  0.6084
  900MPD2    N113247   0.389   0.243  12.772 -0.3411 -0.2901  0.7562
  900MPD2    H713248   0.477   0.203  12.803  0.9503  1.5079 -0.5780
  901MPD2     C13249   0.102   4.051  13.215  0.3479 -0.3907 -0.2853
  901MPD2    C113250   0.201   4.018  13.122  0.2279  0.1671  0.1564
  901MPD2    C213251   0.232   4.121  13.041 -0.5850 -0.3454  0.2653
  901MPD2    C313252   0.171   4.241  13.039 -0.2675  0.8505 -0.6030
  901MPD2    C413253   0.077   4.275  13.139 -0.3265 -0.3080 -0.3151
  901MPD2    C513254   0.042   4.176  13.221  0.1722 -0.1939  0.3993
  901MPD2     H13255   0.314   4.107  12.973  0.2034  0.1178  1.1236
  901MPD2    H113256   0.020   4.367  13.135  0.0646 -0.0696 -0.3980
  901MPD2    H213257   0.063   3.982  13.289 -0.3924  1.2747  0.8795
  901MPD2    H313258   4.696   4.191  13.288  0.4766  2.2700  0.2336
  901MPD2     N13259   0.218   4.334  12.949  0.9920  0.1629 -0.9582
  901MPD2    H513260   0.284   4.294  12.883 -0.5171 -3.2750 -0.3682
  901MPD2    N113261   0.267   3.894  13.124  0.2208  0.3669 -0.3180
  901MPD2    H713262   0.236   3.838  13.203  0.3056  0.6222 -0.1030
  902MPD2     C13263   4.505   3.562  12.635  0.6843  0.2096  0.0331
  902MPD2    C113264   4.386   3.547  12.692  0.0096 -0.1092 -0.0999
  902MPD2    C213265   4.326   3.421  12.685  0.4794  0.1460  0.2613
  902MPD2    C313266   4.380   3.311  12.621 -0.0776  0.2371 -0.6454
  902MPD2    C413267   4.497   3.333  12.560  0.7449 -0.0891 -0.3675
  902MPD2    C513268   4.566   3.451  12.569 -0.2829  0.5847  0.0291
  902MPD2     H13269   4.233   3.404  12.738 -0.0902  3.8022  0.4823
  902MPD2    H113270   4.537   3.244  12.514 -2.3928 -0.8431 -1.6369
  902MPD2    H213271   4.552   3.660  12.640 -3.3928  2.2834 -1.9709
  902MPD2    H313272   4.657   3.457  12.510 -1.0692 -0.0670 -1.2356
  902MPD2     N13273   4.305   3.191  12.602  0.3352 -0.4801  0.6713
  902MPD2    H513274   4.344   3.114  12.549 -1.1987  1.3087 -3.0551
  902MPD2    N113275   4.330   3.648  12.770  0.3642  0.3020  0.3316
  902MPD2    H713276   4.387   3.732  12.776  0.2372  0.5346 -1.6160
  903MPD2     C13277   3.852   3.458  12.543  0.0041 -0.3050  0.1092
  903MPD2    C113278   3.799   3.353  12.472  0.5551 -0.9997  0.5419
  903MPD2    C213279   3.704   3.373  12.377  0.8077 -0.2730 -0.1341
  903MPD2    C313280   3.681   3.505  12.340  0.1023 -0.4431  0.2903
  903MPD2    C413281   3.732   3.616  12.408 -0.0563  0.0615 -0.3640
  903MPD2    C513282   3.804   3.583  12.516  0.4741 -0.4271 -0.8104
  903MPD2     H13283   3.661   3.297  12.313  0.3705 -0.0834 -0.0594
  903MPD2    H113284   3.704   3.720  12.395 -1.3649 -0.2055  0.2248
  903MPD2    H213285   3.918   3.441  12.627  1.3432 -0.6141 -1.0158
  903MPD2    H313286   3.830   3.665  12.582 -1.5283 -0.6217  0.1926
  903MPD2     N13287   3.595   3.522  12.230 -0.5792 -0.2523  0.0307
  903MPD2    H513288   3.551   3.439  12.192 -0.7822 -0.5899  0.9901
  903MPD2    N113289   3.851   3.224  12.498 -0.1734  0.5702  0.1479
  903MPD2    H713290   3.928   3.220  12.564 -0.4992 -0.5852  0.4517
  904MPD2     C13291   3.974   2.283  13.968  0.5253  0.3113 -0.3659
  904MPD2    C113292   3.934   2.212  14.078  0.3949 -0.7711 -0.8722
  904MPD2    C213293   4.036   2.146  14.150 -0.5434 -0.4454  0.0996
  904MPD2    C313294   4.171   2.160  14.124  0.5733 -0.3663  0.0107
  904MPD2    C413295   4.203   2.239  14.014 -0.7095  0.5237 -0.4893
  904MPD2    C513296   4.106   2.284  13.930  0.3072  0.6288 -0.1524
  904MPD2     H13297   4.004   2.076  14.226  0.3191  0.7099  1.5217
  904MPD2    H113298   4.299   2.273  13.978  0.9800 -2.6384  1.0084
  904MPD2    H213299   3.907   2.333  13.899 -0.0926  0.1713  0.1314
  904MPD2    H313300   4.128   2.352  13.848 -1.9637  0.7615 -0.6701
  904MPD2     N13301   4.268   2.088  14.203  0.5117  0.5523  0.3574
  904MPD2    H513302   4.234   2.037  14.284  0.7644 -0.2786 -0.0675
  904MPD2    N113303   3.799   2.192  14.124 -0.3517  0.0267  0.1877
  904MPD2    H713304   3.786   2.117  14.190 -2.2420  1.7792  1.8029
  905MPD2     C13305   3.517   2.137  13.523  0.5541 -0.4439 -0.2510
  905MPD2    C113306   3.610   2.229  13.564  0.2425 -0.2830  0.0544
  905MPD2    C213307   3.743   2.196  13.556 -0.0753  0.1416  0.3639
  905MPD2    C313308   3.780   2.071  13.515  0.8136 -0.2020 -0.1451
  905MPD2    C413309   3.683   1.975  13.483 -0.2302  0.6328  0.2645
  905MPD2    C513310   3.552   2.013  13.485  0.3671  0.1525 -0.2445
  905MPD2     H13311   3.823   2.257  13.596  2.0905 -2.2243 -0.3268
  905MPD2    H113312   3.707   1.874  13.450 -2.8600  0.0880 -0.0513
  905MPD2    H213313   3.412   2.163  13.534  1.6516  1.4005  5.5961
  905MPD2    H313314   3.476   1.937  13.471  1.8259 -1.2050 -0.8121
  905MPD2     N13315   3.916   2.029  13.517  0.1136 -0.7702  0.5599
  905MPD2    H513316   3.931   1.931  13.493  1.4932  0.0273 -1.7809
  905MPD2    N113317   3.571   2.343  13.644  0.1218 -0.4072 -0.2878
  905MPD2    H713318   3.475   2.349  13.675  0.9020  5.0069  1.0695
  906MPD2     C13319   1.204   2.687  11.578 -0.3032  0.1342  0.6446
  906MPD2    C113320   1.184   2.608  11.464 -0.8238 -0.1656  0.2944
  906MPD2    C213321   1.151   2.480  11.483  0.3795  0.4692 -0.1638
  906MPD2    C313322   1.146   2.419  11.599  0.1259  0.2546  0.6449
  906MPD2    C413323   1.176   2.490  11.714  0.6327  0.1672  0.3239
  906MPD2    C513324   1.207   2.623  11.701  0.7389  0.0550 -0.4170
  906MPD2     H13325   1.140   2.427  11.389 -0.2629  0.4274 -0.0637
  906MPD2    H113326   1.159   2.447  11.812 -0.7043 -2.7514 -1.1696
  906MPD2    H213327   1.234   2.791  11.584  0.4156  0.0724 -2.2125
  906MPD2    H313328   1.244   2.683  11.783 -1.2307 -1.1964  1.4019
  906MPD2     N13329   1.113   2.278  11.606  0.1349  0.2595  0.3146
  906MPD2    H513330   1.093   2.233  11.517 -1.2723  1.1971  0.1569
  906MPD2    N113331   1.204   2.658  11.333  0.3908 -0.4070  0.1798
  906MPD2    H713332   1.217   2.585  11.263 -3.1235 -0.5201 -0.3355
  907MPD2     C13333   0.416   1.322  15.934 -0.2390  0.1934 -0.3984
  907MPD2    C113334   0.339   1.215  15.890  0.0377  0.5141 -0.3615
  907MPD2    C213335   0.338   1.104  15.972 -0.3569 -0.7165 -0.4012
  907MPD2    C313336   0.407   1.093  16.094 -1.0411 -0.6931 -0.0120
  907MPD2    C413337   0.480   1.203  16.141  0.2904  0.1323  0.1489
  907MPD2    C513338   0.472   1.313  16.060 -0.0038  0.1262 -0.0294
  907MPD2     H13339   0.285   1.015  15.939 -0.7974 -1.0090  1.1208
  907MPD2    H113340   0.538   1.211  16.233 -0.3673 -1.9983  0.7579
  907MPD2    H213341   0.404   1.417  15.883  2.9437  0.2264 -1.0648
  907MPD2    H313342   0.531   1.400  16.084  1.1209 -0.6859  0.1518
  907MPD2     N13343   0.410   0.966  16.155 -0.1476  0.3926 -0.4042
  907MPD2    H513344   0.367   0.886  16.109  1.3526 -0.6361 -0.0157
  907MPD2    N113345   0.258   1.223  15.772 -0.0339  0.0365  0.0519
  907MPD2    H713346   0.198   1.142  15.763  1.1159 -0.8378  0.2437
  908MPD2     C13347   3.001   2.047   9.965 -0.0690 -0.3340 -0.2308
  908MPD2    C113348   2.976   1.984  10.084  0.5456 -0.3229  0.0324
  908MPD2    C213349   2.925   2.060  10.193  0.0943 -0.5574  0.1032
  908MPD2    C313350   2.904   2.200  10.182  0.4324 -0.4583  0.2572
  908MPD2    C413351   2.913   2.249  10.052  0.4076 -0.6125 -0.2605
  908MPD2    C513352   2.967   2.176   9.951  0.1975 -0.2696  0.3707
  908MPD2     H13353   2.898   2.015  10.288 -4.1233 -0.6895 -1.1628
  908MPD2    H113354   2.903   2.356  10.036 -0.8525 -0.7822 -0.6029
  908MPD2    H213355   3.047   1.995   9.881 -0.3295 -0.0418 -0.5561
  908MPD2    H313356   2.982   2.236   9.862 -0.0862 -1.4386 -0.4660
  908MPD2     N13357   2.874   2.274  10.304 -0.4582 -0.2769  0.5380
  908MPD2    H513358   2.867   2.220  10.390 -1.4294 -2.4033 -0.8766
  908MPD2    N113359   2.996   1.849  10.096 -0.1147 -0.2862 -0.5817
  908MPD2    H713360   3.045   1.802  10.020  1.2250 -0.0478  0.1242
  909MPD2     C13361   3.102   0.135  11.866  0.1061 -0.3137 -0.0244
  909MPD2    C113362   3.095   0.272  11.847  0.2074  0.5309  0.0470
  909MPD2    C213363   3.023   0.355  11.930 -0.1063 -0.1493  0.3353
  909MPD2    C313364   2.947   0.294  12.026  0.2121  0.2952 -0.0219
  909MPD2    C413365   2.949   0.155  12.045  0.5231  0.0073 -0.4050
  909MPD2    C513366   3.029   0.079  11.964  0.2111 -0.1910  0.2213
  909MPD2     H13367   3.029   0.463  11.927  0.7673 -0.2398 -1.3263
  909MPD2    H113368   2.898   0.110  12.129  0.0629  0.5050 -0.4171
  909MPD2    H213369   3.152   0.064  11.801  2.8359  1.6681 -0.0802
  909MPD2    H313370   3.039   4.710  11.978  1.7715 -0.3424 -2.2294
  909MPD2     N13371   2.885   0.380  12.119 -0.1797  0.3316  0.4892
  909MPD2    H513372   2.899   0.478  12.097 -1.0867 -0.0916 -1.9272
  909MPD2    N113373   3.174   0.335  11.743  0.0141 -0.0261 -0.0866
  909MPD2    H713374   3.151   0.434  11.742  2.5463  0.5761  0.8964
  910MPD2     C13375   0.162   1.669  15.839 -0.3258 -0.7162 -0.1667
  910MPD2    C113376   0.035   1.607  15.826  0.5505  0.3337 -0.0141
  910MPD2    C213377   4.689   1.639  15.721  0.0796  0.6567 -0.4919
  910MPD2    C313378   4.732   1.722  15.621 -0.4196  0.3529 -0.6312
  910MPD2    C413379   0.124   1.771  15.629  0.5157  0.2070  0.4388
  910MPD2    C513380   0.206   1.751  15.739  0.4307  0.2133 -0.2006
  910MPD2     H13381   4.585   1.608  15.723  0.5003 -0.7533 -0.0263
  910MPD2    H113382   0.161   1.824  15.543  0.1936  0.4852  0.4713
  910MPD2    H213383   0.235   1.648  15.916 -0.2814 -2.1074 -0.6025
  910MPD2    H313384   0.309   1.782  15.734  0.7640 -1.3042 -3.1967
  910MPD2     N13385   4.650   1.745  15.508 -0.0566 -0.2754  0.3946
  910MPD2    H513386   4.680   1.808  15.434  1.6729  0.6060  1.8426
  910MPD2    N113387   4.733   1.513  15.926 -0.1566  0.2320 -0.0003
  910MPD2    H713388   4.649   1.457  15.910 -0.4834  0.5277  0.6860
  911MPD2     C13389   2.327   1.914  16.785 -0.6592  0.4797 -0.5470
  911MPD2    C113390   2.369   2.038  16.820  0.3719  0.0956 -0.3157
  911MPD2    C213391   2.292   2.155  16.797  0.1241  0.2714  0.0753
  911MPD2    C313392   2.161   2.146  16.742  0.2920  0.5471 -0.2000
  911MPD2    C413393   2.121   2.017  16.709 -0.2702 -0.1343 -0.2241
  911MPD2    C513394   2.206   1.909  16.725 -0.9573 -0.2446  0.5750
  911MPD2     H13395   2.335   2.252  16.817  0.0265  0.0440  1.4450
  911MPD2    H113396   2.018   2.009  16.675 -0.5035 -2.1747  0.9429
  911MPD2    H213397   2.389   1.827  16.802 -3.7079 -1.4461  0.6022
  911MPD2    H313398   2.171   1.810  16.697  1.7225 -0.9297 -0.4415
  911MPD2     N13399   2.067   2.247  16.722  0.3715 -0.3727  0.5663
  911MPD2    H513400   1.983   2.224  16.670  0.5242  0.4805 -0.0528
  911MPD2    N113401   2.508   2.046  16.861  0.4255 -0.1244  0.6180
  911MPD2    H713402   2.561   1.960  16.867 -0.2236 -0.5366  0.4144
  912MPD2     C13403   1.701   2.229  16.163 -0.5471  0.6125  0.6410
  912MPD2    C113404   1.739   2.189  16.283 -0.1075 -0.2932 -0.1970
  912MPD2    C213405   1.801   2.066  16.295 -0.0717 -0.2230 -0.8208
  912MPD2    C313406   1.827   1.984  16.186 -0.1035 -0.1978  0.2773
  912MPD2    C413407   1.791   2.033  16.058  0.2017 -0.1924  0.9874
  912MPD2    C513408   1.725   2.150  16.054  0.3990  0.5444  0.0749
  912MPD2     H13409   1.838   2.030  16.391  1.4669  1.1629 -0.8830
  912MPD2    H113410   1.804   1.976  15.966  0.4854 -0.8449  1.4314
  912MPD2    H213411   1.661   2.327  16.143  1.7191  1.4434  0.2113
  912MPD2    H313412   1.701   2.182  15.954  0.2204 -0.4804 -0.2087
  912MPD2     N13413   1.887   1.855  16.197  0.6642  0.0108 -0.1193
  912MPD2    H513414   1.908   1.833  16.294 -1.1598 -3.0028 -0.4231
  912MPD2    N113415   1.711   2.281  16.386 -0.2658  0.3448  0.7662
  912MPD2    H713416   1.658   2.368  16.378  3.6128  2.6441  0.3254
  913MPD2     C13417   2.413   4.541  10.799 -0.1849 -0.1339 -0.1226
  913MPD2    C113418   2.352   4.587  10.914 -0.3643  0.1050  0.3176
  913MPD2    C213419   2.239   4.656  10.898 -0.0065 -0.3772  0.1197
  913MPD2    C313420   2.183   4.674  10.772  0.4075 -0.0191 -0.0249
  913MPD2    C413421   2.250   4.632  10.663  0.0256 -0.1324 -0.2403
  913MPD2    C513422   2.368   4.570  10.675  0.0997 -0.2280 -1.0766
  913MPD2     H13423   2.190   4.696  10.986 -1.1625 -1.7268  0.0928
  913MPD2    H113424   2.212   4.639  10.562 -0.4316  0.5840 -0.0191
  913MPD2    H213425   2.508   4.490  10.810 -0.5795 -1.0752 -1.1018
  913MPD2    H313426   2.415   4.536  10.583  0.0397  0.0626 -1.2152
  913MPD2     N13427   2.059   4.726  10.743  0.5069 -0.2531  0.0825
  913MPD2    H513428   2.027   4.729  10.646 -0.4113  0.9557  0.4151
  913MPD2    N113429   2.413   4.562  11.038 -0.3178  0.4568  0.1975
  913MPD2    H713430   2.501   4.512  11.032 -1.2336 -1.1179 -0.0421
  914MPD2     C13431   0.328   3.810  12.307  0.1246  0.2865  0.5032
  914MPD2    C113432   0.293   3.884  12.412  0.2545  0.6913 -0.2874
  914MPD2    C213433   0.330   3.836  12.538  0.1025 -0.4094 -0.4626
  914MPD2    C313434   0.390   3.710  12.550  0.2295 -0.3028  0.1204
  914MPD2    C413435   0.411   3.638  12.437 -0.2750 -0.1680  0.5009
  914MPD2    C513436   0.395   3.694  12.318  0.7025 -0.2133  0.6123
  914MPD2     H13437   0.305   3.894  12.627 -1.9625 -2.0569  0.0288
  914MPD2    H113438   0.451   3.537  12.437  0.8527  0.2884 -2.3476
  914MPD2    H213439   0.299   3.847  12.209 -1.9127 -0.5717  0.7725
  914MPD2    H313440   0.439   3.637  12.237  0.0636 -0.5189  0.4846
  914MPD2     N13441   0.404   3.661  12.680  0.5536  0.3842  0.1605
  914MPD2    H513442   0.389   3.724  12.759 -0.5204 -0.0013  0.2573
  914MPD2    N113443   0.231   4.013  12.385 -0.2921 -0.5363 -0.7303
  914MPD2    H713444   0.220   4.038  12.288  1.9617  0.0036 -0.8511
  915MPD2     C13445   3.486   3.663  15.908 -0.3562  0.8369  0.7033
  915MPD2    C113446   3.350   3.657  15.928 -0.1003 -0.5035 -0.3445
  915MPD2    C213447   3.297   3.726  16.040 -0.1387  0.2602  0.4137
  915MPD2    C313448   3.381   3.774  16.147  0.1646  0.1376  0.4704
  915MPD2    C413449   3.517   3.774  16.118 -0.3853  0.4703  0.3553
  915MPD2    C513450   3.569   3.724  16.000  0.0287 -0.1521 -0.6040
  915MPD2     H13451   3.190   3.736  16.050 -0.2802  0.4351 -1.4479
  915MPD2    H113452   3.577   3.844  16.176 -0.1820 -1.1489  2.0984
  915MPD2    H213453   3.519   3.620  15.814 -1.0957 -0.0417  0.8398
  915MPD2    H313454   3.676   3.726  15.984  0.4129 -2.9367  1.4795
  915MPD2     N13455   3.319   3.832  16.261  0.0634 -0.0576 -0.2457
  915MPD2    H513456   3.219   3.852  16.259  0.1851  0.8305  1.9859
  915MPD2    N113457   3.270   3.598  15.826 -0.1347 -0.1896 -0.0348
  915MPD2    H713458   3.316   3.543  15.754 -2.4109 -0.0791 -1.5845
  916MPD2     C13459   1.337   1.915  15.678  0.7539  0.2536  0.1746
  916MPD2    C113460   1.396   1.863  15.793  0.1608  0.3911 -0.0456
  916MPD2    C213461   1.457   1.736  15.780  0.1288 -0.3886  0.5660
  916MPD2    C313462   1.470   1.674  15.655  0.7894  0.5703 -0.7134
  916MPD2    C413463   1.413   1.732  15.544  0.6142  0.9934 -0.3501
  916MPD2    C513464   1.351   1.852  15.559  0.2874 -0.1430  0.1132
  916MPD2     H13465   1.516   1.691  15.859  1.4786 -1.7165 -1.1765
  916MPD2    H113466   1.404   1.685  15.446  0.5631  0.2885 -0.0058
  916MPD2    H213467   1.277   2.006  15.677  1.3931  0.6535 -1.6127
  916MPD2    H313468   1.299   1.899  15.477  0.7155  1.0972  0.5480
  916MPD2     N13469   1.520   1.546  15.654  0.2814 -0.6687 -0.3707
  916MPD2    H513470   1.532   1.497  15.742  2.6539  0.6736  0.0478
  916MPD2    N113471   1.388   1.938  15.912 -0.1323  0.0102 -0.1702
  916MPD2    H713472   1.337   2.023  15.890  1.6688  0.6003 -2.0301
  917MPD2     C13473   1.131   4.564  11.457 -0.2734 -0.0306  0.1569
  917MPD2    C113474   1.163   4.622  11.578 -0.3682 -0.4843  0.0744
  917MPD2    C213475   1.171   0.028  11.589 -0.0014 -0.6223  0.0955
  917MPD2    C313476   1.165   0.103  11.474  0.1582  0.5665  0.3203
  917MPD2    C413477   1.132   0.043  11.356 -0.3322 -0.0819  0.2334
  917MPD2    C513478   1.104   4.644  11.352 -0.4356 -0.7218 -0.0464
  917MPD2     H13479   1.176   0.084  11.681  0.0875 -0.9631  0.2976
  917MPD2    H113480   1.107   0.110  11.275  0.5837 -0.3606 -0.2821
  917MPD2    H213481   1.118   4.457  11.442  0.1367  0.1496 -1.5958
  917MPD2    H313482   1.067   4.599  11.261 -1.2773 -1.0183  0.4443
  917MPD2     N13483   1.173   0.241  11.469 -0.1587 -0.3658 -1.0840
  917MPD2    H513484   1.153   0.281  11.378 -1.1916 -2.8981 -1.9603
  917MPD2    N113485   1.189   4.534  11.687  0.1347 -0.1021 -0.0677
  917MPD2    H713486   1.180   4.436  11.661  0.5019 -0.3562  0.7842
  918MPD2     C13487   1.535   4.687  12.637 -0.0434 -0.0422 -0.1380
  918MPD2    C113488   1.612   4.651  12.527  1.0604 -0.4196 -0.5785
  918MPD2    C213489   1.534   4.616  12.413 -0.4103  0.3224 -0.9408
  918MPD2    C313490   1.398   4.592  12.407  0.8096 -0.2601  0.0636
  918MPD2    C413491   1.335   4.620  12.521  0.1921 -0.3970  0.7849
  918MPD2    C513492   1.400   4.669  12.634 -0.2868 -0.4491  0.2230
  918MPD2     H13493   1.589   4.584  12.325  0.3930 -0.2609 -0.2321
  918MPD2    H113494   1.229   4.595  12.519  0.3800 -1.1849  0.7579
  918MPD2    H213495   1.579   4.719  12.730 -2.0450 -1.1787  1.2036
  918MPD2    H313496   1.338   4.679  12.723  1.0116  2.0740  0.8383
  918MPD2     N13497   1.340   4.553  12.284 -0.5104 -0.0825 -0.1497
  918MPD2    H513498   1.401   4.562  12.203 -1.6701 -0.2763 -1.0520
  918MPD2    N113499   1.754   4.640  12.514  0.5163  0.2334  0.0864
  918MPD2    H713500   1.796   4.609  12.427  0.6928 -0.3235  0.3770
  919MPD2     C13501   2.196   3.555  12.290 -0.1116 -0.2085 -0.0913
  919MPD2    C113502   2.228   3.473  12.193 -0.3137 -0.4512 -1.2367
  919MPD2    C213503   2.235   3.520  12.069 -0.1025 -0.2320 -0.3416
  919MPD2    C313504   2.225   3.655  12.042 -0.1042 -0.5613 -0.0581
  919MPD2    C413505   2.206   3.740  12.139  0.4452 -0.5370 -0.5198
  919MPD2    C513506   2.178   3.687  12.265  0.3597 -0.2263 -0.5190
  919MPD2     H13507   2.264   3.451  11.991  1.8365 -0.2393  0.3870
  919MPD2    H113508   2.201   3.847  12.120 -0.6563 -0.2549  1.4578
  919MPD2    H213509   2.210   3.532  12.395 -0.0052  2.3156  0.4525
  919MPD2    H313510   2.178   3.750  12.353 -1.4219  1.4746 -1.7375
  919MPD2     N13511   2.248   3.703  11.913  0.0733  0.0290  0.1061
  919MPD2    H513512   2.233   3.801  11.894 -0.6874  0.2336  1.7267
  919MPD2    N113513   2.257   3.334  12.208 -0.7168  0.8248 -0.0909
  919MPD2    H713514   2.268   3.294  12.116  2.2497  2.3310 -0.3930
  920MPD2     C13515   1.759   4.295  11.320 -0.0931 -0.1014 -0.3403
  920MPD2    C113516   1.754   4.184  11.232 -0.2770  0.2158  0.1099
  920MPD2    C213517   1.803   4.057  11.269  0.2442 -0.8025  0.1967
  920MPD2    C313518   1.864   4.043  11.393  0.0224  0.7319 -1.3211
  920MPD2    C413519   1.858   4.147  11.484  0.6532 -0.5956  0.3575
  920MPD2    C513520   1.801   4.268  11.452  0.6540 -0.8268  0.1846
  920MPD2     H13521   1.802   3.980  11.193  0.9554 -0.8197  0.2058
  920MPD2    H113522   1.899   4.137  11.583  1.3033  0.9855  0.2488
  920MPD2    H213523   1.732   4.399  11.300 -0.8594 -0.6697 -2.2847
  920MPD2    H313524   1.800   4.351  11.522  0.6278  0.4379 -1.3402
  920MPD2     N13525   1.941   3.927  11.423 -0.7446 -0.3130  0.2657
  920MPD2    H513526   1.955   3.859  11.348 -1.8735  0.1620 -0.3676
  920MPD2    N113527   1.713   4.196  11.095  0.6614  0.3558 -0.5435
  920MPD2    H713528   1.714   4.118  11.030  1.5515 -1.2830  1.4260
  921MPD2     C13529   3.097   2.852  17.116 -0.1762 -1.0528 -0.5139
  921MPD2    C113530   3.177   2.739  17.122 -0.5754 -0.4519  0.1549
  921MPD2    C213531   3.118   2.612  17.110  0.3644  0.3956 -0.1456
  921MPD2    C313532   2.980   2.605  17.088 -0.0530 -0.5804 -0.4517
  921MPD2    C413533   2.902   2.717  17.086  0.1141 -0.3343  0.1492
  921MPD2    C513534   2.963   2.842  17.084 -0.6455  0.5515  0.0058
  921MPD2     H13535   3.183   2.526  17.118  0.6919  0.7692  1.1927
  921MPD2    H113536   2.794   2.717  17.079  0.1288 -0.9049 -0.0369
  921MPD2    H213537   3.143   2.949  17.129  1.9834 -1.7122 -3.3193
  921MPD2    H313538   2.909   2.936  17.086 -0.9087  0.3788  1.0243
  921MPD2     N13539   2.915   2.485  17.055  0.2802 -0.1635  0.0273
  921MPD2    H513540   2.815   2.488  17.037 -0.0465 -2.9757  1.3606
  921MPD2    N113541   3.319   2.766  17.129 -0.3909 -0.0396  0.2224
  921MPD2    H713542   3.349   2.862  17.116  1.2755 -0.3953  1.4414
  922MPD2     C13543   4.200   0.211  17.014 -0.7067  0.3806  0.1149
  922MPD2    C113544   4.173   0.231  17.146 -0.9385 -0.2268  0.0123
  922MPD2    C213545   4.097   0.138  17.218  0.7877  0.1233  0.2484
  922MPD2    C313546   4.039   0.027  17.153 -0.6404  0.0487  0.5547
  922MPD2    C413547   4.069   4.737  17.021  0.2326  0.1002 -0.5142
  922MPD2    C513548   4.153   0.093  16.960 -0.1874 -0.4164  0.0069
  922MPD2     H13549   4.071   0.174  17.317  1.2555  0.5055  0.2344
  922MPD2    H113550   4.038   4.647  16.969  1.3847  0.2516 -1.4902
  922MPD2    H213551   4.257   0.283  16.958  0.0403 -0.2381  0.0810
  922MPD2    H313552   4.178   0.079  16.856 -0.9326  2.3202 -0.5507
  922MPD2     N13553   3.953   4.683  17.231  0.3772  0.1954  0.4181
  922MPD2    H513554   3.950   4.700  17.331 -1.2842  0.4076  0.3319
  922MPD2    N113555   4.235   0.335  17.222  0.1798  0.1420 -0.0055
  922MPD2    H713556   4.221   0.323  17.322 -0.4967 -3.1003 -0.5028
  923MPD2     C13557   4.533   2.989   9.192  0.6222  0.5679  0.7911
  923MPD2    C113558   4.652   3.033   9.239  0.9247  0.0134 -0.2876
  923MPD2    C213559   0.004   2.946   9.305 -0.1491  0.0552 -0.2102
  923MPD2    C313560   4.716   2.814   9.314 -0.1826  0.2085  0.0176
  923MPD2    C413561   4.590   2.769   9.281 -0.4580 -0.5558 -0.1428
  923MPD2    C513562   4.498   2.855   9.220 -0.0220  0.7615  0.2338
  923MPD2     H13563   0.096   2.987   9.345  0.6779 -1.5286 -0.5070
  923MPD2    H113564   4.571   2.666   9.310 -1.3796 -0.4526 -0.3845
  923MPD2    H213565   4.470   3.054   9.133 -0.4369 -0.3153  0.9394
  923MPD2    H313566   4.404   2.816   9.185  0.8972 -1.0648 -0.1798
  923MPD2     N13567   0.063   2.717   9.377 -0.6132 -0.2416 -0.7309
  923MPD2    H513568   0.029   2.622   9.365  1.5420 -1.4757  2.9666
  923MPD2    N113569   4.687   3.165   9.206  0.9386 -0.2707  0.1853
  923MPD2    H713570   4.613   3.229   9.177  1.5472  0.9614  1.3663
  924MPD2     C13571   0.481   0.216  15.829  0.1950 -0.3569 -0.7666
  924MPD2    C113572   0.403   0.194  15.946 -0.1142  1.0101  0.0096
  924MPD2    C213573   0.423   0.278  16.054  0.8770 -0.0501 -0.1642
  924MPD2    C313574   0.509   0.387  16.043 -0.3489  0.4465  0.4708
  924MPD2    C413575   0.587   0.404  15.932  0.0808  0.0016  0.0438
  924MPD2    C513576   0.573   0.322  15.822 -0.4294  0.6301  0.0337
  924MPD2     H13577   0.368   0.261  16.146 -1.0511 -1.6017 -1.6179
  924MPD2    H113578   0.661   0.482  15.926 -0.1663  0.3439  1.3742
  924MPD2    H213579   0.476   0.153  15.742  0.5679 -1.5087  0.0516
  924MPD2    H313580   0.628   0.339  15.731  0.6519 -0.6710  0.4379
  924MPD2     N13581   0.526   0.483  16.151 -0.6850 -0.4536 -0.0285
  924MPD2    H513582   0.579   0.566  16.123 -0.9447 -0.3460 -0.2103
  924MPD2    N113583   0.310   0.086  15.937  0.4267 -0.6188  0.1551
  924MPD2    H713584   0.279   0.060  15.844  1.1599 -1.8605  0.2613
  925MPD2     C13585   4.079   3.152  15.021 -0.4144 -0.7528  0.8590
  925MPD2    C113586   4.014   3.046  14.961  0.0702  0.0108 -0.6750
  925MPD2    C213587   3.928   2.975  15.039  0.5938 -0.2011 -0.1112
  925MPD2    C313588   3.909   3.003  15.175  0.3802 -0.0696 -0.2880
  925MPD2    C413589   3.984   3.103  15.229  0.1321  0.8924  0.4330
  925MPD2    C513590   4.065   3.172  15.152  0.3074  0.1115 -0.3548
  925MPD2     H13591   3.882   2.893  14.983  0.7214  0.1138 -0.6787
  925MPD2    H113592   3.972   3.128  15.334  2.5773  0.7716  0.7583
  925MPD2    H213593   4.145   3.219  14.967 -1.4283 -0.2703  0.2230
  925MPD2    H313594   4.112   3.256  15.201 -2.1391  0.3050  1.6703
  925MPD2     N13595   3.814   2.939  15.256  0.1044  0.0007  0.2472
  925MPD2    H513596   3.802   2.969  15.352  1.8129  2.1833 -0.2034
  925MPD2    N113597   4.029   3.007  14.830  0.6572  0.0424 -0.0959
  925MPD2    H713598   4.006   2.911  14.807 -1.5445 -0.2152  3.0022
  926MPD2     C13599   2.681   1.428  14.222 -0.2125 -0.8518 -0.3428
  926MPD2    C113600   2.612   1.509  14.134 -0.2081  0.0277 -0.7439
  926MPD2    C213601   2.673   1.558  14.021  0.9315  0.6812  0.7484
  926MPD2    C313602   2.805   1.526  13.993 -0.0785  0.2473 -0.0164
  926MPD2    C413603   2.870   1.455  14.087 -0.2920  0.8493 -0.5907
  926MPD2    C513604   2.814   1.410  14.205  0.3041 -0.3304 -0.0237
  926MPD2     H13605   2.612   1.615  13.952  1.8562 -0.8688 -1.3360
  926MPD2    H113606   2.978   1.448  14.073 -0.0602 -0.3156  1.7839
  926MPD2    H213607   2.639   1.384  14.312  1.4205 -0.5547  0.5608
  926MPD2    H313608   2.866   1.343  14.273  1.9141  1.7758  0.8071
  926MPD2     N13609   2.870   1.563  13.876 -0.4935 -0.5690 -0.0610
  926MPD2    H513610   2.963   1.529  13.852  0.4519  1.4539  0.7464
  926MPD2    N113611   2.480   1.544  14.150  0.1334  0.7599 -0.1676
  926MPD2    H713612   2.437   1.589  14.070  2.0584  0.2190 -1.5127
  927MPD2     C13613   2.348   3.654   0.192 -0.1979 -0.9721 -0.6032
  927MPD2    C113614   2.393   3.531   0.218 -1.0581  0.9989  0.4125
  927MPD2    C213615   2.508   3.497   0.152 -0.6610  0.0110  0.8868
  927MPD2    C313616   2.575   3.588   0.071  0.0713  0.0911 -0.5734
  927MPD2    C413617   2.531   3.710   0.056 -0.2048  0.9258  0.5779
  927MPD2    C513618   2.419   3.747   0.120  0.8789 -0.0147  0.3948
  927MPD2     H13619   2.554   3.402   0.172 -0.0804 -0.2889 -1.8515
  927MPD2    H113620   2.582   3.792   0.007  0.0704 -1.6669 -3.4338
  927MPD2    H213621   2.260   3.685   0.246  0.7402 -2.5982  1.8604
  927MPD2    H313622   2.371   3.843   0.102  1.0956 -0.2997 -1.7663
  927MPD2     N13623   2.692   3.539   0.005 -0.2905 -0.1338 -0.0917
  927MPD2    H513624   2.711   3.439   0.010  0.5158 -0.0038 -0.5879
  927MPD2    N113625   2.324   3.449   0.307 -0.7348 -0.4240 -0.6114
  927MPD2    H713626   2.256   3.489   0.371  1.4050 -1.3377  2.1950
  928MPD2     C13627   4.518   1.951   0.784  0.5384 -0.0596  0.0983
  928MPD2    C113628   4.650   1.945   0.826 -0.2380  0.1388 -0.5658
  928MPD2    C213629   0.012   2.013   0.756 -0.1555 -0.0588 -0.4913
  928MPD2    C313630   4.720   2.084   0.642  0.5557  0.2040  0.1630
  928MPD2    C413631   4.587   2.086   0.603  0.1115  0.3160  0.7641
  928MPD2    C513632   4.481   2.027   0.677  0.1184  0.2175  0.0693
  928MPD2     H13633   0.116   2.011   0.789 -0.0214  1.1161 -0.8363
  928MPD2    H113634   4.568   2.127   0.504  4.2016  1.6935  0.5601
  928MPD2    H213635   4.440   1.895   0.833 -1.1084  1.1108 -1.1947
  928MPD2    H313636   4.378   2.026   0.643  0.2525  0.1274 -0.3372
  928MPD2     N13637   0.077   2.165   0.570  0.0353 -0.6756 -0.8326
  928MPD2    H513638   0.045   2.228   0.497  1.9971  1.7927  0.4457
  928MPD2    N113639   4.673   1.866   0.944  0.4017  0.1166 -0.0659
  928MPD2    H713640   4.597   1.826   0.997 -1.0291  2.3354 -0.4589
  929MPD2     C13641   0.696   2.594  10.239  0.5415  1.1186 -0.1800
  929MPD2    C113642   0.586   2.632  10.308  0.3727  0.1276 -0.1563
  929MPD2    C213643   0.518   2.734  10.255 -0.7585 -0.0214 -0.5685
  929MPD2    C313644   0.543   2.789  10.130 -0.8680 -0.4729  0.2329
  929MPD2    C413645   0.666   2.758  10.076 -0.1145  0.1433 -0.2146
  929MPD2    C513646   0.733   2.650  10.121 -0.6047 -0.7717 -0.2505
  929MPD2     H13647   0.428   2.771  10.304 -1.6693 -0.8796 -1.5711
  929MPD2    H113648   0.711   2.806   9.990 -0.8362  1.8076  0.3323
  929MPD2    H213649   0.755   2.505  10.255 -2.1329 -0.5809  0.3077
  929MPD2    H313650   0.823   2.617  10.071  0.3984  0.9292  0.4379
  929MPD2     N13651   0.464   2.894  10.080 -0.5471  0.1417 -0.2361
  929MPD2    H513652   0.492   2.935   9.991 -2.0276  2.9972  0.5725
  929MPD2    N113653   0.542   2.571  10.426 -0.0130 -0.7215 -0.5454
  929MPD2    H713654   0.456   2.609  10.466  0.2679  1.0222 -1.6069
  930MPD2     C13655   2.255   4.165  14.479  0.0298 -0.0937  0.4316
  930MPD2    C113656   2.350   4.146  14.381 -1.0351 -0.3211 -0.1240
  930MPD2    C213657   2.340   4.042  14.295 -0.3522  0.0990  0.2351
  930MPD2    C313658   2.217   3.978  14.283  0.2050 -0.6032  0.0815
  930MPD2    C413659   2.112   4.008  14.375 -0.5050 -0.1456  0.3687
  930MPD2    C513660   2.139   4.101  14.469 -0.0101  0.0833  0.6398
  930MPD2     H13661   2.427   4.012  14.238 -0.7676 -1.7386  0.5981
  930MPD2    H113662   2.016   3.958  14.386 -0.8470  0.1911 -1.1252
  930MPD2    H213663   2.267   4.237  14.559  0.0873  0.4704 -0.0813
  930MPD2    H313664   2.066   4.124  14.545 -2.0137  0.9325 -1.5406
  930MPD2     N13665   2.197   3.893  14.168 -0.0826 -0.5089  0.6470
  930MPD2    H513666   2.281   3.866  14.118 -1.3276  1.0955 -2.3128
  930MPD2    N113667   2.444   4.253  14.363  0.4777 -0.4793 -0.6148
  930MPD2    H713668   2.427   4.331  14.426 -0.3029 -0.5537 -0.7283
  931MPD2     C13669   2.498   2.700   0.537  0.2210  0.5611  0.4319
  931MPD2    C113670   2.400   2.749   0.615 -0.4723 -0.4633 -0.3552
  931MPD2    C213671   2.353   2.676   0.721 -0.0175 -0.0455  0.3209
  931MPD2    C313672   2.409   2.561   0.756 -0.2696  0.2051  0.0472
  931MPD2    C413673   2.525   2.517   0.689 -0.5150  0.2121 -0.0452
  931MPD2    C513674   2.567   2.587   0.580  0.3524  0.1131 -0.0325
  931MPD2     H13675   2.267   2.710   0.778  0.1034  1.8789 -0.6539
  931MPD2    H113676   2.584   2.429   0.710  0.9226  1.1889 -0.0203
  931MPD2    H213677   2.526   2.749   0.445  0.5463 -1.2888 -0.4649
  931MPD2    H313678   2.657   2.558   0.527  0.8940 -1.6713  1.9037
  931MPD2     N13679   2.361   2.484   0.862 -0.4231 -0.3189  0.2265
  931MPD2    H513680   2.419   2.403   0.878 -1.2017 -1.2397 -1.6089
  931MPD2    N113681   2.345   2.870   0.571 -0.6541 -0.5034  1.1739
  931MPD2    H713682   2.383   2.915   0.488 -3.4077 -1.4981 -0.6000
  932MPD2     C13683   3.906   3.678  11.179  0.7374 -0.2226  0.1457
  932MPD2    C113684   3.979   3.665  11.292  0.0774 -1.3403 -0.1490
  932MPD2    C213685   4.034   3.536  11.328  0.5944  0.2009 -0.3938
  932MPD2    C313686   4.007   3.420  11.259  0.2597  0.6175 -0.2251
  932MPD2    C413687   3.936   3.440  11.138  0.1454 -0.3743  0.6087
  932MPD2    C513688   3.882   3.563  11.102  0.1380 -0.5166 -0.7252
  932MPD2     H13689   4.096   3.531  11.417  0.2199 -0.8982 -0.1894
  932MPD2    H113690   3.911   3.355  11.076  0.0770  2.0853 -2.7277
  932MPD2    H213691   3.874   3.777  11.147 -1.0350 -0.4679  1.1578
  932MPD2    H313692   3.824   3.579  11.012  1.9724 -3.2470 -2.3729
  932MPD2     N13693   4.054   3.297  11.312 -0.5217 -0.5247 -0.0262
  932MPD2    H513694   4.099   3.301  11.403 -2.8978  1.4018  1.0475
  932MPD2    N113695   4.021   3.776  11.372 -0.4953  0.3118 -0.2152
  932MPD2    H713696   4.100   3.769  11.435 -0.1478  0.7993 -0.5963
  933MPD2     C13697   4.662   1.927   1.793 -0.2618  0.1055 -0.0217
  933MPD2    C113698   4.677   1.976   1.669 -0.1585 -0.3091 -0.2132
  933MPD2    C213699   4.649   2.110   1.646  0.2074 -0.4070  0.5139
  933MPD2    C313700   4.574   2.179   1.745 -0.2623  0.5051 -0.0672
  933MPD2    C413701   4.538   2.117   1.860 -0.6240  0.4809  0.4472
  933MPD2    C513702   4.583   1.991   1.887  0.2227 -0.5192  0.4035
  933MPD2     H13703   4.682   2.170   1.562  0.5933 -1.2198  0.0803
  933MPD2    H113704   4.471   2.172   1.925 -1.1480  0.0537  0.2626
  933MPD2    H213705   4.704   1.831   1.822  1.5028  0.6036 -0.9484
  933MPD2    H313706   4.562   1.944   1.983 -2.6553  0.1168  0.0855
  933MPD2     N13707   4.531   2.310   1.714 -0.0635 -0.2070  0.6578
  933MPD2    H513708   4.574   2.356   1.635 -2.7841  0.9750 -0.1635
  933MPD2    N113709   4.735   1.891   1.572 -0.1932  0.4199 -1.2772
  933MPD2    H713710   0.021   1.797   1.602 -1.3981 -0.4451 -3.0287
  934MPD2     C13711   1.719   4.638   1.916  0.1409  0.0770 -0.1472
  934MPD2    C113712   1.787   4.583   1.807 -0.0606  0.4222 -0.1726
  934MPD2    C213713   1.718   4.499   1.720 -0.0196 -1.2658 -0.2069
  934MPD2    C313714   1.583   4.459   1.760 -0.0704  0.3052 -0.7700
  934MPD2    C413715   1.527   4.517   1.871  0.0790 -0.2668 -0.8527
  934MPD2    C513716   1.590   4.602   1.944  0.2248  0.3230 -0.0713
  934MPD2     H13717   1.767   4.450   1.636  0.9974 -1.4919  0.5237
  934MPD2    H113718   1.428   4.483   1.897  0.4745 -0.6255  0.1826
  934MPD2    H213719   1.772   4.714   1.973 -0.4682  0.6419 -0.3365
  934MPD2    H313720   1.549   4.644   2.036 -0.6204 -0.9737  0.1549
  934MPD2     N13721   1.501   4.373   1.683  0.4219  0.6717 -0.4574
  934MPD2    H513722   1.416   4.342   1.729 -0.1369  2.0193 -0.5965
  934MPD2    N113723   1.925   4.617   1.785 -0.2887  0.7900 -0.2153
  934MPD2    H713724   1.965   4.591   1.696 -0.2934  2.0933 -0.6012
  935MPD2     C13725   1.725   3.705   1.076  0.0769 -0.6708 -0.3022
  935MPD2    C113726   1.588   3.688   1.078 -1.1984  0.3324  0.0428
  935MPD2    C213727   1.519   3.791   1.135 -0.1677  0.0990  0.2799
  935MPD2    C313728   1.580   3.906   1.164  0.4892  0.0121  0.4285
  935MPD2    C413729   1.713   3.918   1.163 -0.2741 -0.1406  0.2773
  935MPD2    C513730   1.788   3.816   1.124  0.1280  0.1804 -0.2375
  935MPD2     H13731   1.411   3.782   1.143 -0.4380  3.4350  0.3772
  935MPD2    H113732   1.772   4.004   1.193  0.4060 -0.7534  0.6956
  935MPD2    H213733   1.785   3.628   1.029  1.3313  0.1088  0.0147
  935MPD2    H313734   1.896   3.825   1.112 -0.1022  3.1992 -0.1400
  935MPD2     N13735   1.512   4.022   1.205 -0.1630 -0.2558  0.3147
  935MPD2    H513736   1.577   4.100   1.210  0.0175 -0.3799 -0.0761
  935MPD2    N113737   1.533   3.565   1.044 -0.5167  0.3773 -0.6160
  935MPD2    H713738   1.432   3.576   1.040 -0.7780 -1.5680  0.9859
  936MPD2     C13739   4.645   1.148  12.964 -0.1005  0.4002 -0.7487
  936MPD2    C113740   4.537   1.229  12.928 -0.6014  0.1356  0.4993
  936MPD2    C213741   4.518   1.271  12.796 -0.3887 -0.0336 -0.4997
  936MPD2    C313742   4.600   1.237  12.699  0.2351  0.2712 -0.2196
  936MPD2    C413743   4.704   1.154  12.730 -0.0635 -0.2399  0.4948
  936MPD2    C513744   4.728   1.112  12.857 -0.3283 -0.6272 -0.4317
  936MPD2     H13745   4.423   1.322  12.782  1.2162  3.4949  1.4221
  936MPD2    H113746   0.030   1.112  12.652 -1.0439  0.7511 -0.8386
  936MPD2    H213747   4.655   1.109  13.065 -1.2547 -0.2032 -0.8693
  936MPD2    H313748   0.077   1.049  12.875 -0.7832 -1.0819  0.1743
  936MPD2     N13749   4.587   1.285  12.562 -0.6740 -0.2211 -0.0178
  936MPD2    H513750   4.663   1.260  12.500 -1.4300 -0.0368 -1.0096
  936MPD2    N113751   4.450   1.285  13.022  0.0689 -0.3104 -0.1184
  936MPD2    H713752   4.371   1.344  13.001  2.3777  1.5343 -3.6537
  937MPD2     C13753   2.487   2.750  11.819 -0.4339 -0.0481  0.7025
  937MPD2    C113754   2.478   2.885  11.843 -0.3016  0.8698 -0.2278
  937MPD2    C213755   2.572   2.972  11.784 -0.0073  0.1695  0.2788
  937MPD2    C313756   2.656   2.918  11.687 -0.9122  0.8369  0.2904
  937MPD2    C413757   2.653   2.783  11.654 -0.7204  0.5875  1.1489
  937MPD2    C513758   2.565   2.697  11.713  0.2870  0.3033 -0.0227
  937MPD2     H13759   2.574   3.077  11.810 -1.0179  0.7505 -2.0152
  937MPD2    H113760   2.717   2.744  11.576 -1.0726  1.0842  0.6132
  937MPD2    H213761   2.419   2.682  11.870  0.0461  0.3755  1.9172
  937MPD2    H313762   2.555   2.593  11.686 -2.8064  0.7259 -0.5198
  937MPD2     N13763   2.748   3.012  11.630  0.1104 -0.5416 -0.7914
  937MPD2    H513764   2.742   3.110  11.653 -3.5812 -1.2473  1.3010
  937MPD2    N113765   2.407   2.942  11.945 -0.0683  0.6816 -0.0348
  937MPD2    H713766   2.406   3.043  11.946 -1.4785  0.6382  1.9881
  938MPD2     C13767   0.551   3.870   0.785  0.3808 -0.5145 -0.2153
  938MPD2    C113768   0.569   3.944   0.903 -0.1970  0.4684 -0.4678
  938MPD2    C213769   0.589   3.865   1.019 -1.0950  0.9042  1.3898
  938MPD2    C313770   0.589   3.726   1.019  0.0045 -0.7463  0.5520
  938MPD2    C413771   0.562   3.657   0.899 -0.2868  0.8143  0.5889
  938MPD2    C513772   0.536   3.734   0.791 -0.0740  0.6715 -0.0716
  938MPD2     H13773   0.609   3.922   1.109 -3.1674  2.8269  0.6409
  938MPD2    H113774   0.555   3.549   0.895  0.4250  0.7739  0.4165
  938MPD2    H213775   0.530   3.921   0.691  1.2613  0.0981 -0.0748
  938MPD2    H313776   0.516   3.683   0.697  0.9149  1.7203 -0.8487
  938MPD2     N13777   0.611   3.639   1.132 -0.1657  0.4191 -0.0509
  938MPD2    H513778   0.620   3.540   1.110  0.0197  0.3300  0.4284
  938MPD2    N113779   0.557   4.086   0.910  0.4303  0.5551 -0.2779
  938MPD2    H713780   0.586   4.137   0.993 -1.1221  1.4558 -0.2801
  939MPD2     C13781   1.940   0.569   0.860  0.1198  0.6170 -0.3096
  939MPD2    C113782   1.837   0.503   0.929 -0.1249 -0.0228 -0.2151
  939MPD2    C213783   1.772   0.402   0.858  0.0603  0.1496  0.0248
  939MPD2    C313784   1.816   0.366   0.730  0.2966 -0.2688 -0.4984
  939MPD2    C413785   1.907   0.445   0.661  0.7526 -0.0469  0.5841
  939MPD2    C513786   1.964   0.552   0.726 -0.2343 -0.8786  0.5542
  939MPD2     H13787   1.684   0.356   0.900 -0.2027  1.0917  0.5030
  939MPD2    H113788   1.936   0.426   0.558 -1.2075  1.2637 -0.2362
  939MPD2    H213789   1.991   0.653   0.907  1.9919 -1.1950  0.9161
  939MPD2    H313790   2.036   0.615   0.676  0.6546 -2.1067  0.2955
  939MPD2     N13791   1.742   0.270   0.668  0.3680 -0.5406  0.0802
  939MPD2    H513792   1.666   0.231   0.724 -0.0727 -2.8334 -2.1473
  939MPD2    N113793   1.804   0.540   1.058 -0.9005 -0.1600  0.5412
  939MPD2    H713794   1.866   0.603   1.109 -0.6618  0.2527 -0.2656
  940MPD2     C13795   0.141   1.577  12.822 -0.1161  0.0155 -0.3311
  940MPD2    C113796   0.171   1.453  12.871  0.4795 -0.7492 -0.7379
  940MPD2    C213797   0.242   1.362  12.802  0.9823  0.4768  0.0104
  940MPD2    C313798   0.274   1.388  12.671  0.4587 -0.7384 -0.3001
  940MPD2    C413799   0.252   1.513  12.623 -0.5249 -0.6826  0.6566
  940MPD2    C513800   0.181   1.603  12.694 -0.0742  0.1493  0.2706
  940MPD2     H13801   0.273   1.266  12.841 -0.5699  0.3109  0.8446
  940MPD2    H113802   0.293   1.549  12.530 -0.1142  1.6304  1.7316
  940MPD2    H213803   0.092   1.658  12.876 -1.2954 -0.9088 -0.0136
  940MPD2    H313804   0.167   1.705  12.660  0.6696 -0.3829 -1.6323
  940MPD2     N13805   0.348   1.296  12.586  0.1755  0.0519 -0.1978
  940MPD2    H513806   0.348   1.317  12.486  0.3379  0.8537 -0.0251
  940MPD2    N113807   0.152   1.420  13.007 -0.3084  0.0083 -1.0932
  940MPD2    H713808   0.207   1.342  13.043 -3.1874 -0.5989  1.9896
  941MPD2     C13809   3.664   1.030  10.096 -0.2628 -0.1696  0.0794
  941MPD2    C113810   3.763   0.984  10.178 -0.1887  0.2399 -0.1791
  941MPD2    C213811   3.749   0.857  10.221  0.0300 -0.0301 -0.0974
  941MPD2    C313812   3.636   0.777  10.195 -0.2140  0.1515 -0.2146
  941MPD2    C413813   3.548   0.821  10.103  0.3850  0.3855 -0.0036
  941MPD2    C513814   3.562   0.946  10.049 -0.4866  0.2521  0.3364
  941MPD2     H13815   3.818   0.820  10.296 -0.0321 -0.4932 -0.2664
  941MPD2    H113816   3.468   0.757  10.069  1.2249  0.1142 -1.4573
  941MPD2    H213817   3.658   1.132  10.059  1.7362  0.5838  1.8464
  941MPD2    H313818   3.491   0.978   9.973 -0.9086  0.7392  0.9389
  941MPD2     N13819   3.620   0.646  10.242  0.7747 -0.3409  0.0897
  941MPD2    H513820   3.548   0.589  10.199  1.5541 -1.5960  0.4640
  941MPD2    N113821   3.881   1.046  10.218  0.2238 -0.3355  0.0121
  941MPD2    H713822   3.941   1.001  10.286  0.5760  1.9599  1.2136
  942MPD2     C13823   4.265   3.616   9.216 -0.2746  0.8204 -0.5520
  942MPD2    C113824   4.354   3.642   9.322  0.4758  0.6934 -0.7393
  942MPD2    C213825   4.411   3.531   9.385  0.3359 -0.6994 -0.4646
  942MPD2    C313826   4.373   3.401   9.350  0.5446  1.1728 -0.5591
  942MPD2    C413827   4.268   3.389   9.262 -0.2844 -0.2087 -0.1719
  942MPD2    C513828   4.219   3.490   9.194  0.1565  0.0768 -0.6585
  942MPD2     H13829   4.494   3.542   9.454 -0.2993 -0.6222  0.2864
  942MPD2    H113830   4.228   3.290   9.242 -0.3394 -0.1202 -0.4910
  942MPD2    H213831   4.209   3.700   9.176 -1.1173 -0.5567 -2.2562
  942MPD2    H313832   4.137   3.470   9.125  0.4162 -1.2176 -0.5936
  942MPD2     N13833   4.426   3.279   9.407  0.4482  0.1850  0.2086
  942MPD2    H513834   4.382   3.192   9.377 -0.0488  0.4740  0.1154
  942MPD2    N113835   4.387   3.778   9.362 -0.9794  0.6053  0.4808
  942MPD2    H713836   4.360   3.844   9.291 -1.5090  0.2158  0.3177
  943MPD2     C13837   2.649   0.760   9.649 -0.2213 -0.1165  0.0165
  943MPD2    C113838   2.606   0.736   9.776  0.0906 -0.0931 -0.0604
  943MPD2    C213839   2.682   0.750   9.887 -0.5602  0.0506  0.7646
  943MPD2    C313840   2.817   0.764   9.859 -0.0699  0.4429  0.2998
  943MPD2    C413841   2.871   0.783   9.732  0.3871  0.1970 -0.3590
  943MPD2    C513842   2.783   0.786   9.626  0.1377 -0.6557  0.4677
  943MPD2     H13843   2.651   0.724   9.987  1.6398 -3.2433  0.6055
  943MPD2    H113844   2.976   0.799   9.710  1.3348 -2.5581  2.1799
  943MPD2    H213845   2.575   0.742   9.573  0.1137 -0.9083 -0.1334
  943MPD2    H313846   2.815   0.782   9.523  0.7534 -1.0508  0.6724
  943MPD2     N13847   2.907   0.781   9.959  0.0867 -0.0200 -0.0252
  943MPD2    H513848   2.996   0.823   9.933  0.8034 -1.5008  0.0459
  943MPD2    N113849   2.466   0.724   9.780 -0.3979 -0.4512 -0.0731
  943MPD2    H713850   2.413   0.742   9.695  0.6811 -0.1929 -0.6978
  944MPD2     C13851   2.934   4.707  10.980 -0.0587 -0.7542 -0.1373
  944MPD2    C113852   3.027   4.736  11.076 -0.1905  0.4365  0.3137
  944MPD2    C213853   2.980   0.037  11.199  0.0754 -0.4066 -0.1935
  944MPD2    C313854   2.846   0.060  11.220 -0.2451  0.8407  0.2791
  944MPD2    C413855   2.751   0.036  11.119  0.2466 -0.3663 -0.0819
  944MPD2    C513856   2.797   4.723  11.007 -0.1861 -0.5880 -0.7448
  944MPD2     H13857   3.047   0.047  11.283  0.0971 -1.4496 -0.0961
  944MPD2    H113858   2.646   0.057  11.133 -0.8796 -6.4822  0.7273
  944MPD2    H213859   2.964   4.661  10.887 -0.7930  1.4447 -1.4836
  944MPD2    H313860   2.723   4.685  10.938  0.6487 -2.6994 -0.4845
  944MPD2     N13861   2.809   0.107  11.353  0.1231 -0.2456  0.3033
  944MPD2    H513862   2.884   0.125  11.418  2.0965 -0.1960 -2.0071
  944MPD2    N113863   3.161   0.007  11.045 -0.4453 -0.4287 -0.0794
  944MPD2    H713864   3.195   4.715  10.954  0.7419 -1.0698  0.5755
    1TMC1    C113865   1.861   0.255  14.920  0.3303  0.1071  0.5413
    1TMC1    C213866   1.813   0.177  14.822 -0.2169  0.8678  0.8777
    1TMC1    C313867   1.896   0.095  14.756  0.3014 -0.0198  0.8923
    1TMC1    C413868   1.989   0.257  14.954 -0.4014 -0.0983  0.1247
    1TMC1    C513869   2.076   0.175  14.876  0.4905 -0.6046 -0.2484
    1TMC1    C613870   2.032   0.088  14.782  0.7997 -0.1991  1.0829
    1TMC1     C13871   1.773   0.338  15.000 -0.1935 -0.4897 -0.4412
    1TMC1     O13872   1.830   0.398  15.091  1.0983 -0.2771  0.2653
    1TMC1     H13873   1.706   0.171  14.803 -0.1611 -0.8359  1.1373
    1TMC1    H113874   2.027   0.298  15.047  1.8007  1.5082 -1.5037
    1TMC1    H213875   2.092   0.020  14.722 -1.1711  0.0234 -1.1412
    1TMC1    C713876   2.220   0.182  14.893  0.6332  0.1392 -0.3578
    1TMC1    C813877   1.834   0.010  14.662 -0.2431 -0.8910 -0.7433
    1TMC1    O113878   2.301   0.101  14.845 -0.0965  0.1911  0.0335
    1TMC1    O213879   1.718   4.716  14.668  0.4051  0.2761  0.5252
    1TMC1    O313880   2.240   0.321  14.884 -0.0115 -0.0963  0.3190
    1TMC1    H313881   2.161   0.378  14.888 -1.6646 -2.4035  0.5328
    1TMC1    O513882   1.909   0.007  14.548  0.0072 -0.2084 -0.1493
    1TMC1    H513883   1.988   0.064  14.541  0.5021 -1.1161 -1.9678
    2MPD2     C13884   1.456   0.730  15.041 -0.3139 -0.1825  0.2307
    2MPD2    C113885   1.449   0.676  14.911  0.0792  0.7151 -0.1005
    2MPD2    C213886   1.516   0.560  14.882 -0.4115 -0.3526  0.4535
    2MPD2    C313887   1.588   0.488  14.975 -0.0726 -0.1322 -0.6366
    2MPD2    C413888   1.584   0.536  15.103  0.9981  0.3394  0.4191
    2MPD2    C513889   1.522   0.657  15.137 -0.2818  0.6792 -0.0567
    2MPD2     H13890   1.515   0.523  14.780  0.8499 -0.7484  0.5857
    2MPD2    H113891   1.618   0.485  15.193 -0.2746  1.3046  1.4424
    2MPD2    H213892   1.405   0.824  15.063 -0.2360 -0.8284  3.1211
    2MPD2    H313893   1.534   0.685  15.241 -0.6726  1.1525 -0.1364
    2MPD2     N13894   1.661   0.378  14.934 -0.5856 -0.2970 -0.4129
    2MPD2    H513895   1.672   0.353  14.837 -0.7569  0.4502 -0.6302
    2MPD2    N113896   1.378   0.763  14.819 -0.6499  0.4448  0.4183
    2MPD2    H713897   1.334   0.846  14.859 -0.5935  0.1985  0.9883
    3TMC2    C113898   1.268   0.856  14.631 -0.3499 -0.8835  0.5523
    3TMC2    C213899   1.262   0.982  14.689  0.2349 -0.1319  0.3628
    3TMC2    C313900   1.178   1.080  14.640 -0.0358 -0.4169 -0.1354
    3TMC2    C413901   1.216   0.842  14.513 -0.0086  0.1708 -0.6100
    3TMC2    C513902   1.148   0.944  14.452 -0.4216 -0.0049  0.4203
    3TMC2    C613903   1.125   1.065  14.513  0.5356  1.0613  0.3830
    3TMC2     C13904   1.345   0.746  14.684 -0.7108  0.7519 -0.1353
    3TMC2     O13905   1.381   0.655  14.609  0.5697 -0.2421  0.7701
    3TMC2     H13906   1.319   1.010  14.777  1.3460  0.0738 -0.4320
    3TMC2    H113907   1.211   0.744  14.467 -0.3217 -0.4723  0.7691
    3TMC2    H213908   1.064   1.143  14.471  0.6468  1.7781  1.5651
    3TMC2    C713909   1.046   0.907  14.359  0.2279  0.5089 -0.2262
    3TMC2    C813910   1.222   1.215  14.671  0.2069 -0.2544 -0.3214
    3TMC2    O113911   1.001   0.797  14.368 -0.0254  0.2852 -0.0016
    3TMC2    O213912   1.336   1.236  14.717  0.5804  0.0084 -0.3050
    3TMC2    O513913   1.117   1.290  14.684  0.4026 -0.1757  0.2045
    3TMC2    H513914   1.037   1.241  14.656  0.2947 -0.0858  0.3541
    4TMC2    C113915   0.604   1.513  13.669 -0.6936 -0.7924  0.3423
    4TMC2    C213916   0.680   1.612  13.612 -0.7784 -0.3607 -0.0441
    4TMC2    C313917   0.812   1.614  13.644 -0.1445  0.5970 -0.1916
    4TMC2    C413918   0.662   1.425  13.757 -0.3811  0.2597 -0.3916
    4TMC2    C513919   0.792   1.428  13.784 -0.1864 -0.3509 -0.1832
    4TMC2    C613920   0.870   1.524  13.731  0.8455 -0.2704 -0.1645
    4TMC2     C13921   0.471   1.551  13.700  0.8159  0.3446  0.1272
    4TMC2     O13922   0.429   1.515  13.807 -0.7108  0.6151 -0.6522
    4TMC2     H13923   0.644   1.694  13.552 -3.0225 -1.1775  0.1565
    4TMC2    H113924   0.599   1.354  13.810  1.6623  0.2718  2.0513
    4TMC2    H213925   0.978   1.524  13.743  0.7967 -2.0782  0.1965
    4TMC2    C713926   0.852   1.329  13.869 -0.6666 -0.5846  0.3900
    4TMC2    C813927   0.880   1.733  13.608  0.2741 -0.1721 -0.7875
    4TMC2    O113928   0.966   1.356  13.910 -0.0470  0.0937  0.1526
    4TMC2    O213929   0.968   1.796  13.665  0.2263 -0.0503  0.0518
    4TMC2    O513930   0.870   1.725  13.471 -0.1483 -0.0497 -0.1380
    4TMC2    H513931   0.816   1.655  13.429 -2.1929  1.7504 -0.5660
    5MPD2     C13932   0.033   1.790  13.590 -0.0388 -0.1223  0.4235
    5MPD2    C113933   0.109   1.803  13.478 -0.7327  0.9765 -0.5439
    5MPD2    C213934   0.241   1.753  13.481 -0.1038  0.6802 -0.0170
    5MPD2    C313935   0.294   1.703  13.600  0.1247  0.4495  0.8052
    5MPD2    C413936   0.221   1.715  13.719  0.0579 -0.2270  0.2710
    5MPD2    C513937   0.092   1.755  13.710 -0.6695  0.4134  0.0249
    5MPD2     H13938   0.309   1.757  13.397 -2.4311 -2.1370 -2.0621
    5MPD2    H113939   0.236   1.686  13.822 -0.5951  0.9576  0.7073
    5MPD2    H213940   4.665   1.813  13.595 -0.7396 -3.3185  0.4879
    5MPD2    H313941   0.033   1.736  13.799  0.3208  2.5586  1.1524
    5MPD2     N13942   0.422   1.633  13.596 -0.3430 -0.1574  0.1071
    5MPD2    H513943   0.469   1.647  13.507 -3.1520 -0.9238 -1.5204
    5MPD2    N113944   0.046   1.856  13.362 -0.5700 -1.0873  0.1747
    5MPD2    H713945   4.686   1.877  13.381 -0.7134  1.1188 -3.0616
    6MPD1     C13946   4.297   3.284  13.483 -0.2680  0.6511 -0.6591
    6MPD1    C113947   4.331   3.340  13.358  0.5241 -0.0364  0.3929
    6MPD1    C213948   4.364   3.262  13.250  0.3378 -0.0177 -0.6565
    6MPD1    C313949   4.338   3.130  13.257  0.3121 -0.2144  0.5645
    6MPD1    C413950   4.325   3.075  13.380  0.8992  0.2051  0.2342
    6MPD1    C513951   4.305   3.150  13.496 -0.1361  0.1113 -0.0502
    6MPD1     H13952   4.405   3.299  13.157 -0.3996 -0.8653 -1.3278
    6MPD1    H113953   4.312   2.968  13.395 -1.0698 -0.0594 -3.4977
    6MPD1    H213954   4.266   3.347  13.566 -1.9943  1.6401 -2.0488
    6MPD1    H313955   4.263   3.107  13.586 -1.7078  0.5816 -0.5542
    6MPD1     N13956   4.362   3.038  13.153  0.2791 -0.3620  0.3666
    6MPD1    H513957   4.341   2.946  13.189  0.7329 -0.0195  1.5008
    6MPD1    N113958   4.358   3.472  13.337  0.5681 -0.3127 -0.1759
    6MPD1    H613959   4.373   3.493  13.238  1.7909  1.6134  0.4274
    6MPD1    H713960   4.292   3.535  13.382  2.7007  3.3600 -2.2090
    7MPD2     C13961   4.423   2.503  13.302  0.3228  0.3055 -0.1561
    7MPD2    C113962   4.347   2.452  13.199 -0.5938 -0.2472  0.0920
    7MPD2    C213963   4.363   2.319  13.158  0.3221 -0.3278  0.3798
    7MPD2    C313964   4.451   2.233  13.220 -0.0993 -0.8302 -0.0996
    7MPD2    C413965   4.522   2.285  13.330  0.2649 -0.0201 -0.5151
    7MPD2    C513966   4.501   2.413  13.368 -0.3114 -0.6377  0.1454
    7MPD2     H13967   4.299   2.291  13.076 -0.4828 -2.3745  1.7060
    7MPD2    H113968   4.584   2.217  13.386 -0.2116  1.0134  1.2783
    7MPD2    H213969   4.421   2.606  13.339  0.5744  0.4430 -0.5302
    7MPD2    H313970   4.563   2.456  13.447  0.8112 -1.0392 -0.5154
    7MPD2     N13971   4.483   2.105  13.174 -0.9078 -0.4274  0.3577
    7MPD2    H513972   4.551   2.059  13.233  0.0040  1.0434  0.4607
    7MPD2    N113973   4.273   2.532  13.114 -0.0429  0.4030  0.5655
    7MPD2    H713974   4.211   2.494  13.043 -1.1555  1.8358  0.7800
    8TMC3    C113975   4.513   1.927  13.044 -1.4630  0.2271  0.3682
    8TMC3    C213976   4.598   1.910  13.150 -0.8827 -0.1186 -0.2970
    8TMC3    C313977   4.737   1.911  13.134 -0.4141 -0.4085 -0.7354
    8TMC3    C413978   4.569   1.939  12.922 -0.0988  0.5109  0.5907
    8TMC3    C513979   4.704   1.942  12.902  0.0390 -0.1923  0.0785
    8TMC3    C613980   0.043   1.924  13.008 -0.4285 -0.9211 -0.0219
    8TMC3     C13981   4.435   2.041  13.062 -0.7912  0.6294  0.6302
    8TMC3     O13982   4.365   2.077  12.973  0.2640  0.6952  0.1832
    8TMC3     H13983   4.542   1.878  13.237  0.3540 -1.7851 -0.1235
    8TMC3    H113984   4.509   1.934  12.832 -0.3546  3.6347  0.5980
    8TMC3    H213985   0.151   1.921  13.001 -0.6010  0.8273 -3.4225
    8TMC3    C713986   0.017   2.045  12.822  0.6423  0.1014 -0.3525
    8TMC3    C813987   0.096   1.865  13.236 -0.2380  0.2541  0.4164
    8TMC3    O113988   0.126   2.038  12.767 -1.0841  0.2716  0.2594
    8TMC3    O213989   0.206   1.824  13.204 -0.5727  0.4326 -0.0322
    9TMC3    C113990   4.289   2.953  12.950  0.5614 -0.1388  0.1981
    9TMC3    C213991   4.376   2.907  12.858 -0.0919 -0.7405 -0.5552
    9TMC3    C313992   4.364   2.776  12.822 -0.0979 -0.0200  0.8622
    9TMC3    C413993   4.215   2.869  13.030  0.2450  0.0801  0.4804
    9TMC3    C513994   4.217   2.735  13.005 -0.0693  0.9494  0.2249
    9TMC3    C613995   4.281   2.687  12.892 -0.2905  0.5915 -0.5950
    9TMC3     C13996   4.348   3.066  13.019 -0.7359 -0.5294  0.4057
    9TMC3     O13997   4.369   3.170  12.962  0.2274 -0.2647  0.5276
    9TMC3     H13998   4.464   2.958  12.821  0.7104 -0.4463  1.7398
    9TMC3    H113999   4.159   2.906  13.116  1.1791  1.7685  0.3675
    9TMC3    H214000   4.258   2.589  12.851  1.0091  1.5636 -3.6103
    9TMC3    C714001   4.269   2.670  13.119 -0.5857  0.7733  0.2718
    9TMC3    C814002   4.486   2.718  12.767 -0.1113 -0.2652  0.3353
    9TMC3    O114003   4.319   2.752  13.193 -0.1734 -0.1499 -0.2252
    9TMC3    O214004   4.543   2.777  12.676 -0.1368  0.0940  0.9313
   10MPD2     C14005   0.046   2.312  12.686 -0.4628 -1.0302 -0.6936
   10MPD2    C114006   4.677   2.273  12.770  0.0353 -0.4586  1.0913
   10MPD2    C214007   4.578   2.359  12.798  0.2582 -0.4970 -0.5479
   10MPD2    C314008   4.585   2.497  12.754 -0.3362 -0.3602 -0.6455
   10MPD2    C414009   4.682   2.529  12.667  0.1943 -0.6190  0.1869
   10MPD2    C514010   0.043   2.432  12.633 -0.2866  0.1929  0.1100
   10MPD2     H14011   4.505   2.329  12.872 -0.6560 -1.2187 -1.7400
   10MPD2    H114012   4.688   2.618  12.604  1.3414 -0.5386  0.3970
   10MPD2    H214013   0.127   2.250  12.651  0.7957 -0.9149  2.0400
   10MPD2    H314014   0.115   2.460  12.557 -1.1313  1.1994 -0.3184
   10MPD2     N14015   4.496   2.588  12.805 -0.5115  0.2333 -0.0423
   10MPD2    H514016   4.430   2.552  12.874 -0.4048 -0.4294 -0.2942
   10MPD2    N114017   4.670   2.147  12.831  0.7899  0.3746  1.0076
   10MPD2    H714018   4.587   2.122  12.884 -0.4047  1.6448 -0.2765
   11MPD2     C14019   0.845   0.883  14.152  0.4822  0.3276  0.0423
   11MPD2    C114020   0.923   0.996  14.164 -0.0085  0.0156  0.0329
   11MPD2    C214021   0.907   1.103  14.082  0.4616  0.5168  0.1293
   11MPD2    C314022   0.808   1.106  13.985  0.6400 -0.2181  0.3687
   11MPD2    C414023   0.726   0.993  13.976  0.0209 -0.2127 -0.2784
   11MPD2    C514024   0.750   0.891  14.057 -0.4004  0.7405  0.6032
   11MPD2     H14025   0.972   1.190  14.090  1.1512  0.2918 -2.9022
   11MPD2    H114026   0.652   0.976  13.899 -0.3361 -2.1414  0.4950
   11MPD2    H214027   0.850   0.789  14.206 -2.2842 -0.0721 -0.4435
   11MPD2    H314028   0.692   0.799  14.052 -0.7539  0.9811  0.2594
   11MPD2     N14029   0.779   1.211  13.892 -0.3006  0.0934  0.4095
   11MPD2    H514030   0.702   1.192  13.829 -0.0341 -0.3934  0.2332
   11MPD2    N114031   1.032   0.999  14.257  0.2963 -0.5538 -0.3083
   11MPD2    H714032   1.086   1.085  14.258  1.9892 -1.6610  3.7624
    1MPD1     C14033   3.816   2.921  17.253  0.3890 -0.0785 -0.1211
    1MPD1    C114034   3.880   2.896  17.373  0.6388  0.9639 -0.3211
    1MPD1    C214035   4.019   2.896  17.380 -0.3910  0.8975  0.2866
    1MPD1    C314036   4.096   2.916  17.266 -0.2211 -0.1979 -0.1775
    1MPD1    C414037   4.028   2.916  17.141 -0.2827 -0.5001 -0.3788
    1MPD1    C514038   3.891   2.922  17.136  0.5082 -0.0384  0.2942
    1MPD1     H14039   4.066   2.883  17.477  0.7454  0.0829 -0.3759
    1MPD1    H114040   4.087   2.930  17.052 -0.0541 -0.4310 -0.2168
    1MPD1    H214041   3.708   2.931  17.243  0.3719 -0.8611 -0.6987
    1MPD1    H314042   3.856   2.934  17.034  1.4139 -2.8945 -0.3454
    1MPD1     N14043   4.237   2.913  17.260  0.4131 -0.0513 -0.1222
    1MPD1    H514044   4.288   2.897  17.174  0.8112  1.4098 -0.1706
    1MPD1    N114045   3.802   2.880  17.488 -0.7254  0.2057  0.2144
    1MPD1    H614046   3.846   2.843  17.572 -0.5614 -0.8029 -0.3206
    1MPD1    H714047   3.715   2.831  17.471 -0.1946 -1.0562  1.1111
    2MPD1     C14048   0.099   3.595  17.616  0.3376  0.1236 -1.2295
    2MPD1    C114049   0.008   3.517  17.684  0.0791 -0.3402 -0.1752
    2MPD1    C214050   4.700   3.399  17.632  0.0525  0.1203  0.6196
    2MPD1    C314051   4.736   3.357  17.502  0.0095  0.3247 -0.2950
    2MPD1    C414052   0.081   3.444  17.434  0.3744 -0.2315  0.1677
    2MPD1    C514053   0.128   3.562  17.485 -0.0440 -0.3641 -0.4748
    2MPD1     H14054   4.641   3.335  17.697 -1.3130 -0.2479 -0.9940
    2MPD1    H114055   0.113   3.427  17.331  0.7834  1.9964 -0.0876
    2MPD1    H214056   0.140   3.683  17.664 -0.8450  0.8194 -1.4967
    2MPD1    H314057   0.180   3.637  17.427 -0.3457  0.4127  0.2488
    2MPD1     N14058   4.695   3.233  17.447 -0.1131 -0.3857 -0.3298
    2MPD1    H514059   4.648   3.178  17.518  0.1561  0.2435  0.3346
    2MPD1    N114060   0.005   3.535   0.074 -0.2960 -0.7528  0.0279
    2MPD1    H614061   4.664   3.489   0.118 -1.3662  0.3039 -0.8001
    2MPD1    H714062   0.004   3.633   0.100  1.1273 -0.7928  0.2822
    3TMC3    C114063   4.650   3.057  17.302  0.7101 -0.0819  0.5488
    3TMC3    C214064   4.688   2.988  17.193  0.2018  0.0919 -0.3550
    3TMC3    C314065   4.600   2.894  17.148 -0.2934  0.1944  0.1564
    3TMC3    C414066   4.549   3.027  17.382  0.3189  0.1228 -0.3609
    3TMC3    C514067   4.466   2.932  17.328  0.3399  0.7020  0.0959
    3TMC3    C614068   4.481   2.868  17.212 -0.2746  0.4705 -0.2594
    3TMC3     C14069   4.733   3.171  17.331  0.4356  0.2205 -0.0548
    3TMC3     O14070   0.076   3.215  17.247  0.2202 -0.3746 -0.0862
    3TMC3     H14071   0.045   3.016  17.149  0.5034 -1.0000 -0.3942
    3TMC3    H114072   4.521   3.084  17.470  0.3547 -0.7612  0.2154
    3TMC3    H214073   4.417   2.785  17.183 -1.5021  1.7038 -1.0485
    3TMC3    C714074   4.324   2.952  17.361  0.4421  0.6550  0.0097
    3TMC3    C814075   4.650   2.776  17.071  0.6117 -1.2577 -0.3956
    3TMC3    O114076   4.306   3.010  17.464 -0.1707  0.2782  0.0263
    3TMC3    O214077   4.620   2.665  17.108  0.1213 -1.0928 -0.1737
    4MPD1     C14078   0.135   2.588  16.654 -0.1548  0.9909  0.1322
    4MPD1    C114079   0.182   2.715  16.675 -0.4985  0.3385 -0.3181
    4MPD1    C214080   0.140   2.786  16.783 -0.0993 -1.2154  0.3893
    4MPD1    C314081   0.038   2.735  16.859  0.3131 -0.4043 -0.2527
    4MPD1    C414082   0.003   2.605  16.854  0.2464 -0.0532  0.4172
    4MPD1    C514083   0.060   2.527  16.751  0.4534  0.3287  0.2257
    4MPD1     H14084   0.179   2.885  16.802 -0.0387 -1.1649 -0.0084
    4MPD1    H114085   4.674   2.548  16.917 -1.2573 -1.8181 -2.7389
    4MPD1    H214086   0.172   2.536  16.566 -1.6285  1.0215 -0.5070
    4MPD1    H314087   0.025   2.425  16.746 -1.8878  1.0707  1.1331
    4MPD1     N14088   4.731   2.820  16.967  0.2310  0.4073  0.3085
    4MPD1    H514089   0.037   2.911  16.977 -1.6790  1.2782  0.7289
    4MPD1    N114090   0.306   2.754  16.622  0.3324 -0.4021  0.0406
    4MPD1    H614091   0.342   2.706  16.540 -1.5936 -2.1650  0.2392
    4MPD1    H714092   0.316   2.855  16.617 -2.2025 -0.0038  2.7123
    1TCq1    O114093   4.604   2.767  12.291  0.1504  0.4262  0.2462
    1TCq1    C114094   4.590   2.883  12.218 -0.2537  0.0840  0.9074
    1TCq1    O214095   4.540   2.984  12.265 -0.2181 -0.0297  0.0559
    1TCq1    C214096   4.582   2.853  12.078  0.3923  0.2343 -0.0687
    1TCq1    C314097   4.680   2.766  12.027 -0.4313 -0.7139  0.5776
    1TCq1    C414098   4.714   2.794  11.894  0.1550 -0.3107 -0.3482
    1TCq1    C514099   4.642   2.873  11.814  0.0420  0.1422 -0.4190
    1TCq1    C614100   4.545   2.957  11.867 -0.1688 -0.3736  0.3689
    1TCq1    C714101   4.519   2.943  12.001 -0.5645  0.6360  0.7315
    1TCq1    C814102   4.518   3.082  11.799  0.8624 -0.1448 -0.5344
    1TCq1    O414103   4.547   3.180  11.866  0.6127 -0.6040  0.3997
    1TCq1    C914104   0.076   2.712  11.837 -0.3997  0.4192 -0.1984
    1TCq1    O514105   0.179   2.687  11.904  0.4116 -0.0968 -0.6715
    1TCq1    O614106   0.052   2.679  11.723 -0.0139 -0.5376  0.0631
    1TCq1    H114107   4.603   2.690  12.230  1.4975  0.2629  0.4108
    1TCq1    H214108   4.736   2.692  12.083  2.0198  0.3659 -0.4857
    1TCq1    H314109   4.678   2.880  11.712 -2.5304 -1.3522 -1.4502
    1TCq1    H414110   4.447   3.012  12.043 -1.7939  0.4571 -1.0970
    2MPD1     C14111   4.474   3.347  11.370  0.2008  0.0960  0.4118
    2MPD1    C114112   4.457   3.215  11.341 -0.0986 -0.0054  0.7640
    2MPD1    C214113   4.450   3.126  11.444  0.5593  0.7661  0.6950
    2MPD1    C314114   4.490   3.166  11.570  0.4541 -0.2782  1.2114
    2MPD1    C414115   4.505   3.302  11.598  0.1274  0.5561 -0.1627
    2MPD1    C514116   4.501   3.398  11.498  0.7815 -0.4413 -0.2838
    2MPD1     H14117   4.426   3.024  11.415  1.3609  0.1939  2.0088
    2MPD1    H114118   4.528   3.338  11.697 -0.9652  0.7460  0.0237
    2MPD1    H214119   4.455   3.430  11.302  1.0321  0.4512  0.6049
    2MPD1    H314120   4.515   3.505  11.507  0.3957 -0.0534 -4.2074
    2MPD1     N14121   4.488   3.066  11.669 -0.0232  0.3290 -0.4149
    2MPD1    H514122   4.456   2.979  11.626  2.2102 -0.7979  0.2228
    2MPD1    N114123   4.422   3.179  11.208  0.1034 -0.6509  0.2290
    2MPD1    H614124   4.437   3.080  11.193  0.6886 -0.5512  0.1641
    2MPD1    H714125   4.474   3.232  11.138 -0.3899 -0.8272 -0.2718
    1TMC1    C114126   4.362   2.332   2.177  0.5708 -0.4059 -0.1879
    1TMC1    C214127   4.276   2.394   2.266 -0.5375  0.5696 -0.8141
    1TMC1    C314128   4.211   2.315   2.363 -0.0988  0.1743 -1.0644
    1TMC1    C414129   4.407   2.205   2.197  0.2605 -0.5932  0.0593
    1TMC1    C514130   4.354   2.135   2.297  0.3933 -0.0753 -0.1358
    1TMC1    C614131   4.250   2.179   2.379 -0.7920 -0.3807  0.5532
    1TMC1     C14132   4.445   2.416   2.091  0.0310  0.2620 -0.5739
    1TMC1     O14133   4.546   2.370   2.041 -0.5812 -0.0813  0.3003
    1TMC1     H14134   4.231   2.489   2.243  1.6857  2.2916  1.9195
    1TMC1    H114135   4.492   2.178   2.135  1.2329  2.4121  0.1002
    1TMC1    H214136   4.203   2.112   2.449 -2.8526  0.8264  0.3410
    1TMC1    C714137   4.371   1.989   2.290  0.1453 -0.0349  0.3184
    1TMC1    C814138   4.094   2.348   2.438 -0.9297 -0.8916 -0.2226
    1TMC1    O114139   4.293   1.910   2.346 -0.0912 -0.3299 -0.1437
    1TMC1    O214140   4.057   2.272   2.527  0.3388  0.2614  0.2891
    1TMC1    O314141   4.505   1.978   2.294  0.3288 -0.5597 -0.1169
    1TMC1    H314142   4.554   2.063   2.293  1.2695 -1.0945  1.4461
    1TMC1    O514143   4.053   2.473   2.425  0.7288  0.4639  0.1320
    1TMC1    H514144   4.094   2.521   2.350  1.6453 -1.2845 -0.4828
    2MPD1     C14145   4.472   2.889   1.870  0.1604 -0.3400  0.3276
    2MPD1    C114146   4.344   2.865   1.910 -0.6498  0.5514 -0.7785
    2MPD1    C214147   4.315   2.734   1.949 -0.5321  0.1405 -0.5077
    2MPD1    C314148   4.413   2.646   1.980 -0.2650 -0.4922  0.0394
    2MPD1    C414149   4.544   2.671   1.944 -0.0232  0.2208  0.2337
    2MPD1    C514150   4.562   2.793   1.892  0.7874 -0.2812  0.0831
    2MPD1     H14151   4.211   2.708   1.961 -0.2496 -1.0185 -0.5342
    2MPD1    H114152   4.623   2.598   1.954 -0.3470 -0.2753 -0.8745
    2MPD1    H214153   4.507   2.984   1.830  1.3303 -0.0061  2.1793
    2MPD1    H314154   4.662   2.833   1.875  0.5695  0.9687  1.8071
    2MPD1     N14155   4.366   2.527   2.052 -0.7657 -0.1897  0.1751
    2MPD1    H514156   4.269   2.537   2.081 -1.1896  0.7113 -1.5194
    2MPD1    N114157   4.253   2.968   1.873 -0.2523 -0.3497 -0.4634
    2MPD1    H614158   4.288   3.064   1.879 -0.1793 -0.3683 -0.5992
    2MPD1    H714159   4.174   2.960   1.936 -0.8650  1.2369 -1.0349
    1MPD1     C14160   1.623   2.354  11.237 -0.3996 -0.3313  0.4825
    1MPD1    C114161   1.668   2.290  11.348 -0.9585 -0.2968  0.1689
    1MPD1    C214162   1.667   2.359  11.466 -1.3615 -0.0732  0.4074
    1MPD1    C314163   1.629   2.491  11.472  0.8102 -0.0097 -0.3559
    1MPD1    C414164   1.585   2.550  11.359 -0.1283 -0.5441 -0.5396
    1MPD1    C514165   1.585   2.482  11.239  0.1160 -0.9536 -0.6177
    1MPD1     H14166   1.691   2.311  11.561  0.6025 -1.5017 -0.8060
    1MPD1    H114167   1.554   2.653  11.352 -1.3330 -0.8291  0.7445
    1MPD1    H214168   1.625   2.308  11.139  1.1111  0.9476 -0.0902
    1MPD1    H314169   1.551   2.525  11.146 -0.5580 -0.9898 -0.3837
    1MPD1     N14170   1.631   2.541  11.601 -0.4906 -0.5514  0.9698
    1MPD1    H514171   1.676   2.494  11.679 -0.8276 -0.5607  1.1586
    1MPD1    N114172   1.700   2.145  11.340 -0.4900 -0.1603  0.1177
    1MPD1    H614173   1.630   2.088  11.389 -0.3088  0.5111  1.1577
    1MPD1    H714174   1.699   2.113  11.243 -0.0733 -0.3587  0.1765
    2MPD1     C14175   0.872   3.013  11.060 -0.5511 -0.6031 -0.8618
    2MPD1    C114176   0.972   3.085  11.127 -0.0676  0.4228  0.5586
    2MPD1    C214177   1.085   3.115  11.053  0.5530  0.9820 -0.3621
    2MPD1    C314178   1.111   3.074  10.924  0.1380 -1.1854 -0.3063
    2MPD1    C414179   1.018   2.992  10.867 -0.3468  0.1468 -0.7151
    2MPD1    C514180   0.899   2.960  10.936 -0.7262  0.0444  0.6770
    2MPD1     H14181   1.158   3.185  11.093  0.5871  0.5316  0.3749
    2MPD1    H114182   1.021   2.957  10.764 -0.1713 -0.8060 -0.3896
    2MPD1    H214183   0.776   2.996  11.107  0.4456  0.1214  1.5054
    2MPD1    H314184   0.817   2.903  10.895 -1.1583  0.0340  1.5477
    2MPD1     N14185   1.224   3.117  10.859  0.5916 -0.3959 -0.4333
    2MPD1    H514186   1.276   3.194  10.899 -0.2203  0.8843 -1.8190
    2MPD1    N114187   0.950   3.157  11.247  0.0933 -0.6101 -0.5997
    2MPD1    H614188   1.030   3.158  11.310 -1.6916  2.1415  1.5816
    2MPD1    H714189   0.879   3.118  11.308 -1.0032  1.5243 -0.5343
    3MPD1     C14190   1.477   3.688   9.993  1.0315  0.3314  1.0176
    3MPD1    C114191   1.519   3.746  10.112  0.1550 -0.5703 -0.3884
    3MPD1    C214192   1.525   3.670  10.232 -0.6238  0.1390  0.3734
    3MPD1    C314193   1.460   3.549  10.233  0.5329 -0.3589  0.3283
    3MPD1    C414194   1.392   3.496  10.120 -0.3638  0.6402  0.5029
    3MPD1    C514195   1.415   3.562  10.000 -0.7550  0.1200  0.7083
    3MPD1     H14196   1.579   3.708  10.318 -1.4508 -1.5225  1.6213
    3MPD1    H114197   1.324   3.412  10.126 -1.2544  1.1155 -2.9838
    3MPD1    H214198   1.478   3.741   9.899  0.2117  1.9366  1.9097
    3MPD1    H314199   1.357   3.526   9.916  2.2532  2.4407 -2.3769
    3MPD1     N14200   1.453   3.483  10.355  0.0868 -0.1059  0.5993
    3MPD1    H514201   1.493   3.534  10.434  1.3702 -0.3495  0.1075
    3MPD1    N114202   1.587   3.867  10.102 -0.1555 -0.0651 -0.3633
    3MPD1    H614203   1.578   3.919  10.189  1.0617  0.9602 -0.8484
    3MPD1    H714204   1.561   3.925  10.023  1.3208  1.4724  0.2839
    4MPD2     C14205   1.474   3.249  11.842 -0.0175 -0.0064  0.5115
    4MPD2    C114206   1.593   3.181  11.863 -0.4108 -0.3478 -0.5511
    4MPD2    C214207   1.707   3.237  11.814 -0.0419 -0.6197 -0.3183
    4MPD2    C314208   1.703   3.352  11.729 -0.7942 -0.3217 -0.9446
    4MPD2    C414209   1.583   3.420  11.715  0.0399  0.8043  0.3978
    4MPD2    C514210   1.468   3.370  11.778  0.7598  0.4616 -0.5425
    4MPD2     H14211   1.800   3.184  11.833  1.0075  1.6136  0.7668
    4MPD2    H114212   1.578   3.504  11.646 -1.5380  0.6357  0.3021
    4MPD2    H214213   1.376   3.224  11.881 -0.6135  1.5402  0.0093
    4MPD2    H314214   1.369   3.410  11.759 -0.0321 -1.4453 -0.4721
    4MPD2     N14215   1.821   3.393  11.662  0.0233  0.1706 -0.5462
    4MPD2    H514216   1.807   3.480  11.610 -0.1445  0.6299  0.2706
    4MPD2    N114217   1.605   3.051  11.907  0.5104 -0.1268 -0.1284
    4MPD2    H714218   1.700   3.015  11.905  1.6958  2.9201  0.2192
    5TMC3    C114219   1.553   2.840  11.949  0.4259 -0.1770 -0.1693
    5TMC3    C214220   1.515   2.763  11.842 -0.4535  0.2367 -0.0203
    5TMC3    C314221   1.606   2.692  11.776 -0.1492  1.1284  0.4950
    5TMC3    C414222   1.685   2.835  11.992  0.3312  0.3096 -0.2490
    5TMC3    C514223   1.775   2.758  11.921 -0.4697  0.7794 -0.4061
    5TMC3    C614224   1.738   2.678  11.817  0.6509  0.2482 -0.1657
    5TMC3     C14225   1.500   2.973  11.942 -0.2602  0.3335  0.0234
    5TMC3     O14226   1.384   2.985  11.910  0.1718 -1.1798 -0.4725
    5TMC3     H14227   1.421   2.783  11.791 -0.4454  0.3522  0.0109
    5TMC3    H114228   1.722   2.901  12.070 -0.8250  0.8298 -0.1321
    5TMC3    H214229   1.806   2.647  11.739  2.8328 -2.9074  2.9900
    5TMC3    C714230   1.892   2.836  11.879 -0.2358 -0.0473 -0.8429
    5TMC3    C814231   1.583   2.663  11.636 -0.4688 -0.0766 -0.0054
    5TMC3    O114232   1.878   2.958  11.884 -0.4687 -0.2409  0.2315
    5TMC3    O214233   1.522   2.744  11.566 -0.0206 -0.3281  0.2240
    6TMC3    C114234   1.371   3.170  10.695  0.3646 -0.4765  0.3914
    6TMC3    C214235   1.359   3.223  10.573  0.2427 -0.8471  0.0235
    6TMC3    C314236   1.442   3.325  10.523  0.3444  1.0497 -0.0512
    6TMC3    C414237   1.478   3.209  10.769 -0.5758 -0.6634 -0.1147
    6TMC3    C514238   1.565   3.302  10.716  0.4216  0.5621  0.3039
    6TMC3    C614239   1.550   3.365  10.596  0.4015  0.0571 -0.5718
    6TMC3     C14240   1.275   3.072  10.737  0.1581  0.2151 -0.5595
    6TMC3     O14241   1.229   2.988  10.660  0.1038  0.1837  0.2502
    6TMC3     H14242   1.289   3.180  10.501 -0.6003 -0.4204  0.5916
    6TMC3    H114243   1.483   3.180  10.874 -0.6349 -1.0296 -0.2149
    6TMC3    H214244   1.612   3.444  10.556  1.8939 -1.0990 -0.5387
    6TMC3    C714245   1.675   3.334  10.807  0.0018 -0.0636  0.5207
    6TMC3    C814246   1.427   3.352  10.383 -1.0631  0.0543  0.3239
    6TMC3    O114247   1.656   3.321  10.927  0.2610  0.2446  0.6688
    6TMC3    O214248   1.417   3.259  10.310  1.0519  0.3832 -0.2141
    7MPD2     C14249   2.296   2.909  11.563 -0.0083  0.1927  0.4656
    7MPD2    C114250   2.204   2.999  11.617 -0.0686 -0.2907  0.3336
    7MPD2    C214251   2.102   2.954  11.698 -0.5792  0.5068  0.9437
    7MPD2    C314252   2.086   2.819  11.723 -0.4114 -0.3527 -0.2735
    7MPD2    C414253   2.174   2.729  11.661  0.5784  0.3646  0.0186
    7MPD2    C514254   2.282   2.773  11.590  0.0284  0.3734 -0.2055
    7MPD2     H14255   2.041   3.026  11.752  0.8190  1.3226  1.4472
    7MPD2    H114256   2.176   2.626  11.695  2.6456  0.5353  0.4027
    7MPD2    H214257   2.389   2.938  11.514 -0.9037  4.1098  1.0362
    7MPD2    H314258   2.362   2.708  11.556  0.8654  1.1763  0.2144
    7MPD2     N14259   1.986   2.762  11.806  0.0493 -0.1871  0.1713
    7MPD2    H514260   1.971   2.662  11.799 -2.1087  0.1317  0.5076
    7MPD2    N114261   2.199   3.133  11.583  0.2261 -0.1562  0.6539
    7MPD2    H714262   2.137   3.198  11.629  0.6983  1.8197 -1.5113
    8TMC3    C114263   2.246   3.335  11.487 -0.2375  0.1505 -0.4836
    8TMC3    C214264   2.196   3.365  11.363  0.5288  0.7270  0.9701
    8TMC3    C314265   2.075   3.431  11.346  0.4382 -1.0434 -0.6498
    8TMC3    C414266   2.170   3.367  11.592 -0.0863  0.4859  0.3815
    8TMC3    C514267   2.039   3.415  11.579 -0.3314 -0.1384 -0.3009
    8TMC3    C614268   1.991   3.453  11.454 -0.1124 -0.5077  0.0062
    8TMC3     C14269   2.281   3.196  11.487 -0.0836 -0.1204  0.7419
    8TMC3     O14270   2.353   3.149  11.405 -0.1263  0.0528 -0.1144
    8TMC3     H14271   2.252   3.323  11.281  0.6900 -1.6016  2.2693
    8TMC3    H114272   2.202   3.340  11.691 -2.0815  1.7131  1.3538
    8TMC3    H214273   1.893   3.495  11.435  0.7962  1.8227  0.3867
    8TMC3    C714274   1.944   3.341  11.664  0.2993  0.0591 -0.5285
    8TMC3    C814275   2.007   3.413  11.215 -0.2321  0.1966  1.1147
    8TMC3    O114276   1.978   3.242  11.720 -0.3464  0.6048 -0.7426
    8TMC3    O214277   1.885   3.381  11.206  1.0116  0.0259  0.4966
    9MPD2     C14278   2.164   3.480  10.882  0.3460  0.0409 -0.0222
    9MPD2    C114279   2.065   3.437  10.970 -0.2677  0.1357 -0.0046
    9MPD2    C214280   1.944   3.395  10.920  0.3988  0.3019 -0.4152
    9MPD2    C314281   1.912   3.398  10.785  0.0040  0.7159 -1.3824
    9MPD2    C414282   2.011   3.448  10.701 -0.1011 -0.0869  0.6460
    9MPD2    C514283   2.136   3.482  10.752 -0.7559 -0.3034 -0.3851
    9MPD2     H14284   1.873   3.347  10.986  2.6621  1.1641  2.6090
    9MPD2    H114285   1.981   3.487  10.605 -1.5682 -0.2984  1.0228
    9MPD2    H214286   2.259   3.524  10.910  0.6946 -0.7806  0.0866
    9MPD2    H314287   2.199   3.539  10.684  2.6267 -2.1183  1.2074
    9MPD2     N14288   1.782   3.374  10.734  0.1199  0.4849  0.0310
    9MPD2    H514289   1.779   3.375  10.632  0.6236 -0.5275  0.0050
    9MPD2    N114290   2.097   3.430  11.114  0.1042 -0.1309  0.1969
    9MPD2    H714291   2.185   3.457  11.156 -0.9503  2.7850  0.5578
    1MPD1     C14292   0.756   1.573  16.004 -0.4948 -0.8062  0.9690
    1MPD1    C114293   0.724   1.555  15.875  0.4704  0.0835 -0.2305
    1MPD1    C214294   0.779   1.447  15.809 -0.7539  0.5757 -0.2308
    1MPD1    C314295   0.864   1.355  15.870  0.1414 -0.4505 -0.4958
    1MPD1    C414296   0.884   1.373  16.004 -0.0022  0.0071 -0.3980
    1MPD1    C514297   0.836   1.480  16.072  0.0885 -0.0635  0.9213
    1MPD1     H14298   0.752   1.434  15.705  0.5314  0.2929 -0.5200
    1MPD1    H114299   0.957   1.311  16.056 -0.4759 -0.8230 -0.7250
    1MPD1    H214300   0.713   1.663  16.046  1.3286  1.4254 -1.8913
    1MPD1    H314301   0.872   1.500  16.172  0.4034 -1.1962  1.0363
    1MPD1     N14302   0.914   1.240  15.801  0.0792  0.3340  0.1852
    1MPD1    H514303   0.990   1.191  15.848 -0.6258 -1.1015 -0.1884
    1MPD1    N114304   0.652   1.657  15.804  0.8195 -0.5020  0.0161
    1MPD1    H614305   0.596   1.717  15.864  0.3178 -0.7614 -0.1928
    1MPD1    H714306   0.599   1.624  15.723  0.9556  1.5578 -0.9278
    2TMC2    C114307   1.030   0.866  15.685 -0.6292 -0.0969  0.1871
    2TMC2    C214308   1.103   0.857  15.569 -0.2973 -0.6968  0.2001
    2TMC2    C314309   1.076   0.952  15.480  0.4600 -0.4933 -0.4025
    2TMC2    C414310   0.956   0.978  15.718  0.6288  0.5771 -0.0744
    2TMC2    C514311   0.956   1.084  15.632  0.4982  0.6027  0.4042
    2TMC2    C614312   1.007   1.068  15.505 -0.7811 -0.1499  0.2646
    2TMC2     C14313   1.009   0.739  15.753 -0.2568 -0.2252 -0.6657
    2TMC2     O14314   1.038   0.638  15.690 -0.4004 -0.7082 -0.2347
    2TMC2     H14315   1.169   0.773  15.551  2.4237  1.0929  1.7930
    2TMC2    H114316   0.890   0.975  15.804  0.4601  0.1528 -0.2157
    2TMC2    H214317   0.979   1.138  15.427 -0.5926 -0.5029 -0.1202
    2TMC2    C714318   0.892   1.211  15.670 -0.1993 -0.0497 -0.5106
    2TMC2    C814319   1.178   0.958  15.376 -0.6938  0.5177 -0.3591
    2TMC2    O114320   0.811   1.255  15.591  0.1238 -0.8362  0.0288
    2TMC2    O214321   1.290   0.915  15.390  0.0137  0.0544 -0.0527
    2TMC2    O514322   1.110   0.937  15.257 -0.3810  0.8065 -0.1650
    2TMC2    H514323   1.016   0.967  15.260 -0.0023  1.8924  0.8523
    3MPD1     C14324   0.896   0.438  16.149 -0.1222 -0.4306 -0.1065
    3MPD1    C114325   0.891   0.570  16.196 -0.2990 -0.4083  0.5927
    3MPD1    C214326   0.917   0.672  16.107  0.2570  0.1110 -0.1157
    3MPD1    C314327   0.945   0.643  15.975 -0.8183  0.7445 -0.2871
    3MPD1    C414328   0.934   0.513  15.928  0.2105  0.1955 -0.5611
    3MPD1    C514329   0.909   0.412  16.013 -0.1671  0.0622 -0.0274
    3MPD1     H14330   0.911   0.777  16.133 -0.4921 -0.0942  0.5555
    3MPD1    H114331   0.937   0.487  15.823 -1.3607  0.8457 -0.7686
    3MPD1    H214332   0.896   0.357  16.220  3.3433 -1.2904 -1.0833
    3MPD1    H314333   0.912   0.310  15.977 -2.2492  1.1346 -3.2466
    3MPD1     N14334   0.968   0.753  15.885 -0.4068 -0.6864 -0.3576
    3MPD1    H514335   0.949   0.847  15.918  1.3067 -0.3643 -0.2908
    3MPD1    N114336   0.901   0.587  16.339 -0.0738  0.0661  0.1699
    3MPD1    H614337   0.855   0.670  16.375  0.9966  0.6007  0.3139
    3MPD1    H714338   0.865   0.509  16.392  0.1454  1.5837  2.5680
    1TMC1    C114339   4.224   0.563  13.582 -0.4230 -0.0849 -0.4324
    1TMC1    C214340   4.161   0.557  13.705  0.5156  0.0408  0.0901
    1TMC1    C314341   4.022   0.584  13.710 -0.6054 -0.9993  0.3252
    1TMC1    C414342   4.148   0.588  13.467  0.0776 -0.3324 -0.3908
    1TMC1    C514343   4.018   0.598  13.482 -0.3670 -0.0925 -0.2422
    1TMC1    C614344   3.948   0.606  13.600 -0.1780 -0.1853  0.4477
    1TMC1     C14345   4.360   0.578  13.562  0.2825 -0.0547 -0.2326
    1TMC1     O14346   4.402   0.615  13.452 -0.2441 -0.1881  0.0312
    1TMC1     H14347   4.222   0.559  13.795  0.7928  1.2656 -0.1170
    1TMC1    H114348   4.181   0.579  13.364  0.2888 -1.0415 -0.2650
    1TMC1    H214349   3.846   0.642  13.609 -0.2395 -0.6515  1.5498
    1TMC1    C714350   3.949   0.649  13.374 -0.1061 -0.1629  0.1588
    1TMC1    C814351   3.966   0.658  13.828  0.2233 -1.3922  0.6690
    1TMC1    O114352   4.009   0.722  13.296 -0.3865  0.6184 -0.2710
    1TMC1    O214353   3.882   0.743  13.829 -0.2849 -0.0608 -0.0072
    1TMC1    O314354   3.833   0.580  13.367  0.2048  0.0336  0.0457
    1TMC1    H314355   3.833   0.515  13.441 -0.3483  0.6106  0.5431
    1TMC1    O514356   3.998   0.592  13.939 -0.4579 -0.1794  0.0651
    1TMC1    H514357   4.038   0.505  13.921 -2.6006 -1.0265 -0.6030
    2MPD2     C14358   4.635   0.672  13.603 -0.7903  0.4081 -0.7441
    2MPD2    C114359   4.574   0.569  13.674 -0.7959 -0.3378 -0.5114
    2MPD2    C214360   4.646   0.499  13.769 -0.1964  0.3343  0.1371
    2MPD2    C314361   0.042   0.536  13.797 -0.6646  0.0108  0.5311
    2MPD2    C414362   0.098   0.644  13.732 -0.7201 -0.4275  0.0796
    2MPD2    C514363   0.026   0.706  13.630  0.4605 -0.4058  0.4127
    2MPD2     H14364   4.602   0.415  13.822 -0.7588  0.6217  0.1295
    2MPD2    H114365   0.202   0.671  13.748 -0.7928  1.3994 -2.5453
    2MPD2    H214366   4.574   0.741  13.546 -1.5987  1.1961  1.1109
    2MPD2    H314367   0.064   0.795  13.581 -1.3939  1.4517  2.3034
    2MPD2     N14368   0.105   0.474  13.902 -0.3776 -0.2251 -0.1158
    2MPD2    H514369   0.065   0.384  13.926  1.4269 -0.5880  1.5581
    2MPD2    N114370   4.440   0.537  13.664 -0.5457 -0.2311  0.2026
    2MPD2    H714371   4.400   0.490  13.744  1.0380 -1.4680  0.2500
    3TCq1    O114372   0.132   4.729  14.161  0.5670 -0.0125 -0.4517
    3TCq1    C114373   0.238   0.064  14.133 -0.4709  0.1264 -0.3570
    3TCq1    O214374   0.355   0.031  14.149  1.3270  0.4023  0.3797
    3TCq1    C214375   0.195   0.209  14.137 -0.2462  0.5020 -0.5800
    3TCq1    C314376   0.156   0.243  14.263 -0.8476 -0.0796  0.1065
    3TCq1    C414377   0.145   0.378  14.294  0.0421  0.5156 -0.5777
    3TCq1    C514378   0.186   0.477  14.203 -0.1832 -0.1827  0.3909
    3TCq1    C614379   0.243   0.433  14.083  0.3496  0.3149  1.0815
    3TCq1    C714380   0.248   0.300  14.054  0.1455  0.2430  0.3932
    3TCq1    C814381   0.211   0.521  13.969 -0.1001 -0.1960  0.5662
    3TCq1    O414382   0.281   0.620  13.963  0.3221 -0.5206 -0.3422
    3TCq1    C914383   0.081   0.417  14.413  0.2021  0.0545  0.2643
    3TCq1    O514384   0.029   0.531  14.412  0.2815 -0.4735 -0.1477
    3TCq1    O614385   0.083   0.332  14.509  0.0633  0.2871  0.0818
    3TCq1    H114386   0.049   0.042  14.146 -0.5290 -2.3888 -2.4557
    3TCq1    H214387   0.129   0.165  14.333  0.9738 -1.0183 -0.2434
    3TCq1    H314388   0.173   0.583  14.221 -0.7437 -0.2562  0.4169
    3TCq1    H414389   0.305   0.281  13.964  0.1413 -1.1494  0.6805
    1MPD2     C14390   3.951   1.265  14.998 -0.3256 -0.5211 -0.1487
    1MPD2    C114391   3.829   1.218  15.041 -0.1158 -0.6214  0.4192
    1MPD2    C214392   3.786   1.099  14.999  0.8325 -1.0956 -0.2034
    1MPD2    C314393   3.865   1.019  14.919 -0.0147  0.7959  0.3857
    1MPD2    C414394   3.982   1.070  14.862 -0.0906  0.4081 -0.5093
    1MPD2    C514395   4.026   1.184  14.914  0.4605  0.2470 -0.4108
    1MPD2     H14396   3.691   1.058  15.032  0.2589 -1.1184 -1.8832
    1MPD2    H114397   4.025   1.030  14.771  2.1349  3.1960 -0.6863
    1MPD2    H214398   4.001   1.355  15.031  0.1070 -0.9875  0.4763
    1MPD2    H314399   4.112   1.235  14.871  0.8689  0.2190  0.3674
    1MPD2     N14400   3.814   0.890  14.889 -0.2585  0.1421  0.0774
    1MPD2    H514401   3.723   0.873  14.929  0.5700 -0.4636  1.7245
    1MPD2    N114402   3.753   1.306  15.117  0.4827  0.3843  0.0655
    1MPD2    H714403   3.796   1.397  15.131  1.2396  0.1217 -0.5385
    2TMC3    C114404   3.558   1.372  15.239 -0.5204  0.0717 -0.0753
    2TMC3    C214405   3.461   1.312  15.318 -0.1237 -0.4426  0.5672
    2TMC3    C314406   3.332   1.361  15.307 -0.6255 -0.2350 -0.6436
    2TMC3    C414407   3.544   1.491  15.173  0.4465 -0.2437  0.0605
    2TMC3    C514408   3.409   1.538  15.159 -0.0596  0.0920 -0.7377
    2TMC3    C614409   3.305   1.474  15.225  1.3177 -0.0501 -0.3009
    2TMC3     C14410   3.635   1.268  15.179 -0.0889  0.2856  0.4598
    2TMC3     O14411   3.589   1.157  15.201  0.1856  0.2115 -0.3368
    2TMC3     H14412   3.479   1.224  15.378  0.1864 -1.6025 -1.2328
    2TMC3    H114413   3.620   1.533  15.108 -0.2705  1.0365  0.0455
    2TMC3    H214414   3.202   1.489  15.195  1.5723 -2.1686 -2.2660
    2TMC3    C714415   3.380   1.660  15.090 -0.2626  1.0043 -0.5625
    2TMC3    C814416   3.237   1.254  15.281 -0.2765  0.0248 -0.5692
    2TMC3    O114417   3.276   1.713  15.123 -0.3553  0.3959 -0.2867
    2TMC3    O214418   3.117   1.287  15.266  0.0229  0.6857  0.2609
    3TCq1    O114419   3.908   2.516  14.380  0.1994  0.5340 -0.7478
    3TCq1    C114420   3.994   2.418  14.363  0.4042  0.4245 -0.2351
    3TCq1    O214421   4.083   2.413  14.277  0.3300 -0.6754 -0.3453
    3TCq1    C214422   3.958   2.305  14.444  0.3732  0.7569  0.3571
    3TCq1    C314423   4.056   2.213  14.462  0.5833  0.7068 -0.4682
    3TCq1    C414424   4.022   2.091  14.520 -0.0166 -0.0587 -0.7353
    3TCq1    C514425   3.895   2.054  14.551  0.0567 -0.1408  0.0802
    3TCq1    C614426   3.805   2.154  14.543 -0.1872 -2.0664 -0.4516
    3TCq1    C714427   3.829   2.276  14.486  0.1188 -0.6698 -0.0787
    3TCq1    C814428   3.669   2.126  14.583  0.0040  0.1769 -0.4741
    3TCq1    O414429   3.583   2.212  14.555  0.2016  0.2611  0.3204
    3TCq1    C914430   4.124   1.990  14.551 -0.5681 -0.4953 -0.1286
    3TCq1    O514431   4.237   2.002  14.506 -0.3960 -0.0216  0.0629
    3TCq1    O614432   4.095   1.908  14.642 -0.1496 -0.6639  0.6081
    3TCq1    H114433   3.845   2.508  14.455  1.2570 -2.7202 -0.1873
    3TCq1    H214434   4.159   2.229  14.434  0.7060  1.6934  0.5346
    3TCq1    H314435   3.883   1.952  14.586  0.4051 -0.7009 -1.4271
    3TCq1    H414436   3.746   2.345  14.475  0.2576 -0.5019 -0.0805
    4MPD2     C14437   3.420   2.040  14.725 -0.1444  0.2056 -0.6024
    4MPD2    C114438   3.546   1.974  14.738  0.0630 -0.0800  0.4020
    4MPD2    C214439   3.566   1.868  14.832 -0.1218 -0.3211  0.0822
    4MPD2    C314440   3.451   1.813  14.899 -0.4404  0.1241 -0.0732
    4MPD2    C414441   3.330   1.883  14.878  0.1028  0.0983 -0.8384
    4MPD2    C514442   3.324   1.993  14.800  0.7934 -0.3816 -0.6952
    4MPD2     H14443   3.664   1.822  14.843  0.3341  0.9847  1.4220
    4MPD2    H114444   3.237   1.866  14.931  0.8125 -0.0127  0.3591
    4MPD2    H214445   3.392   2.135  14.681 -0.5227 -0.4492 -1.7908
    4MPD2    H314446   3.223   2.026  14.778 -0.2067 -0.8274  3.1405
    4MPD2     N14447   3.473   1.700  14.987 -0.4817  0.2021  0.0474
    4MPD2    H514448   3.549   1.639  14.959  0.0468  1.0236 -0.3066
    4MPD2    N114449   3.659   2.015  14.665 -0.1515  0.2558 -0.4899
    4MPD2    H714450   3.749   1.977  14.695 -0.3741  0.4957  0.4712
    5TMC2    C114451   3.564   0.664  14.876 -0.2427 -0.0664 -0.9384
    5TMC2    C214452   3.520   0.659  14.744 -0.4888  0.0365  0.3403
    5TMC2    C314453   3.613   0.635  14.646 -0.3484  0.3063  0.4294
    5TMC2    C414454   3.697   0.666  14.907  0.1013 -0.1567  0.2846
    5TMC2    C514455   3.783   0.676  14.806 -0.2004  0.2881  0.5616
    5TMC2    C614456   3.750   0.647  14.672 -0.5184  0.3347  0.0923
    5TMC2     C14457   3.497   0.765  14.956  0.0198 -0.2888 -0.2288
    5TMC2     O14458   3.583   0.834  15.020  0.1913 -0.0086 -0.2028
    5TMC2     H14459   3.417   0.668  14.712 -0.0442  0.0465 -1.1194
    5TMC2    H114460   3.731   0.662  15.010 -1.6760 -4.4967  0.6920
    5TMC2    H214461   3.823   0.661  14.594 -1.3445  0.8258 -0.5910
    5TMC2    C714462   3.871   0.791  14.815 -0.1056  0.1225  0.7748
    5TMC2    C814463   3.572   0.618  14.509 -0.7301 -0.3536 -0.1011
    5TMC2    O114464   3.979   0.790  14.753  0.4780  0.0377 -1.0938
    5TMC2    O214465   3.469   0.667  14.469 -0.2605  0.3394 -0.6404
    5TMC2    O514466   3.662   0.546  14.439 -0.4901  0.0450 -0.4127
    5TMC2    H514467   3.711   0.481  14.493 -1.5360  1.8111  2.7015
    6MPD2     C14468   3.103   1.027  15.136 -0.3631  0.1059  0.0787
    6MPD2    C114469   3.241   1.046  15.154  0.4963  0.4016  0.2180
    6MPD2    C214470   3.327   0.967  15.079  0.2270 -0.5857  0.3558
    6MPD2    C314471   3.282   0.869  14.995  0.3720  0.2439  0.3787
    6MPD2    C414472   3.151   0.852  14.970 -0.0964  0.6763  0.6357
    6MPD2    C514473   3.064   0.927  15.046 -0.0129  0.1933 -0.2408
    6MPD2     H14474   3.433   0.970  15.102 -0.0730 -0.9221  1.7972
    6MPD2    H114475   3.115   0.779  14.899 -1.1319  0.1577  1.7027
    6MPD2    H214476   3.026   1.082  15.190  0.6244 -2.1651  3.8282
    6MPD2    H314477   2.958   0.920  15.022  0.3406 -2.3329 -1.0066
    6MPD2     N14478   3.365   0.774  14.929 -0.2296  0.0845 -0.1186
    6MPD2    H514479   3.315   0.709  14.870  0.7762  0.4720 -1.3918
    6MPD2    N114480   3.300   1.144  15.231 -0.7062  0.2523 -0.1030
    6MPD2    H714481   3.401   1.141  15.229 -0.6840  3.0865 -3.1501
  945NH4     N114482   2.073   1.512  17.322  0.1759  0.1156  0.0325
  945NH4     H214483   2.052   1.424  17.271 -0.6185  0.8434 -0.8935
  945NH4     H314484   2.027   1.491  17.413  2.9883  0.8401  1.6179
  945NH4     H414485   2.041   1.602  17.280  0.0703 -0.3118 -0.7989
  945NH4     H514486   2.176   1.510  17.333  0.4004 -1.4848 -2.4141
  946SOD     NA14487   2.165   0.992  11.354 -0.3686  0.0649  0.0563
  947SOD     NA14488   1.643   2.118  13.945  0.3033  0.1110  0.1975
  948SOD     NA14489   3.425   2.827  12.255 -0.0549 -0.0369 -0.5681
  949SOD     NA14490   1.666   4.184  17.058  0.7086 -0.3360 -0.1544
  950SOD     NA14491   4.711   0.953  11.509 -0.5533  0.3718 -0.0680
  951SOD     NA14492   1.713   0.171   6.895 -0.0415 -0.3326 -0.4507
  952SOD     NA14493   3.758   2.174   2.787  0.0056 -0.5490  0.1356
  953SOL     OW14494   4.705   1.385   3.993 -0.6183 -0.7468  0.5807
  953SOL    HW114495   4.620   1.426   4.008 -1.5648 -2.9331  1.0769
  953SOL    HW214496   0.014   1.442   4.055  1.7632 -1.6738 -0.3344
  954SOL     OW14497   0.722   1.455   4.679 -0.4855  0.0849  0.2724
  954SOL    HW114498   0.668   1.534   4.678  1.0921  1.1802  0.2316
  954SOL    HW214499   0.731   1.437   4.772  1.1168 -0.9772 -0.0787
  955SOL     OW14500   0.233   2.761  15.441 -0.3530 -0.3919 -0.7586
  955SOL    HW114501   0.221   2.848  15.479  2.5809 -0.3015 -0.0302
  955SOL    HW214502   0.302   2.786  15.379  0.4702 -1.1149 -0.1416
  956SOL     OW14503   2.702   4.728   5.824  0.0356  0.0562 -0.2990
  956SOL    HW114504   2.754   4.648   5.828 -0.5485 -0.4375 -2.4849
  956SOL    HW214505   2.627   4.716   5.881  1.2264  1.1472  1.5138
  957SOL     OW14506   2.833   4.500   3.608 -0.7737 -0.1053  0.1252
  957SOL    HW114507   2.831   4.566   3.677 -0.6042  1.3414 -1.2418
  957SOL    HW214508   2.876   4.537   3.531  0.5631  1.4331  1.6065
  958SOL     OW14509   4.095   3.368   5.785  0.2620 -0.2975 -0.8028
  958SOL    HW114510   4.124   3.417   5.862 -3.1882 -0.2948  0.4973
  958SOL    HW214511   4.179   3.324   5.777  0.2463 -0.1459 -1.7754
  959SOL     OW14512   2.358   2.496  12.104 -0.6800  0.0025  0.0354
  959SOL    HW114513   2.419   2.532  12.168 -0.5938  0.7366 -0.4655
  959SOL    HW214514   2.325   2.577  12.067 -1.0567 -0.4507 -0.6183
  960SOL     OW14515   2.306   4.519   8.188  0.6644 -0.1990  0.0711
  960SOL    HW114516   2.213   4.540   8.180  0.6150 -0.2933  0.3909
  960SOL    HW214517   2.336   4.580   8.255 -0.8853  1.7470 -0.9934
  961SOL     OW14518   0.110   4.026   7.369  0.4833 -0.4312 -0.6518
  961SOL    HW114519   0.137   4.115   7.344 -1.8102 -0.3273 -2.7226
  961SOL    HW214520   0.180   3.967   7.340  1.9889  1.5765 -1.0795
  962SOL     OW14521   1.244   2.538   3.096  0.2799  0.4979 -0.4019
  962SOL    HW114522   1.278   2.586   3.021 -0.2588  1.3680 -0.0870
  962SOL    HW214523   1.318   2.493   3.136  0.0554  1.1386  0.7477
  963SOL     OW14524   1.998   0.970   0.909 -0.0422 -0.1137  0.4267
  963SOL    HW114525   1.940   0.984   0.834 -1.1004  1.8725  1.6357
  963SOL    HW214526   1.958   1.021   0.979 -0.9553  0.5374 -0.5839
  964SOL     OW14527   2.212   0.969   7.102  0.0953  0.8069 -0.1833
  964SOL    HW114528   2.229   1.060   7.126  4.2616 -0.1890  0.6522
  964SOL    HW214529   2.128   0.980   7.058 -0.2562 -2.5931 -0.3746
  965SOL     OW14530   2.193   1.047  12.420 -0.0327  0.3574 -0.5574
  965SOL    HW114531   2.145   0.965  12.422  0.1838  0.2796  1.5599
  965SOL    HW214532   2.260   1.047  12.489  1.8193  1.3447 -2.3440
  966SOL     OW14533   0.550   0.309   7.132 -0.2613  0.4208 -0.0451
  966SOL    HW114534   0.497   0.255   7.191  0.8534 -1.2810 -0.5729
  966SOL    HW214535   0.500   0.389   7.122 -0.2197  0.4232 -0.2203
  967SOL     OW14536   0.862   4.514   4.668  0.0114 -0.3661  0.1342
  967SOL    HW114537   0.786   4.515   4.727 -1.3521  3.5059 -1.7024
  967SOL    HW214538   0.877   4.608   4.665 -1.0938 -0.1859  0.2783
  968SOL     OW14539   2.501   4.239   7.077 -0.2628 -0.1919 -1.1017
  968SOL    HW114540   2.471   4.265   6.990  2.1089 -2.7838 -2.7050
  968SOL    HW214541   2.519   4.145   7.071 -3.4569 -0.8452 -0.4563
  969SOL     OW14542   1.512   2.574   0.675  0.7504  0.0249 -0.2066
  969SOL    HW114543   1.474   2.494   0.639  0.5003 -0.1958  0.5587
  969SOL    HW214544   1.440   2.599   0.733  0.8157  0.7241 -0.4158
  970SOL     OW14545   1.545   2.809  12.803 -0.7087  0.2066  0.2520
  970SOL    HW114546   1.613   2.819  12.737 -0.6760  2.2033  0.5937
  970SOL    HW214547   1.491   2.877  12.762  2.1588  3.2001  1.5092
  971SOL     OW14548   2.772   1.883  14.123  0.0773 -0.8198  0.4482
  971SOL    HW114549   2.830   1.809  14.140  1.2637 -0.8523 -3.8009
  971SOL    HW214550   2.801   1.897  14.033  0.3009 -1.3248  0.4418
  972SOL     OW14551   0.484   4.431   2.744 -0.1202 -0.4498  0.0056
  972SOL    HW114552   0.532   4.485   2.807 -0.2059  0.7379 -0.9284
  972SOL    HW214553   0.396   4.469   2.751 -0.2916 -0.8236 -0.1408
  973SOL     OW14554   2.530   1.055  16.968  0.2617  0.5049 -0.0701
  973SOL    HW114555   2.446   1.068  16.922  0.9335  0.0063 -1.4374
  973SOL    HW214556   2.564   0.986  16.911  1.0381  1.4251 -0.7091
  974SOL     OW14557   0.131   3.737   4.783  0.4061 -0.1485 -1.0632
  974SOL    HW114558   0.050   3.703   4.745 -0.8204  0.6747  0.7943
  974SOL    HW214559   0.189   3.663   4.801 -0.5172 -0.2277  1.5323
  975SOL     OW14560   1.659   2.806   5.142 -0.1128  0.2730  0.2115
  975SOL    HW114561   1.628   2.725   5.183 -0.3953  1.1241  1.6464
  975SOL    HW214562   1.754   2.801   5.155  0.2017  2.8155 -1.1477
  976SOL     OW14563   2.116   4.439   3.379  0.8166  0.2445 -0.0605
  976SOL    HW114564   2.162   4.417   3.298  0.6279  0.1619 -0.1460
  976SOL    HW214565   2.025   4.443   3.351  0.0857  0.4124  2.3373
  977SOL     OW14566   2.502   4.427   6.314  0.3911  0.4581  0.2665
  977SOL    HW114567   2.507   4.372   6.393  1.2916 -1.1158 -0.8829
  977SOL    HW214568   2.422   4.405   6.267 -0.0788  0.0360  1.2749
  978SOL     OW14569   4.214   0.182   6.458 -0.1658  0.5288  0.4290
  978SOL    HW114570   4.215   0.240   6.381  1.4438  1.3948  1.0932
  978SOL    HW214571   4.305   0.193   6.487 -0.3650  0.5240  1.0527
  979SOL     OW14572   1.841   1.279  13.100  0.1190  0.1851 -0.2137
  979SOL    HW114573   1.920   1.224  13.095 -1.7363 -2.3324 -2.1670
  979SOL    HW214574   1.842   1.303  13.193 -0.3033 -1.6978  0.2847
  980SOL     OW14575   1.066   1.674   6.457 -0.5970 -0.1277  0.0931
  980SOL    HW114576   0.976   1.690   6.428 -0.7492 -0.7127  0.2539
  980SOL    HW214577   1.119   1.752   6.439 -0.2991  0.0512  1.7165
  981SOL     OW14578   2.158   3.597  16.444 -0.4621 -0.3825  0.6955
  981SOL    HW114579   2.131   3.647  16.367 -1.0662 -2.5920 -0.5561
  981SOL    HW214580   2.235   3.547  16.416  0.6108  0.2319  2.5597
  982SOL     OW14581   0.426   3.132  12.453 -0.2555  0.1782  0.5015
  982SOL    HW114582   0.358   3.160  12.514 -0.3699  0.0192  0.4455
  982SOL    HW214583   0.507   3.135  12.504  0.4934  2.8958 -0.7949
  983SOL     OW14584   0.919   3.668   3.104 -0.6316 -0.2948  0.1582
  983SOL    HW114585   0.915   3.611   3.180  1.1974  0.1034  0.5452
  983SOL    HW214586   0.828   3.672   3.073 -0.0791 -0.0616 -1.4599
  984SOL     OW14587   1.771   0.887   0.098 -0.3847 -0.1535  0.0070
  984SOL    HW114588   1.679   0.910   0.109  0.1580  1.6722  0.8083
  984SOL    HW214589   1.757   0.798   0.067  1.8710 -1.2589  2.1376
  985SOL     OW14590   2.329   0.799   9.120  0.1499 -0.1514 -0.4238
  985SOL    HW114591   2.339   0.892   9.140 -0.4021 -0.7310  2.6109
  985SOL    HW214592   2.233   0.796   9.120  0.1751 -1.1038 -0.0845
  986SOL     OW14593   1.042   1.761   7.526 -0.0736  0.2602 -0.4866
  986SOL    HW114594   0.963   1.708   7.534  0.0971 -0.2106 -1.8656
  986SOL    HW214595   1.116   1.711   7.561  0.6453  1.1968 -0.6684
  987SOL     OW14596   4.657   0.485   7.029 -0.3463  0.2068  0.2567
  987SOL    HW114597   0.005   0.443   7.023  0.5247  1.8370  1.2871
  987SOL    HW214598   4.673   0.568   6.985  1.5195 -0.4668 -0.3818
  988SOL     OW14599   1.586   3.914  11.635 -0.1512 -0.1683 -0.0310
  988SOL    HW114600   1.561   3.977  11.568  1.8648  0.4674 -0.2055
  988SOL    HW214601   1.566   3.963  11.715  1.8918 -0.2607  0.5424
  989SOL     OW14602   2.857   0.190  16.629 -0.0490  0.4667  0.7392
  989SOL    HW114603   2.919   0.232  16.570 -1.3939  0.4503 -0.6890
  989SOL    HW214604   2.908   0.111  16.646 -0.0018  0.5303  0.8939
  990SOL     OW14605   0.804   1.906   3.658 -0.2199  0.1666  0.6207
  990SOL    HW114606   0.895   1.909   3.688 -0.1225  1.0947  0.2188
  990SOL    HW214607   0.804   1.937   3.568  1.3964 -0.1134  0.5353
  991SOL     OW14608   0.889   0.648  17.293  0.2154 -0.0183  0.3907
  991SOL    HW114609   0.980   0.637  17.268 -0.5393 -0.6134 -2.1191
  991SOL    HW214610   0.886   0.719  17.357 -1.0312 -0.8122  1.2261
  992SOL     OW14611   2.786   4.075  10.458 -0.1149  0.6808 -0.2532
  992SOL    HW114612   2.743   4.160  10.468  0.3116  1.0297 -1.3886
  992SOL    HW214613   2.780   4.052  10.550 -0.1255  4.0670  0.5879
  993SOL     OW14614   0.384   0.305   6.452 -0.3049  0.7741  0.2513
  993SOL    HW114615   0.418   0.311   6.541  0.0898 -1.7254  0.2582
  993SOL    HW214616   0.320   0.236   6.470  0.0046 -0.1108 -2.0933
  994SOL     OW14617   4.086   1.227   2.565  0.2771 -0.6653  0.3131
  994SOL    HW114618   4.051   1.166   2.630  0.6646 -0.2506  0.9082
  994SOL    HW214619   4.180   1.209   2.568  0.6832  1.1573 -1.4491
  995SOL     OW14620   1.141   4.684   2.896 -0.4093  0.2807 -0.3827
  995SOL    HW114621   1.169   4.630   2.823  2.7460  0.7294  0.5133
  995SOL    HW214622   1.219   4.675   2.950 -0.2314 -1.6320 -0.9855
  996SOL     OW14623   2.356   0.675  12.529  0.1575 -0.6767  0.2330
  996SOL    HW114624   2.290   0.721  12.581  0.9951  1.4782 -0.5852
  996SOL    HW214625   2.370   0.733  12.454 -2.3299  0.8950  0.9975
  997SOL     OW14626   2.276   1.067   8.743  0.1761 -0.0267 -0.1027
  997SOL    HW114627   2.196   1.072   8.691  0.8647  0.8011 -1.0756
  997SOL    HW214628   2.331   1.136   8.705 -0.3354 -0.1567 -1.0736
  998SOL     OW14629   1.568   3.548   8.081  0.3321 -0.0697 -0.3132
  998SOL    HW114630   1.538   3.459   8.066 -1.3989  0.3807  0.4877
  998SOL    HW214631   1.495   3.606   8.061 -0.2954  0.5884  3.7670
  999SOL     OW14632   1.877   1.765   0.662  0.1637 -0.6138  0.2062
  999SOL    HW114633   1.971   1.775   0.679 -0.0181  1.6511 -0.0680
  999SOL    HW214634   1.853   1.849   0.623  0.1841 -0.2654  0.9490
 1000SOL     OW14635   0.433   0.008   7.170  0.0186 -0.5752 -0.2280
 1000SOL    HW114636   0.381   0.086   7.185 -0.8829 -1.5633  1.8889
 1000SOL    HW214637   0.465   4.729   7.259 -1.1907 -0.0853  0.2915
 1001SOL     OW14638   3.966   1.711   4.816 -0.0853 -0.3643 -0.4344
 1001SOL    HW114639   3.980   1.783   4.878  1.6734  0.9474 -2.3935
 1001SOL    HW214640   3.873   1.714   4.792 -0.4736 -2.2148  0.7783
 1002SOL     OW14641   1.680   2.781  13.333  0.5665 -0.0609 -0.1282
 1002SOL    HW114642   1.709   2.860  13.287  0.4368  0.0021 -0.1013
 1002SOL    HW214643   1.587   2.804  13.336  0.4583 -0.8799  2.7708
 1003SOL     OW14644   3.803   1.780   2.536  0.3774  0.4688 -0.0458
 1003SOL    HW114645   3.863   1.741   2.471  0.5427  0.3680  0.1648
 1003SOL    HW214646   3.839   1.760   2.623  0.0761 -1.5357 -0.3741
 1004SOL     OW14647   4.533   0.108   9.052  0.0256  0.5957  0.2296
 1004SOL    HW114648   4.529   0.126   9.146  0.3892 -0.1714  0.3930
 1004SOL    HW214649   4.613   0.152   9.024 -0.2448  1.3195  0.5839
 1005SOL     OW14650   1.211   3.949   7.907 -0.1733 -0.1026  0.1150
 1005SOL    HW114651   1.125   3.963   7.947 -0.6729 -0.0560 -0.9744
 1005SOL    HW214652   1.277   3.938   7.976 -0.2013 -1.1247 -0.0240
 1006SOL     OW14653   2.897   0.957   5.787  0.8572  0.2542 -0.8810
 1006SOL    HW114654   2.842   0.906   5.728 -0.7726  0.2160  0.6658
 1006SOL    HW214655   2.983   0.925   5.761  0.8892  3.0871 -4.2420
 1007SOL     OW14656   1.992   4.719   9.006  0.0929 -0.0990 -0.5418
 1007SOL    HW114657   2.079   0.003   8.972 -0.7140  1.0955 -1.8532
 1007SOL    HW214658   2.021   4.662   9.076  0.7909  0.4627 -0.3786
 1008SOL     OW14659   2.972   1.536  17.135 -0.0144  0.5731 -1.2886
 1008SOL    HW114660   2.880   1.516  17.116 -0.4822  1.9233 -0.4115
 1008SOL    HW214661   3.009   1.506  17.052 -0.6921 -0.8557 -1.0857
 1009SOL     OW14662   0.787   4.414   6.848 -0.2858 -0.6641  0.3949
 1009SOL    HW114663   0.703   4.388   6.810  0.8106 -2.3610 -0.8760
 1009SOL    HW214664   0.792   4.349   6.919 -0.0677 -0.2826  0.7243
 1010SOL     OW14665   2.500   0.857   4.544 -0.2644  0.2831  0.2224
 1010SOL    HW114666   2.448   0.882   4.468  0.2816 -0.7738 -0.5014
 1010SOL    HW214667   2.570   0.921   4.545 -0.1069  0.1229 -0.2649
 1011SOL     OW14668   2.412   3.297   4.630 -0.0375 -1.0531  0.3526
 1011SOL    HW114669   2.329   3.296   4.582 -0.2861 -0.0819  0.7491
 1011SOL    HW214670   2.395   3.226   4.692 -0.5808  0.0733  1.5177
 1012SOL     OW14671   0.742   1.961   0.469  0.4709 -0.4501  0.1476
 1012SOL    HW114672   0.653   1.934   0.444  0.4035 -0.2143  0.1280
 1012SOL    HW214673   0.720   1.996   0.556  1.6558  3.4294 -1.1002
 1013SOL     OW14674   1.252   0.414   6.917  0.7517 -0.4259  0.5517
 1013SOL    HW114675   1.221   0.475   6.984 -0.9415 -2.1352  1.3459
 1013SOL    HW214676   1.183   0.348   6.908  0.2976  0.2602 -0.9740
 1014SOL     OW14677   3.709   2.696   2.431 -0.2247  0.3071  0.1744
 1014SOL    HW114678   3.706   2.789   2.406 -0.2663 -0.1442 -1.5356
 1014SOL    HW214679   3.777   2.713   2.497 -1.7456  2.1161  1.2692
 1015SOL     OW14680   0.015   1.119   3.989 -0.0173 -0.2825 -0.2836
 1015SOL    HW114681   0.050   1.078   4.068 -2.8338  0.0747  1.1619
 1015SOL    HW214682   0.019   1.212   4.012  0.2200 -0.6913  1.3008
 1016SOL     OW14683   0.584   1.085  10.083 -0.1162  0.5164 -0.5764
 1016SOL    HW114684   0.599   1.177  10.060 -0.6314  0.3632 -1.5066
 1016SOL    HW214685   0.520   1.062  10.016 -1.6398  1.3891  0.5879
 1017SOL     OW14686   4.371   0.376   9.240 -0.3130 -0.0403  0.9223
 1017SOL    HW114687   4.460   0.356   9.270  0.2896  1.6450  0.2501
 1017SOL    HW214688   4.379   0.470   9.222 -3.7188  0.2697  1.1835
 1018SOL     OW14689   3.026   3.143   7.817  0.4447  0.4816  0.0478
 1018SOL    HW114690   3.037   3.094   7.899  1.4103  0.5127 -0.0582
 1018SOL    HW214691   3.119   3.166   7.820  0.4401  0.6415 -0.9782
 1019SOL     OW14692   3.158   0.370  16.750 -0.1795  0.1262  0.0312
 1019SOL    HW114693   3.103   0.421  16.810 -2.2378 -2.0261 -0.0141
 1019SOL    HW214694   3.248   0.383  16.777  0.0303 -2.0373  0.3766
 1020SOL     OW14695   2.988   1.361   4.312  0.8035 -0.0228 -0.0318
 1020SOL    HW114696   3.045   1.290   4.341 -0.5084  0.2544  3.2608
 1020SOL    HW214697   2.906   1.313   4.314  0.4139  0.5397 -2.1584
 1021SOL     OW14698   3.236   1.740   4.971  0.3811 -0.0261 -0.3599
 1021SOL    HW114699   3.221   1.830   4.942  1.4024  0.3258  0.2030
 1021SOL    HW214700   3.171   1.726   5.040  0.0517  1.1054 -0.4312
 1022SOL     OW14701   4.430   3.540   2.637 -0.2264 -0.3415 -0.3873
 1022SOL    HW114702   4.424   3.598   2.561  1.5803  0.0550 -0.2300
 1022SOL    HW214703   4.355   3.487   2.612  0.5697 -1.4894 -0.3435
 1023SOL     OW14704   3.318   1.965   3.400  0.0566  0.6214 -0.0238
 1023SOL    HW114705   3.378   2.037   3.419  0.7669  0.1611 -0.5086
 1023SOL    HW214706   3.232   2.003   3.419  0.8760  1.5754  1.7528
 1024SOL     OW14707   1.974   0.620   8.955  0.1525  0.2058 -0.1182
 1024SOL    HW114708   1.996   0.706   8.990 -0.6029  0.5843 -0.5731
 1024SOL    HW214709   2.011   0.625   8.867 -1.5643 -0.6593 -0.9079
 1025SOL     OW14710   0.580   3.002   2.350  0.1207  0.1311  0.3941
 1025SOL    HW114711   0.512   2.993   2.417 -1.9766  0.2210 -1.7022
 1025SOL    HW214712   0.539   2.962   2.273  1.2222 -2.4579  1.1619
 1026SOL     OW14713   3.588   2.525   7.957 -0.2521  0.2017  0.2616
 1026SOL    HW114714   3.497   2.523   7.926  0.0012  2.1376 -0.5549
 1026SOL    HW214715   3.594   2.430   7.970 -2.2861 -0.0952 -0.9367
 1027SOL     OW14716   4.252   2.035   6.131 -0.6417  0.2027 -0.8383
 1027SOL    HW114717   4.249   2.119   6.176 -0.5348 -0.1523 -0.1621
 1027SOL    HW214718   4.301   2.052   6.050 -0.3784  2.6898 -0.1505
 1028SOL     OW14719   4.118   2.838   7.619 -0.0091 -0.5134  0.0855
 1028SOL    HW114720   4.040   2.893   7.611 -0.7490 -1.6360 -0.2666
 1028SOL    HW214721   4.172   2.866   7.546 -3.4541  4.1163 -0.6811
 1029SOL     OW14722   0.028   1.294   9.157  0.4308 -0.2211 -0.5092
 1029SOL    HW114723   0.098   1.229   9.163 -1.0411 -1.6652  0.9142
 1029SOL    HW214724   4.696   1.251   9.108 -0.2879  1.6184 -1.0878
 1030SOL     OW14725   3.695   2.921   6.280  0.2705 -0.0024  0.0478
 1030SOL    HW114726   3.687   2.877   6.196 -0.8791  2.9698 -1.3663
 1030SOL    HW214727   3.790   2.935   6.276 -0.0905  2.8341  1.5328
 1031SOL     OW14728   2.562   4.199   5.356 -0.0778  0.6256  0.0354
 1031SOL    HW114729   2.538   4.116   5.314 -0.9192  0.8305  0.1113
 1031SOL    HW214730   2.649   4.207   5.317  0.3861 -1.0466  0.7080
 1032SOL     OW14731   1.753   1.949  14.054 -0.5672  0.1090 -0.0580
 1032SOL    HW114732   1.704   1.872  14.080 -0.9264 -0.1406 -1.4864
 1032SOL    HW214733   1.844   1.920  14.054 -1.0956 -1.5823 -2.0992
 1033SOL     OW14734   3.452   0.617   4.300  0.6815  0.0808  0.0207
 1033SOL    HW114735   3.525   0.587   4.247  2.0493 -0.1616  2.0545
 1033SOL    HW214736   3.413   0.679   4.239  0.1541  0.9299  1.2096
 1034SOL     OW14737   0.891   1.706   8.518 -0.6183  0.2443  0.2915
 1034SOL    HW114738   0.833   1.696   8.442 -0.4954 -0.7475  0.3274
 1034SOL    HW214739   0.973   1.671   8.484 -1.9282 -2.7251  0.1772
 1035SOL     OW14740   4.477   3.606   6.702 -0.0502  0.0646  0.0222
 1035SOL    HW114741   4.509   3.640   6.786  0.7714 -0.1444 -0.2109
 1035SOL    HW214742   4.435   3.531   6.744 -0.4387 -0.6830 -1.6965
 1036SOL     OW14743   3.412   4.097   7.979 -0.4169 -0.3513 -0.2528
 1036SOL    HW114744   3.349   4.124   8.046 -1.2293 -0.0844 -1.1289
 1036SOL    HW214745   3.423   4.184   7.941  0.8015 -0.0063  0.8929
 1037SOL     OW14746   1.789   1.687   8.498  0.0924  0.4675  0.3361
 1037SOL    HW114747   1.767   1.712   8.409 -0.5897  2.1279  0.9662
 1037SOL    HW214748   1.762   1.762   8.551 -1.1961  0.8515 -0.8713
 1038SOL     OW14749   3.188   1.671   6.490 -0.0973  0.1293 -0.4139
 1038SOL    HW114750   3.126   1.692   6.560  0.8890 -1.2353  0.8848
 1038SOL    HW214751   3.167   1.578   6.477  0.6005 -0.1524  0.4847
 1039SOL     OW14752   4.286   3.829   4.816 -0.7180  0.3775  0.1028
 1039SOL    HW114753   4.209   3.783   4.850 -0.0800 -0.2556  0.6764
 1039SOL    HW214754   4.340   3.831   4.895 -1.4053  0.4969  0.5657
 1040SOL     OW14755   2.270   4.322   6.113  0.0568  0.5368  0.2933
 1040SOL    HW114756   2.216   4.246   6.090  0.5616  1.2451 -3.3143
 1040SOL    HW214757   2.200   4.375   6.152 -1.5029 -1.6823  0.5207
 1041SOL     OW14758   3.885   1.561  15.142 -0.4199  0.5590 -0.2410
 1041SOL    HW114759   3.874   1.643  15.094  0.8957  2.0137  1.9595
 1041SOL    HW214760   3.979   1.547  15.140 -0.4317  0.2082  1.7556
 1042SOL     OW14761   2.543   2.699   2.140 -0.0174 -0.2100  0.4314
 1042SOL    HW114762   2.482   2.713   2.067  2.1554  0.0720 -1.3114
 1042SOL    HW214763   2.605   2.769   2.121  0.1550 -0.0315  1.6828
 1043SOL     OW14764   4.228   0.102   5.580 -0.2245  0.0559  0.5974
 1043SOL    HW114765   4.201   0.073   5.667 -1.1962 -1.3657 -0.1838
 1043SOL    HW214766   4.250   0.017   5.541  0.2909  0.1461  0.6966
 1044SOL     OW14767   1.150   3.029  13.855 -0.0731 -0.2876 -0.5416
 1044SOL    HW114768   1.103   3.111  13.838  0.0026 -0.3917 -1.2595
 1044SOL    HW214769   1.115   2.985  13.933  0.4107  0.9756  0.3807
 1045SOL     OW14770   1.585   1.024   1.523  0.6163  0.5863 -0.2583
 1045SOL    HW114771   1.660   0.971   1.549 -0.5854 -2.3555 -2.8335
 1045SOL    HW214772   1.540   1.029   1.607  2.0260  2.4140  0.3803
 1046SOL     OW14773   4.095   1.415   0.515 -0.1168 -0.3792  0.0011
 1046SOL    HW114774   4.152   1.458   0.451 -0.6759  0.0388 -0.2168
 1046SOL    HW214775   4.082   1.495   0.567  2.5653 -0.6724  1.1164
 1047SOL     OW14776   2.789   2.879   6.098 -0.1303 -0.4078  0.5024
 1047SOL    HW114777   2.835   2.935   6.162 -1.1461  1.4362 -0.3841
 1047SOL    HW214778   2.824   2.796   6.129  0.9645  0.3880  1.4094
 1048SOL     OW14779   1.729   1.320  17.702  0.0356  0.4298  0.3605
 1048SOL    HW114780   1.637   1.294  17.701  0.3974 -0.8709  2.0318
 1048SOL    HW214781   1.765   1.256  17.641 -0.4176 -0.3256  0.8929
 1049SOL     OW14782   1.423   0.144  13.846 -0.2923  0.2327 -0.5144
 1049SOL    HW114783   1.502   0.101  13.879 -0.5091  0.9236  0.8734
 1049SOL    HW214784   1.432   0.113  13.756  2.5520  1.7538 -0.7352
 1050SOL     OW14785   3.493   2.904  11.851  0.9683  0.2246  0.5616
 1050SOL    HW114786   3.453   2.825  11.814 -0.6234 -0.8936  4.6095
 1050SOL    HW214787   3.528   2.866  11.931 -0.5127  2.2173  2.1651
 1051SOL     OW14788   0.177   1.091   4.704  0.0356  0.1184  0.1085
 1051SOL    HW114789   0.228   1.135   4.772 -1.1039  0.5776  0.6617
 1051SOL    HW214790   0.173   1.004   4.742 -2.3740  0.3305  0.3199
 1052SOL     OW14791   2.490   0.819   6.820 -0.3406 -0.1255  0.2999
 1052SOL    HW114792   2.475   0.912   6.803  2.8313  0.5509  1.3155
 1052SOL    HW214793   2.580   0.812   6.787 -0.5930  0.7972 -0.6246
 1053SOL     OW14794   4.182   0.915   9.568  0.3585  0.4205  0.9640
 1053SOL    HW114795   4.115   0.973   9.604 -2.6522 -2.1893 -0.4392
 1053SOL    HW214796   4.177   0.924   9.473 -2.0273  1.0784  1.1416
 1054SOL     OW14797   2.333   4.463   9.013 -0.0888  0.1874 -0.4734
 1054SOL    HW114798   2.265   4.404   8.979  0.3786 -0.8679  0.4536
 1054SOL    HW214799   2.286   4.481   9.094  1.4975  1.3953  0.1714
 1055SOL     OW14800   1.165   1.746   4.022 -0.6289  0.1042 -0.9070
 1055SOL    HW114801   1.077   1.749   3.984 -0.4909  1.4576 -1.0854
 1055SOL    HW214802   1.170   1.836   4.054 -1.9203 -0.5074  1.0523
 1056SOL     OW14803   3.845   4.276   9.780 -0.4471  0.0693  0.2586
 1056SOL    HW114804   3.751   4.268   9.796 -0.2005  0.3521  1.8354
 1056SOL    HW214805   3.868   4.359   9.822  1.9969 -1.7228  2.4059
 1057SOL     OW14806   2.051   2.936   6.328  0.2257 -0.3185  0.2301
 1057SOL    HW114807   2.141   2.967   6.337  0.3596 -1.2197  1.9295
 1057SOL    HW214808   2.023   2.943   6.418  0.3765  0.8528  0.1834
 1058SOL     OW14809   4.644   3.470   2.067 -0.0767  0.6496 -0.4278
 1058SOL    HW114810   4.551   3.486   2.051 -0.2223  1.7490  1.5536
 1058SOL    HW214811   4.681   3.558   2.066  1.5265 -0.0318 -1.1899
 1059SOL     OW14812   4.684   2.808   5.119  0.0489 -0.2745  0.1612
 1059SOL    HW114813   0.036   2.785   5.095 -0.2265 -1.0070 -0.1498
 1059SOL    HW214814   4.701   2.876   5.185  1.1441 -0.6858  0.2987
 1060SOL     OW14815   0.604   0.974   3.046  0.3554 -0.8779 -0.1255
 1060SOL    HW114816   0.546   0.901   3.026 -0.6627 -0.5437  1.5985
 1060SOL    HW214817   0.661   0.983   2.969 -0.0047  0.3190 -0.2638
 1061SOL     OW14818   0.766   1.964   8.597 -0.1836  0.2993 -0.3205
 1061SOL    HW114819   0.802   1.876   8.587 -0.6142 -0.1525  2.1275
 1061SOL    HW214820   0.753   1.964   8.692  0.1789 -1.0712 -0.2664
 1062SOL     OW14821   0.450   1.270   5.766 -0.3258  0.2544  0.5133
 1062SOL    HW114822   0.417   1.230   5.846  2.0955 -1.5235  0.6194
 1062SOL    HW214823   0.375   1.327   5.751 -0.0662  0.2505 -0.7903
 1063SOL     OW14824   4.139   1.972   3.506  0.0645 -0.3732  0.1546
 1063SOL    HW114825   4.128   2.062   3.538 -0.2316 -0.7215  1.0345
 1063SOL    HW214826   4.225   1.955   3.545  0.1161  0.3096  0.3411
 1064SOL     OW14827   2.333   4.321   5.277  0.6670 -0.0690  0.4429
 1064SOL    HW114828   2.357   4.356   5.191  0.2599  1.4633  0.9600
 1064SOL    HW214829   2.413   4.278   5.308  0.3973  0.3076  1.6437
 1065SOL     OW14830   4.349   0.736  15.788  0.1559  0.1659  0.4811
 1065SOL    HW114831   4.339   0.831  15.793  1.4900  0.3331 -0.2370
 1065SOL    HW214832   4.340   0.723  15.694 -0.3176  1.0581  0.4023
 1066SOL     OW14833   3.887   0.342   1.166 -0.5541 -0.2274  0.2164
 1066SOL    HW114834   3.856   0.258   1.134  0.8293 -0.4295 -0.5794
 1066SOL    HW214835   3.841   0.400   1.106 -0.4246 -1.2771 -0.8756
 1067SOL     OW14836   2.894   4.400   0.174 -0.1842  0.3558 -0.2491
 1067SOL    HW114837   2.842   4.480   0.164 -0.1594  0.4391  0.3058
 1067SOL    HW214838   2.944   4.419   0.253 -0.5592 -0.3934  0.1668
 1068SOL     OW14839   0.253   1.233  14.753  0.1093 -0.1434 -0.5340
 1068SOL    HW114840   0.195   1.166  14.789  0.9390  1.0361  3.0503
 1068SOL    HW214841   0.207   1.313  14.780 -2.4907 -2.1612  0.9992
 1069SOL     OW14842   4.591   4.118   1.539  0.3498 -0.0480  0.2926
 1069SOL    HW114843   4.505   4.127   1.580 -0.0067 -0.4118 -0.3723
 1069SOL    HW214844   4.565   4.152   1.454  0.7487 -0.6847 -0.0890
 1070SOL     OW14845   3.465   0.072   0.062 -0.1858  0.0598  0.2554
 1070SOL    HW114846   3.539   0.037   0.013  1.0319  1.2664  1.2375
 1070SOL    HW214847   3.503   0.145   0.112  0.2349  0.1417 -0.1900
 1071SOL     OW14848   2.088   3.232   6.764 -0.0169 -0.0879 -0.2240
 1071SOL    HW114849   2.069   3.318   6.726  2.9705  1.4090  1.6657
 1071SOL    HW214850   2.084   3.255   6.856  1.1121  0.8786 -0.4179
 1072SOL     OW14851   3.693   2.694   4.959  0.6271 -0.1499 -0.7673
 1072SOL    HW114852   3.609   2.651   4.977 -0.1182  1.1991 -1.0573
 1072SOL    HW214853   3.743   2.618   4.991 -1.9724 -2.0288 -1.1645
 1073SOL     OW14854   1.872   1.952   8.897 -0.3880  0.3760 -0.3463
 1073SOL    HW114855   1.888   1.948   8.803 -2.7525 -0.3152 -0.7079
 1073SOL    HW214856   1.872   2.047   8.914 -0.6371  0.7847 -2.7293
 1074SOL     OW14857   1.582   0.389   8.000 -0.3831 -0.3440 -0.9045
 1074SOL    HW114858   1.621   0.389   7.913  0.8005 -1.8535 -0.3821
 1074SOL    HW214859   1.580   0.295   8.017  1.7245  0.3055  3.1092
 1075SOL     OW14860   1.344   4.242   5.436  0.3702  0.6155  0.2987
 1075SOL    HW114861   1.352   4.240   5.340  1.8838  3.1650  0.3439
 1075SOL    HW214862   1.256   4.207   5.430  0.6394  0.1342 -0.9394
 1076SOL     OW14863   0.272   2.421  15.375  0.7644 -0.3162  0.4214
 1076SOL    HW114864   0.183   2.428  15.409 -0.0989 -1.0932 -1.6834
 1076SOL    HW214865   0.266   2.479  15.299  1.2442 -0.5773  0.1833
 1077SOL     OW14866   4.039   2.230  10.610 -0.4925  0.2471 -0.2561
 1077SOL    HW114867   4.068   2.302  10.665  1.5185 -0.8235  0.0935
 1077SOL    HW214868   4.038   2.268  10.522  0.3050  0.3764 -0.2048
 1078SOL     OW14869   1.256   4.373   4.421  0.6373 -0.7709  0.0298
 1078SOL    HW114870   1.233   4.452   4.470 -2.0200 -1.1058 -0.7176
 1078SOL    HW214871   1.352   4.367   4.428  0.4822 -2.1604  0.9743
 1079SOL     OW14872   2.681   0.003   5.560  0.9333 -0.0051  0.0566
 1079SOL    HW114873   2.683   4.721   5.654  1.3966 -1.2663 -0.2280
 1079SOL    HW214874   2.768   4.723   5.527  0.6175 -0.1065 -0.7125
 1080SOL     OW14875   2.721   4.679   4.405  0.0663 -0.3616 -0.7473
 1080SOL    HW114876   2.803   4.724   4.428  0.3117 -1.9532  1.5169
 1080SOL    HW214877   2.662   4.711   4.474  1.7515 -0.8409  0.9453
 1081SOL     OW14878   0.030   2.366   6.653 -0.6681 -0.1706 -0.7343
 1081SOL    HW114879   4.696   2.423   6.627 -1.0196  0.3254  1.3474
 1081SOL    HW214880   0.006   2.321   6.734 -0.4362  1.6357  0.3182
 1082SOL     OW14881   3.189   3.932  10.203  0.2319 -0.3248 -0.2791
 1082SOL    HW114882   3.269   3.926  10.254  0.7022  0.8887 -0.8630
 1082SOL    HW214883   3.123   3.950  10.270 -0.8965 -0.4806 -1.3267
 1083SOL     OW14884   2.893   1.718   7.684 -0.1090  0.2625  0.5164
 1083SOL    HW114885   2.847   1.642   7.646 -1.3381  1.1893  0.1615
 1083SOL    HW214886   2.840   1.727   7.763  0.3496  1.6607  0.6627
 1084SOL     OW14887   3.713   2.575   6.387  0.0465 -0.7623  0.5298
 1084SOL    HW114888   3.667   2.545   6.308 -0.3819 -1.5824  1.0910
 1084SOL    HW214889   3.784   2.625   6.347  1.0898 -2.3677  0.3763
 1085SOL     OW14890   2.634   4.347  16.544  0.3929  0.1236 -0.6051
 1085SOL    HW114891   2.593   4.307  16.621  1.7985 -1.0080 -0.4506
 1085SOL    HW214892   2.692   4.280  16.510 -0.6441  0.6098 -3.2912
 1086SOL     OW14893   1.629   1.329  13.930  0.5660  0.3683 -0.9423
 1086SOL    HW114894   1.684   1.250  13.929 -0.3947 -0.3102  1.1313
 1086SOL    HW214895   1.691   1.389  13.972  0.3763  0.6918 -1.1250
 1087SOL     OW14896   3.935   2.130   7.514 -0.4179 -0.4515 -0.1353
 1087SOL    HW114897   3.887   2.150   7.434 -0.4131 -0.8191 -0.2301
 1087SOL    HW214898   3.879   2.169   7.581  1.4593 -0.0300  1.1911
 1088SOL     OW14899   1.648   0.956   3.679 -0.3946  0.0903  0.4205
 1088SOL    HW114900   1.610   0.915   3.757 -2.6746 -0.0301 -0.7491
 1088SOL    HW214901   1.725   0.988   3.726 -0.4733  1.8258 -0.6689
 1089SOL     OW14902   1.201   2.733  17.508  0.1786 -0.0272  0.0911
 1089SOL    HW114903   1.215   2.704  17.418 -0.2133 -1.2199  0.4147
 1089SOL    HW214904   1.237   2.661  17.560  1.4480  0.3150 -0.3174
 1090SOL     OW14905   3.556   3.470  10.991 -0.3270  0.3729 -0.3033
 1090SOL    HW114906   3.630   3.412  11.007 -0.0063  0.3792 -1.7209
 1090SOL    HW214907   3.514   3.466  11.077 -1.4322  1.3152 -0.8000
 1091SOL     OW14908   4.219   2.748   3.868  0.1439  0.3693 -0.1691
 1091SOL    HW114909   4.206   2.739   3.962  5.2030  0.2505  0.5012
 1091SOL    HW214910   4.177   2.668   3.837  0.7229 -0.7011  1.8108
 1092SOL     OW14911   0.309   3.811   4.451 -0.6195  0.1186  0.2720
 1092SOL    HW114912   0.228   3.821   4.401 -0.6011 -2.4657 -0.2826
 1092SOL    HW214913   0.369   3.880   4.421 -2.4016  2.1288  1.3230
 1093SOL     OW14914   0.675   1.274  17.604  0.3251 -0.1164  0.0557
 1093SOL    HW114915   0.701   1.275  17.512  1.3648  0.6188  0.3654
 1093SOL    HW214916   0.758   1.250  17.645  0.1104  2.0083  1.7209
 1094SOL     OW14917   4.200   2.492   5.348  0.2934  0.7161  0.4651
 1094SOL    HW114918   4.160   2.495   5.261  0.2933 -1.5361  0.4076
 1094SOL    HW214919   4.255   2.415   5.336 -0.8949 -0.2478  1.3115
 1095SOL     OW14920   2.311   2.455   7.359  0.5855 -0.6983 -0.2813
 1095SOL    HW114921   2.251   2.517   7.400  3.0858  0.7904  1.1307
 1095SOL    HW214922   2.366   2.512   7.305  0.7495 -0.0824  0.5333
 1096SOL     OW14923   0.482   1.364   0.034  0.2206  0.0258  0.0967
 1096SOL    HW114924   0.522   1.297   0.089 -3.2447 -0.6066  1.8435
 1096SOL    HW214925   0.523   1.354  17.697  1.2134  0.0680  0.5605
 1097SOL     OW14926   1.830   1.817   0.146 -0.4951  0.7933 -0.3896
 1097SOL    HW114927   1.795   1.826   0.235  0.6244 -1.9629  0.3572
 1097SOL    HW214928   1.783   1.738   0.119  2.6483 -1.0189 -0.5703
 1098SOL     OW14929   0.594   0.343   8.272  0.4816 -0.0254  0.5381
 1098SOL    HW114930   0.581   0.438   8.273 -1.4056 -0.2897  1.0496
 1098SOL    HW214931   0.631   0.358   8.185 -1.3520  1.2938 -0.0163
 1099SOL     OW14932   4.516   2.165   3.692  0.0477  0.0493  0.7100
 1099SOL    HW114933   4.503   2.235   3.628  1.6359  1.2729  1.7304
 1099SOL    HW214934   4.441   2.181   3.750 -1.5538  2.5994 -2.0330
 1100SOL     OW14935   2.947   2.316   6.233 -0.4612  0.3160  0.1364
 1100SOL    HW114936   2.855   2.329   6.257 -0.1291  1.1539  0.9585
 1100SOL    HW214937   2.987   2.374   6.299  0.9938  0.7821 -1.1560
 1101SOL     OW14938   2.170   3.654  10.413 -0.1156 -0.0288  0.1204
 1101SOL    HW114939   2.164   3.725  10.476 -1.8505 -1.5890  1.7174
 1101SOL    HW214940   2.263   3.636  10.423  0.1182  0.1598 -1.6615
 1102SOL     OW14941   3.036   2.489   6.419  0.1860  0.5248  0.0863
 1102SOL    HW114942   3.033   2.501   6.514 -1.8470  1.5912 -0.1206
 1102SOL    HW214943   3.129   2.470   6.409 -0.1403  0.3803 -2.8362
 1103SOL     OW14944   3.217   2.886  11.377  0.6880 -0.0450 -0.0006
 1103SOL    HW114945   3.310   2.866  11.372  0.8432  0.6026  0.3065
 1103SOL    HW214946   3.190   2.860  11.289 -0.2158 -3.1275  1.2045
 1104SOL     OW14947   0.787   2.039   5.433  0.2521 -0.1138  0.2840
 1104SOL    HW114948   0.822   2.012   5.348 -0.5305  1.7465 -0.6481
 1104SOL    HW214949   0.856   2.018   5.495  0.7249 -0.0180 -0.2079
 1105SOL     OW14950   0.975   3.921   5.721 -0.0433  0.3070 -0.0998
 1105SOL    HW114951   0.976   3.826   5.730 -0.4066  0.3655  0.5154
 1105SOL    HW214952   1.070   3.933   5.724  0.0802 -0.4606 -1.1004
 1106SOL     OW14953   1.309   0.010   6.531  0.2338  0.6422 -0.2939
 1106SOL    HW114954   1.312   4.684   6.460 -0.2547 -0.2710  0.4975
 1106SOL    HW214955   1.263   4.705   6.603 -1.1525 -0.1059 -1.6425
 1107SOL     OW14956   3.274   0.902  11.737  0.3795  0.4101  0.6373
 1107SOL    HW114957   3.220   0.953  11.676 -1.3551 -0.5182  1.4116
 1107SOL    HW214958   3.294   0.963  11.808  2.3674  0.0706  0.3598
 1108SOL     OW14959   0.652   0.614   2.286 -0.0107  0.2581  0.1835
 1108SOL    HW114960   0.669   0.686   2.225  0.7731 -0.9732 -1.0517
 1108SOL    HW214961   0.644   0.662   2.368 -1.8498 -1.1693  0.8504
 1109SOL     OW14962   4.599   1.319   2.672 -0.1301  0.9367 -0.2165
 1109SOL    HW114963   4.638   1.379   2.736  1.3287  1.9009 -2.0073
 1109SOL    HW214964   4.521   1.372   2.658 -3.0282 -3.2759 -0.0165
 1110SOL     OW14965   0.863   1.236   7.669  0.1406 -0.6870 -0.5697
 1110SOL    HW114966   0.934   1.172   7.680 -0.4680 -1.6973 -2.4871
 1110SOL    HW214967   0.893   1.295   7.738  0.8965 -0.2314 -1.2971
 1111SOL     OW14968   1.379   3.697   5.898 -0.3017  0.6493 -0.4447
 1111SOL    HW114969   1.449   3.758   5.923 -0.9290  1.1921 -0.0219
 1111SOL    HW214970   1.351   3.671   5.986  1.1402 -3.4201 -1.1739
 1112SOL     OW14971   0.450   0.743  14.136 -0.4451 -0.2070 -0.2638
 1112SOL    HW114972   0.481   0.670  14.189  0.6938  1.0340  0.7909
 1112SOL    HW214973   0.379   0.713  14.079 -1.7097  0.9007  0.7417
 1113SOL     OW14974   0.088   3.376   6.019 -0.5401 -0.9286 -0.8959
 1113SOL    HW114975   0.141   3.296   6.020  0.5048 -0.2205  1.4983
 1113SOL    HW214976   0.155   3.436   5.984 -0.8902  2.1403  3.6373
 1114SOL     OW14977   0.973   1.721   0.824  0.0453  0.1918 -0.5136
 1114SOL    HW114978   0.893   1.767   0.848 -0.0968 -0.0462 -0.5399
 1114SOL    HW214979   0.947   1.656   0.759 -0.0226 -0.3557  0.0682
 1115SOL     OW14980   3.484   4.710  15.594  0.5932  0.4735  1.0286
 1115SOL    HW114981   3.455   4.619  15.601 -0.1334  0.4746 -2.2408
 1115SOL    HW214982   3.560   4.725  15.651  1.5658  0.4291 -0.2554
 1116SOL     OW14983   1.607   4.611   5.327  0.3342  0.2094 -0.2582
 1116SOL    HW114984   1.674   4.614   5.259  1.6293 -1.6762  0.9353
 1116SOL    HW214985   1.665   4.632   5.399 -0.9335 -0.3361  0.9208
 1117SOL     OW14986   0.743   4.315   8.935  0.1453 -0.1838  0.0090
 1117SOL    HW114987   0.712   4.232   8.899 -0.7994  1.5294 -3.0612
 1117SOL    HW214988   0.826   4.320   8.888  0.8895 -0.2502  1.2980
 1118SOL     OW14989   2.068   2.877   8.349 -0.1635 -0.3573 -0.2379
 1118SOL    HW114990   2.122   2.891   8.272 -0.0247  0.8963  0.0913
 1118SOL    HW214991   2.137   2.878   8.415 -1.1138  2.1180  0.7226
 1119SOL     OW14992   0.660   0.076  17.193 -0.0302  0.4987 -0.3384
 1119SOL    HW114993   0.680   0.018  17.119  0.9413 -0.0530  0.3498
 1119SOL    HW214994   0.728   0.143  17.182  1.1907 -1.0799 -2.5391
 1120SOL     OW14995   2.186   4.724   3.062 -0.1298  0.2468 -0.3247
 1120SOL    HW114996   2.179   4.708   3.156  5.0689  0.4770  0.1151
 1120SOL    HW214997   2.111   0.043   3.045 -0.1123  1.1472  2.6116
 1121SOL     OW14998   3.283   2.432   4.401 -0.0334  0.2206  0.2483
 1121SOL    HW114999   3.321   2.344   4.404 -0.0859  0.2511  2.1611
 1121SOL    HW215000   3.264   2.440   4.495 -3.8890  1.0155 -0.6062
 1122SOL     OW15001   3.105   1.686   2.045  0.3682 -0.1833  0.4532
 1122SOL    HW115002   3.104   1.644   1.960  2.5296  0.6117  0.0236
 1122SOL    HW215003   3.116   1.613   2.107 -1.7710  1.4744  2.8002
 1123SOL     OW15004   2.206   1.134   3.221 -0.1902  0.4220  0.0692
 1123SOL    HW115005   2.246   1.208   3.176 -0.6782 -0.3465 -1.6353
 1123SOL    HW215006   2.142   1.167   3.284 -0.7926 -3.5643  1.5551
 1124SOL     OW15007   0.136   0.364  10.588  0.4308  0.4180 -0.0169
 1124SOL    HW115008   0.199   0.424  10.627 -1.0614 -0.6517  4.1036
 1124SOL    HW215009   0.062   0.381  10.646  0.2991  1.3892 -0.4770
 1125SOL     OW15010   2.469   0.261   8.349 -0.2293  0.5801 -0.2977
 1125SOL    HW115011   2.399   0.309   8.393  0.6667  1.1565  0.4923
 1125SOL    HW215012   2.541   0.322   8.365 -1.3603  1.6560  0.6793
 1126SOL     OW15013   1.021   0.179   5.631 -0.1841 -0.1534  0.1785
 1126SOL    HW115014   1.064   0.217   5.708 -0.3095  0.7910 -0.2316
 1126SOL    HW215015   1.061   0.092   5.622 -0.3711 -0.4442  2.0829
 1127SOL     OW15016   2.547   4.180   0.203  0.2911 -0.4616  0.3621
 1127SOL    HW115017   2.601   4.142   0.273  1.1231 -0.3119 -0.1971
 1127SOL    HW215018   2.606   4.189   0.128 -0.5558  0.5170 -0.1832
 1128SOL     OW15019   3.967   3.057   6.252 -0.1003 -0.0372  0.0469
 1128SOL    HW115020   4.053   3.014   6.256 -0.2711 -0.3261  0.6534
 1128SOL    HW215021   3.968   3.103   6.336  2.0582 -0.4588  0.2528
 1129SOL     OW15022   2.690   1.843   3.357 -0.4081 -0.0509 -0.1734
 1129SOL    HW115023   2.698   1.880   3.445 -1.7487 -0.0831 -0.0303
 1129SOL    HW215024   2.636   1.768   3.380 -1.1200  0.1824 -1.0724
 1130SOL     OW15025   1.111   2.188   8.187  0.2227 -0.1440 -0.5121
 1130SOL    HW115026   1.126   2.108   8.137 -3.1269 -0.4818 -0.9917
 1130SOL    HW215027   1.187   2.239   8.157  0.5733 -1.2120 -1.4114
 1131SOL     OW15028   1.089   1.702   7.100 -0.2670 -0.7710  0.2184
 1131SOL    HW115029   1.103   1.609   7.081  1.2014 -0.0878 -2.0805
 1131SOL    HW215030   1.040   1.711   7.181 -0.2957 -1.8374  0.3161
 1132SOL     OW15031   1.022   0.544   9.879  0.9365  0.1026  0.2466
 1132SOL    HW115032   0.972   0.490   9.940  1.9951 -1.9501 -0.6785
 1132SOL    HW215033   0.983   0.521   9.795 -3.2170  0.3113  2.1294
 1133SOL     OW15034   2.320   1.904   7.600 -0.1599 -0.2914 -0.5209
 1133SOL    HW115035   2.394   1.844   7.612  0.8215  0.8323 -0.9347
 1133SOL    HW215036   2.369   1.982   7.573  3.5752 -2.0569  1.1361
 1134SOL     OW15037   0.637   4.453   7.868  0.3645 -0.4155 -0.2599
 1134SOL    HW115038   0.680   4.422   7.948 -1.8227 -1.3953  0.5446
 1134SOL    HW215039   0.633   4.368   7.824 -0.0252 -0.9965  0.8970
 1135SOL     OW15040   2.775   3.255   2.411  0.2931  0.4337 -0.1752
 1135SOL    HW115041   2.828   3.220   2.338  0.5089 -1.1102  0.7152
 1135SOL    HW215042   2.693   3.262   2.363 -0.4207 -1.0814  0.8071
 1136SOL     OW15043   0.189   1.481   4.709  0.2578  0.5084  0.1758
 1136SOL    HW115044   0.208   1.449   4.621  0.5867  1.3222 -0.0411
 1136SOL    HW215045   0.093   1.488   4.712  0.1225 -1.6288  1.4113
 1137SOL     OW15046   0.567   3.525  14.803  0.7757  0.3595 -0.1380
 1137SOL    HW115047   0.506   3.597  14.822  0.3670 -0.7634  2.8315
 1137SOL    HW215048   0.617   3.565  14.732 -1.2225  2.5038 -0.3763
 1138SOL     OW15049   3.770   1.821   7.601 -0.0669 -0.0472  0.6084
 1138SOL    HW115050   3.716   1.745   7.623 -0.0695 -0.5786 -1.1826
 1138SOL    HW215051   3.841   1.804   7.663  0.5376 -1.7427 -0.5287
 1139SOL     OW15052   3.642   4.281   8.859  0.1549 -0.3170  0.1635
 1139SOL    HW115053   3.588   4.337   8.915 -0.0017 -0.2463 -0.0586
 1139SOL    HW215054   3.673   4.351   8.802  1.6535  0.0526  1.4162
 1140SOL     OW15055   0.814   1.149   6.255 -0.1869  0.7012  0.2404
 1140SOL    HW115056   0.771   1.175   6.173 -0.6938 -1.7167 -0.2757
 1140SOL    HW215057   0.802   1.224   6.314  0.6904  1.0827 -0.0787
 1141SOL     OW15058   1.977   0.439   8.098  0.3964  0.1759 -0.8663
 1141SOL    HW115059   2.062   0.411   8.064  0.2289 -0.2674 -0.9188
 1141SOL    HW215060   2.000   0.523   8.136 -2.6940  1.5181 -2.0008
 1142SOL     OW15061   0.153   1.914   2.434  0.8291  0.0157  0.4811
 1142SOL    HW115062   0.182   1.990   2.384 -0.0658 -0.3310 -0.5763
 1142SOL    HW215063   0.119   1.960   2.511 -1.5035 -2.6488  1.0639
 1143SOL     OW15064   2.017   1.599   5.255 -0.1359 -0.0360  0.4992
 1143SOL    HW115065   2.106   1.577   5.227  0.1854  0.6474  1.0016
 1143SOL    HW215066   1.999   1.662   5.186  0.1354 -0.8072 -0.2853
 1144SOL     OW15067   1.165   0.563  10.336  0.3444  0.8909  0.3908
 1144SOL    HW115068   1.175   0.514  10.418  0.8471 -1.0712 -0.8606
 1144SOL    HW215069   1.103   0.507  10.289  0.7148 -0.1380  1.1250
 1145SOL     OW15070   3.431   3.398   1.951 -0.5733  0.1128  0.8494
 1145SOL    HW115071   3.505   3.450   1.981  0.8236 -0.4580 -1.6054
 1145SOL    HW215072   3.444   3.313   1.994 -2.7538 -0.2949  0.7017
 1146SOL     OW15073   1.004   0.331   7.367  0.3146  0.2113 -0.4175
 1146SOL    HW115074   1.030   0.315   7.276  0.7640  0.4530 -0.3336
 1146SOL    HW215075   1.084   0.369   7.402  0.3685  1.6919 -2.1083
 1147SOL     OW15076   4.192   4.128   7.937  0.4637 -0.6958 -0.2528
 1147SOL    HW115077   4.234   4.184   7.871 -3.8400 -0.1365 -2.4878
 1147SOL    HW215078   4.101   4.134   7.910  0.6295  1.5577 -0.3555
 1148SOL     OW15079   1.289   3.624  14.517 -0.7410 -0.0009 -0.8000
 1148SOL    HW115080   1.377   3.649  14.544 -0.2644 -2.3160 -0.1708
 1148SOL    HW215081   1.269   3.581  14.601  0.1592 -0.8059 -0.9918
 1149SOL     OW15082   4.539   0.839   1.480  0.2918 -0.4555  0.6542
 1149SOL    HW115083   4.544   0.743   1.476  0.0365 -0.3438 -2.0518
 1149SOL    HW215084   4.628   0.873   1.490  0.3659 -0.2650 -0.6584
 1150SOL     OW15085   1.559   0.216   8.534  0.1557 -0.7017  0.1598
 1150SOL    HW115086   1.503   0.206   8.457 -0.1221 -1.8459  0.5159
 1150SOL    HW215087   1.507   0.245   8.608  1.6832  1.0121  0.5678
 1151SOL     OW15088   4.318   2.533   2.640  0.2185  0.6143  0.3864
 1151SOL    HW115089   4.367   2.500   2.714 -1.0749 -0.4287  0.7653
 1151SOL    HW215090   4.370   2.482   2.578 -2.5177 -1.8481  0.1622
 1152SOL     OW15091   2.868   3.061  12.266 -0.9139 -0.3958  0.1344
 1152SOL    HW115092   2.788   3.112  12.277  0.4999  1.7490  0.4526
 1152SOL    HW215093   2.859   3.000  12.340  2.7091  1.1927  1.9134
 1153SOL     OW15094   1.695   0.272   6.146 -0.0696 -0.2830  0.2560
 1153SOL    HW115095   1.734   0.346   6.101 -0.6371 -0.2616 -0.2024
 1153SOL    HW215096   1.735   0.266   6.233 -0.2001  0.5663  0.3758
 1154SOL     OW15097   2.876   3.595   4.184  0.3298 -0.3096 -0.2210
 1154SOL    HW115098   2.818   3.523   4.206 -0.1421  0.5319  1.3165
 1154SOL    HW215099   2.909   3.561   4.100 -0.8066 -1.3435 -0.2425
 1155SOL     OW15100   0.298   0.920   5.807 -0.3022 -0.4729 -0.5278
 1155SOL    HW115101   0.280   0.832   5.841 -1.9098  0.1209  0.1168
 1155SOL    HW215102   0.302   0.895   5.714 -1.6366 -0.7842 -0.4914
 1156SOL     OW15103   4.346   2.542   3.679  0.1883 -0.6216  0.2100
 1156SOL    HW115104   4.399   2.621   3.666  0.4809 -0.8591 -0.0496
 1156SOL    HW215105   4.399   2.467   3.652  1.1644  0.1145  0.0683
 1157SOL     OW15106   4.097   1.750   6.496 -0.0328 -0.1706 -0.3904
 1157SOL    HW115107   4.157   1.725   6.425  0.7826 -1.1628  0.6379
 1157SOL    HW215108   4.105   1.844   6.484  0.7324 -0.1281  0.4107
 1158SOL     OW15109   0.174   0.038   8.534  0.9764 -0.2343  0.4899
 1158SOL    HW115110   0.146   0.120   8.492 -2.8835 -1.2702  1.0513
 1158SOL    HW215111   0.233   0.002   8.468 -0.3299 -0.9944 -0.2735
 1159SOL     OW15112   4.687   3.881   3.321  0.0835 -0.2792 -0.6531
 1159SOL    HW115113   0.012   3.847   3.257  3.4536 -0.4061  2.7106
 1159SOL    HW215114   0.006   3.952   3.351  0.2931 -0.7285  0.0404
 1160SOL     OW15115   1.269   1.202   6.921  0.2647  0.0009 -0.9058
 1160SOL    HW115116   1.291   1.246   6.839 -2.0359  3.4268  0.3059
 1160SOL    HW215117   1.284   1.112   6.892  0.0869  0.0464 -1.1368
 1161SOL     OW15118   4.713   3.437  13.305 -0.8026  0.4872 -0.0424
 1161SOL    HW115119   0.069   3.435  13.284 -0.9313  1.2435 -0.6585
 1161SOL    HW215120   4.676   3.416  13.220 -1.1703 -0.0580  0.2530
 1162SOL     OW15121   0.448   1.481   2.610 -0.2839 -0.2515 -0.5808
 1162SOL    HW115122   0.388   1.554   2.596  1.1509  1.1099  0.3209
 1162SOL    HW215123   0.535   1.519   2.599  0.4907 -2.3393 -1.6618
 1163SOL     OW15124   1.050   2.731  14.824  0.0985 -0.2062  0.6871
 1163SOL    HW115125   1.140   2.699  14.831 -0.6156 -1.8610  2.4236
 1163SOL    HW215126   1.006   2.710  14.907 -1.2123 -1.8010 -0.4040
 1164SOL     OW15127   2.898   0.428  16.294 -0.1207  0.2145  0.0296
 1164SOL    HW115128   2.906   0.448  16.387  1.3295  0.2474 -0.0971
 1164SOL    HW215129   2.949   0.348  16.298 -1.0191 -0.3092  0.8241
 1165SOL     OW15130   1.757   0.968  12.892  0.4715 -0.6631  0.6470
 1165SOL    HW115131   1.665   0.944  12.902 -0.1120  1.0064 -0.7844
 1165SOL    HW215132   1.746   1.059  12.863 -0.9588 -0.9015  0.4716
 1166SOL     OW15133   2.886   1.405   7.279  0.3341  0.4099 -0.0375
 1166SOL    HW115134   2.951   1.436   7.215  0.4483 -0.2830 -0.2602
 1166SOL    HW215135   2.936   1.373   7.354 -2.0218 -3.9605 -0.3744
 1167SOL     OW15136   1.566   4.061   7.650  0.6046 -0.3388 -0.0146
 1167SOL    HW115137   1.658   4.088   7.646  0.6287 -0.0261  2.6155
 1167SOL    HW215138   1.571   3.979   7.699  0.4763 -0.1034  0.3913
 1168SOL     OW15139   3.476   0.740   2.875  0.0788 -0.9189  0.6647
 1168SOL    HW115140   3.498   0.735   2.782  0.7088 -0.8256  0.8086
 1168SOL    HW215141   3.528   0.817   2.898 -0.0263 -0.0256 -2.0461
 1169SOL     OW15142   0.251   0.940   8.146  0.1478 -0.2786 -0.1170
 1169SOL    HW115143   0.292   0.973   8.066 -0.9038 -1.2122 -1.0289
 1169SOL    HW215144   0.299   0.999   8.205 -0.9188  0.9561 -0.4936
 1170SOL     OW15145   3.696   3.173  12.091 -0.3233  0.7226 -0.2153
 1170SOL    HW115146   3.728   3.149  12.178 -0.5254  0.9365 -0.0821
 1170SOL    HW215147   3.613   3.126  12.091  1.1846 -1.9846  1.2138
 1171SOL     OW15148   2.529   0.624   6.234  0.1331 -0.2664 -0.5567
 1171SOL    HW115149   2.516   0.705   6.285 -1.2051 -0.4150 -0.6609
 1171SOL    HW215150   2.440   0.605   6.206  0.2414 -2.0278  0.3273
 1172SOL     OW15151   0.864   0.844   6.202 -0.4092  0.1231 -0.3325
 1172SOL    HW115152   0.883   0.937   6.213  0.5069  0.1264 -1.8691
 1172SOL    HW215153   0.842   0.838   6.109 -2.2307 -1.5939  0.2190
 1173SOL     OW15154   3.415   0.895   1.892  0.2365  0.3211  0.0863
 1173SOL    HW115155   3.389   0.967   1.949 -1.6269 -1.3020  1.2934
 1173SOL    HW215156   3.509   0.880   1.897  0.4222  1.6069  0.4393
 1174SOL     OW15157   2.921   1.738   2.872  0.0829 -0.1789  0.1268
 1174SOL    HW115158   3.002   1.735   2.821 -1.2116 -0.8503 -1.8711
 1174SOL    HW215159   2.966   1.712   2.953 -0.5864  1.0785  0.9059
 1175SOL     OW15160   4.728   3.598  16.355 -0.2782 -0.0783 -0.2358
 1175SOL    HW115161   4.657   3.565  16.300  0.8016 -0.6351 -1.3015
 1175SOL    HW215162   0.046   3.520  16.350 -0.2702 -0.1417  0.7784
 1176SOL     OW15163   2.862   3.123   8.588  0.3027  0.9411  0.0276
 1176SOL    HW115164   2.823   3.067   8.655  1.8744 -0.8129 -0.4885
 1176SOL    HW215165   2.841   3.085   8.503  0.0066 -0.6353  0.8014
 1177SOL     OW15166   4.404   3.557  13.062  0.1728  0.4317 -1.0389
 1177SOL    HW115167   4.330   3.501  13.040  1.0988 -0.4102 -1.9583
 1177SOL    HW215168   4.462   3.555  12.986 -0.9138  1.2063 -1.9037
 1178SOL     OW15169   1.431   0.952  17.518  0.0042 -0.1439  0.6875
 1178SOL    HW115170   1.461   1.028  17.469 -1.6811 -0.7730 -1.3631
 1178SOL    HW215171   1.396   0.904  17.442 -2.2117  1.3999  0.7013
 1179SOL     OW15172   3.693   1.340   7.424 -0.5118  0.6885 -0.2115
 1179SOL    HW115173   3.739   1.424   7.423 -0.9240  0.9058 -0.9023
 1179SOL    HW215174   3.771   1.290   7.398 -0.9594  0.4901 -1.1807
 1180SOL     OW15175   1.319   4.319   2.945  0.4423  0.2520 -0.1982
 1180SOL    HW115176   1.227   4.325   2.971  0.3902 -0.6674 -0.1848
 1180SOL    HW215177   1.370   4.298   3.023 -0.8800 -2.5126 -0.1067
 1181SOL     OW15178   4.194   1.990   0.290  0.1869 -0.1054 -0.0892
 1181SOL    HW115179   4.208   1.970   0.197  1.3261 -0.3344  0.1439
 1181SOL    HW215180   4.267   2.050   0.303 -1.7637  2.9270 -3.0318
 1182SOL     OW15181   0.678   0.255   8.640  0.4749  0.1629 -0.4694
 1182SOL    HW115182   0.710   0.342   8.618  0.8216  0.8363  2.6062
 1182SOL    HW215183   0.740   0.188   8.612 -0.9254 -0.5398 -1.8668
 1183SOL     OW15184   0.691   3.541   0.149  0.2152 -0.9388  0.2406
 1183SOL    HW115185   0.672   3.503   0.235  1.3930 -0.0627  0.8904
 1183SOL    HW215186   0.787   3.543   0.153  0.1741 -0.4373  1.0709
 1184SOL     OW15187   1.580   1.092   6.297 -0.4270  0.2622 -0.2707
 1184SOL    HW115188   1.512   1.025   6.298  0.0927 -0.2667 -0.9215
 1184SOL    HW215189   1.555   1.144   6.220 -0.2846 -0.1027 -0.5668
 1185SOL     OW15190   0.507   1.495   9.551 -0.3587 -0.0091  0.0086
 1185SOL    HW115191   0.438   1.535   9.499 -0.9850 -1.1191 -0.0067
 1185SOL    HW215192   0.459   1.459   9.625 -1.7812 -0.4875 -1.1587
 1186SOL     OW15193   1.521   0.577   2.135 -0.4612 -0.8553  0.2015
 1186SOL    HW115194   1.576   0.502   2.112  1.2089 -0.2764  2.2858
 1186SOL    HW215195   1.442   0.524   2.145 -0.6290 -0.2754  1.9906
 1187SOL     OW15196   1.222   0.767   6.441  0.2519 -0.2071 -0.0229
 1187SOL    HW115197   1.149   0.705   6.450 -1.4066  1.2907 -3.1062
 1187SOL    HW215198   1.289   0.703   6.417  1.0441  0.4024  0.5922
 1188SOL     OW15199   2.218   2.416   7.847  0.5222  0.0617 -0.3632
 1188SOL    HW115200   2.183   2.448   7.764 -0.1649  1.5369  0.4985
 1188SOL    HW215201   2.152   2.352   7.875  0.2451  0.6949  0.4280
 1189SOL     OW15202   0.869   3.221   7.908 -0.1958  0.0956 -0.6616
 1189SOL    HW115203   0.800   3.279   7.940 -0.5106  0.5280 -2.1246
 1189SOL    HW215204   0.822   3.168   7.843 -2.6674  3.3898 -1.5461
 1190SOL     OW15205   2.195   2.508   3.876  0.4745 -0.5275  0.2540
 1190SOL    HW115206   2.164   2.565   3.805 -1.0932 -0.3426  1.0813
 1190SOL    HW215207   2.164   2.424   3.843 -0.0046  0.2726 -1.3757
 1191SOL     OW15208   2.074   0.072   8.641 -0.3110 -0.5769 -0.8840
 1191SOL    HW115209   2.104   0.104   8.556  2.5434  2.0780  1.1488
 1191SOL    HW215210   2.062   0.147   8.700  2.1227 -0.2396 -0.8255
 1192SOL     OW15211   1.316   0.618   9.270  0.2795  0.3551  0.0785
 1192SOL    HW115212   1.388   0.579   9.319 -0.7750 -0.0525  1.3106
 1192SOL    HW215213   1.365   0.693   9.237  0.6708 -0.3332 -0.9037
 1193SOL     OW15214   1.902   0.273  16.535 -0.2835  0.0017 -0.3121
 1193SOL    HW115215   1.819   0.227  16.549  0.8450 -2.5302 -2.0588
 1193SOL    HW215216   1.971   0.221  16.576  0.1692  0.6732 -0.2187
 1194SOL     OW15217   3.590   0.402   7.788 -0.0843 -0.0779  0.1594
 1194SOL    HW115218   3.652   0.440   7.851 -1.3151 -1.3895  2.1402
 1194SOL    HW215219   3.517   0.463   7.798  1.0607  1.2800  0.2135
 1195SOL     OW15220   1.517   3.354   5.523 -0.4778 -0.1808 -0.1930
 1195SOL    HW115221   1.441   3.395   5.563  2.2627  2.0082  2.7754
 1195SOL    HW215222   1.469   3.310   5.453  1.6702 -0.1267 -1.7188
 1196SOL     OW15223   1.504   3.808  14.840 -0.1159  0.0077  0.0453
 1196SOL    HW115224   1.467   3.830  14.925 -0.1420  1.0983 -0.2507
 1196SOL    HW215225   1.573   3.871  14.818  0.2530 -0.4682 -0.1645
 1197SOL     OW15226   4.715   3.222   4.177 -0.0730  0.4469  0.6543
 1197SOL    HW115227   4.647   3.288   4.164  0.3465  0.8494  0.5001
 1197SOL    HW215228   0.059   3.272   4.181  0.6326 -0.6682  0.0268
 1198SOL     OW15229   4.721   0.716   1.801 -0.6971 -0.2913 -0.2669
 1198SOL    HW115230   0.031   0.799   1.796  0.9078 -1.2763 -1.2830
 1198SOL    HW215231   4.671   0.711   1.720 -1.7667  1.0550  0.2978
 1199SOL     OW15232   0.492   1.860   1.372 -0.5849 -0.5636  0.5604
 1199SOL    HW115233   0.460   1.776   1.405 -0.7500 -1.7360 -2.6814
 1199SOL    HW215234   0.462   1.925   1.436  2.3959  1.9035 -0.5510
 1200SOL     OW15235   3.500   2.158   0.819 -0.8073 -0.2364  0.1432
 1200SOL    HW115236   3.572   2.190   0.872 -0.0187 -1.2386 -0.3113
 1200SOL    HW215237   3.502   2.222   0.747 -1.3786 -2.2626 -1.6951
 1201SOL     OW15238   3.981   3.614   7.799 -0.0056  0.2023 -0.5898
 1201SOL    HW115239   3.888   3.594   7.785 -0.5821  3.7642 -1.8547
 1201SOL    HW215240   3.979   3.640   7.891 -1.9593 -1.8646 -0.0496
 1202SOL     OW15241   0.362   2.976   2.486 -0.4258 -0.2601 -0.4516
 1202SOL    HW115242   0.281   3.010   2.524 -1.2243 -1.6956 -0.8617
 1202SOL    HW215243   0.372   2.890   2.528 -0.4859 -0.1328 -0.1746
 1203SOL     OW15244   0.182   4.036   3.316 -0.1231  0.6872  0.2361
 1203SOL    HW115245   0.239   4.025   3.239 -0.6835 -1.2440  0.0954
 1203SOL    HW215246   0.150   4.125   3.302 -3.1279 -0.3747  0.4799
 1204SOL     OW15247   0.814   2.942   5.247 -0.4443  0.6017  0.3532
 1204SOL    HW115248   0.775   3.014   5.298 -0.5343 -0.6994  2.1309
 1204SOL    HW215249   0.903   2.952   5.282 -1.5997  0.0380  3.4477
 1205SOL     OW15250   3.058   4.584  14.911 -0.3942  0.4522 -0.3228
 1205SOL    HW115251   3.023   4.638  14.982 -1.3372 -1.2209  0.4963
 1205SOL    HW215252   3.064   4.636  14.831 -0.9981  0.7763 -0.1554
 1206SOL     OW15253   0.058   4.520  10.532  0.0235 -0.4187 -0.1478
 1206SOL    HW115254   4.721   4.463  10.514 -1.1145  0.8339  0.5958
 1206SOL    HW215255   0.021   4.608  10.522 -1.0667 -0.7637  0.8661
 1207SOL     OW15256   1.590   1.527   7.314  0.3191  0.8754 -0.1573
 1207SOL    HW115257   1.615   1.505   7.404  1.6401  0.1553 -0.6927
 1207SOL    HW215258   1.523   1.466   7.284  1.2504  0.0202 -0.5078
 1208SOL     OW15259   1.779   2.048  13.478 -0.3726 -0.9214  0.1335
 1208SOL    HW115260   1.783   2.035  13.383 -0.7175  0.3713 -0.0622
 1208SOL    HW215261   1.802   2.140  13.487  1.7495 -1.5303  0.9369
 1209SOL     OW15262   2.476   4.197   1.329 -0.0692 -0.0534  0.5261
 1209SOL    HW115263   2.479   4.220   1.422 -1.7992 -0.5435  0.6914
 1209SOL    HW215264   2.461   4.281   1.285  0.7813 -0.4447 -0.5143
 1210SOL     OW15265   1.148   0.930   4.144  0.4010  0.2262  0.3101
 1210SOL    HW115266   1.137   0.868   4.072  1.3087  0.2565  0.1491
 1210SOL    HW215267   1.060   0.926   4.181 -0.1008  1.6932 -0.7396
 1211SOL     OW15268   0.526   0.063   8.283 -0.3111  0.4930 -0.4072
 1211SOL    HW115269   0.573   0.027   8.358  1.1203  0.2419 -1.4165
 1211SOL    HW215270   0.535   0.158   8.293 -1.2621  0.8017 -2.5754
 1212SOL     OW15271   1.125   0.454   2.848  0.0236  0.3605  0.0492
 1212SOL    HW115272   1.049   0.408   2.813 -1.3715 -0.5679  4.3347
 1212SOL    HW215273   1.151   0.384   2.908 -0.8216  1.2745  1.4833
 1213SOL     OW15274   3.816   4.428   5.102  0.5886 -0.1202 -0.0965
 1213SOL    HW115275   3.895   4.398   5.056  0.7053 -2.2426  1.4457
 1213SOL    HW215276   3.800   4.346   5.150 -3.4716  0.0082 -1.3049
 1214SOL     OW15277   0.536   3.794  15.473  0.0396  0.1006 -0.0411
 1214SOL    HW115278   0.461   3.735  15.482 -0.3149  0.6328  0.5016
 1214SOL    HW215279   0.565   3.759  15.389  1.1495  0.8628  0.0374
 1215SOL     OW15280   0.033   3.850   0.861 -0.2240 -0.0178  0.3069
 1215SOL    HW115281   0.113   3.882   0.819  0.3789  0.6243  1.9715
 1215SOL    HW215282   4.708   3.890   0.800 -0.6071 -0.2937  0.5172
 1216SOL     OW15283   1.706   1.827   8.268  0.3933  0.6908  0.6995
 1216SOL    HW115284   1.717   1.908   8.218 -0.0891  0.9369  0.9908
 1216SOL    HW215285   1.615   1.828   8.296  0.4223 -1.1636  0.8887
 1217SOL     OW15286   3.154   3.097   6.961  0.4088 -0.0838  0.1937
 1217SOL    HW115287   3.107   3.084   6.879 -1.2230 -0.1607  1.1370
 1217SOL    HW215288   3.179   3.008   6.985 -0.1253 -0.5705 -1.0290
 1218SOL     OW15289   0.543   4.425   6.710  0.3300  0.2276  0.3954
 1218SOL    HW115290   0.461   4.461   6.744  0.6042  1.1486  0.0641
 1218SOL    HW215291   0.524   4.364   6.638  2.0608 -1.1482  1.0957
 1219SOL     OW15292   0.143   3.705   6.988  0.5677  0.1603 -0.1945
 1219SOL    HW115293   0.068   3.651   7.009 -0.0094  0.7576 -0.7291
 1219SOL    HW215294   0.160   3.690   6.895 -0.8333 -0.7972 -0.2888
 1220SOL     OW15295   0.381   4.227   8.031  0.0272 -0.4910 -0.4781
 1220SOL    HW115296   0.328   4.247   7.954 -1.8361 -0.6544  0.7847
 1220SOL    HW215297   0.391   4.314   8.069 -0.5145 -0.9429  0.6724
 1221SOL     OW15298   0.254   1.483   4.450  0.2092  0.3796  0.5802
 1221SOL    HW115299   0.283   1.483   4.359 -1.2244 -0.1380  0.1283
 1221SOL    HW215300   0.162   1.461   4.438  0.7288 -1.3131 -0.3544
 1222SOL     OW15301   0.626   2.864   3.690  0.6133 -0.3184 -0.3442
 1222SOL    HW115302   0.648   2.956   3.700 -0.5620  0.0257 -0.8684
 1222SOL    HW215303   0.538   2.861   3.652 -0.4840 -0.6570  2.2144
 1223SOL     OW15304   2.394   1.511  16.915 -0.4152  0.0862  0.0233
 1223SOL    HW115305   2.375   1.514  16.822  1.2800 -1.9936 -0.4045
 1223SOL    HW215306   2.370   1.421  16.940  2.4001 -1.1154 -1.5984
 1224SOL     OW15307   3.298   0.377   4.104  0.1106  0.2142 -0.1934
 1224SOL    HW115308   3.255   0.438   4.164  3.1852  0.1719  2.0438
 1224SOL    HW215309   3.229   0.327   4.061 -0.7288  1.0189  0.2095
 1225SOL     OW15310   1.791   0.332   3.753  0.4586  0.0384  0.0677
 1225SOL    HW115311   1.793   0.242   3.786  0.7882  0.4274  1.1301
 1225SOL    HW215312   1.833   0.376   3.828 -0.7072 -0.8640  1.2498
 1226SOL     OW15313   4.227   0.292   8.222  0.3210  0.0733  0.4487
 1226SOL    HW115314   4.148   0.323   8.267  0.0250 -1.7076  1.1858
 1226SOL    HW215315   4.186   0.260   8.142  0.5938 -0.3439  0.4741
 1227SOL     OW15316   2.067   3.968   9.877  0.6314 -0.6497 -0.5434
 1227SOL    HW115317   2.050   3.991   9.968 -0.6850 -1.9293 -0.4561
 1227SOL    HW215318   1.979   3.935   9.856  0.0242  0.8623 -0.4423
 1228SOL     OW15319   2.532   2.088  11.227  0.5597 -0.3946 -0.4474
 1228SOL    HW115320   2.455   2.111  11.279 -0.8301 -0.0061 -2.6668
 1228SOL    HW215321   2.499   2.010  11.183 -3.0347 -0.2916  2.0448
 1229SOL     OW15322   2.416   2.276   7.779  0.4001 -0.2553  0.4868
 1229SOL    HW115323   2.408   2.194   7.826  0.6794 -0.1985  0.6315
 1229SOL    HW215324   2.340   2.327   7.807  0.6670  0.8969 -0.8556
 1230SOL     OW15325   3.560   0.385   3.037  0.3506  0.9713 -0.7244
 1230SOL    HW115326   3.508   0.464   3.053  0.0861  0.5638  0.4169
 1230SOL    HW215327   3.645   0.427   3.024  2.0804 -3.1797 -2.6966
 1231SOL     OW15328   2.086   2.587   7.475  0.1988 -0.2130 -0.1576
 1231SOL    HW115329   2.011   2.602   7.418 -0.0354 -1.5443 -0.2031
 1231SOL    HW215330   2.117   2.674   7.501 -0.7952 -0.7937  2.9515
 1232SOL     OW15331   2.667   3.986   4.393 -0.0667 -0.1585  0.1759
 1232SOL    HW115332   2.660   3.897   4.428 -1.3074 -0.3700 -0.6227
 1232SOL    HW215333   2.632   4.033   4.470 -0.3081 -0.0302 -0.0105
 1233SOL     OW15334   4.426   2.276   6.886 -0.6967  0.4096 -0.1100
 1233SOL    HW115335   4.519   2.256   6.899 -0.6844  0.3937 -0.2220
 1233SOL    HW215336   4.410   2.196   6.837  0.7375 -0.3634  0.6896
 1234SOL     OW15337   3.217   2.534   0.586  0.3060  0.6732  0.1533
 1234SOL    HW115338   3.216   2.609   0.645 -1.1856  1.0955 -0.4138
 1234SOL    HW215339   3.145   2.482   0.621  0.7612 -0.8917 -1.2059
 1235SOL     OW15340   0.617   2.053   0.950  0.3239 -0.7621  1.1203
 1235SOL    HW115341   0.639   2.117   1.018 -2.2603 -0.5357  1.7500
 1235SOL    HW215342   0.558   1.994   0.997  0.1293 -0.2464  1.5184
 1236SOL     OW15343   3.840   3.019  10.982  0.5131  0.0473  0.0724
 1236SOL    HW115344   3.901   2.968  10.929  0.3567 -0.3483  0.2780
 1236SOL    HW215345   3.892   3.071  11.043  0.9250  1.2054 -1.2494
 1237SOL     OW15346   2.374   4.010   6.319 -0.1658 -0.6267 -0.2438
 1237SOL    HW115347   2.426   3.935   6.346 -0.2840 -0.4979  0.3464
 1237SOL    HW215348   2.286   3.973   6.316  0.3507 -1.7670 -0.9677
 1238SOL     OW15349   0.892   3.604   5.253  0.1135 -0.4782 -0.4609
 1238SOL    HW115350   0.861   3.627   5.165  1.8191 -1.1787 -1.2550
 1238SOL    HW215351   0.855   3.516   5.249  0.1452 -0.3818 -2.8885
 1239SOL     OW15352   2.128   0.499  13.860 -0.3146 -0.5940  0.5012
 1239SOL    HW115353   2.107   0.434  13.926 -1.6476 -1.9014 -1.2114
 1239SOL    HW215354   2.136   0.580  13.910 -1.6421  1.1024 -2.0084
 1240SOL     OW15355   3.072   2.891  15.751 -0.9014  0.4155 -0.1332
 1240SOL    HW115356   3.057   2.983  15.776 -2.4941 -0.0213  0.5404
 1240SOL    HW215357   3.167   2.893  15.740 -0.6055 -0.9527  2.0182
 1241SOL     OW15358   0.774   2.767   3.012  0.0300 -0.0809 -0.4869
 1241SOL    HW115359   0.745   2.703   3.077  0.8015 -2.2208 -2.2522
 1241SOL    HW215360   0.870   2.770   3.021 -0.1263  3.4818  0.1211
 1242SOL     OW15361   2.317   0.800   8.661 -0.1138  0.0625 -0.5054
 1242SOL    HW115362   2.383   0.836   8.602  0.5560 -0.2245  0.0667
 1242SOL    HW215363   2.305   0.875   8.719  1.5895  0.0709 -0.1770
 1243SOL     OW15364   0.051   4.451   7.532  0.2048  0.0625  0.4793
 1243SOL    HW115365   0.005   4.439   7.616 -2.4538  0.9478 -0.8438
 1243SOL    HW215366   0.135   4.488   7.557 -1.0166  3.1365 -0.0034
 1244SOL     OW15367   3.756   4.515   8.071  0.3889  0.1993  0.7103
 1244SOL    HW115368   3.717   4.537   7.986  0.4934 -0.2838  0.5361
 1244SOL    HW215369   3.689   4.559   8.123  0.6612 -0.0628  1.2780
 1245SOL     OW15370   4.430   1.270   7.376 -0.3829  0.3287 -0.2528
 1245SOL    HW115371   4.424   1.252   7.282 -0.6966 -0.0619 -0.1600
 1245SOL    HW215372   4.387   1.197   7.422 -0.1859  0.8651  0.7839
 1246SOL     OW15373   2.496   2.855   2.788 -0.8387  0.5245 -0.1312
 1246SOL    HW115374   2.531   2.832   2.702 -0.4697 -1.4452  0.5554
 1246SOL    HW215375   2.575   2.863   2.842 -0.3668 -1.7558 -0.4911
 1247SOL     OW15376   0.053   2.652  16.106  0.0921 -0.1812 -0.3029
 1247SOL    HW115377   0.111   2.682  16.036  0.6060  0.5986  0.4487
 1247SOL    HW215378   4.709   2.691  16.076 -1.4013 -1.9226  1.5328
 1248SOL     OW15379   3.169   2.547   4.656 -0.1104  0.3048  0.0143
 1248SOL    HW115380   3.223   2.512   4.727  1.3917  2.2860 -0.1446
 1248SOL    HW215381   3.085   2.507   4.677  0.0070  0.9864  1.7838
 1249SOL     OW15382   4.040   1.939  16.380  0.1621  0.2688  0.1974
 1249SOL    HW115383   4.010   1.857  16.341 -0.7893  0.8730 -0.3406
 1249SOL    HW215384   4.134   1.924  16.368 -0.0441 -1.4098  0.6989
 1250SOL     OW15385   3.101   0.884  16.480  0.5594 -0.0688 -0.1191
 1250SOL    HW115386   3.080   0.878  16.574 -0.8502  2.1507 -0.2759
 1250SOL    HW215387   3.019   0.851  16.443  0.8279 -0.1707 -0.6185
 1251SOL     OW15388   1.239   0.291  11.067 -0.2235 -0.3197  0.4246
 1251SOL    HW115389   1.242   0.379  11.105 -0.0083 -0.1935  0.1193
 1251SOL    HW215390   1.314   0.244  11.103 -1.2069 -0.4225  2.3526
 1252SOL     OW15391   2.070   3.855   0.242 -0.2374  0.1509  0.2501
 1252SOL    HW115392   2.021   3.937   0.243 -1.4671 -0.5843  0.0111
 1252SOL    HW215393   2.158   3.891   0.239 -1.0677  1.9022 -2.5940
 1253SOL     OW15394   2.317   3.013  17.580 -0.0116 -0.6134  0.9434
 1253SOL    HW115395   2.278   2.994  17.495  1.7000  1.8394 -0.3826
 1253SOL    HW215396   2.350   3.100  17.559 -1.9084  0.5060  2.6161
 1254SOL     OW15397   2.655   4.652   0.188  0.4378  0.5716 -0.5304
 1254SOL    HW115398   2.597   4.729   0.190 -1.7564 -1.1273  0.6541
 1254SOL    HW215399   2.641   4.614   0.101  1.4529 -1.0139  0.0170
 1255SOL     OW15400   2.759   4.165   9.433 -0.1806 -0.0853 -0.0225
 1255SOL    HW115401   2.826   4.101   9.411 -0.8799 -0.7813 -0.1374
 1255SOL    HW215402   2.791   4.208   9.512  2.5047 -3.2060  0.5605
 1256SOL     OW15403   1.966   0.860  16.617 -0.6840  0.7866  0.1615
 1256SOL    HW115404   1.914   0.871  16.696  0.7378  0.5667  1.1204
 1256SOL    HW215405   1.952   0.949  16.584 -0.0980  2.2975  4.0652
 1257SOL     OW15406   3.807   2.555   7.776  0.0911  0.1553  0.4046
 1257SOL    HW115407   3.723   2.569   7.820 -0.6867 -1.1493 -0.6533
 1257SOL    HW215408   3.852   2.622   7.826 -0.0905  0.2986  0.3769
 1258SOL     OW15409   2.058   3.688   5.184 -0.1666 -0.3808  0.0458
 1258SOL    HW115410   1.967   3.702   5.211 -0.1278  1.5058 -0.7609
 1258SOL    HW215411   2.054   3.698   5.088  1.9213 -1.2256 -0.1223
 1259SOL     OW15412   0.215   2.777   5.076  0.4501  0.1025  0.6124
 1259SOL    HW115413   0.267   2.847   5.037 -0.4223  1.6471  2.2161
 1259SOL    HW215414   0.280   2.711   5.100 -1.0196 -2.2308 -1.7886
 1260SOL     OW15415   2.000   2.732  10.185  0.0261 -0.3478  0.1341
 1260SOL    HW115416   1.951   2.742  10.266 -0.9322 -2.2634 -0.2055
 1260SOL    HW215417   1.943   2.762  10.114 -0.3601 -2.5123 -0.4762
 1261SOL     OW15418   1.469   1.245  17.687 -0.2609 -0.0946  0.3189
 1261SOL    HW115419   1.434   1.193   0.010 -1.4430 -1.7933 -1.4616
 1261SOL    HW215420   1.398   1.256  17.624 -0.4658  1.4661  0.8148
 1262SOL     OW15421   3.146   4.665  10.139  0.3559  0.2397  1.0038
 1262SOL    HW115422   3.221   4.723  10.151 -0.0786  1.3067 -1.6808
 1262SOL    HW215423   3.127   4.644  10.231  0.0357  4.1962  1.8378
 1263SOL     OW15424   2.988   2.765  16.195  0.1225  0.0910 -0.2432
 1263SOL    HW115425   2.995   2.707  16.120  0.3081 -0.2724  0.0515
 1263SOL    HW215426   3.053   2.834  16.177 -1.2140  1.2522 -0.6110
 1264SOL     OW15427   2.049   0.488   9.563 -0.3247 -0.0472 -0.5503
 1264SOL    HW115428   2.142   0.476   9.578 -0.5222 -2.3605 -1.1489
 1264SOL    HW215429   2.055   0.537   9.480  0.9729  0.6670 -0.0302
 1265SOL     OW15430   2.608   1.443   8.473  0.0542  0.4726  0.3384
 1265SOL    HW115431   2.704   1.436   8.480  0.1544  2.7352  0.9295
 1265SOL    HW215432   2.596   1.525   8.426 -1.0795 -0.5075 -1.1192
 1266SOL     OW15433   0.068   4.414  11.703 -0.3280  0.3475  0.2524
 1266SOL    HW115434   4.737   4.351  11.682  0.0961 -0.6234  1.7446
 1266SOL    HW215435   0.035   4.494  11.663 -1.8291 -1.0430 -1.2752
 1267SOL     OW15436   3.452   3.942   7.714  0.1375  0.2649  0.8764
 1267SOL    HW115437   3.405   4.000   7.654 -0.1061 -0.4717  0.3603
 1267SOL    HW215438   3.471   4.001   7.787  1.2932 -0.4106  1.1176
 1268SOL     OW15439   1.685   1.398   3.578  0.1799  0.3679  0.1747
 1268SOL    HW115440   1.779   1.385   3.590  0.2019  1.3530  1.0294
 1268SOL    HW215441   1.647   1.386   3.665 -0.8076 -2.2315 -0.6070
 1269SOL     OW15442   0.804   1.698   3.316  0.5935  0.4557  0.0073
 1269SOL    HW115443   0.835   1.610   3.339  0.7574  0.5609  0.1915
 1269SOL    HW215444   0.718   1.677   3.279  1.1931  0.0209 -1.1574
 1270SOL     OW15445   1.262   3.176   8.706 -0.2885 -0.4593 -0.7351
 1270SOL    HW115446   1.213   3.101   8.674  0.2535 -0.8820 -0.5790
 1270SOL    HW215447   1.348   3.174   8.663 -0.2287 -2.4034 -0.5227
 1271SOL     OW15448   1.300   1.935   6.671 -0.3292 -0.4371  0.1062
 1271SOL    HW115449   1.306   1.981   6.754 -0.3322  1.8702 -1.1649
 1271SOL    HW215450   1.348   1.855   6.690  0.0247  0.1019  1.4400
 1272SOL     OW15451   0.753   1.095   2.821  0.3013  0.3329  0.3877
 1272SOL    HW115452   0.768   1.150   2.744  0.5769  1.0961  0.9877
 1272SOL    HW215453   0.713   1.158   2.881  2.0262  1.8868 -0.1073
 1273SOL     OW15454   4.469   1.240   8.130  0.0563  0.1649 -0.6469
 1273SOL    HW115455   4.494   1.279   8.047  1.1118  4.2045  1.5810
 1273SOL    HW215456   4.428   1.160   8.098  1.8397 -1.1169  0.2959
 1274SOL     OW15457   2.249   4.121   5.555 -0.1795  0.0119  0.0609
 1274SOL    HW115458   2.158   4.130   5.526 -0.0197  2.7196  0.4258
 1274SOL    HW215459   2.289   4.050   5.505 -0.4418 -0.0252 -0.1010
 1275SOL     OW15460   0.932   0.282   2.739 -0.1910  0.6054 -0.0293
 1275SOL    HW115461   0.967   0.247   2.657 -0.0325 -3.0642  1.6149
 1275SOL    HW215462   0.838   0.282   2.717  0.5246  1.8964 -3.1005
 1276SOL     OW15463   3.623   3.898  15.184 -0.2782  0.2296 -0.3074
 1276SOL    HW115464   3.713   3.867  15.180 -0.7588 -0.9411 -2.0472
 1276SOL    HW215465   3.609   3.892  15.089 -0.2176 -0.5776 -0.2697
 1277SOL     OW15466   2.573   3.244   3.786  0.6606  0.1924 -0.7948
 1277SOL    HW115467   2.625   3.188   3.728 -0.5116 -0.1340 -1.5453
 1277SOL    HW215468   2.499   3.272   3.731 -0.5582  0.4379  0.9606
 1278SOL     OW15469   2.248   0.373   2.878  0.0679  0.3089  0.4199
 1278SOL    HW115470   2.265   0.302   2.815  3.5685  0.6873  0.9225
 1278SOL    HW215471   2.281   0.333   2.959  0.2604  2.5386  1.4407
 1279SOL     OW15472   3.192   3.147   0.084  0.0263  0.3489 -0.0340
 1279SOL    HW115473   3.202   3.195   0.001  2.6841  0.8985  0.6201
 1279SOL    HW215474   3.236   3.066   0.058 -0.0352  0.3387 -0.1069
 1280SOL     OW15475   4.600   0.241  12.281  0.2413  0.1329 -0.4659
 1280SOL    HW115476   4.568   0.326  12.311 -1.3989 -0.0461 -1.7332
 1280SOL    HW215477   4.539   0.184  12.329 -1.6346  1.0221 -1.8227
 1281SOL     OW15478   0.161   0.048  17.253 -0.1613  0.8858  0.2979
 1281SOL    HW115479   0.217   0.104  17.199  0.1154 -0.6032 -0.9584
 1281SOL    HW215480   0.142   4.714  17.191  4.0681  0.1303 -0.1664
 1282SOL     OW15481   0.417   4.403   8.350 -0.3815 -0.8333 -0.0075
 1282SOL    HW115482   0.336   4.362   8.321  0.0064 -1.2997 -0.4163
 1282SOL    HW215483   0.392   4.469   8.415  1.1202  1.5475 -1.8187
 1283SOL     OW15484   2.194   3.168   3.265  0.0055 -0.4789  0.0072
 1283SOL    HW115485   2.250   3.229   3.314  0.0260 -0.7518  0.3246
 1283SOL    HW215486   2.238   3.084   3.281 -1.2237 -1.0828  0.2288
 1284SOL     OW15487   0.043   2.849   5.524  0.1965 -0.3426 -0.4606
 1284SOL    HW115488   0.113   2.865   5.460 -0.5977 -1.0017 -1.4998
 1284SOL    HW215489   0.097   2.838   5.602 -0.3557 -0.0696 -0.0388
 1285SOL     OW15490   3.128   3.791   3.183 -0.0846 -0.0424  0.4199
 1285SOL    HW115491   3.178   3.733   3.239 -2.2120  0.5566  2.9293
 1285SOL    HW215492   3.159   3.877   3.211 -1.5341  0.2795  1.0432
 1286SOL     OW15493   3.201   3.515   0.458 -0.0537  0.3059  0.3063
 1286SOL    HW115494   3.251   3.462   0.520 -1.9720 -1.3862  0.4302
 1286SOL    HW215495   3.174   3.457   0.386  0.2168 -0.3009  0.6922
 1287SOL     OW15496   2.937   3.277   0.819  0.6744  0.2766  0.2876
 1287SOL    HW115497   2.921   3.365   0.785 -0.5394 -0.6235 -1.4989
 1287SOL    HW215498   2.855   3.261   0.866  0.5285  0.1881  0.0079
 1288SOL     OW15499   2.353   3.672   2.226  0.1063  0.2494  0.0559
 1288SOL    HW115500   2.321   3.636   2.309  1.1769 -1.6512 -0.3541
 1288SOL    HW215501   2.437   3.697   2.264 -0.1055  0.4510  0.3972
 1289SOL     OW15502   2.842   2.976   8.264 -0.3846 -0.3037 -0.3585
 1289SOL    HW115503   2.933   2.986   8.289 -0.5506  0.2581  0.0320
 1289SOL    HW215504   2.838   2.885   8.235 -0.1080  0.0704 -1.5535
 1290SOL     OW15505   0.752   0.719  10.163 -0.4087 -0.0074  0.4742
 1290SOL    HW115506   0.843   0.745  10.175 -0.4514  0.5399 -0.4049
 1290SOL    HW215507   0.731   0.640  10.213 -0.9615  0.5605  1.1506
 1291SOL     OW15508   1.008   2.239   6.031  0.6238  0.5267  0.0195
 1291SOL    HW115509   1.039   2.158   6.070 -1.9662 -1.7672 -2.6537
 1291SOL    HW215510   1.005   2.221   5.937 -0.2812  1.5692 -0.1545
 1292SOL     OW15511   4.282   0.688   9.706  0.5361  0.2317  0.3615
 1292SOL    HW115512   4.342   0.649   9.643 -1.2673 -0.6458 -0.7900
 1292SOL    HW215513   4.247   0.759   9.652  0.0595  0.0428  0.4297
 1293SOL     OW15514   1.514   0.803   7.916  0.0531  0.1757  0.0108
 1293SOL    HW115515   1.450   0.748   7.961  0.6091 -0.8127 -0.4054
 1293SOL    HW215516   1.494   0.880   7.970  0.1334 -1.3865  2.2560
 1294SOL     OW15517   0.452   1.258   0.737  0.1760 -0.2961  0.3953
 1294SOL    HW115518   0.528   1.276   0.792 -0.7935  2.1111  0.9448
 1294SOL    HW215519   0.373   1.288   0.783 -0.0465 -0.7598  0.3136
 1295SOL     OW15520   2.840   4.431  12.293 -0.3854 -0.4108 -0.8849
 1295SOL    HW115521   2.808   4.519  12.315  0.7042 -0.4330  0.8003
 1295SOL    HW215522   2.767   4.370  12.286 -2.5570  1.9945  0.5160
 1296SOL     OW15523   2.115   3.232  11.932 -0.4904 -0.3226  0.3079
 1296SOL    HW115524   2.049   3.236  12.001  1.1021  0.4341  1.7972
 1296SOL    HW215525   2.072   3.236  11.847 -0.8245  1.1805  0.5569
 1297SOL     OW15526   4.135   1.692   3.436  0.0125 -0.1230  0.2006
 1297SOL    HW115527   4.175   1.672   3.521  1.6601 -0.5448 -0.6632
 1297SOL    HW215528   4.139   1.787   3.430 -1.2831 -0.0292  0.8514
 1298SOL     OW15529   1.206   2.240   2.216 -0.6442  0.2810  0.7309
 1298SOL    HW115530   1.158   2.277   2.289  0.5439  0.2357  1.5396
 1298SOL    HW215531   1.203   2.319   2.163  0.7566  0.4341  0.8811
 1299SOL     OW15532   4.223   0.490  15.308  0.4948 -0.3597  0.5824
 1299SOL    HW115533   4.161   0.447  15.248  0.6795  1.3581 -0.8477
 1299SOL    HW215534   4.289   0.519  15.245 -2.7092 -0.6733 -2.9396
 1300SOL     OW15535   2.748   2.726   5.774 -0.1135  0.2497  0.3261
 1300SOL    HW115536   2.653   2.715   5.781  0.3886 -4.1267  0.2418
 1300SOL    HW215537   2.768   2.709   5.866  0.9082 -3.5569 -0.5850
 1301SOL     OW15538   3.640   1.079   8.893  0.0543  0.2016 -0.5480
 1301SOL    HW115539   3.694   1.006   8.924 -0.3654  0.6381  1.2103
 1301SOL    HW215540   3.676   1.153   8.942 -0.4692  1.4045 -1.9696
 1302SOL     OW15541   3.773   4.120  13.898  0.4434  0.3592 -0.1269
 1302SOL    HW115542   3.743   4.211  13.891  0.0489  0.0633 -2.0423
 1302SOL    HW215543   3.781   4.096  13.806  1.4331 -2.9000  0.8027
 1303SOL     OW15544   2.066   4.332  17.308  0.0539 -0.1606  0.4782
 1303SOL    HW115545   2.131   4.267  17.336  0.8864  1.9401  3.4874
 1303SOL    HW215546   2.111   4.412  17.337 -1.9534  1.3278 -0.5286
 1304SOL     OW15547   0.928   0.930  17.413  0.5466  0.3896 -0.4337
 1304SOL    HW115548   0.972   0.972  17.339  2.6663 -0.8041  0.1648
 1304SOL    HW215549   0.981   0.961  17.486 -0.5073  1.7597 -0.2536
 1305SOL     OW15550   2.136   2.183   9.406 -0.6994  0.1850 -0.2370
 1305SOL    HW115551   2.114   2.097   9.443  0.0089  1.9388  4.1779
 1305SOL    HW215552   2.205   2.216   9.462 -0.7750 -1.3700  0.7762
 1306SOL     OW15553   3.993   1.679   4.445  0.1769  0.8945  0.7986
 1306SOL    HW115554   4.004   1.723   4.529 -0.2623  0.0986  1.2657
 1306SOL    HW215555   3.924   1.738   4.414 -1.1401 -2.3281 -2.4084
 1307SOL     OW15556   4.003   2.526   7.287 -0.2773  0.2042  0.2413
 1307SOL    HW115557   3.938   2.509   7.219  0.4144 -0.8871 -0.1478
 1307SOL    HW215558   3.942   2.521   7.360 -0.2755  1.3589  0.3191
 1308SOL     OW15559   3.191   2.596   3.301  0.3492 -0.0423 -0.6605
 1308SOL    HW115560   3.227   2.524   3.250  1.4041 -2.1091  2.9897
 1308SOL    HW215561   3.231   2.580   3.386 -0.8839  1.4929  0.2189
 1309SOL     OW15562   3.135   1.115   9.707 -0.5139 -0.6365 -0.0755
 1309SOL    HW115563   3.089   1.100   9.624 -0.1648 -1.4201 -0.1296
 1309SOL    HW215564   3.062   1.144   9.761 -0.4620 -2.6991  1.1092
 1310SOL     OW15565   1.154   0.637   3.762  0.1119 -0.0519 -0.1181
 1310SOL    HW115566   1.193   0.722   3.744  1.2802 -0.7323 -0.7648
 1310SOL    HW215567   1.214   0.592   3.820 -1.3939 -0.2431  1.2998
 1311SOL     OW15568   2.609   3.496   3.533 -0.0740 -0.0587 -0.0515
 1311SOL    HW115569   2.675   3.454   3.589 -0.6204 -0.2659  0.4296
 1311SOL    HW215570   2.666   3.516   3.458 -2.1253  1.8264 -1.1083
 1312SOL     OW15571   0.859   1.892  14.792  0.1550 -0.0443  0.1951
 1312SOL    HW115572   0.882   1.799  14.795 -0.8962 -0.3481 -1.4868
 1312SOL    HW215573   0.862   1.930  14.880 -2.9072  1.4075 -0.3357
 1313SOL     OW15574   4.714   1.101   5.406  0.5836  0.6336 -0.2783
 1313SOL    HW115575   4.621   1.116   5.423  0.2551  1.0974 -2.4003
 1313SOL    HW215576   4.718   1.142   5.319  1.7413 -0.0464 -0.5493
 1314SOL     OW15577   0.619   4.200   0.325 -0.1516  0.4665  0.5341
 1314SOL    HW115578   0.623   4.251   0.244  0.2779  1.4550  1.1598
 1314SOL    HW215579   0.616   4.111   0.291  0.2947  0.1977  1.1871
 1315SOL     OW15580   4.459   3.276   2.405 -0.0509  0.5978  0.3010
 1315SOL    HW115581   4.507   3.194   2.400  0.0359  0.6872 -0.2782
 1315SOL    HW215582   4.368   3.251   2.424 -0.3122 -0.2959 -2.1483
 1316SOL     OW15583   1.700   1.345   8.727 -1.0668 -0.1407  0.3821
 1316SOL    HW115584   1.682   1.369   8.636  0.9645  1.4052  0.4076
 1316SOL    HW215585   1.707   1.251   8.708  1.1147  0.2391 -0.6344
 1317SOL     OW15586   0.095   4.466   6.218  0.6363  0.0400  0.7055
 1317SOL    HW115587   0.155   4.440   6.288  0.4881  0.9684  1.1840
 1317SOL    HW215588   0.122   4.409   6.146  1.3827 -0.1510  1.1409
 1318SOL     OW15589   3.735   1.277   5.013  0.4840  0.4804  0.3156
 1318SOL    HW115590   3.771   1.343   4.954 -2.4351  2.6742  0.9868
 1318SOL    HW215591   3.805   1.248   5.071  0.7552 -0.3753 -0.4375
 1319SOL     OW15592   1.943   0.743  13.497 -0.2214 -0.2257 -0.7226
 1319SOL    HW115593   1.887   0.698  13.560 -3.0143  1.0908 -2.2691
 1319SOL    HW215594   2.025   0.696  13.514 -0.1564 -0.4978 -1.7796
 1320SOL     OW15595   1.754   2.529   7.096 -0.1926  0.0653  0.1057
 1320SOL    HW115596   1.842   2.512   7.061 -0.1580  0.5632 -0.0579
 1320SOL    HW215597   1.714   2.449   7.063 -2.3055  1.6500 -1.1976
 1321SOL     OW15598   3.556   0.850  11.361 -0.3363  0.6735 -0.1540
 1321SOL    HW115599   3.528   0.869  11.450  2.3187  2.0729  0.4116
 1321SOL    HW215600   3.640   0.896  11.351  0.4390 -0.7585 -0.1974
 1322SOL     OW15601   0.274   1.105   4.446 -0.3383 -0.1315 -0.3130
 1322SOL    HW115602   0.220   1.122   4.524 -0.8581  1.7255 -1.0836
 1322SOL    HW215603   0.340   1.042   4.472 -0.0519  0.2137 -0.2003
 1323SOL     OW15604   0.800   2.051   2.758 -0.0381 -0.0493 -0.1142
 1323SOL    HW115605   0.740   2.115   2.720 -0.4050 -0.2405  0.1407
 1323SOL    HW215606   0.854   2.104   2.817  1.3264  0.7122 -2.0552
 1324SOL     OW15607   1.474   3.600  11.124 -0.6487  0.2149 -0.3027
 1324SOL    HW115608   1.413   3.613  11.197 -0.7741  0.9966 -0.5400
 1324SOL    HW215609   1.515   3.517  11.146  0.2917  0.6897 -0.2810
 1325SOL     OW15610   0.853   3.495   5.935 -0.1437 -0.1844 -0.1302
 1325SOL    HW115611   0.945   3.473   5.919 -0.4535 -1.0628 -0.6559
 1325SOL    HW215612   0.832   3.444   6.014 -1.2419 -4.3072 -3.1185
 1326SOL     OW15613   1.031   1.179  10.982  0.0820  0.2999 -0.1982
 1326SOL    HW115614   0.947   1.162  10.939 -0.5005 -0.9572  1.4714
 1326SOL    HW215615   1.091   1.140  10.918  1.0708  1.0870  0.2430
 1327SOL     OW15616   4.233   0.054   9.710 -1.1615 -0.0954 -0.0975
 1327SOL    HW115617   4.286   0.035   9.788  0.2303  2.6483 -0.3924
 1327SOL    HW215618   4.201   4.702   9.699  2.1319 -1.1366 -1.4135
 1328SOL     OW15619   4.098   1.257   8.450  0.3473  0.0459 -0.3318
 1328SOL    HW115620   4.096   1.162   8.464  0.8693  0.2903  1.3403
 1328SOL    HW215621   4.072   1.249   8.358 -1.9962 -2.2613  0.5180
 1329SOL     OW15622   0.135   1.729   4.346  0.7954 -0.1753  0.2467
 1329SOL    HW115623   0.149   1.663   4.413  0.2590 -1.2938 -0.7309
 1329SOL    HW215624   0.051   1.701   4.308  1.5984 -4.6342  1.7205
 1330SOL     OW15625   1.044   1.957  17.134  0.2957  0.1388  0.4552
 1330SOL    HW115626   1.099   1.999  17.068  3.3502  1.3406  3.7630
 1330SOL    HW215627   1.037   2.042  17.177 -1.2388  0.8606 -1.1854
 1331SOL     OW15628   2.778   0.564   6.113 -0.1035  0.3791  0.4862
 1331SOL    HW115629   2.700   0.601   6.154 -0.2747  2.0176 -1.3249
 1331SOL    HW215630   2.730   0.501   6.058  2.2143 -2.4692  1.7444
 1332SOL     OW15631   0.978   0.325   4.691 -0.2553 -0.0206  0.0783
 1332SOL    HW115632   0.971   0.291   4.780  3.0600  0.7202  0.6342
 1332SOL    HW215633   1.062   0.297   4.656  1.1400  2.5783  1.3297
 1333SOL     OW15634   3.626   4.116   9.393  0.1554  0.0865  0.0622
 1333SOL    HW115635   3.579   4.033   9.401 -0.8198  0.5810 -0.5701
 1333SOL    HW215636   3.695   4.086   9.453  1.9077  1.6022 -1.2018
 1334SOL     OW15637   4.423   2.965   4.074  0.0588 -0.3478 -0.4521
 1334SOL    HW115638   4.343   2.912   4.064 -0.3850  0.1249  0.6621
 1334SOL    HW215639   4.494   2.901   4.071  0.2211 -0.0991 -2.1319
 1335SOL     OW15640   3.100   0.046  10.568 -0.0681 -0.0121 -0.0056
 1335SOL    HW115641   3.014   0.089  10.568  0.0757  0.2787  0.5111
 1335SOL    HW215642   3.146   0.089  10.496  1.3294 -1.0273  0.2983
 1336SOL     OW15643   0.746   0.935  13.014 -0.2183  0.6108  0.0117
 1336SOL    HW115644   0.788   0.930  13.099  1.2793 -1.4981 -0.8501
 1336SOL    HW215645   0.729   1.029  13.004  1.1599  0.8654  0.1340
 1337SOL     OW15646   2.690   4.081   2.389  0.7218  0.2670 -0.5341
 1337SOL    HW115647   2.613   4.106   2.440 -0.1740  0.9522 -2.2320
 1337SOL    HW215648   2.744   4.158   2.409 -0.6477  1.3944 -1.1620
 1338SOL     OW15649   2.777   4.646  17.309  0.1434 -0.0073 -0.1864
 1338SOL    HW115650   2.716   4.719  17.323 -0.7994 -1.0371  1.1455
 1338SOL    HW215651   2.801   4.654  17.401 -2.4187  3.8462  0.1258
 1339SOL     OW15652   1.574   0.303   4.525  0.5807  0.5869 -0.1787
 1339SOL    HW115653   1.611   0.384   4.491 -0.0290 -0.4409 -3.3271
 1339SOL    HW215654   1.659   0.259   4.533  1.1326  1.4505 -1.2145
 1340SOL     OW15655   1.949   2.080   5.330  0.2455  0.0881  1.1203
 1340SOL    HW115656   1.952   1.985   5.342 -1.4403 -0.1799 -0.5623
 1340SOL    HW215657   2.044   2.088   5.328  0.4901 -3.7905 -3.0226
 1341SOL     OW15658   0.487   1.871   1.086  0.3876  0.3816 -0.1672
 1341SOL    HW115659   0.423   1.820   1.038  0.9625 -0.3139 -0.1928
 1341SOL    HW215660   0.479   1.838   1.176  0.5186 -0.0530 -0.3175
 1342SOL     OW15661   2.368   2.089   6.175 -0.2814 -0.6878  0.5491
 1342SOL    HW115662   2.308   2.038   6.230 -1.7968 -1.2731 -1.6510
 1342SOL    HW215663   2.308   2.126   6.110  1.0307  0.8115  0.1704
 1343SOL     OW15664   3.868   1.420   1.686 -0.1277  0.8350  0.4594
 1343SOL    HW115665   3.786   1.376   1.707 -1.8359  2.4792 -2.6755
 1343SOL    HW215666   3.840   1.458   1.602 -1.2312  2.4026  1.5147
 1344SOL     OW15667   2.860   4.015  15.174 -0.1543  0.2794 -0.2961
 1344SOL    HW115668   2.944   3.984  15.209 -0.1958 -2.6464 -2.8352
 1344SOL    HW215669   2.882   4.061  15.094  0.9224 -1.2478 -0.8791
 1345SOL     OW15670   2.815   1.604   6.510 -0.0643 -0.3960 -0.7116
 1345SOL    HW115671   2.765   1.673   6.466 -1.0052 -0.0172  0.9784
 1345SOL    HW215672   2.744   1.540   6.519 -0.4927 -0.2421 -2.8492
 1346SOL     OW15673   2.127   0.473  16.170  0.0280  0.1441  0.5328
 1346SOL    HW115674   2.069   0.536  16.213 -2.5805 -1.3687 -0.7233
 1346SOL    HW215675   2.192   0.527  16.127 -0.2596 -2.7513 -3.5405
 1347SOL     OW15676   4.701   1.251   5.187 -0.6623  0.1581 -0.0934
 1347SOL    HW115677   4.605   1.261   5.188 -0.5160  1.3580  0.8900
 1347SOL    HW215678   4.716   1.234   5.094 -0.1424 -2.8242  0.5452
 1348SOL     OW15679   3.496   4.628   5.331 -0.1134 -0.0975  0.0736
 1348SOL    HW115680   3.514   4.605   5.423  0.2471  0.2296  0.0827
 1348SOL    HW215681   3.408   4.589   5.328 -0.1065  0.1260 -2.6202
 1349SOL     OW15682   2.183   0.737  17.024 -0.4273 -0.1613 -0.6323
 1349SOL    HW115683   2.276   0.759  17.025 -0.3111 -0.6410 -0.7537
 1349SOL    HW215684   2.157   0.719  17.114 -1.4025 -0.8288 -1.0424
 1350SOL     OW15685   1.588   1.689  12.673 -0.2053  0.1310  0.3895
 1350SOL    HW115686   1.554   1.602  12.696  0.1268  0.3226  1.5710
 1350SOL    HW215687   1.507   1.740  12.670  0.2163  0.7110 -1.1288
 1351SOL     OW15688   0.856   1.885   5.871  0.0172 -0.1324 -0.0679
 1351SOL    HW115689   0.873   1.823   5.800  2.1540  0.8261 -0.3831
 1351SOL    HW215690   0.880   1.837   5.950  2.2556 -1.7638 -1.7433
 1352SOL     OW15691   3.296   0.499   5.416  0.1114 -0.2754  0.3351
 1352SOL    HW115692   3.373   0.448   5.393  0.4977  1.7751 -2.8251
 1352SOL    HW215693   3.266   0.448   5.492  1.6181  1.4038  2.0672
 1353SOL     OW15694   3.692   3.411   3.980  0.8200 -0.0011  0.4911
 1353SOL    HW115695   3.693   3.421   3.885 -1.7656  0.1177  0.4835
 1353SOL    HW215696   3.733   3.494   4.007  1.6692  0.1473 -1.1953
 1354SOL     OW15697   0.515   1.166  14.747  0.5111  0.3932 -0.1494
 1354SOL    HW115698   0.419   1.165  14.741  0.4711  1.6039  0.3708
 1354SOL    HW215699   0.529   1.085  14.797 -1.2365 -0.1162 -0.4740
 1355SOL     OW15700   0.504   1.868   3.448  1.5346  0.1886 -0.0644
 1355SOL    HW115701   0.564   1.806   3.490  1.8237  1.1529  0.9555
 1355SOL    HW215702   0.490   1.825   3.364 -1.9598  0.7187  0.2578
 1356SOL     OW15703   3.425   2.155  11.343 -0.5399  0.4906  0.3699
 1356SOL    HW115704   3.376   2.167  11.262 -2.0703 -1.0266  1.0620
 1356SOL    HW215705   3.405   2.062  11.353  0.3651  0.1906 -0.6543
 1357SOL     OW15706   0.237   2.661   2.381  0.1425 -0.1799  0.3373
 1357SOL    HW115707   0.215   2.586   2.436 -2.6791  0.2155 -0.2581
 1357SOL    HW215708   0.178   2.726   2.419 -1.6168 -2.0251  0.7955
 1358SOL     OW15709   4.501   1.456   1.214  0.1882 -0.2494 -0.4717
 1358SOL    HW115710   4.478   1.534   1.264  2.2502  1.6154 -2.4153
 1358SOL    HW215711   4.426   1.400   1.235 -1.9208  1.2509 -3.9680
 1359SOL     OW15712   0.622   2.192   6.903  0.5835 -0.5976 -0.4038
 1359SOL    HW115713   0.611   2.287   6.907 -0.8290 -0.6489 -2.8898
 1359SOL    HW215714   0.583   2.161   6.985  2.9698  0.6397  1.1943
 1360SOL     OW15715   3.626   3.186  13.823  0.3431  0.2478  1.0797
 1360SOL    HW115716   3.681   3.225  13.892  3.4112 -1.2454 -0.5075
 1360SOL    HW215717   3.654   3.232  13.744 -3.6299  0.6657 -0.0625
 1361SOL     OW15718   1.365   0.029   9.609 -0.6504  0.2970 -0.4473
 1361SOL    HW115719   1.300   0.092   9.576 -1.1371  1.0743  2.0227
 1361SOL    HW215720   1.350   4.684   9.564  1.6033  0.1248 -0.8534
 1362SOL     OW15721   3.261   0.752   2.625 -0.1674  0.1542  0.1757
 1362SOL    HW115722   3.356   0.743   2.633 -0.0048  0.6967 -1.1043
 1362SOL    HW215723   3.262   0.838   2.583 -1.4000 -1.0502 -2.3258
 1363SOL     OW15724   0.833   4.089   6.500  0.0149 -0.2013 -0.1630
 1363SOL    HW115725   0.748   4.046   6.488  0.1957  0.2698 -3.1399
 1363SOL    HW215726   0.842   4.090   6.595 -1.5965  1.9394 -0.0312
 1364SOL     OW15727   3.882   4.483  11.670  0.4063  0.4361 -0.3236
 1364SOL    HW115728   3.789   4.469  11.649 -0.1739  0.1529  2.4473
 1364SOL    HW215729   3.891   4.567  11.715  1.2138  0.9197 -1.3691
 1365SOL     OW15730   3.494   2.555   0.113  0.9509  0.2432  0.2806
 1365SOL    HW115731   3.585   2.537   0.136  0.3377 -0.0179  2.4719
 1365SOL    HW215732   3.472   2.623   0.177  0.7948  1.1486 -0.7204
 1366SOL     OW15733   1.108   0.758   5.704  0.0812 -0.0738 -0.2612
 1366SOL    HW115734   1.180   0.755   5.640 -0.2620  2.3186 -0.7832
 1366SOL    HW215735   1.135   0.833   5.757  2.5635 -0.8185 -0.4747
 1367SOL     OW15736   0.423   2.486   6.531  0.3043 -0.2493 -0.4945
 1367SOL    HW115737   0.368   2.517   6.603  1.1776  1.8242 -0.7472
 1367SOL    HW215738   0.362   2.438   6.474  2.0715 -1.7724 -1.0834
 1368SOL     OW15739   2.055   3.665   4.019 -1.0503 -0.4640 -0.0446
 1368SOL    HW115740   2.083   3.590   4.071  1.1422  0.3632 -0.0441
 1368SOL    HW215741   2.135   3.717   4.023 -1.5243  0.2258  0.4110
 1369SOL     OW15742   4.645   0.415  17.422 -0.0771 -0.5257 -0.1846
 1369SOL    HW115743   4.687   0.501  17.428  2.3445 -1.6641 -0.8369
 1369SOL    HW215744   4.604   0.417  17.508 -1.4003 -0.8942 -0.8034
 1370SOL     OW15745   2.409   4.048  14.896 -0.1884  0.7782  0.2305
 1370SOL    HW115746   2.319   4.068  14.872 -0.7176 -1.0182  0.7027
 1370SOL    HW215747   2.397   4.038  14.990  0.9867 -1.5698  0.1562
 1371SOL     OW15748   3.939   1.211   3.008  0.2832  0.8535  0.2185
 1371SOL    HW115749   3.909   1.251   3.089 -3.0446 -1.1311 -0.0298
 1371SOL    HW215750   3.849   1.206   2.974 -0.1241  0.0954  1.4154
 1372SOL     OW15751   0.682   3.098   7.112 -0.1053 -0.1841 -0.3717
 1372SOL    HW115752   0.752   3.155   7.145  0.1488 -0.3054 -0.6928
 1372SOL    HW215753   0.612   3.127   7.169  0.9654  2.6092 -0.5029
 1373SOL     OW15754   2.073   3.437   3.128  0.4129  0.2205  0.7090
 1373SOL    HW115755   2.109   3.437   3.217  0.6931 -2.5175  0.5822
 1373SOL    HW215756   2.129   3.371   3.088 -0.3947 -1.8634  3.0353
 1374SOL     OW15757   2.302   1.731   9.517 -0.0503  0.0473 -0.0639
 1374SOL    HW115758   2.248   1.708   9.593 -0.2631 -1.0331 -0.5449
 1374SOL    HW215759   2.352   1.803   9.556 -1.7977  1.3264 -0.1770
 1375SOL     OW15760   2.861   1.629   3.316  0.0775 -0.3005  0.1915
 1375SOL    HW115761   2.822   1.713   3.341  0.4400  0.2143 -0.9599
 1375SOL    HW215762   2.900   1.599   3.398  3.5000  1.7411 -0.6980
 1376SOL     OW15763   0.787   1.661  12.893  0.3058 -0.2850  0.0208
 1376SOL    HW115764   0.855   1.709  12.846 -0.9595  0.9682 -0.5316
 1376SOL    HW215765   0.800   1.692  12.982 -1.7963 -2.4295  1.0912
 1377SOL     OW15766   2.861   3.420   8.573 -0.3100 -0.1891 -0.6804
 1377SOL    HW115767   2.818   3.443   8.656  3.8585  1.6400  0.9514
 1377SOL    HW215768   2.845   3.325   8.572 -1.0092 -0.0648 -1.1941
 1378SOL     OW15769   1.478   4.657   8.654  0.0976 -0.2441  0.6438
 1378SOL    HW115770   1.518   4.647   8.568  1.1116  0.5182  1.0327
 1378SOL    HW215771   1.495   0.013   8.663 -1.0478  0.0230  0.0175
 1379SOL     OW15772   2.294   3.080   8.745  0.1889 -0.1066  0.5729
 1379SOL    HW115773   2.302   3.124   8.829 -0.1136 -1.1585  1.1496
 1379SOL    HW215774   2.256   3.000   8.781  0.5858 -1.6418 -2.3878
 1380SOL     OW15775   0.623   4.239  11.626  0.1857  0.3565  0.0095
 1380SOL    HW115776   0.701   4.292  11.612 -0.2874  0.9749 -0.3023
 1380SOL    HW215777   0.624   4.190  11.544 -0.4651  1.2770 -0.5490
 1381SOL     OW15778   2.394   1.076   6.673  0.6412  0.0979 -0.1253
 1381SOL    HW115779   2.337   1.032   6.609  0.3654  0.6508 -0.2574
 1381SOL    HW215780   2.339   1.105   6.746  0.1343 -1.4099  0.0845
 1382SOL     OW15781   3.600   1.775   8.384 -0.3005 -0.0144 -0.0725
 1382SOL    HW115782   3.612   1.719   8.461  1.7004  3.3110  2.0136
 1382SOL    HW215783   3.685   1.819   8.390 -1.2673  1.6964  1.0839
 1383SOL     OW15784   3.212   2.048   4.982  0.0663  0.0476 -0.2462
 1383SOL    HW115785   3.132   2.087   4.949 -0.1680  0.7281  1.1320
 1383SOL    HW215786   3.275   2.093   4.927 -0.0835 -3.7391 -3.5286
 1384SOL     OW15787   0.952   2.413  17.381 -0.1377 -0.4428 -0.4161
 1384SOL    HW115788   0.914   2.497  17.406 -0.8444 -0.8459 -0.1574
 1384SOL    HW215789   1.046   2.417  17.399 -0.8303  0.9111  2.8863
 1385SOL     OW15790   0.178   4.291   6.016  0.2980 -0.2863  0.0878
 1385SOL    HW115791   0.245   4.346   5.976 -0.7576 -0.7632 -2.3478
 1385SOL    HW215792   0.163   4.226   5.947 -2.0480  0.9818 -0.6356
 1386SOL     OW15793   4.614   1.096   2.503  0.2356  0.0641  0.1806
 1386SOL    HW115794   4.709   1.081   2.511  0.1869 -0.0795  0.4761
 1386SOL    HW215795   4.604   1.163   2.570  2.2328 -0.1872  0.7340
 1387SOL     OW15796   1.266   0.364  17.139  0.1133 -0.0416 -0.5634
 1387SOL    HW115797   1.295   0.291  17.084 -1.1485 -0.0545 -1.2115
 1387SOL    HW215798   1.213   0.322  17.207  0.1281  1.3953  0.3365
 1388SOL     OW15799   2.255   3.880   0.590 -0.2658  0.1697 -0.0311
 1388SOL    HW115800   2.183   3.902   0.649 -0.4450 -0.5729  0.0327
 1388SOL    HW215801   2.330   3.925   0.629 -0.0003  1.1539 -1.6932
 1389SOL     OW15802   2.355   3.362   4.105 -0.2964 -0.3900  0.3997
 1389SOL    HW115803   2.265   3.333   4.097 -0.9672  1.8440 -0.1625
 1389SOL    HW215804   2.343   3.448   4.063 -0.9692 -0.7014 -0.0380
 1390SOL     OW15805   4.310   0.286  11.976 -0.2137 -0.2064 -0.6655
 1390SOL    HW115806   4.375   0.348  12.010 -0.7297 -0.6034  1.0706
 1390SOL    HW215807   4.346   0.200  11.998  1.6702  0.3567 -1.5209
 1391SOL     OW15808   1.307   4.502   8.451  0.2260  0.7412  0.0553
 1391SOL    HW115809   1.319   4.411   8.480 -0.6685  0.4695 -0.4389
 1391SOL    HW215810   1.309   4.553   8.532 -2.3406 -1.8727  1.7540
 1392SOL     OW15811   2.035   0.026  10.454 -0.5886  0.2319  0.0441
 1392SOL    HW115812   1.983   0.097  10.417 -0.3806 -0.0095 -0.7044
 1392SOL    HW215813   2.092   4.734  10.384  1.3924 -3.2059  3.1477
 1393SOL     OW15814   2.643   0.243   2.636  0.4225 -0.0223  0.5208
 1393SOL    HW115815   2.710   0.252   2.704  1.7036 -0.6137 -0.6692
 1393SOL    HW215816   2.588   0.321   2.647 -1.6797 -1.3015 -1.0421
 1394SOL     OW15817   4.358   3.853   1.983 -0.1733  0.2387  0.4963
 1394SOL    HW115818   4.450   3.845   1.958  0.0769  1.4132  1.0502
 1394SOL    HW215819   4.325   3.888   1.900 -1.2701 -0.4664  0.6331
 1395SOL     OW15820   0.644   1.074  16.603  0.5854  0.6149 -0.6628
 1395SOL    HW115821   0.599   1.055  16.521 -1.0558 -1.4370  0.7333
 1395SOL    HW215822   0.611   1.162  16.623  1.1210  1.0507 -1.6498
 1396SOL     OW15823   1.631   0.237   5.136 -0.0307 -0.7320 -0.3650
 1396SOL    HW115824   1.571   0.253   5.210 -0.9833  1.6979 -1.6782
 1396SOL    HW215825   1.615   0.303   5.069 -0.6842  1.2960  1.7909
 1397SOL     OW15826   4.675   0.761   6.043  0.0646 -0.9535  0.4614
 1397SOL    HW115827   4.608   0.780   6.109 -0.6670 -1.6993 -0.0668
 1397SOL    HW215828   4.644   0.808   5.965 -0.4874 -1.7393  0.2042
 1398SOL     OW15829   4.456   3.224   3.988  0.6746  0.0465  0.0644
 1398SOL    HW115830   4.435   3.135   4.016  0.3134 -0.1425 -0.8159
 1398SOL    HW215831   4.370   3.263   4.006  0.5594 -0.1829  0.0062
 1399SOL     OW15832   2.186   3.016  17.295  0.2109 -0.3433  0.1399
 1399SOL    HW115833   2.187   2.950  17.226  0.1147 -0.7710  0.5472
 1399SOL    HW215834   2.233   3.086  17.250  0.0031 -0.9888 -1.0883
 1400SOL     OW15835   3.117   0.324  13.668  0.1523 -0.1915 -0.7742
 1400SOL    HW115836   3.126   0.381  13.591 -0.6276  0.6906 -0.2095
 1400SOL    HW215837   3.094   0.241  13.627 -3.6812  0.2353  0.5782
 1401SOL     OW15838   2.118   1.999   7.416  0.1606  0.4026 -0.3733
 1401SOL    HW115839   2.200   1.957   7.443 -0.4168 -0.9701 -0.7099
 1401SOL    HW215840   2.137   2.091   7.397  0.5129  0.2541 -0.7465
 1402SOL     OW15841   2.436   0.213   0.537 -0.0801 -0.0035  0.2233
 1402SOL    HW115842   2.478   0.133   0.568 -1.8387 -0.8841  0.3492
 1402SOL    HW215843   2.348   0.193   0.568 -1.0415  2.3309 -0.9698
 1403SOL     OW15844   1.270   3.644   0.954 -0.0530 -0.1760 -0.0393
 1403SOL    HW115845   1.277   3.722   0.899  2.0000  1.0291  1.9387
 1403SOL    HW215846   1.203   3.665   1.018 -0.5629 -1.0580 -0.2824
 1404SOL     OW15847   0.954   3.408   1.954  0.1015  0.2968 -0.4223
 1404SOL    HW115848   0.948   3.480   2.017  0.4315 -1.0338  1.1219
 1404SOL    HW215849   0.880   3.420   1.895 -0.6717 -2.8124 -0.0830
 1405SOL     OW15850   3.991   1.498   7.863  0.0194  0.0447  0.3282
 1405SOL    HW115851   3.962   1.407   7.858 -0.4516  0.0803  2.4153
 1405SOL    HW215852   3.933   1.540   7.927 -0.2545 -1.5454  1.1104
 1406SOL     OW15853   3.261   4.479  11.624  0.0217  0.1806 -0.5212
 1406SOL    HW115854   3.223   4.498  11.710  0.3397 -1.2945 -0.0578
 1406SOL    HW215855   3.223   4.545  11.566  1.7825 -0.4823 -2.4195
 1407SOL     OW15856   4.399   2.668  10.392 -0.2410  0.3651 -0.2796
 1407SOL    HW115857   4.484   2.706  10.372  0.7343 -1.9606 -0.4985
 1407SOL    HW215858   4.400   2.606  10.319  0.0993  0.3933 -0.2950
 1408SOL     OW15859   3.570   4.254   9.179 -0.1620 -0.0019 -0.7422
 1408SOL    HW115860   3.578   4.208   9.262 -1.6841  1.5175  0.2681
 1408SOL    HW215861   3.652   4.236   9.133  0.8530  1.4926  0.4814
 1409SOL     OW15862   1.496   4.427   2.290 -0.0014  0.1193  0.1904
 1409SOL    HW115863   1.582   4.441   2.330  0.2980 -1.2243  0.0107
 1409SOL    HW215864   1.471   4.520   2.289  2.1645  0.6622 -1.9934
 1410SOL     OW15865   2.305   4.473   2.607  0.5773  0.6057 -0.5983
 1410SOL    HW115866   2.212   4.456   2.599  0.7542 -0.9947  0.7775
 1410SOL    HW215867   2.303   4.530   2.685 -0.6270 -0.0485 -0.1617
 1411SOL     OW15868   1.041   3.231   8.348  0.5690  0.4178  0.1840
 1411SOL    HW115869   1.057   3.197   8.260 -1.0686 -1.7128  0.6905
 1411SOL    HW215870   1.037   3.323   8.323  0.4203  0.2964 -0.2469
 1412SOL     OW15871   3.668   4.507   1.737 -0.1212 -0.2995 -0.1653
 1412SOL    HW115872   3.763   4.495   1.748 -0.0358  0.1730 -0.3665
 1412SOL    HW215873   3.663   4.572   1.667  1.6988  1.0807  0.9750
 1413SOL     OW15874   1.009   4.518   3.066 -1.1049  0.1428 -0.3314
 1413SOL    HW115875   1.015   4.439   3.012  0.7185 -0.7387  1.1830
 1413SOL    HW215876   1.048   4.583   3.007 -2.5584  1.0675 -0.2784
 1414SOL     OW15877   1.506   4.035   9.894 -0.1824  0.3329 -0.1304
 1414SOL    HW115878   1.514   4.124   9.859 -0.0735  0.7314  0.9320
 1414SOL    HW215879   1.461   3.993   9.820  0.6106  1.6959 -1.3881
 1415SOL     OW15880   3.913   1.930   7.047  0.0046 -0.2004 -0.4916
 1415SOL    HW115881   3.955   1.916   6.962 -1.3523  0.3546 -1.2389
 1415SOL    HW215882   3.988   1.945   7.105  0.2668  0.3012 -0.9668
 1416SOL     OW15883   3.410   3.112   3.296 -0.2527  0.0273 -0.0986
 1416SOL    HW115884   3.362   3.032   3.321 -0.1158  0.1873  0.6856
 1416SOL    HW215885   3.497   3.074   3.309 -0.4230 -0.6652 -0.9533
 1417SOL     OW15886   3.144   3.798  10.888  0.4190  0.1552  0.9015
 1417SOL    HW115887   3.059   3.757  10.869  0.8954 -1.6793  2.6897
 1417SOL    HW215888   3.170   3.778  10.978 -1.1381 -1.5474  0.9919
 1418SOL     OW15889   3.974   2.699  12.806 -0.1102  0.1586  0.5217
 1418SOL    HW115890   4.052   2.670  12.759 -0.5641 -1.2522  0.6416
 1418SOL    HW215891   3.988   2.656  12.890  2.1157  0.0797  0.0984
 1419SOL     OW15892   3.034   0.542   1.167 -0.7232 -0.2917 -0.1823
 1419SOL    HW115893   2.974   0.468   1.169 -1.0805 -0.0221 -0.8879
 1419SOL    HW215894   3.109   0.485   1.150 -0.1716  0.0383  1.1192
 1420SOL     OW15895   1.641   0.724   2.698  0.2712  0.3506 -0.4961
 1420SOL    HW115896   1.548   0.701   2.698  0.6394 -1.1744 -2.8390
 1420SOL    HW215897   1.681   0.637   2.707  1.4635  1.0102  0.5014
 1421SOL     OW15898   0.582   3.331   4.766 -0.6111 -0.1540 -0.0394
 1421SOL    HW115899   0.558   3.358   4.678 -2.0815 -0.6799  0.2051
 1421SOL    HW215900   0.569   3.404   4.827 -1.4764  0.5394 -1.0729
 1422SOL     OW15901   0.914   4.356   2.645  0.1832  0.1572  0.3379
 1422SOL    HW115902   0.869   4.409   2.711  1.6292 -0.0396  1.5134
 1422SOL    HW215903   0.954   4.424   2.591 -0.2509 -0.3960 -0.6825
 1423SOL     OW15904   1.806   3.326   8.098 -0.2142  0.0966  0.1486
 1423SOL    HW115905   1.880   3.299   8.152  1.5017 -0.3205 -2.3604
 1423SOL    HW215906   1.796   3.413   8.135 -0.9334 -0.2017  0.6452
 1424SOL     OW15907   1.830   4.067   7.718  0.1757  0.5644 -0.7956
 1424SOL    HW115908   1.885   4.007   7.768  0.7996  0.7691 -1.2430
 1424SOL    HW215909   1.885   4.143   7.734  1.8872 -0.7632 -0.2970
 1425SOL     OW15910   2.426   4.245   5.741  0.1312  0.0713 -0.1137
 1425SOL    HW115911   2.353   4.196   5.703  0.0750  0.9254 -1.1066
 1425SOL    HW215912   2.491   4.235   5.672  0.6189  0.1251  0.3313
 1426SOL     OW15913   4.195   4.592   1.103 -0.4587 -0.3834  0.3589
 1426SOL    HW115914   4.277   4.544   1.098 -0.4486 -0.3910  0.5831
 1426SOL    HW215915   4.171   4.593   1.196 -1.5378 -1.5542  0.0964
 1427SOL     OW15916   0.198   3.990   2.439 -0.0758  0.3279 -0.2458
 1427SOL    HW115917   0.198   3.915   2.380  1.2151  0.4256 -0.3564
 1427SOL    HW215918   0.110   4.024   2.423  0.1007  0.5498 -0.7368
 1428SOL     OW15919   2.836   3.849   2.096 -0.1975  0.4544 -0.2410
 1428SOL    HW115920   2.883   3.795   2.160 -0.1602 -1.1392 -1.6100
 1428SOL    HW215921   2.794   3.915   2.150 -0.6271  0.9100 -1.1461
 1429SOL     OW15922   2.855   2.061  11.194 -0.3564 -0.0939 -0.0155
 1429SOL    HW115923   2.762   2.079  11.180 -0.2661  1.1935  1.0123
 1429SOL    HW215924   2.895   2.122  11.256  0.0560  1.9950 -2.3350
 1430SOL     OW15925   3.719   2.564   7.527 -0.2622  0.0120  0.0088
 1430SOL    HW115926   3.738   2.541   7.618 -1.4269 -1.0408 -0.0172
 1430SOL    HW215927   3.764   2.648   7.520 -2.5683  1.4280  2.0294
 1431SOL     OW15928   1.277   0.862   3.375 -0.0892  0.5107  0.2048
 1431SOL    HW115929   1.287   0.770   3.351 -0.9207  0.2791  0.7480
 1431SOL    HW215930   1.357   0.905   3.345 -0.1415  0.0454 -0.6145
 1432SOL     OW15931   2.677   3.694   3.232  0.4776 -0.0351 -0.1121
 1432SOL    HW115932   2.638   3.778   3.210  2.3127  0.1271 -2.6727
 1432SOL    HW215933   2.750   3.690   3.170  0.9381 -1.0526  0.4967
 1433SOL     OW15934   0.070   4.698  17.006 -0.3895  0.2773  0.4810
 1433SOL    HW115935   0.011   4.673  16.935  1.0001 -1.8900  0.0857
 1433SOL    HW215936   0.041   0.047  17.034  1.0371  0.6926  0.6958
 1434SOL     OW15937   3.567   4.104   5.389 -1.3736 -0.1379 -0.5357
 1434SOL    HW115938   3.527   4.025   5.354  0.7220 -1.9595  1.2160
 1434SOL    HW215939   3.490   4.159   5.402 -1.1197 -0.0629  0.6487
 1435SOL     OW15940   0.832   3.816  12.864  0.0849 -0.2866  0.1041
 1435SOL    HW115941   0.831   3.825  12.959  0.1167  2.2799 -0.1370
 1435SOL    HW215942   0.913   3.769  12.841  1.1423  2.5006 -1.9153
 1436SOL     OW15943   0.394   2.907  15.268  0.5422 -0.2060  0.3266
 1436SOL    HW115944   0.443   2.901  15.186  2.2070 -0.8638  1.3824
 1436SOL    HW215945   0.457   2.942  15.331 -2.2124  2.1945  1.7771
 1437SOL     OW15946   2.764   1.223   5.812  0.1534 -0.1508 -0.3577
 1437SOL    HW115947   2.837   1.234   5.751  0.2618 -1.5537 -0.4798
 1437SOL    HW215948   2.751   1.129   5.795  0.7872 -0.4840  0.9966
 1438SOL     OW15949   3.104   0.618   3.875  0.3420  0.3536 -0.4710
 1438SOL    HW115950   3.068   0.675   3.807 -2.9980 -2.8371 -1.3832
 1438SOL    HW215951   3.195   0.608   3.848  0.0188 -0.3775 -1.3061
 1439SOL     OW15952   3.957   0.695   5.408  0.2630 -0.1271  0.0068
 1439SOL    HW115953   3.898   0.722   5.338  0.9132 -0.2707 -0.6052
 1439SOL    HW215954   3.951   0.765   5.473 -0.4175 -0.3939  0.2275
 1440SOL     OW15955   4.608   4.413   7.764 -0.3303 -0.1526 -0.0029
 1440SOL    HW115956   4.627   4.382   7.852  1.2744  2.0533  0.4210
 1440SOL    HW215957   4.540   4.348   7.745 -0.4422  0.2026 -0.8329
 1441SOL     OW15958   2.963   3.935   8.976  0.3565 -0.1883  0.6609
 1441SOL    HW115959   3.038   3.911   9.030 -0.1252 -0.0241  1.4104
 1441SOL    HW215960   2.968   3.895   8.890  4.0276  0.5251  0.5769
 1442SOL     OW15961   4.405   2.554  12.462  0.2269 -0.0405  0.3208
 1442SOL    HW115962   4.346   2.592  12.398 -1.8179 -1.3904  1.3910
 1442SOL    HW215963   4.483   2.608  12.453  0.1480  0.4973  2.8564
 1443SOL     OW15964   4.362   0.409   5.486 -0.2239 -0.0199  0.2048
 1443SOL    HW115965   4.268   0.391   5.483 -0.1646 -0.5848  1.4144
 1443SOL    HW215966   4.390   0.336   5.542 -1.3816 -0.3421  0.3789
 1444SOL     OW15967   1.193   2.768   6.897  0.0757  0.1315 -0.1096
 1444SOL    HW115968   1.242   2.843   6.930 -0.1391  0.2359 -0.0348
 1444SOL    HW215969   1.146   2.802   6.821 -1.2875 -0.6991  0.3588
 1445SOL     OW15970   1.280   4.168  11.400  0.1941  0.2744  0.0482
 1445SOL    HW115971   1.269   4.241  11.340  2.0223  1.0601  0.6514
 1445SOL    HW215972   1.227   4.104  11.353  0.3752 -0.5886  1.0150
 1446SOL     OW15973   4.199   0.654  10.191 -0.1937 -0.4382 -0.1198
 1446SOL    HW115974   4.193   0.574  10.244 -2.0207 -0.2653 -0.0512
 1446SOL    HW215975   4.220   0.614  10.107 -1.4844 -1.5961  0.0898
 1447SOL     OW15976   4.263   0.213  11.241 -0.1929  0.4831  0.1968
 1447SOL    HW115977   4.300   0.243  11.158 -2.9989 -0.0989 -1.2650
 1447SOL    HW215978   4.173   0.192  11.216 -0.1872  0.7214 -0.0222
 1448SOL     OW15979   0.633   3.592   7.209 -0.0362  0.2184 -0.3669
 1448SOL    HW115980   0.650   3.568   7.300 -0.8002  0.0766 -0.2664
 1448SOL    HW215981   0.540   3.608   7.220  0.1804 -0.3853  2.3328
 1449SOL     OW15982   2.822   0.555   8.231  0.0861  0.5847  0.1539
 1449SOL    HW115983   2.836   0.475   8.280 -0.6399 -0.3872 -1.2017
 1449SOL    HW215984   2.751   0.596   8.280 -0.5280 -1.4505  0.9687
 1450SOL     OW15985   4.004   2.676   4.647 -0.2463 -0.4140  0.2339
 1450SOL    HW115986   4.046   2.729   4.580 -1.6165  2.0260  1.3002
 1450SOL    HW215987   3.956   2.743   4.695 -0.8462  0.8320 -2.1101
 1451SOL     OW15988   0.128   3.386  13.592 -0.3908 -0.0456  0.3235
 1451SOL    HW115989   0.035   3.408  13.586 -0.0792  0.8983 -1.1044
 1451SOL    HW215990   0.118   3.291  13.589  0.8775 -0.1607 -0.1050
 1452SOL     OW15991   3.365   0.114   9.135  0.2321 -0.0786 -0.0475
 1452SOL    HW115992   3.343   0.113   9.228  0.4027 -1.9741 -0.0101
 1452SOL    HW215993   3.292   0.084   9.081  0.2919  1.2411 -0.8520
 1453SOL     OW15994   2.826   3.896   6.859  0.6529 -0.5255 -0.4608
 1453SOL    HW115995   2.850   3.809   6.826  0.7600 -0.5307 -0.3703
 1453SOL    HW215996   2.829   3.884   6.954  2.2770  0.2481 -0.4161
 1454SOL     OW15997   4.301   4.183   9.960 -0.1473 -0.2030  0.2162
 1454SOL    HW115998   4.248   4.118   9.913 -0.8348  1.2968 -1.0943
 1454SOL    HW215999   4.357   4.227   9.896  0.0728 -0.6056  0.1281
 1455SOL     OW16000   1.878   1.101   4.462 -0.5793 -0.3360  0.1882
 1455SOL    HW116001   1.937   1.027   4.476 -0.3532 -0.0819  0.5873
 1455SOL    HW216002   1.866   1.108   4.367 -0.1604  0.4812  0.1890
 1456SOL     OW16003   0.596   4.678   5.816 -0.1546 -0.0694  0.2170
 1456SOL    HW116004   0.665   4.729   5.859 -1.7845  1.8536  0.5425
 1456SOL    HW216005   0.614   4.704   5.726  1.7207  0.2187  0.6596
 1457SOL     OW16006   0.381   4.180   9.132  0.3153  0.2511 -0.1723
 1457SOL    HW116007   0.473   4.181   9.158  1.1186 -0.4813 -2.9373
 1457SOL    HW216008   0.360   4.273   9.126 -1.0074  0.0965  2.1665
 1458SOL     OW16009   3.296   0.176   9.417  0.1887  0.0384 -0.2472
 1458SOL    HW116010   3.207   0.205   9.399  0.2083  0.9398  1.1560
 1458SOL    HW216011   3.283   0.181   9.512  1.1224  0.9890 -0.1692
 1459SOL     OW16012   0.789   3.351  13.692  0.7575 -0.1094 -0.0413
 1459SOL    HW116013   0.707   3.341  13.741 -0.2678  1.2279 -1.5153
 1459SOL    HW216014   0.782   3.444  13.673 -1.2778 -0.0065  1.2034
 1460SOL     OW16015   4.170   4.387   5.502 -0.1628 -0.3785  0.4010
 1460SOL    HW116016   4.115   4.351   5.432  0.7915 -0.2051 -0.4485
 1460SOL    HW216017   4.218   4.315   5.543  1.4814  0.7373  0.4350
 1461SOL     OW16018   0.548   1.698  13.332  0.1770 -0.2628  0.0711
 1461SOL    HW116019   0.499   1.672  13.254  0.3245  0.7410 -0.3503
 1461SOL    HW216020   0.545   1.793  13.337 -1.9738 -0.4265  1.8474
 1462SOL     OW16021   0.082   1.835   7.507  0.0672  0.6890 -0.4161
 1462SOL    HW116022   0.033   1.854   7.587 -0.2829  0.0248 -0.4781
 1462SOL    HW216023   0.009   1.827   7.446  0.2849  2.5256 -0.9291
 1463SOL     OW16024   4.071   3.444  17.047 -0.2036  0.5890  0.0821
 1463SOL    HW116025   4.155   3.465  17.006 -0.2782  1.0743  0.1766
 1463SOL    HW216026   4.098   3.366  17.097 -1.2424  0.9006  1.1400
 1464SOL     OW16027   1.772   3.541   6.047  0.4776  0.0117 -0.3900
 1464SOL    HW116028   1.774   3.633   6.075  0.2065 -0.4828  1.2543
 1464SOL    HW216029   1.739   3.495   6.124 -1.2887 -0.8541 -1.6767
 1465SOL     OW16030   0.662   1.674  17.057 -0.1703  0.3918 -0.2775
 1465SOL    HW116031   0.720   1.601  17.078 -0.9784  0.0180  0.6599
 1465SOL    HW216032   0.709   1.743  17.102  0.2261 -0.9655  1.3641
 1466SOL     OW16033   4.515   4.355   7.374  0.2119  0.7627  0.7174
 1466SOL    HW116034   4.474   4.434   7.339  0.2944  1.1608  1.5211
 1466SOL    HW216035   4.608   4.352   7.354  0.1247 -1.2066  0.5603
 1467SOL     OW16036   4.216   1.313   9.572 -0.4144 -0.0315 -0.1365
 1467SOL    HW116037   4.277   1.387   9.575 -0.3506 -0.0833 -0.1452
 1467SOL    HW216038   4.265   1.232   9.589  1.1203  0.6626 -1.2021
 1468SOL     OW16039   2.212   4.290  10.493  0.1356  0.5481 -0.0668
 1468SOL    HW116040   2.275   4.362  10.496  0.5904  0.2151 -1.4674
 1468SOL    HW216041   2.127   4.333  10.485 -0.1257 -0.0108 -0.3629
 1469SOL     OW16042   1.807   1.171   2.693 -0.2175  0.0800  0.2624
 1469SOL    HW116043   1.790   1.236   2.761 -1.2580 -1.5970  1.6142
 1469SOL    HW216044   1.729   1.179   2.639 -1.3974 -0.9741  1.7855
 1470SOL     OW16045   0.481   0.168   0.369 -0.0380 -0.0222  0.3420
 1470SOL    HW116046   0.445   0.157   0.457 -0.5651 -2.8273 -0.2418
 1470SOL    HW216047   0.406   0.156   0.312 -1.4580  0.3797  2.1290
 1471SOL     OW16048   4.161   1.927   7.539 -0.5410 -0.0285  0.9583
 1471SOL    HW116049   4.139   2.020   7.543  0.1863  0.3045 -2.6748
 1471SOL    HW216050   4.076   1.900   7.573  0.1184 -1.3469  1.6150
 1472SOL     OW16051   2.787   1.000  17.543  0.3455  0.0947 -0.6684
 1472SOL    HW116052   2.792   1.076  17.601 -0.7055  0.2860 -0.8277
 1472SOL    HW216053   2.823   0.930  17.596  0.5942  0.9800  0.3306
 1473SOL     OW16054   3.897   0.367   8.239  0.0467 -0.9295  0.1157
 1473SOL    HW116055   3.945   0.443   8.207 -3.4954  0.5794 -1.5780
 1473SOL    HW216056   3.818   0.410   8.272  0.4476  0.1240 -0.2990
 1474SOL     OW16057   1.805   1.882   5.085 -0.7199 -0.5175 -0.0118
 1474SOL    HW116058   1.750   1.835   5.022 -1.3922 -0.1403  0.2956
 1474SOL    HW216059   1.744   1.930   5.141  0.6277  0.8903  0.2583
 1475SOL     OW16060   3.317   1.550  16.951 -0.3079  0.4445  0.0993
 1475SOL    HW116061   3.287   1.552  17.042  0.0560  1.4506  0.1957
 1475SOL    HW216062   3.291   1.638  16.924  0.4263  0.9384  1.0234
 1476SOL     OW16063   0.112   0.055   3.772  0.2815 -0.2305  0.1371
 1476SOL    HW116064   0.051   0.044   3.846 -0.0109 -2.6821 -0.4666
 1476SOL    HW216065   0.048   0.035   3.704 -1.0291  1.4629  0.8556
 1477SOL     OW16066   0.170   3.260   3.643  0.0856  0.0410 -0.2723
 1477SOL    HW116067   0.115   3.279   3.567 -3.6685 -0.7371  2.2487
 1477SOL    HW216068   0.243   3.321   3.634 -1.1575  1.1435 -2.9258
 1478SOL     OW16069   2.247   1.869   6.309 -0.3522 -0.5032  0.1729
 1478SOL    HW116070   2.279   1.872   6.399 -1.4171  2.9256  0.4539
 1478SOL    HW216071   2.154   1.860   6.328 -0.7973  0.3752 -1.5495
 1479SOL     OW16072   1.709   4.116   9.539  0.6285 -0.0246 -0.1709
 1479SOL    HW116073   1.790   4.165   9.529  1.0133 -0.3119  1.5218
 1479SOL    HW216074   1.730   4.032   9.497 -1.6350 -0.8628  0.3569
 1480SOL     OW16075   1.312   0.884   8.884  0.5030 -0.0058  0.9711
 1480SOL    HW116076   1.313   0.977   8.909 -2.3060  0.2052  0.3485
 1480SOL    HW216077   1.402   0.862   8.863  0.1497 -1.1065  0.6031
 1481SOL     OW16078   2.801   4.497   0.847 -0.7605  0.1166 -0.3830
 1481SOL    HW116079   2.853   4.427   0.807  0.4298  0.4893  0.5004
 1481SOL    HW216080   2.832   4.576   0.803  1.2357 -1.4409 -1.7950
 1482SOL     OW16081   3.440   3.027  17.099  0.7489 -0.2842  0.0518
 1482SOL    HW116082   3.501   3.053  17.168 -2.1970  1.2970  2.0715
 1482SOL    HW216083   3.484   3.058  17.020  2.4486  2.3122  1.9993
 1483SOL     OW16084   3.031   1.394  16.873 -0.3287 -0.0274  0.2943
 1483SOL    HW116085   3.107   1.425  16.825 -0.1997  0.9102  1.0862
 1483SOL    HW216086   3.051   1.305  16.903 -0.7621 -0.3783 -0.4576
 1484SOL     OW16087   3.306   4.283  10.359 -0.2975 -0.4189 -0.3440
 1484SOL    HW116088   3.272   4.365  10.394  0.9078 -0.6418  1.3698
 1484SOL    HW216089   3.338   4.235  10.435  0.6443  0.0558 -0.4506
 1485SOL     OW16090   1.696   0.613   9.623  0.6573 -0.3903 -0.0616
 1485SOL    HW116091   1.612   0.659   9.620  0.1089 -1.4043 -0.1738
 1485SOL    HW216092   1.753   0.688   9.639  2.0015 -0.8540 -2.5672
 1486SOL     OW16093   2.860   3.129   6.953 -0.0808  0.0419 -0.3640
 1486SOL    HW116094   2.834   3.040   6.930 -0.8841  0.0357  0.5738
 1486SOL    HW216095   2.884   3.118   7.045 -1.0363 -3.7711 -0.5568
 1487SOL     OW16096   0.004   0.660  17.443  0.5675 -0.0026  0.1868
 1487SOL    HW116097   4.675   0.721  17.411  0.0886  1.3748  3.7566
 1487SOL    HW216098   0.081   0.714  17.424  0.2884  0.2305 -0.2753
 1488SOL     OW16099   2.993   0.250   4.250 -0.5936 -0.1729  0.2392
 1488SOL    HW116100   2.933   0.248   4.175  2.3110  1.3830 -2.1088
 1488SOL    HW216101   2.950   0.199   4.319  2.4505 -2.8787  0.1341
 1489SOL     OW16102   1.035   1.291   8.410  0.1225  0.0855 -0.0019
 1489SOL    HW116103   1.019   1.221   8.347 -1.4287 -1.2570  1.8806
 1489SOL    HW216104   0.981   1.255   8.481 -1.2234  0.2060 -0.9644
 1490SOL     OW16105   2.906   0.426   3.892 -0.1508  0.2071 -0.4615
 1490SOL    HW116106   2.963   0.503   3.901  0.3746 -0.0655 -1.5425
 1490SOL    HW216107   2.896   0.407   3.799 -1.5988  1.9729 -0.6774
 1491SOL     OW16108   2.361   4.026   8.452  0.5053 -0.1702  0.3400
 1491SOL    HW116109   2.440   4.039   8.505  0.5963  1.0647 -0.0866
 1491SOL    HW216110   2.373   4.094   8.385 -0.4172 -3.0374 -2.7230
 1492SOL     OW16111   3.008   1.234   7.497  0.2745  0.2443 -0.0730
 1492SOL    HW116112   2.970   1.152   7.466 -1.4457  1.1498 -0.3992
 1492SOL    HW216113   2.996   1.221   7.591 -0.3497  0.6494 -0.0929
 1493SOL     OW16114   2.347   1.643  12.666 -0.0439 -0.0320  0.4327
 1493SOL    HW116115   2.372   1.632  12.757 -2.1747 -2.8789  0.6775
 1493SOL    HW216116   2.282   1.572  12.663 -0.8578  0.6925  1.1375
 1494SOL     OW16117   4.590   3.789  11.288 -0.3767 -0.1182  0.3158
 1494SOL    HW116118   4.576   3.751  11.201 -0.7368  0.7727 -0.0184
 1494SOL    HW216119   4.595   3.882  11.266 -1.5095 -0.4206 -1.2285
 1495SOL     OW16120   3.612   0.139   9.427  0.0424 -0.3519  0.4071
 1495SOL    HW116121   3.588   0.178   9.511  1.7954  2.1422 -0.2388
 1495SOL    HW216122   3.542   0.152   9.363  0.9401  2.7005  0.0374
 1496SOL     OW16123   1.124   2.604   9.080 -0.4362  0.1851 -0.1862
 1496SOL    HW116124   1.122   2.691   9.120 -0.4685  1.2906 -2.5569
 1496SOL    HW216125   1.219   2.600   9.066 -0.8615  3.0901 -3.9634
 1497SOL     OW16126   1.405   2.835   4.846 -0.2022  0.1963 -0.3175
 1497SOL    HW116127   1.418   2.848   4.752  0.3349  0.9095 -0.1444
 1497SOL    HW216128   1.406   2.742   4.867 -1.1876  0.8021  2.4585
 1498SOL     OW16129   3.358   2.476   7.824 -0.0357  0.0413  0.6509
 1498SOL    HW116130   3.387   2.395   7.782 -0.5762 -0.1619  0.6696
 1498SOL    HW216131   3.264   2.459   7.833  0.3908 -2.1008  1.0569
 1499SOL     OW16132   1.471   3.156  16.059  0.1060  0.4145  0.0078
 1499SOL    HW116133   1.526   3.121  15.989 -0.9184  1.7605 -1.4736
 1499SOL    HW216134   1.444   3.241  16.023 -2.2372 -0.7271 -0.9744
 1500SOL     OW16135   1.752   3.068  13.584  0.1105  0.1750 -0.3604
 1500SOL    HW116136   1.718   3.120  13.658 -0.3137 -0.7956  0.1297
 1500SOL    HW216137   1.732   3.121  13.507  2.0650 -1.1038 -1.7383
 1501SOL     OW16138   1.290   1.643   8.929  0.5206 -0.9046  0.4676
 1501SOL    HW116139   1.225   1.641   8.999  0.6011  3.1210  0.6322
 1501SOL    HW216140   1.282   1.553   8.898  0.2706 -1.6449  2.7081
 1502SOL     OW16141   0.687   1.582  17.381  0.1756  0.9887  0.0277
 1502SOL    HW116142   0.696   1.601  17.288 -0.5819 -0.5360 -0.3618
 1502SOL    HW216143   0.692   1.486  17.382  0.1802  0.9869 -0.1246
 1503SOL     OW16144   3.035   0.190  13.994 -0.0093  0.1238 -0.2369
 1503SOL    HW116145   2.988   0.264  13.957  0.6591  0.3786 -0.5630
 1503SOL    HW216146   2.995   0.116  13.948 -0.0840  0.7895 -1.2417
 1504SOL     OW16147   1.774   1.593   7.067  0.0793 -0.2767  0.0288
 1504SOL    HW116148   1.737   1.570   7.152  1.5788 -0.0430  0.7419
 1504SOL    HW216149   1.711   1.549   7.010 -2.0880  0.2772  1.9698
 1505SOL     OW16150   2.087   0.441   6.852  0.2173  0.1694 -0.3341
 1505SOL    HW116151   2.033   0.519   6.839  0.3349 -0.0426 -2.1375
 1505SOL    HW216152   2.158   0.455   6.789 -0.5650  0.8871 -1.0672
 1506SOL     OW16153   1.551   4.137   4.607 -0.3768 -0.6576  0.4909
 1506SOL    HW116154   1.566   4.226   4.576 -0.4832 -1.2796 -1.3450
 1506SOL    HW216155   1.523   4.091   4.527 -0.9108 -0.2281  0.4309
 1507SOL     OW16156   3.203   2.724   1.732 -0.2363  0.0932 -0.0926
 1507SOL    HW116157   3.252   2.806   1.734  1.1528 -0.8180  3.6325
 1507SOL    HW216158   3.174   2.717   1.641 -1.6149  2.0715  0.1784
 1508SOL     OW16159   1.411   2.662  15.781  0.9031  0.1447 -0.8025
 1508SOL    HW116160   1.376   2.678  15.693 -1.4112  0.9975  0.2924
 1508SOL    HW216161   1.466   2.586  15.759  2.6698  1.2746 -0.2508
 1509SOL     OW16162   3.647   1.222   2.948 -0.6010  0.1632 -0.0521
 1509SOL    HW116163   3.565   1.267   2.970 -0.0543  1.4631 -0.6576
 1509SOL    HW216164   3.632   1.208   2.855 -0.4202 -0.0972 -0.0422
 1510SOL     OW16165   0.699   3.563   9.090 -0.4238 -0.0677  0.2230
 1510SOL    HW116166   0.610   3.535   9.112 -0.1425 -1.3188 -0.1839
 1510SOL    HW216167   0.691   3.650   9.129  2.3368 -1.1864  3.3010
 1511SOL     OW16168   1.578   3.496   3.862 -0.2121  0.0225  0.7101
 1511SOL    HW116169   1.528   3.548   3.925 -2.6239 -0.3898 -0.8878
 1511SOL    HW216170   1.666   3.529   3.881 -0.4948  1.3729 -0.2988
 1512SOL     OW16171   3.149   1.261   6.971  0.3384 -0.3190 -0.4583
 1512SOL    HW116172   3.193   1.226   7.048  1.5769 -2.4839 -2.1532
 1512SOL    HW216173   3.094   1.325   7.016 -1.6558 -1.4888 -1.2045
 1513SOL     OW16174   0.378   3.447  16.736 -0.2287  0.3962  0.2540
 1513SOL    HW116175   0.335   3.526  16.702  1.0148  1.3717  0.9619
 1513SOL    HW216176   0.408   3.410  16.653  0.7872  0.6757  0.4953
 1514SOL     OW16177   1.753   0.789  15.510 -0.1939  0.0844  0.0180
 1514SOL    HW116178   1.788   0.865  15.464  0.9262  0.1153  0.9245
 1514SOL    HW216179   1.661   0.808  15.490  0.4875  0.0370 -3.1092
 1515SOL     OW16180   1.164   0.954   0.729  0.5155 -0.1404  0.1736
 1515SOL    HW116181   1.132   1.025   0.785  1.6530  0.7368 -0.2735
 1515SOL    HW216182   1.181   1.001   0.647  1.9352  2.5616  2.0037
 1516SOL     OW16183   0.192   0.498  14.748  0.1534  0.1932  0.2636
 1516SOL    HW116184   0.198   0.411  14.708  0.0778  0.7821 -1.0223
 1516SOL    HW216185   0.268   0.542  14.712  1.0586 -2.1804 -0.7351
 1517SOL     OW16186   1.731   0.064   2.887 -0.1417 -0.0714 -0.1201
 1517SOL    HW116187   1.733   4.707   2.902 -2.8167  0.2304  2.2695
 1517SOL    HW216188   1.825   0.067   2.870 -0.4187 -1.9027 -1.9131
 1518SOL     OW16189   3.179   0.946   0.224  0.2237 -0.3955  0.0948
 1518SOL    HW116190   3.255   0.988   0.263  1.5554 -1.4283 -1.3871
 1518SOL    HW216191   3.147   0.886   0.292 -2.3266  0.6100 -0.2238
 1519SOL     OW16192   1.266   4.562  16.342  0.5059  0.6920 -0.1645
 1519SOL    HW116193   1.251   4.521  16.257  0.2316  1.0559 -0.2912
 1519SOL    HW216194   1.179   4.602  16.351  1.1096  1.7365  0.9646
 1520SOL     OW16195   3.554   1.910   2.456  0.0499  0.3384 -0.5928
 1520SOL    HW116196   3.495   1.864   2.515 -2.5347  2.8581 -1.2199
 1520SOL    HW216197   3.624   1.848   2.475  1.4858  1.5085 -2.0593
 1521SOL     OW16198   2.214   2.738   2.515  0.0067  0.1157  0.1636
 1521SOL    HW116199   2.302   2.701   2.513  0.3438  1.0289 -2.2310
 1521SOL    HW216200   2.218   2.761   2.422  0.8894  3.5530  1.0519
 1522SOL     OW16201   0.105   3.465   4.320 -0.4980  0.1712 -0.0752
 1522SOL    HW116202   0.172   3.498   4.260  2.1193 -0.5856  2.3694
 1522SOL    HW216203   0.034   3.522   4.292  0.7201  0.0860 -3.3012
 1523SOL     OW16204   2.682   1.115   5.148  0.1617  0.7905  0.1052
 1523SOL    HW116205   2.688   1.194   5.202  0.9670  0.6678  0.1957
 1523SOL    HW216206   2.590   1.091   5.136 -0.0509  1.6792 -0.0243
 1524SOL     OW16207   3.700   4.001   2.111 -0.0850  0.3576 -0.0119
 1524SOL    HW116208   3.707   4.087   2.154  0.7628 -1.8009  4.1377
 1524SOL    HW216209   3.665   4.024   2.024 -0.4974 -0.8792 -0.1645
 1525SOL     OW16210   0.691   1.450   0.464 -0.0905 -0.3534 -0.0042
 1525SOL    HW116211   0.617   1.400   0.499  0.5926 -1.3682  0.0026
 1525SOL    HW216212   0.752   1.376   0.452 -0.1504 -0.2622 -0.9174
 1526SOL     OW16213   2.965   3.504   4.624  0.4386 -0.0422 -0.4409
 1526SOL    HW116214   3.026   3.540   4.559  2.3416  2.2152  2.6346
 1526SOL    HW216215   2.893   3.493   4.561  1.1091  1.0222 -1.3935
 1527SOL     OW16216   0.040   4.509   8.429  0.0608  0.2904  0.5267
 1527SOL    HW116217   0.115   4.567   8.433 -1.0452  1.6446  1.7117
 1527SOL    HW216218   0.079   4.446   8.368  0.6427  0.1540  1.0453
 1528SOL     OW16219   1.163   0.912   4.531 -0.1309 -0.2998  0.5525
 1528SOL    HW116220   1.085   0.878   4.488 -1.2513  0.5440  1.9493
 1528SOL    HW216221   1.116   0.981   4.577 -0.5342 -1.4113  1.7909
 1529SOL     OW16222   4.705   2.289  12.094 -0.2868  0.5114  0.3907
 1529SOL    HW116223   0.039   2.351  12.080 -0.2796  0.9050  2.1832
 1529SOL    HW216224   0.008   2.204  12.078  1.7782  1.3410  1.2662
 1530SOL     OW16225   0.116   1.166   1.334  0.0524 -0.2608  0.4354
 1530SOL    HW116226   0.161   1.203   1.410 -3.7218  1.3953  1.8542
 1530SOL    HW216227   0.110   1.244   1.280  0.2601 -0.8596 -0.4583
 1531SOL     OW16228   4.495   2.520   8.218 -0.0149  0.2700 -0.5286
 1531SOL    HW116229   4.476   2.465   8.142  1.6530  1.1430 -1.5926
 1531SOL    HW216230   4.551   2.590   8.184  0.0313  0.3990 -0.1934
 1532SOL     OW16231   3.854   2.458   7.087  0.8725  0.3408 -0.0749
 1532SOL    HW116232   3.927   2.403   7.057  0.1801 -1.8711  2.2985
 1532SOL    HW216233   3.786   2.427   7.027 -0.1950  2.2872  0.1454
 1533SOL     OW16234   2.894   2.505   2.544 -0.5427 -0.4382 -0.2435
 1533SOL    HW116235   2.850   2.524   2.462 -2.2985  0.5969  0.9398
 1533SOL    HW216236   2.975   2.551   2.523 -1.0040  0.1884 -0.6153
 1534SOL     OW16237   3.780   2.318   8.174 -0.1947 -0.2756  0.1936
 1534SOL    HW116238   3.833   2.317   8.254  2.6162 -0.6706 -1.6844
 1534SOL    HW216239   3.697   2.351   8.208 -1.0349 -0.5685 -1.5664
 1535SOL     OW16240   1.994   1.394   9.428 -0.1941 -0.3420  0.1386
 1535SOL    HW116241   2.035   1.478   9.407 -0.3408 -0.1347  0.6829
 1535SOL    HW216242   1.916   1.396   9.373 -0.2283  1.1290  0.2425
 1536SOL     OW16243   2.328   4.074   7.387 -0.9543  0.3889  0.5043
 1536SOL    HW116244   2.400   4.011   7.386 -1.0667  0.2327  1.5966
 1536SOL    HW216245   2.314   4.080   7.482  0.5198 -1.3864  0.8484
 1537SOL     OW16246   3.069   1.207   4.578  0.4232  0.1962  0.0982
 1537SOL    HW116247   3.038   1.141   4.640  0.9602  1.2613  1.5154
 1537SOL    HW216248   3.052   1.289   4.625 -2.1546 -0.2979  0.0291
 1538SOL     OW16249   4.346   0.526   0.853  0.6985 -0.0736  0.4504
 1538SOL    HW116250   4.422   0.575   0.822  1.7200 -1.4117  0.8363
 1538SOL    HW216251   4.273   0.574   0.813  0.5861  0.1106  0.8756
 1539SOL     OW16252   0.694   2.183  12.487  0.8079 -0.5808 -0.6232
 1539SOL    HW116253   0.750   2.115  12.525  1.3604  0.4866  0.4548
 1539SOL    HW216254   0.729   2.178  12.398  0.2953  1.9233 -0.9684
 1540SOL     OW16255   3.325   4.132   1.953 -0.3110 -0.3010 -0.2802
 1540SOL    HW116256   3.259   4.178   2.004 -0.8450 -0.3530 -0.9300
 1540SOL    HW216257   3.304   4.038   1.953 -1.1921 -0.1055 -1.2424
 1541SOL     OW16258   3.079   3.807   9.584 -0.1049  0.1818 -0.0620
 1541SOL    HW116259   3.099   3.743   9.516 -0.8348  1.9321 -1.9213
 1541SOL    HW216260   3.019   3.770   9.650  0.0215 -1.5252 -0.9053
 1542SOL     OW16261   0.277   1.458   0.195  0.4519 -0.2826 -0.1396
 1542SOL    HW116262   0.348   1.436   0.134  1.2828 -0.9301  1.0449
 1542SOL    HW216263   0.234   1.373   0.196  1.4584 -0.8513 -3.2994
 1543SOL     OW16264   3.720   4.186   2.621 -0.1718  0.3362  0.0823
 1543SOL    HW116265   3.694   4.199   2.713 -0.7093  2.1231 -0.3340
 1543SOL    HW216266   3.814   4.170   2.631 -0.2406 -0.9753 -1.4535
 1544SOL     OW16267   3.083   0.422   2.887 -0.3579  0.7147  0.1647
 1544SOL    HW116268   3.112   0.425   2.978  0.4602 -0.8384 -0.0391
 1544SOL    HW216269   3.112   0.336   2.856 -0.3159  0.2348  1.5587
 1545SOL     OW16270   1.295   2.018   6.936  0.2940  0.1833 -0.3177
 1545SOL    HW116271   1.304   1.971   7.019  0.0854 -0.3201 -0.5784
 1545SOL    HW216272   1.205   1.991   6.918 -0.3432  1.8805  0.3223
 1546SOL     OW16273   3.424   3.302  12.575  0.1173 -0.3418  0.6969
 1546SOL    HW116274   3.413   3.397  12.569  0.6330 -0.3893 -1.1487
 1546SOL    HW216275   3.402   3.285  12.483  0.6793 -1.7330  0.8259
 1547SOL     OW16276   4.461   4.504   9.653 -0.3065 -0.7227  0.1373
 1547SOL    HW116277   4.477   4.566   9.724 -0.5397 -2.5494  1.7611
 1547SOL    HW216278   4.499   4.433   9.703 -0.9187 -0.3080  1.1872
 1548SOL     OW16279   2.094   1.101   7.833  0.0260  0.1823 -0.3571
 1548SOL    HW116280   2.025   1.053   7.878  0.2028  1.3877  1.2186
 1548SOL    HW216281   2.170   1.078   7.887 -0.1976 -1.7378 -0.8756
 1549SOL     OW16282   2.622   1.589   3.568  0.1676 -0.2558  0.6298
 1549SOL    HW116283   2.578   1.556   3.647 -1.1133  1.2554  0.5452
 1549SOL    HW216284   2.556   1.595   3.499  2.1245 -0.8984 -1.2815
 1550SOL     OW16285   3.942   0.914  12.884 -0.2024 -0.1840  0.1206
 1550SOL    HW116286   3.972   0.856  12.814  2.1494  0.6040  0.4748
 1550SOL    HW216287   3.881   0.861  12.936 -1.0559  0.7524  0.0731
 1551SOL     OW16288   4.581   4.174   6.427  0.2177 -0.0883 -0.0045
 1551SOL    HW116289   4.551   4.114   6.359  1.2163  1.1292 -1.5311
 1551SOL    HW216290   4.497   4.198   6.467  1.5248  1.6420  1.6817
 1552SOL     OW16291   2.001   2.201  12.675  0.3897 -0.2563  0.2024
 1552SOL    HW116292   1.947   2.253  12.734 -2.3139 -2.4017 -0.4253
 1552SOL    HW216293   2.086   2.191  12.719 -0.7023 -1.4600  2.0059
 1553SOL     OW16294   0.694   3.585  14.580 -0.2422  0.0924 -0.2046
 1553SOL    HW116295   0.689   3.670  14.536  2.7426  0.3337 -0.0334
 1553SOL    HW216296   0.771   3.546  14.540 -0.1274  1.7035 -1.5398
 1554SOL     OW16297   0.887   3.211   6.191  0.0428  0.0984 -0.2506
 1554SOL    HW116298   0.806   3.224   6.239 -0.1498 -1.4372 -0.1648
 1554SOL    HW216299   0.894   3.116   6.178  0.1516  0.2983 -1.6860
 1555SOL     OW16300   2.061   2.029   8.417 -0.3008  0.2614  0.2479
 1555SOL    HW116301   2.123   2.082   8.468  3.6165 -3.4948 -0.6427
 1555SOL    HW216302   2.009   2.097   8.374  1.1807  0.2078 -1.6075
 1556SOL     OW16303   4.221   2.718  15.165  0.2883 -0.7020  0.4318
 1556SOL    HW116304   4.151   2.690  15.107  1.3872 -1.2455 -0.6430
 1556SOL    HW216305   4.283   2.647  15.148  1.5822  0.3094  0.9213
 1557SOL     OW16306   0.383   3.915  13.621  0.1174  0.0233 -0.6658
 1557SOL    HW116307   0.331   3.995  13.628  1.1385  0.6733 -0.3910
 1557SOL    HW216308   0.450   3.934  13.686  0.8543  0.6096 -1.5842
 1558SOL     OW16309   1.892   2.207   8.302  0.2126  0.3212  0.3933
 1558SOL    HW116310   1.825   2.244   8.360  1.0255 -1.0606  2.2001
 1558SOL    HW216311   1.844   2.151   8.240  0.0052  1.3676 -0.4110
 1559SOL     OW16312   4.277   3.885   8.028 -1.1968 -0.0995 -0.1049
 1559SOL    HW116313   4.194   3.844   8.053 -0.7205  0.0576  1.7594
 1559SOL    HW216314   4.248   3.976   8.023  1.2022  0.5749 -1.7736
 1560SOL     OW16315   4.060   4.358  10.604 -0.6869 -0.5214  0.0663
 1560SOL    HW116316   4.110   4.295  10.552  0.9876  1.4742 -0.7679
 1560SOL    HW216317   4.125   4.414  10.648 -0.7628 -0.6223  0.3039
 1561SOL     OW16318   2.612   1.210   8.021 -0.0674 -0.1693  0.0280
 1561SOL    HW116319   2.544   1.152   8.054 -1.7939  1.5285 -0.5447
 1561SOL    HW216320   2.592   1.218   7.927 -1.2792  2.2613  0.4996
 1562SOL     OW16321   0.599   2.820  14.383  0.5544 -0.6868  0.2098
 1562SOL    HW116322   0.691   2.808  14.361  0.5120 -1.2403  0.3395
 1562SOL    HW216323   0.582   2.915  14.388 -0.8138 -0.7736 -3.1327
 1563SOL     OW16324   0.647   3.974   7.201  0.3240 -0.9405 -0.4068
 1563SOL    HW116325   0.639   4.069   7.205 -2.0020 -1.2447  2.7406
 1563SOL    HW216326   0.598   3.962   7.120 -1.5574 -0.5071  0.6612
 1564SOL     OW16327   2.002   2.853   3.319  0.5806 -0.0658  0.5749
 1564SOL    HW116328   1.960   2.928   3.275  0.5732 -0.4801 -0.1274
 1564SOL    HW216329   1.963   2.853   3.406  0.2578  4.6260  0.4375
 1565SOL     OW16330   3.905   2.509   5.319  0.3871 -0.4513 -0.4004
 1565SOL    HW116331   3.898   2.570   5.245 -0.4899  1.8322  1.5730
 1565SOL    HW216332   3.990   2.537   5.354 -0.2967  1.4661 -0.2531
 1566SOL     OW16333   1.684   0.804   9.919  0.2211  0.5731  0.7380
 1566SOL    HW116334   1.626   0.871   9.882  0.3041 -1.0217 -2.3158
 1566SOL    HW216335   1.647   0.794  10.006  0.4116  1.4105  0.9085
 1567SOL     OW16336   2.987   2.626  12.642  0.3630  0.1831 -0.1584
 1567SOL    HW116337   3.056   2.656  12.702 -1.3021  0.4361  1.6214
 1567SOL    HW216338   3.036   2.564  12.589 -0.7161 -0.7508 -0.0517
 1568SOL     OW16339   3.432   3.040   1.988 -0.0528 -0.7638  0.4294
 1568SOL    HW116340   3.381   3.005   2.061  0.9045  1.2085  2.0428
 1568SOL    HW216341   3.370   3.081   1.928 -1.0540 -1.0645  1.2780
 1569SOL     OW16342   2.765   2.086  12.373 -0.5255 -0.6156  0.2029
 1569SOL    HW116343   2.820   2.040  12.437  0.7334 -1.6512 -1.5957
 1569SOL    HW216344   2.774   2.176  12.403 -0.3597 -0.5737  0.0292
 1570SOL     OW16345   0.415   2.389   6.207  0.4476  0.3323 -0.4007
 1570SOL    HW116346   0.476   2.427   6.270 -1.3118 -0.5564  1.8177
 1570SOL    HW216347   0.476   2.340   6.151  0.4753 -1.5642  1.2828
 1571SOL     OW16348   4.451   0.336   3.187 -0.5219 -0.9659  0.0404
 1571SOL    HW116349   4.418   0.248   3.205  0.7959 -1.4160  0.2388
 1571SOL    HW216350   4.399   0.388   3.248 -0.2316  0.7116 -1.1152
 1572SOL     OW16351   0.963   2.511   6.415  0.4570 -0.4205  0.2268
 1572SOL    HW116352   0.935   2.491   6.326  1.0030  0.7198 -0.2077
 1572SOL    HW216353   0.947   2.427   6.458 -1.1320 -1.7299 -2.9627
 1573SOL     OW16354   4.668   4.698   7.400  0.0132  0.5043 -0.6778
 1573SOL    HW116355   4.665   4.702   7.496  0.2330 -1.2895 -0.6018
 1573SOL    HW216356   4.706   4.611   7.394 -0.3076  0.4024 -1.3003
 1574SOL     OW16357   3.020   3.247   4.729 -0.2972 -0.1664  0.1447
 1574SOL    HW116358   2.968   3.324   4.707 -0.5610 -0.3243  0.2163
 1574SOL    HW216359   3.096   3.288   4.770  0.5695 -0.6735 -0.9418
 1575SOL     OW16360   0.566   1.090   9.721 -0.1906  0.1867  0.1276
 1575SOL    HW116361   0.565   1.045   9.637 -0.9762  0.1748  0.1434
 1575SOL    HW216362   0.592   1.020   9.781 -1.7734 -1.4298 -1.0616
 1576SOL     OW16363   3.906   1.506   2.691  0.2922 -0.8438  0.0992
 1576SOL    HW116364   3.914   1.601   2.702  0.2295 -0.9378  0.9841
 1576SOL    HW216365   3.999   1.483   2.700  0.3139 -0.1699  1.6598
 1577SOL     OW16366   0.490   0.283   5.690  0.0948 -0.2791 -0.2400
 1577SOL    HW116367   0.533   0.355   5.644  2.1757 -2.2550 -1.4112
 1577SOL    HW216368   0.398   0.292   5.664  0.1475  0.7419 -0.0732
 1578SOL     OW16369   0.944   2.157   0.002  0.6553 -0.6745  0.0268
 1578SOL    HW116370   1.001   2.228   0.032  0.0834 -0.6555  1.0760
 1578SOL    HW216371   0.901   2.135   0.085  1.7641 -2.7655  0.0535
 1579SOL     OW16372   4.095   3.143  16.030 -0.2263 -0.1146 -0.1615
 1579SOL    HW116373   4.148   3.199  16.087 -1.7946 -1.1897  2.3858
 1579SOL    HW216374   4.013   3.133  16.078  0.7805 -1.6007  1.2765
 1580SOL     OW16375   2.380   2.697   3.532  0.8019  0.5142  0.0444
 1580SOL    HW116376   2.439   2.666   3.463 -0.6266  0.1439 -1.0121
 1580SOL    HW216377   2.412   2.649   3.609  0.1846  1.3963  0.8486
 1581SOL     OW16378   3.599   3.441   5.640  0.0866 -0.0274 -0.1649
 1581SOL    HW116379   3.517   3.429   5.592 -0.0880 -0.7543  0.3248
 1581SOL    HW216380   3.648   3.362   5.617 -0.8002 -1.4661  2.9080
 1582SOL     OW16381   3.881   1.578   8.149 -0.2118 -0.7680  0.1248
 1582SOL    HW116382   3.907   1.551   8.237  0.1167 -2.3083 -0.4539
 1582SOL    HW216383   3.787   1.560   8.152 -0.6184  1.2928  0.1233
 1583SOL     OW16384   4.049   3.846   0.587 -0.0830 -0.2038  0.4457
 1583SOL    HW116385   4.112   3.855   0.516 -0.9128 -1.1727 -0.4249
 1583SOL    HW216386   3.994   3.777   0.548  0.3353  0.5520 -1.4881
 1584SOL     OW16387   1.473   4.673  16.105 -0.0860 -0.0334 -0.1688
 1584SOL    HW116388   1.487   0.019  16.150 -0.2357  0.7773 -1.6260
 1584SOL    HW216389   1.551   4.670  16.050  0.3694 -0.9949  0.5315
 1585SOL     OW16390   2.887   2.994  10.094 -0.4052  0.5933  0.3760
 1585SOL    HW116391   2.854   3.063  10.036  0.1046  0.9281  0.4944
 1585SOL    HW216392   2.868   2.921  10.035 -2.7056  0.9788  0.6113
 1586SOL     OW16393   4.132   2.654   6.904  0.3681  0.0164 -0.6788
 1586SOL    HW116394   4.057   2.713   6.906  0.7134  0.4151  0.4318
 1586SOL    HW216395   4.146   2.664   6.998 -0.9159  1.2851 -0.6289
 1587SOL     OW16396   4.219   4.505   4.659  0.3211  0.3107 -0.4912
 1587SOL    HW116397   4.311   4.527   4.641  0.5237  0.2719  0.5089
 1587SOL    HW216398   4.220   4.410   4.643 -0.8752  0.8060 -3.4550
 1588SOL     OW16399   3.441   3.458  17.407  0.1569 -0.1598 -0.0443
 1588SOL    HW116400   3.398   3.377  17.379  1.2380 -0.9251  0.4526
 1588SOL    HW216401   3.419   3.512  17.332  0.1219  0.9979  0.8028
 1589SOL     OW16402   2.345   2.425  11.166 -0.3383 -0.4737  0.5595
 1589SOL    HW116403   2.357   2.498  11.106 -0.8564  0.6026  1.7729
 1589SOL    HW216404   2.317   2.471  11.245  3.3460  1.1241  0.9575
 1590SOL     OW16405   0.752   3.860   5.416 -0.3855  0.2416  0.3682
 1590SOL    HW116406   0.798   3.793   5.365  1.2768  1.8568 -0.3000
 1590SOL    HW216407   0.741   3.814   5.498  0.7385 -0.1462  0.3043
 1591SOL     OW16408   2.174   0.721  14.019  0.4253 -0.4503  0.2233
 1591SOL    HW116409   2.159   0.813  14.042 -3.3344 -0.7686 -1.0295
 1591SOL    HW216410   2.145   0.682  14.102  0.2903 -0.3626  0.2177
 1592SOL     OW16411   1.453   1.497   4.254  0.1435  0.0529 -0.0034
 1592SOL    HW116412   1.420   1.421   4.206  0.0891 -1.1949  2.0032
 1592SOL    HW216413   1.371   1.544   4.248  0.2834  0.3607  0.5376
 1593SOL     OW16414   2.934   0.935   6.063  0.3103  0.2653  0.2451
 1593SOL    HW116415   2.927   0.889   5.979  0.3551 -0.1116  0.4451
 1593SOL    HW216416   2.850   0.980   6.053  1.1934  1.9719  0.7114
 1594SOL     OW16417   4.556   2.757   0.272  0.0735 -0.5936 -0.1039
 1594SOL    HW116418   4.542   2.736   0.180 -0.4875 -0.1193 -0.1291
 1594SOL    HW216419   4.642   2.717   0.284 -0.3964 -2.2645 -2.3018
 1595SOL     OW16420   3.041   0.754   3.094  0.3195  0.0300 -0.1251
 1595SOL    HW116421   2.966   0.720   3.045 -1.1011  1.6423  0.9262
 1595SOL    HW216422   3.045   0.845   3.064  1.6675  0.3647  1.0767
 1596SOL     OW16423   0.281   0.048  11.893 -0.0011  0.1189  0.3497
 1596SOL    HW116424   0.363   4.736  11.889 -0.1139  0.2935 -3.5919
 1596SOL    HW216425   0.306   0.140  11.905 -0.2809  0.2551 -0.1083
 1597SOL     OW16426   0.430   1.690  12.842 -0.7227  0.0221 -0.6644
 1597SOL    HW116427   0.398   1.763  12.789 -1.0845  0.8696  0.6997
 1597SOL    HW216428   0.414   1.618  12.781  4.0146 -2.6766  1.2340
 1598SOL     OW16429   3.003   1.266   3.166  0.2075 -0.6361 -0.6163
 1598SOL    HW116430   2.966   1.179   3.151 -0.4855 -0.1587 -1.7385
 1598SOL    HW216431   3.035   1.293   3.079 -0.4452 -1.9513 -1.2579
 1599SOL     OW16432   4.268   3.421  16.620  0.3984 -0.0238 -0.1329
 1599SOL    HW116433   4.263   3.459  16.708  0.4731  0.0712 -0.1693
 1599SOL    HW216434   4.334   3.480  16.584 -1.2912  1.1821 -1.2337
 1600SOL     OW16435   0.925   1.558   0.015  0.1242 -0.2538  0.4747
 1600SOL    HW116436   0.942   1.474  17.722  5.8114  1.1564 -0.0367
 1600SOL    HW216437   0.855   1.530   0.073  0.6477 -1.2648  0.6161
 1601SOL     OW16438   1.592   2.053   5.114  0.4168  0.3857  0.1647
 1601SOL    HW116439   1.510   2.028   5.157 -0.1051  0.1737 -0.9252
 1601SOL    HW216440   1.568   2.134   5.068 -0.4332  0.2603  0.3857
 1602SOL     OW16441   2.414   1.697   0.851 -0.1182 -0.1203 -0.6300
 1602SOL    HW116442   2.396   1.700   0.757 -2.4688  0.1876 -0.1824
 1602SOL    HW216443   2.469   1.618   0.853 -0.5352 -0.4756 -2.8265
 1603SOL     OW16444   3.451   1.185   5.840  0.3737  0.0179  0.5178
 1603SOL    HW116445   3.359   1.170   5.819  0.1725 -1.7290  2.6094
 1603SOL    HW216446   3.447   1.184   5.936 -1.2652 -0.1294  0.4437
 1604SOL     OW16447   2.860   3.321  10.432 -0.5562 -0.1574 -0.0114
 1604SOL    HW116448   2.828   3.333  10.342 -0.9336 -1.0492  0.0019
 1604SOL    HW216449   2.911   3.243  10.408  0.5715  0.4614  0.3461
 1605SOL     OW16450   4.573   4.588   3.332 -0.2599 -0.1649 -0.0879
 1605SOL    HW116451   4.635   4.659   3.314 -3.3377  2.5063 -0.2744
 1605SOL    HW216452   4.495   4.611   3.282  1.0310  1.5146 -1.3267
 1606SOL     OW16453   1.361   1.510   3.627 -0.4790  0.2011  0.4042
 1606SOL    HW116454   1.389   1.554   3.547 -1.4184  1.7870  0.9578
 1606SOL    HW216455   1.368   1.588   3.681 -1.2869 -0.0950  0.9311
 1607SOL     OW16456   2.233   1.855  12.892 -0.0143 -0.3121  0.1085
 1607SOL    HW116457   2.183   1.837  12.813  1.2749 -0.4168 -0.6949
 1607SOL    HW216458   2.178   1.818  12.961 -2.3679 -0.5553 -1.9047
 1608SOL     OW16459   1.348   0.301   8.717  0.3972 -0.3241  0.2801
 1608SOL    HW116460   1.391   0.304   8.802  0.3680  1.3188  0.2432
 1608SOL    HW216461   1.298   0.383   8.720  0.5212 -0.1749 -1.7266
 1609SOL     OW16462   2.758   3.597   5.052 -0.2889  0.1022 -0.4813
 1609SOL    HW116463   2.838   3.599   5.000 -0.5985  0.7709 -0.9278
 1609SOL    HW216464   2.771   3.680   5.098 -0.8194 -0.2590  0.3193
 1610SOL     OW16465   1.866   2.957   5.973 -0.2533 -0.6273  0.7542
 1610SOL    HW116466   1.911   2.976   5.891 -0.5416 -2.4063  0.1764
 1610SOL    HW216467   1.894   3.034   6.023 -0.7021  0.0098  0.0213
 1611SOL     OW16468   2.172   3.653   0.842  0.1573  0.0290  0.2439
 1611SOL    HW116469   2.216   3.674   0.925 -0.0747  1.8309 -0.0911
 1611SOL    HW216470   2.139   3.738   0.813  2.6907  1.2135  0.8043
 1612SOL     OW16471   2.874   4.190  16.836  0.4078  0.1358  0.0580
 1612SOL    HW116472   2.809   4.259  16.822 -1.7907 -2.0806 -0.7381
 1612SOL    HW216473   2.953   4.241  16.852 -1.1618  2.0989  1.4450
 1613SOL     OW16474   1.186   3.029  13.293  0.1801 -0.1661 -0.2977
 1613SOL    HW116475   1.133   3.069  13.362 -0.0003  1.6448 -1.4855
 1613SOL    HW216476   1.153   2.939  13.288 -1.3069  0.4639 -2.1145
 1614SOL     OW16477   4.410   1.200   0.324  0.0698 -0.2938 -0.2018
 1614SOL    HW116478   4.360   1.200   0.242 -3.3433  0.0375  1.8559
 1614SOL    HW216479   4.493   1.164   0.294  0.8330  0.8273  0.5406
 1615SOL     OW16480   1.567   2.887   6.648  0.0687  0.0138 -0.2338
 1615SOL    HW116481   1.589   2.797   6.672  0.9050  0.3499  0.2334
 1615SOL    HW216482   1.652   2.929   6.635  0.3568 -1.2748 -2.5164
 1616SOL     OW16483   4.034   1.624   6.249  0.2816  0.2670 -0.2128
 1616SOL    HW116484   3.986   1.705   6.262 -1.8290 -1.0497  0.2297
 1616SOL    HW216485   4.103   1.649   6.187  0.7234 -0.4239 -0.0120
 1617SOL     OW16486   1.057   3.019  10.448 -0.5375 -0.3188  0.3128
 1617SOL    HW116487   1.119   2.984  10.512 -1.0820 -1.2848  0.3056
 1617SOL    HW216488   0.991   2.951  10.456  0.3742 -1.5221 -2.7412
 1618SOL     OW16489   4.287   0.435   8.547  0.0262  0.0165 -0.0363
 1618SOL    HW116490   4.195   0.437   8.519 -0.0352  1.0017  0.2526
 1618SOL    HW216491   4.299   0.340   8.559 -1.2400  0.0862  1.8399
 1619SOL     OW16492   3.330   2.085  16.917 -0.1042  0.6516  0.2324
 1619SOL    HW116493   3.365   2.154  16.860  1.0965  0.3679  0.6323
 1619SOL    HW216494   3.321   2.129  17.001  1.0276 -1.0952  1.2482
 1620SOL     OW16495   0.159   0.202   5.072  0.0642  0.2030  0.1401
 1620SOL    HW116496   0.159   0.205   5.167  2.3279  0.9986  0.1056
 1620SOL    HW216497   0.128   0.114   5.050  0.3597 -0.1317  1.0894
 1621SOL     OW16498   2.019   4.450  11.024 -0.7311 -0.6172  0.0227
 1621SOL    HW116499   1.937   4.454  11.073  0.0018 -1.9030  1.3728
 1621SOL    HW216500   2.027   4.538  10.987  1.0553 -0.8327 -0.1363
 1622SOL     OW16501   4.311   1.386   2.729 -0.4738  1.0865  0.1395
 1622SOL    HW116502   4.224   1.380   2.769 -0.4518  1.5950  0.2645
 1622SOL    HW216503   4.357   1.440   2.793 -0.0557 -0.4510  1.1218
 1623SOL     OW16504   0.436   0.394   9.408 -0.0754 -0.4160  0.4017
 1623SOL    HW116505   0.350   0.359   9.428  0.2096 -0.1064  2.1262
 1623SOL    HW216506   0.457   0.358   9.321  1.8464  0.1996  0.5949
 1624SOL     OW16507   1.075   0.637   4.804 -0.1680  0.8641  0.2133
 1624SOL    HW116508   0.988   0.598   4.803 -1.6526  4.1603  0.1502
 1624SOL    HW216509   1.114   0.606   4.886  0.9615  0.3135 -0.5302
 1625SOL     OW16510   0.090   1.838  15.298  0.3047  0.2070 -0.1999
 1625SOL    HW116511   0.181   1.842  15.266  0.3795 -1.7582 -0.2280
 1625SOL    HW216512   0.082   1.743  15.296 -1.9278  0.3728  1.3956
 1626SOL     OW16513   2.399   2.481   5.083 -0.5398 -0.8395 -0.0972
 1626SOL    HW116514   2.471   2.465   5.144 -0.3534  1.2177  0.2261
 1626SOL    HW216515   2.334   2.505   5.150 -1.1145  0.5553 -1.1545
 1627SOL     OW16516   0.438   4.135  12.205  0.4856  0.3130  0.2163
 1627SOL    HW116517   0.494   4.074  12.157  0.7634  0.6197  0.1515
 1627SOL    HW216518   0.492   4.131  12.284  1.8229  2.6693 -0.5758
 1628SOL     OW16519   0.609   3.924   6.532  0.1105 -0.0973 -0.3558
 1628SOL    HW116520   0.543   3.857   6.546  1.9038 -1.4934  1.2933
 1628SOL    HW216521   0.564   3.976   6.465  0.1081  0.0038 -0.2752
 1629SOL     OW16522   4.526   4.271   4.360 -0.1054  0.1817  0.6064
 1629SOL    HW116523   4.571   4.340   4.310 -0.8687 -1.1408 -1.8749
 1629SOL    HW216524   4.600   4.219   4.393 -1.2563 -0.0851  2.7586
 1630SOL     OW16525   4.086   0.706   3.787  0.6246 -0.3066 -0.3045
 1630SOL    HW116526   4.102   0.778   3.848  0.5524 -0.0415 -0.5969
 1630SOL    HW216527   4.034   0.748   3.718 -2.0622 -1.5276  0.9845
 1631SOL     OW16528   0.270   1.288   4.906 -0.1539 -0.5784 -0.0384
 1631SOL    HW116529   0.175   1.281   4.897 -0.1057  1.1425 -1.8588
 1631SOL    HW216530   0.277   1.373   4.861  2.0360 -1.7975 -1.9973
 1632SOL     OW16531   4.495   0.013  11.211 -0.0242  1.0155 -0.0073
 1632SOL    HW116532   4.433   4.704  11.268  1.3152 -1.9887 -0.9981
 1632SOL    HW216533   4.441   0.088  11.189 -2.2333 -0.4225  0.4385
 1633SOL     OW16534   2.986   3.905  15.984 -0.0904 -0.5625  0.4130
 1633SOL    HW116535   2.993   3.824  15.933  0.5831  0.2386 -0.7770
 1633SOL    HW216536   2.891   3.901  15.989 -0.0833 -0.1204  0.8729
 1634SOL     OW16537   3.504   1.180  16.682  0.5362  0.1867  0.0845
 1634SOL    HW116538   3.432   1.159  16.624 -0.4507 -4.2185  2.8886
 1634SOL    HW216539   3.565   1.231  16.629 -0.6434  0.6638 -0.8049
 1635SOL     OW16540   3.337   4.316   7.149 -0.0312  0.0801  0.2639
 1635SOL    HW116541   3.415   4.315   7.204  1.0226 -1.1020 -1.2711
 1635SOL    HW216542   3.336   4.224   7.122  0.2539 -0.2643  1.4168
 1636SOL     OW16543   4.030   2.419   3.000 -0.4846 -0.6624 -0.2619
 1636SOL    HW116544   4.114   2.388   2.966 -0.0572 -0.1163  0.2853
 1636SOL    HW216545   4.031   2.398   3.094 -2.0767 -1.4906 -0.4244
 1637SOL     OW16546   3.158   3.961   5.162 -0.1631  0.2915 -0.2277
 1637SOL    HW116547   3.233   3.902   5.167 -0.3609  0.3764  3.4253
 1637SOL    HW216548   3.113   3.928   5.239  0.9697  0.3817  0.4714
 1638SOL     OW16549   1.986   0.113   2.830 -0.0396 -0.2514  0.3301
 1638SOL    HW116550   2.026   0.157   2.905  0.6190 -0.8553  0.3372
 1638SOL    HW216551   1.994   0.173   2.756 -3.0442 -1.6601 -1.1650
 1639SOL     OW16552   4.015   3.998  12.561  0.3992 -0.0356  0.1527
 1639SOL    HW116553   4.110   3.986  12.564  0.3821  0.1385  1.3499
 1639SOL    HW216554   4.011   4.080  12.510 -4.8725 -0.9119 -0.9012
 1640SOL     OW16555   2.550   3.559   4.753 -0.2817  0.6244  0.6831
 1640SOL    HW116556   2.565   3.471   4.718 -1.1827  1.3122 -1.3965
 1640SOL    HW216557   2.461   3.553   4.788 -0.3634  1.4770  0.6195
 1641SOL     OW16558   3.769   2.272   0.805 -0.4778 -0.1061  0.5375
 1641SOL    HW116559   3.763   2.357   0.763 -0.1763  0.2834  1.2920
 1641SOL    HW216560   3.810   2.291   0.889 -1.2742  2.6209  0.2929
 1642SOL     OW16561   1.988   0.249  12.000  0.3567 -0.5570 -0.3470
 1642SOL    HW116562   1.977   0.262  11.906  0.0381 -0.1463 -0.2526
 1642SOL    HW216563   1.955   0.159  12.009 -1.2120  0.0360 -0.1311
 1643SOL     OW16564   2.011   0.314  15.634  0.0784 -0.0788 -0.0457
 1643SOL    HW116565   1.963   0.304  15.551 -0.9924  0.6881  0.4867
 1643SOL    HW216566   2.056   0.397  15.621 -1.3507  0.2219 -3.3129
 1644SOL     OW16567   2.710   4.046   6.380  0.3649 -0.3710  0.0629
 1644SOL    HW116568   2.662   4.093   6.448  1.1105 -0.2212  0.4756
 1644SOL    HW216569   2.712   3.964   6.430  1.4068  0.5217  1.4446
 1645SOL     OW16570   0.188   2.446  12.055  0.1783 -0.1752  0.2039
 1645SOL    HW116571   0.282   2.438  12.068 -0.1909 -1.0198  2.3803
 1645SOL    HW216572   0.172   2.526  12.005 -0.9372 -0.1626  0.5874
 1646SOL     OW16573   3.894   3.925   2.438  0.3607  0.0134 -0.0711
 1646SOL    HW116574   3.928   3.970   2.514 -1.1166  0.0722  0.5617
 1646SOL    HW216575   3.810   3.897   2.475  0.4253 -0.8193 -0.5593
 1647SOL     OW16576   2.572   3.133   6.484  0.2456 -0.2334  0.3387
 1647SOL    HW116577   2.518   3.099   6.412  1.0772  1.6282 -1.1559
 1647SOL    HW216578   2.640   3.066   6.488  1.6267  1.2080  1.0441
 1648SOL     OW16579   1.281   2.268   7.703  0.2406  0.0588 -0.6814
 1648SOL    HW116580   1.323   2.353   7.690 -1.6799  0.8360 -1.9136
 1648SOL    HW216581   1.197   2.281   7.658  1.3042 -0.0893 -2.7236
 1649SOL     OW16582   4.453   1.741   4.269 -0.0786  0.1197  0.7443
 1649SOL    HW116583   4.414   1.697   4.345  1.1810 -2.1181  0.0851
 1649SOL    HW216584   4.482   1.822   4.310  0.5068 -0.7316  2.0175
 1650SOL     OW16585   2.526   0.483   9.344 -0.4978 -0.0159  0.3127
 1650SOL    HW116586   2.520   0.578   9.334 -0.7129 -0.2924 -2.2039
 1650SOL    HW216587   2.526   0.462   9.251  1.1721  0.0827  0.2870
 1651SOL     OW16588   1.470   4.369   3.826 -0.4781 -0.1307 -0.7064
 1651SOL    HW116589   1.461   4.350   3.919 -3.8353  2.7824 -0.4373
 1651SOL    HW216590   1.383   4.399   3.798  0.1261  0.6100 -1.7832
 1652SOL     OW16591   0.754   0.682   9.590  0.3785  0.3339  0.1239
 1652SOL    HW116592   0.824   0.647   9.536 -0.1603 -0.6910  0.0824
 1652SOL    HW216593   0.710   0.597   9.596  0.2994  0.2806 -1.2369
 1653SOL     OW16594   4.484   3.882  12.737 -0.2272 -0.1172  0.4962
 1653SOL    HW116595   4.562   3.842  12.699 -0.0104  0.2528  0.5482
 1653SOL    HW216596   4.522   3.956  12.785  2.1752 -0.9135 -0.1489
 1654SOL     OW16597   0.861   0.891  13.244  0.3806 -0.5677  0.7978
 1654SOL    HW116598   0.874   0.964  13.305  1.5426  1.0341 -1.3276
 1654SOL    HW216599   0.910   0.820  13.285  3.2958  1.6589  1.2536
 1655SOL     OW16600   0.409   4.620   2.558  0.1595 -0.5163  0.0305
 1655SOL    HW116601   0.349   4.661   2.621 -1.4600 -2.8804 -0.0016
 1655SOL    HW216602   0.432   4.537   2.599  0.7580 -0.2471  0.2418
 1656SOL     OW16603   0.592   0.894   6.663  0.2884 -0.5010 -0.1833
 1656SOL    HW116604   0.599   0.989   6.656 -3.4932 -0.1581  0.8031
 1656SOL    HW216605   0.546   0.873   6.582  0.2592  2.6176 -0.9465
 1657SOL     OW16606   3.480   0.367   0.380  0.1465 -0.4084  0.7040
 1657SOL    HW116607   3.501   0.334   0.293 -0.5130  1.2386 -0.0793
 1657SOL    HW216608   3.514   0.456   0.376  1.1089 -0.7987  0.3590
 1658SOL     OW16609   1.570   4.489   6.490  0.5643 -0.6257 -0.4197
 1658SOL    HW116610   1.477   4.475   6.507 -0.0757  1.0198 -2.5389
 1658SOL    HW216611   1.596   4.399   6.470  1.6831 -0.7024  1.3780
 1659SOL     OW16612   0.076   1.633   1.706 -0.0616  0.2015  0.0412
 1659SOL    HW116613   0.010   1.567   1.727  0.6881 -0.6641 -0.3046
 1659SOL    HW216614   0.123   1.630   1.789 -0.2283 -0.2171  0.1191
 1660SOL     OW16615   0.882   1.917   2.523 -0.2948 -0.5135  0.3852
 1660SOL    HW116616   0.827   1.929   2.600 -0.3941 -1.6265  0.4828
 1660SOL    HW216617   0.940   1.848   2.557  0.6271  0.3331  0.5385
 1661SOL     OW16618   2.284   2.327   4.228  0.3955  0.5329 -0.1701
 1661SOL    HW116619   2.272   2.421   4.213 -1.0133  0.3717 -0.1133
 1661SOL    HW216620   2.249   2.316   4.316  0.0533  0.6060 -0.2946
 1662SOL     OW16621   1.653   2.136   3.572  0.1568 -0.0021  0.3876
 1662SOL    HW116622   1.716   2.112   3.640 -0.4718 -1.3812  0.4669
 1662SOL    HW216623   1.596   2.061   3.586  0.6453 -0.2136  1.2362
 1663SOL     OW16624   2.746   0.061  15.279 -0.0839  0.1206  0.4116
 1663SOL    HW116625   2.750   0.156  15.273  0.9349  0.0452  0.0111
 1663SOL    HW216626   2.832   0.049  15.240  1.3358  1.0516  3.2766
 1664SOL     OW16627   1.239   0.449   9.581 -0.2146  0.5272  0.1283
 1664SOL    HW116628   1.209   0.467   9.670  0.8965 -0.2450  0.6606
 1664SOL    HW216629   1.226   0.536   9.544 -2.7784 -0.1994 -0.6962
 1665SOL     OW16630   4.575   1.677  17.480 -0.6493 -0.3522  0.1600
 1665SOL    HW116631   4.632   1.648  17.552  1.4301 -1.2578 -1.8589
 1665SOL    HW216632   4.640   1.679  17.410  0.1122  3.1648  0.9981
 1666SOL     OW16633   0.947   0.134  13.805  0.5336  0.2150  0.1508
 1666SOL    HW116634   0.878   0.198  13.789  2.3797  2.0896 -0.2830
 1666SOL    HW216635   1.015   0.193  13.836  1.2855 -0.4448 -0.2502
 1667SOL     OW16636   0.428   4.577   3.397 -0.3156 -0.6097  0.5253
 1667SOL    HW116637   0.403   4.669   3.405  0.6306 -0.0969 -2.5209
 1667SOL    HW216638   0.352   4.536   3.354 -0.2605 -1.2878  1.0691
 1668SOL     OW16639   0.161   3.882   3.560 -0.0135  0.4565 -0.5473
 1668SOL    HW116640   0.190   3.934   3.485 -0.9612  0.7832 -0.6889
 1668SOL    HW216641   0.129   3.957   3.610  0.4027  0.6470 -0.5671
 1669SOL     OW16642   3.611   1.315   1.741 -0.0989  0.4067 -0.7879
 1669SOL    HW116643   3.533   1.362   1.772  0.2964  0.0372  0.7767
 1669SOL    HW216644   3.567   1.232   1.721 -1.7234  0.2187  3.3728
 1670SOL     OW16645   4.089   3.436   2.565 -0.1745 -0.0432 -0.3760
 1670SOL    HW116646   4.130   3.385   2.496  2.5095 -0.2986  1.4119
 1670SOL    HW216647   4.110   3.524   2.535  1.6309  0.1207  1.3848
 1671SOL     OW16648   4.539   1.475   3.696  0.1667  0.5977 -0.3103
 1671SOL    HW116649   4.632   1.452   3.697  0.2356  0.9945  1.2336
 1671SOL    HW216650   4.530   1.566   3.721 -0.7341  0.4624 -0.1579
 1672SOL     OW16651   0.037   2.029   4.606  0.0383  0.5462  0.3827
 1672SOL    HW116652   0.016   2.048   4.514 -1.9671 -0.8479  0.5602
 1672SOL    HW216653   4.692   2.000   4.643  0.7917 -1.3034  0.6178
 1673SOL     OW16654   1.183   4.468   5.238  0.1785  0.0809 -0.3282
 1673SOL    HW116655   1.232   4.533   5.187  1.8373 -1.4812 -0.7301
 1673SOL    HW216656   1.249   4.399   5.244 -2.1236 -2.1836 -1.7856
 1674SOL     OW16657   1.185   0.628   8.362 -0.1768 -0.0941  0.3647
 1674SOL    HW116658   1.229   0.549   8.329 -0.3145 -0.1533  0.3230
 1674SOL    HW216659   1.099   0.587   8.374 -0.2245  0.0592  0.5348
 1675SOL     OW16660   2.196   1.225   6.017  0.4371 -0.2962 -0.4705
 1675SOL    HW116661   2.153   1.217   5.932 -2.0094  0.8955  0.6278
 1675SOL    HW216662   2.145   1.294   6.060 -0.5574 -1.6196  0.4928
 1676SOL     OW16663   0.667   4.573   6.321  0.1290  0.2279 -0.7279
 1676SOL    HW116664   0.700   4.602   6.406  1.2147  1.5737 -1.5992
 1676SOL    HW216665   0.698   4.483   6.317 -0.4738 -0.0477  0.8707
 1677SOL     OW16666   1.812   3.681   5.332 -0.5554  0.0617 -0.0364
 1677SOL    HW116667   1.762   3.750   5.288  0.0168  1.0196  0.8171
 1677SOL    HW216668   1.751   3.608   5.335 -0.6861  0.1607 -0.2328
 1678SOL     OW16669   3.370   0.966   7.896 -0.2163  0.3371 -0.3001
 1678SOL    HW116670   3.354   1.044   7.844 -3.0099  1.0092  1.5672
 1678SOL    HW216671   3.410   0.902   7.837  0.4792  1.9994 -1.6250
 1679SOL     OW16672   2.232   1.163   2.422  0.6663 -0.0152  0.3119
 1679SOL    HW116673   2.240   1.131   2.332  0.7368  0.7171  0.0540
 1679SOL    HW216674   2.311   1.130   2.464  1.6260 -0.6027 -1.9491
 1680SOL     OW16675   0.607   2.805   0.715  0.5569  0.5379 -0.0293
 1680SOL    HW116676   0.648   2.849   0.640  1.3528 -1.1530 -0.5797
 1680SOL    HW216677   0.542   2.868   0.746  2.0701  1.5091  1.1784
 1681SOL     OW16678   2.756   2.688   4.865  0.8966  0.2392  0.0716
 1681SOL    HW116679   2.672   2.642   4.872  0.3028  1.7616  3.0835
 1681SOL    HW216680   2.732   2.780   4.871  1.9663  0.4853  0.5037
 1682SOL     OW16681   2.663   2.543   3.127 -0.4072  0.2318  0.2448
 1682SOL    HW116682   2.679   2.457   3.168 -3.2163 -0.0533  0.7323
 1682SOL    HW216683   2.692   2.525   3.038 -2.9904 -0.9526 -0.3535
 1683SOL     OW16684   2.157   0.002   6.552 -0.0525 -0.2116  0.2922
 1683SOL    HW116685   2.111   4.730   6.635 -1.2809 -1.3086 -0.5161
 1683SOL    HW216686   2.085   4.725   6.490 -0.2167 -1.2318  0.7110
 1684SOL     OW16687   4.202   0.646   2.862 -0.0970  0.4602  0.7241
 1684SOL    HW116688   4.175   0.713   2.924  1.1847  0.9360  0.7605
 1684SOL    HW216689   4.180   0.690   2.780 -0.4661 -1.2696 -0.1123
 1685SOL     OW16690   1.240   4.427   7.043 -0.6273  0.4129  0.0117
 1685SOL    HW116691   1.295   4.493   7.083  0.9970 -0.5256 -0.6536
 1685SOL    HW216692   1.273   4.342   7.071 -2.0693  1.0147  3.4587
 1686SOL     OW16693   0.833   1.784   9.127  0.0081  0.3396 -0.3789
 1686SOL    HW116694   0.829   1.732   9.207 -1.5924  1.9968  0.6093
 1686SOL    HW216695   0.746   1.760   9.094  0.5105  1.5364 -2.5632
 1687SOL     OW16696   3.636   3.338   4.836  0.2934  0.0553 -0.5997
 1687SOL    HW116697   3.617   3.432   4.834 -1.1657 -0.2653 -1.8578
 1687SOL    HW216698   3.562   3.296   4.791 -0.6743  2.0712 -0.8825
 1688SOL     OW16699   1.790   2.889   1.674 -0.0822 -0.3654  0.6462
 1688SOL    HW116700   1.828   2.932   1.751  1.2231 -0.9201  0.3217
 1688SOL    HW216701   1.705   2.872   1.712 -0.1528  0.8664  1.0532
 1689SOL     OW16702   0.938   0.371   1.166  0.7077  0.1738  0.0855
 1689SOL    HW116703   0.891   0.415   1.096  0.2528  0.5059  0.5989
 1689SOL    HW216704   1.008   0.327   1.118 -3.0677 -1.7348 -3.6300
 1690SOL     OW16705   1.274   3.002  12.993 -0.4484 -0.6327  0.2686
 1690SOL    HW116706   1.300   2.910  13.005  2.5405  0.1982  0.3523
 1690SOL    HW216707   1.315   3.054  13.063 -0.5430  3.2941 -2.6177
 1691SOL     OW16708   3.793   0.632   3.903  0.6934 -0.1198 -0.0631
 1691SOL    HW116709   3.805   0.634   3.998 -2.4639 -0.1306  0.3551
 1691SOL    HW216710   3.880   0.604   3.874  0.6378  0.3089 -0.6592
 1692SOL     OW16711   4.714   0.139   4.663  1.0081 -0.8408  0.3844
 1692SOL    HW116712   4.738   0.047   4.669  0.1776 -1.1621 -1.2406
 1692SOL    HW216713   4.647   0.139   4.595  0.8168 -1.0646  0.5744
 1693SOL     OW16714   3.799   3.884   4.629  0.2637  0.1785  0.0393
 1693SOL    HW116715   3.729   3.935   4.669  1.4136  0.7675  1.2990
 1693SOL    HW216716   3.873   3.945   4.634  1.3927 -1.0178 -1.9392
 1694SOL     OW16717   2.790   0.580   3.056 -0.2452 -0.0591  0.4004
 1694SOL    HW116718   2.785   0.636   3.134  1.2666 -1.0079  1.1961
 1694SOL    HW216719   2.708   0.531   3.047 -0.2103  0.4690 -2.8878
 1695SOL     OW16720   4.726   0.607   2.691 -0.1833  0.2937 -0.5906
 1695SOL    HW116721   4.669   0.683   2.705 -1.1587 -0.2523 -1.6644
 1695SOL    HW216722   4.708   0.591   2.599  0.6765  1.0812 -0.8912
 1696SOL     OW16723   0.328   2.884   3.677 -0.0813 -0.2204  0.5126
 1696SOL    HW116724   0.287   2.957   3.723  1.7874  0.9264  0.3268
 1696SOL    HW216725   0.266   2.881   3.604  1.2598 -2.2240 -0.5258
 1697SOL     OW16726   2.205   4.734   4.782  0.5009  0.3313 -0.2719
 1697SOL    HW116727   2.146   0.016   4.709 -0.8063 -2.3037  0.0900
 1697SOL    HW216728   2.161   4.659   4.821 -1.3690  2.1264  1.1457
 1698SOL     OW16729   1.622   3.079   2.814 -0.6714  1.0206 -0.3776
 1698SOL    HW116730   1.551   3.115   2.868  0.1912  0.6942  0.9953
 1698SOL    HW216731   1.571   3.046   2.740 -0.1154 -2.1452  0.6496
 1699SOL     OW16732   3.514   3.141  11.249 -0.2787  0.2143  0.0096
 1699SOL    HW116733   3.527   3.064  11.194  2.7682  0.2672  0.6517
 1699SOL    HW216734   3.563   3.198  11.189 -2.1061  0.4432 -1.2782
 1700SOL     OW16735   4.079   2.109   3.893 -0.3637 -0.5377 -0.4942
 1700SOL    HW116736   4.169   2.125   3.921  0.4087 -3.7431 -1.0716
 1700SOL    HW216737   4.054   2.045   3.960 -0.7506  0.1710  0.0378
 1701SOL     OW16738   3.479   3.702   2.991  0.0499 -0.6749 -0.3436
 1701SOL    HW116739   3.412   3.669   3.051  1.1592  0.2889  1.4425
 1701SOL    HW216740   3.539   3.627   2.988  0.0613 -0.6415 -0.9298
 1702SOL     OW16741   4.416   3.406   2.901 -0.1297 -0.0737  0.3660
 1702SOL    HW116742   4.453   3.449   2.824  3.3421 -3.0319  0.3681
 1702SOL    HW216743   4.392   3.480   2.956  0.1204 -0.5983  1.1897
 1703SOL     OW16744   4.057   0.431   0.838 -0.3500 -0.0676  0.3399
 1703SOL    HW116745   4.040   0.355   0.783  0.9991 -0.5044  0.5440
 1703SOL    HW216746   3.974   0.457   0.878 -0.9177 -1.7166  0.2063
 1704SOL     OW16747   1.972   1.179   5.481 -0.3077 -0.2442 -0.6221
 1704SOL    HW116748   1.922   1.099   5.465  0.6668 -0.3589 -3.0147
 1704SOL    HW216749   1.912   1.243   5.519 -1.0887 -2.1356  1.3696
 1705SOL     OW16750   2.783   3.094  17.642 -0.0970 -0.4074 -0.0627
 1705SOL    HW116751   2.865   3.079  17.690 -0.8042 -0.1018  1.2462
 1705SOL    HW216752   2.723   3.061  17.709 -0.8867 -0.3933 -0.7634
 1706SOL     OW16753   3.547   4.204   1.816 -0.4366 -0.1907 -0.1143
 1706SOL    HW116754   3.484   4.193   1.887  0.9467 -1.7810  0.8665
 1706SOL    HW216755   3.513   4.292   1.798 -1.4007 -0.2164  1.6381
 1707SOL     OW16756   4.138   4.631  12.751 -0.1309 -0.0557  0.3576
 1707SOL    HW116757   4.069   4.581  12.795  1.4476 -2.3536  0.2214
 1707SOL    HW216758   4.184   4.563  12.702 -0.0195  0.0148  0.3639
 1708SOL     OW16759   4.259   4.384   2.715 -0.4847  1.0624  0.9180
 1708SOL    HW116760   4.235   4.335   2.636  3.5804 -0.2964  0.5504
 1708SOL    HW216761   4.302   4.462   2.680  1.3897 -0.7767 -0.8537
 1709SOL     OW16762   0.815   2.232   8.945 -0.1635 -0.9772  0.4340
 1709SOL    HW116763   0.819   2.172   9.019 -1.0818 -1.4206  0.1340
 1709SOL    HW216764   0.885   2.295   8.959 -0.0146 -1.1194  0.3223
 1710SOL     OW16765   2.164   1.085   6.426 -0.0106 -0.4816 -0.4560
 1710SOL    HW116766   2.156   0.990   6.413 -1.9542  0.1780 -4.1556
 1710SOL    HW216767   2.092   1.121   6.375  1.0802  0.2665 -1.4626
 1711SOL     OW16768   4.086   1.627   4.012  0.5322 -0.1027 -0.1782
 1711SOL    HW116769   4.053   1.628   4.102  1.4880  1.3893  0.1380
 1711SOL    HW216770   4.063   1.543   3.973 -1.7490  1.2229 -1.6888
 1712SOL     OW16771   3.598   2.293   8.922 -0.2389  0.4298 -0.2901
 1712SOL    HW116772   3.660   2.221   8.910 -0.0503  0.3850  0.9658
 1712SOL    HW216773   3.573   2.281   9.013  0.1972  0.8497 -0.1161
 1713SOL     OW16774   2.908   2.163   5.751  0.2279 -0.5434  0.0005
 1713SOL    HW116775   2.898   2.138   5.660 -0.7267 -0.1022 -0.0103
 1713SOL    HW216776   2.819   2.192   5.771  1.1841  0.1478  3.2892
 1714SOL     OW16777   3.399   0.683   7.357 -0.0277 -0.4378 -0.9644
 1714SOL    HW116778   3.412   0.769   7.317 -1.8894  0.4480  0.3367
 1714SOL    HW216779   3.340   0.715   7.425 -1.5746  0.8607 -2.9520
 1715SOL     OW16780   0.900   1.273   8.628  0.5176 -0.3122  0.7203
 1715SOL    HW116781   0.883   1.343   8.692  2.8546  1.8552 -1.0466
 1715SOL    HW216782   0.851   1.199   8.665 -0.3335  0.0137  0.2381
 1716SOL     OW16783   2.461   4.508   0.639  0.4035 -0.0783  0.3511
 1716SOL    HW116784   2.515   4.444   0.593 -0.0190 -0.9230  1.0220
 1716SOL    HW216785   2.458   4.581   0.578 -0.9001 -0.5223 -0.0992
 1717SOL     OW16786   3.172   1.677   3.570  0.5221 -0.1203  0.0425
 1717SOL    HW116787   3.134   1.749   3.619  0.3855  1.9081 -3.0158
 1717SOL    HW216788   3.098   1.618   3.555  0.0322  0.1774  1.2798
 1718SOL     OW16789   0.242   4.506   2.835  0.1926  0.2380 -0.8003
 1718SOL    HW116790   0.292   4.577   2.876 -0.0540  1.0407 -1.8738
 1718SOL    HW216791   0.176   4.555   2.786  0.3776  1.3851  0.1071
 1719SOL     OW16792   2.085   0.386   5.240  0.4892 -0.0428  0.0083
 1719SOL    HW116793   2.081   0.478   5.265  2.2681 -0.0953  0.5265
 1719SOL    HW216794   2.181   0.382   5.237  0.4851  0.4054 -0.7362
 1720SOL     OW16795   2.481   0.387   6.380  0.0579  0.5605  0.2901
 1720SOL    HW116796   2.417   0.316   6.384  0.4101  0.2253  0.0971
 1720SOL    HW216797   2.467   0.438   6.301  2.0574 -1.7743 -1.5909
 1721SOL     OW16798   4.316   3.644   2.996  0.6575 -0.5120 -0.0511
 1721SOL    HW116799   4.359   3.679   3.074 -1.3761  0.5915  0.5730
 1721SOL    HW216800   4.317   3.718   2.936 -0.7964 -0.2217  0.3036
 1722SOL     OW16801   2.735   3.199   4.958  0.1191 -0.0330  0.1808
 1722SOL    HW116802   2.666   3.257   4.989 -1.3757 -1.7114 -0.0168
 1722SOL    HW216803   2.759   3.258   4.886  1.6750  0.8922  1.4826
 1723SOL     OW16804   3.578   0.250   5.987  0.1950 -0.3285  0.1659
 1723SOL    HW116805   3.563   0.343   6.007  0.7571  0.2117 -1.9702
 1723SOL    HW216806   3.673   0.253   5.973 -0.1257  0.0634 -1.9465
 1724SOL     OW16807   3.758   4.004   2.890  0.2841 -0.1968 -0.0703
 1724SOL    HW116808   3.760   4.011   2.985 -2.6805 -1.7360  0.0740
 1724SOL    HW216809   3.668   3.977   2.872 -0.3407  1.0341  1.1975
 1725SOL     OW16810   2.246   2.617   4.498  0.0654 -0.3621  0.5188
 1725SOL    HW116811   2.226   2.533   4.540  2.4649 -0.5151  1.3427
 1725SOL    HW216812   2.182   2.617   4.427 -0.5018  1.3830  1.0359
 1726SOL     OW16813   3.567   4.459  11.287  0.0145  0.6308 -0.2206
 1726SOL    HW116814   3.570   4.384  11.347 -2.0055  2.1875  1.8572
 1726SOL    HW216815   3.556   4.419  11.201  1.3795  1.5368 -0.8276
 1727SOL     OW16816   3.814   1.022  15.314  0.8158  0.1328 -0.3191
 1727SOL    HW116817   3.868   0.958  15.267 -1.6258 -1.2396 -1.3090
 1727SOL    HW216818   3.809   1.088  15.245 -0.9649  0.5249  0.1887
 1728SOL     OW16819   4.489   3.788   5.961  0.3195 -0.2419  0.2507
 1728SOL    HW116820   4.475   3.696   5.985  0.0178 -0.5759 -1.2086
 1728SOL    HW216821   4.418   3.821   6.016 -1.7371 -2.1901 -1.2167
 1729SOL     OW16822   1.116   1.009  13.100 -0.2291 -0.3660 -0.2592
 1729SOL    HW116823   1.049   0.996  13.034 -1.7178  1.3450  0.9197
 1729SOL    HW216824   1.109   0.923  13.142  3.7090  0.1444  1.4414
 1730SOL     OW16825   1.799   2.253  12.391  0.0473  0.0453  0.1323
 1730SOL    HW116826   1.744   2.181  12.422  1.0883  0.4877  3.0946
 1730SOL    HW216827   1.787   2.252  12.296 -0.9796  1.2709  0.2448
 1731SOL     OW16828   1.840   0.585   7.877  0.0855  0.1205 -0.0559
 1731SOL    HW116829   1.852   0.618   7.966  0.0432 -1.1607  0.4353
 1731SOL    HW216830   1.923   0.612   7.839  0.4398 -0.3952  0.3468
 1732SOL     OW16831   2.675   2.259   7.049 -0.0566  0.4397 -0.2654
 1732SOL    HW116832   2.757   2.226   7.085 -0.5362  0.2444  0.6622
 1732SOL    HW216833   2.680   2.354   7.058  0.9148  0.1961  1.8714
 1733SOL     OW16834   2.664   3.612   9.691  0.2021 -0.4873 -0.2407
 1733SOL    HW116835   2.757   3.633   9.693  0.2613 -0.9440  1.4836
 1733SOL    HW216836   2.629   3.690   9.735  1.3932  1.1711 -2.2216
 1734SOL     OW16837   2.534   1.888   2.334  0.2065  0.3824  0.1338
 1734SOL    HW116838   2.570   1.897   2.246  0.1600 -1.3196 -0.0630
 1734SOL    HW216839   2.571   1.802   2.356 -2.7552 -0.9766 -0.1950
 1735SOL     OW16840   4.073   0.871  10.343 -0.1787 -0.0536 -0.2101
 1735SOL    HW116841   4.139   0.891  10.409 -1.2105 -1.3836  1.2422
 1735SOL    HW216842   4.108   0.805  10.282 -0.1422 -1.6532  1.5201
 1736SOL     OW16843   1.867   0.138   1.109 -0.0268  0.6790 -0.1728
 1736SOL    HW116844   1.926   0.159   1.182 -0.0500  0.0272  0.0344
 1736SOL    HW216845   1.930   0.166   1.042  1.8891  0.4230  1.5082
 1737SOL     OW16846   3.832   1.121  17.336 -0.0797  0.1553 -0.5752
 1737SOL    HW116847   3.808   1.156  17.422  0.2046  0.3521 -0.5755
 1737SOL    HW216848   3.842   1.029  17.357 -0.4191 -0.1663 -1.8658
 1738SOL     OW16849   3.988   2.751   3.160 -0.2358 -0.2683  0.1486
 1738SOL    HW116850   4.047   2.714   3.095  0.8624  0.9734  0.4396
 1738SOL    HW216851   3.936   2.803   3.099 -0.5466  2.0835  2.3739
 1739SOL     OW16852   2.413   1.827   5.607  0.1300 -0.4577  0.0974
 1739SOL    HW116853   2.392   1.835   5.700 -1.6523  0.4488 -0.3867
 1739SOL    HW216854   2.333   1.866   5.571 -0.1158 -2.5244 -1.5856
 1740SOL     OW16855   3.614   1.669   3.153 -0.4745 -0.2562  0.1763
 1740SOL    HW116856   3.606   1.758   3.188 -2.6082 -0.9165  1.3559
 1740SOL    HW216857   3.704   1.678   3.121 -0.6711 -2.9358 -1.1225
 1741SOL     OW16858   4.695   4.314   8.007 -0.0570  0.0587  0.4569
 1741SOL    HW116859   4.643   4.358   8.074 -0.4320 -0.1915  0.3318
 1741SOL    HW216860   4.696   4.225   8.043 -1.5371  0.2844  1.0538
 1742SOL     OW16861   2.769   2.421   9.420  0.7149  0.7384 -0.2625
 1742SOL    HW116862   2.855   2.412   9.378 -0.9733  2.2643 -4.1210
 1742SOL    HW216863   2.757   2.516   9.414  0.7582  0.8467  1.4875
 1743SOL     OW16864   1.307   1.595   3.022  0.1044 -0.3763  0.1028
 1743SOL    HW116865   1.273   1.660   2.961  2.9756  0.7015 -0.3096
 1743SOL    HW216866   1.394   1.574   2.990 -0.5822 -1.3375 -1.1253
 1744SOL     OW16867   0.255   3.609  11.390 -0.1399  0.1964  0.2150
 1744SOL    HW116868   0.318   3.543  11.420  1.0141  2.1449  2.0624
 1744SOL    HW216869   0.180   3.552  11.372  1.0870 -1.1349 -0.6808
 1745SOL     OW16870   2.254   0.219  16.255  0.0512 -0.4690 -0.7867
 1745SOL    HW116871   2.213   0.297  16.217  1.2788 -0.8211 -2.8331
 1745SOL    HW216872   2.178   0.162  16.260  0.4740 -0.8369  1.3304
 1746SOL     OW16873   0.720   2.603   3.739  0.2890  0.1132  0.1434
 1746SOL    HW116874   0.700   2.697   3.735 -0.4190 -0.1181 -1.4863
 1746SOL    HW216875   0.643   2.564   3.781 -0.0077  1.9440  1.3133
 1747SOL     OW16876   3.604   4.279   5.947  0.3250 -0.0312 -0.5009
 1747SOL    HW116877   3.617   4.191   5.983  0.1525 -0.6245 -1.8880
 1747SOL    HW216878   3.510   4.293   5.962  0.3605 -0.2174 -0.0933
 1748SOL     OW16879   0.680   1.380  14.628  0.1726  0.1488 -0.4304
 1748SOL    HW116880   0.618   1.319  14.670 -0.3655  1.5042  0.7748
 1748SOL    HW216881   0.626   1.458  14.611  0.4349  0.5464  0.5518
 1749SOL     OW16882   2.695   1.900   2.949 -0.1122 -0.0742  0.5387
 1749SOL    HW116883   2.776   1.856   2.925  0.8829  1.9180  0.2849
 1749SOL    HW216884   2.663   1.890   2.859  0.0352 -1.4529  0.6340
 1750SOL     OW16885   1.001   4.538   7.106 -0.2114 -0.0863  0.0531
 1750SOL    HW116886   1.082   4.490   7.090 -0.7128 -0.6566 -0.7808
 1750SOL    HW216887   1.026   4.629   7.089 -0.6335  0.3165  1.5907
 1751SOL     OW16888   0.560   1.783   9.003  0.1120  0.1413  0.0220
 1751SOL    HW116889   0.511   1.762   8.923  0.5132 -2.2502  0.4045
 1751SOL    HW216890   0.496   1.758   9.070 -0.0675 -0.3305 -0.3263
 1752SOL     OW16891   1.511   3.638   1.762  0.0078  0.2267 -0.0070
 1752SOL    HW116892   1.513   3.650   1.857 -0.2695 -2.6981  0.3491
 1752SOL    HW216893   1.445   3.570   1.750  0.0506 -0.0840  1.5968
 1753SOL     OW16894   3.153   3.907   5.831  0.2404  0.1502  0.7386
 1753SOL    HW116895   3.109   3.967   5.892 -0.1524  0.5116  0.0967
 1753SOL    HW216896   3.181   3.837   5.890  1.1771 -0.3133 -0.2580
 1754SOL     OW16897   4.570   4.551   8.229  0.2790 -0.0303  0.0237
 1754SOL    HW116898   4.521   4.469   8.223  0.4276 -0.1242  0.1218
 1754SOL    HW216899   4.635   4.550   8.299 -1.3070  0.8257  1.5102
 1755SOL     OW16900   1.831   0.387   3.010 -0.4306  0.1068  0.4538
 1755SOL    HW116901   1.760   0.323   3.017  0.0251 -0.5531 -0.9649
 1755SOL    HW216902   1.820   0.438   3.090 -0.8323  1.8543 -0.7037
 1756SOL     OW16903   3.259   3.943   0.748  0.6135  0.2139 -0.5222
 1756SOL    HW116904   3.286   3.893   0.825 -1.6062  0.7714  0.6244
 1756SOL    HW216905   3.276   3.881   0.677  0.1828  0.9543 -1.2753
 1757SOL     OW16906   1.078   3.119   5.572 -0.1416 -0.0054  0.7775
 1757SOL    HW116907   1.163   3.075   5.570  0.6761  1.5356  1.8704
 1757SOL    HW216908   1.070   3.155   5.660  0.9420 -0.9885  1.2765
 1758SOL     OW16909   0.557   4.425  16.425  0.0203 -0.1839 -0.2872
 1758SOL    HW116910   0.542   4.342  16.471 -1.4469 -0.3638 -1.1030
 1758SOL    HW216911   0.568   4.398  16.334  0.9695  2.6595 -1.0253
 1759SOL     OW16912   3.616   0.279   0.131 -0.3779 -0.9321  0.1813
 1759SOL    HW116913   3.706   0.295   0.104 -0.3852 -3.7299 -1.5262
 1759SOL    HW216914   3.560   0.335   0.077  1.4353 -0.2230 -0.9788
 1760SOL     OW16915   3.434   3.909  10.331 -0.0978  0.0141  0.5038
 1760SOL    HW116916   3.474   3.824  10.346  1.0512  1.1111  3.5922
 1760SOL    HW216917   3.515   3.961  10.334  0.5109 -0.8069 -1.4800
 1761SOL     OW16918   0.123   2.704   4.156 -0.2893 -0.0811 -0.2412
 1761SOL    HW116919   0.193   2.642   4.176 -1.3949 -0.6894  1.7752
 1761SOL    HW216920   0.134   2.773   4.222  0.1395  1.2476 -1.7206
 1762SOL     OW16921   3.359   2.536   9.064 -0.5021  0.0051  0.4121
 1762SOL    HW116922   3.387   2.495   8.983 -1.4551 -0.4544  0.3211
 1762SOL    HW216923   3.287   2.589   9.028  1.2890  2.2007  0.0583
 1763SOL     OW16924   2.375   2.580  12.388 -0.4004  0.0910  0.6767
 1763SOL    HW116925   2.372   2.486  12.375 -1.0532  0.6545 -3.4170
 1763SOL    HW216926   2.294   2.602  12.342 -0.5677  2.7347  2.2143
 1764SOL     OW16927   1.796   0.268   8.868  0.1504 -0.2267  0.3881
 1764SOL    HW116928   1.765   0.179   8.886 -0.3409 -0.5360 -1.8836
 1764SOL    HW216929   1.748   0.321   8.932  1.5273  1.8063 -0.2770
 1765SOL     OW16930   3.681   0.541  11.636 -0.2992 -0.7747  0.1178
 1765SOL    HW116931   3.619   0.563  11.706  0.1695  1.9834 -0.3294
 1765SOL    HW216932   3.732   0.469  11.673  0.2016 -1.2970 -1.5795
 1766SOL     OW16933   1.355   1.400   7.274 -0.2575  0.0070 -0.0346
 1766SOL    HW116934   1.266   1.436   7.271 -0.7429 -1.1493  0.6677
 1766SOL    HW216935   1.347   1.321   7.328 -0.7219  0.1211  0.0646
 1767SOL     OW16936   3.669   3.071   3.300  0.5265  0.1536  0.1712
 1767SOL    HW116937   3.704   3.110   3.220  2.1113  0.8424  1.1952
 1767SOL    HW216938   3.713   3.124   3.366  0.3679 -0.8272  1.0738
 1768SOL     OW16939   1.517   4.094  11.476  0.0557 -0.6492 -0.5940
 1768SOL    HW116940   1.436   4.127  11.437 -1.2308  0.5114  3.0743
 1768SOL    HW216941   1.568   4.174  11.487  0.9643 -1.3072 -0.0714
 1769SOL     OW16942   3.202   3.198   8.946 -0.2017 -0.6012  0.1603
 1769SOL    HW116943   3.114   3.211   8.981 -0.7888 -2.2957 -0.6790
 1769SOL    HW216944   3.182   3.246   8.865 -3.7918 -1.4553  0.5204
 1770SOL     OW16945   0.454   3.644   3.032  0.4099  0.1706  0.1883
 1770SOL    HW116946   0.481   3.721   3.082 -1.3787  1.4647 -0.8308
 1770SOL    HW216947   0.474   3.576   3.096  0.2573 -0.5579 -0.5489
 1771SOL     OW16948   3.045   0.526   5.349  0.0890  0.3514 -0.0173
 1771SOL    HW116949   3.140   0.515   5.349  0.0506 -0.0520 -1.9230
 1771SOL    HW216950   3.018   0.469   5.422  1.6463  1.7945  1.6636
 1772SOL     OW16951   3.702   0.887   2.421 -0.4274 -0.0931  0.2847
 1772SOL    HW116952   3.710   0.981   2.405 -1.7094  0.0198  0.3238
 1772SOL    HW216953   3.784   0.856   2.381  0.3287  0.7400  1.1856
 1773SOL     OW16954   3.648   1.133  15.778  0.2109 -0.2036  0.1549
 1773SOL    HW116955   3.677   1.074  15.709  0.1091 -1.4441  1.1900
 1773SOL    HW216956   3.705   1.116  15.852 -0.7694 -1.1333  0.6917
 1774SOL     OW16957   3.978   3.343   5.213  0.1655 -0.2665 -0.3202
 1774SOL    HW116958   3.984   3.313   5.123  3.0958  1.7965 -0.8129
 1774SOL    HW216959   4.072   3.352   5.229 -0.2572  0.6862  1.7854
 1775SOL     OW16960   4.476   2.516  13.970  0.7389  0.6362 -0.1748
 1775SOL    HW116961   4.402   2.500  13.913 -1.0064 -1.5872  2.7139
 1775SOL    HW216962   4.442   2.489  14.056 -0.1597  1.6001 -0.2375
 1776SOL     OW16963   0.849   3.800   3.520 -0.5537 -0.0594  0.0183
 1776SOL    HW116964   0.897   3.744   3.581  2.4136  0.9312 -1.4213
 1776SOL    HW216965   0.874   3.887   3.550 -3.3561  1.0785 -0.9029
 1777SOL     OW16966   1.832   3.777   1.890  0.4115 -0.2699  0.3443
 1777SOL    HW116967   1.894   3.837   1.930  0.8263 -1.0509  0.8692
 1777SOL    HW216968   1.853   3.787   1.797  0.8260  0.0189  0.4689
 1778SOL     OW16969   4.536   0.939   9.879 -0.3242 -0.2915 -0.0972
 1778SOL    HW116970   4.559   0.899   9.963  2.7145  0.7482 -0.4152
 1778SOL    HW216971   4.514   1.031   9.894 -0.1601  0.0963 -2.2836
 1779SOL     OW16972   0.193   2.770  17.739  1.1197  0.4323 -0.2902
 1779SOL    HW116973   0.208   2.854  17.694  0.2775  0.2852 -0.8457
 1779SOL    HW216974   0.157   2.717  17.668  1.1392 -0.8467  0.6708
 1780SOL     OW16975   0.132   4.577   6.534 -0.2221  0.5995 -0.2330
 1780SOL    HW116976   0.182   4.549   6.610  1.4189 -0.7812 -1.8282
 1780SOL    HW216977   0.196   4.560   6.465  0.5701 -2.4665  1.2871
 1781SOL     OW16978   0.104   3.472   7.456  0.1403  0.5911 -0.3064
 1781SOL    HW116979   0.079   3.414   7.529  1.1564  2.8071  1.7633
 1781SOL    HW216980   0.190   3.435   7.434  0.7169  1.4748  0.5143
 1782SOL     OW16981   0.112   4.272   2.862 -0.2817 -0.0636 -0.0376
 1782SOL    HW116982   0.170   4.347   2.862  1.7954 -1.6711  0.8611
 1782SOL    HW216983   0.025   4.310   2.849  0.9920  2.6903 -0.3401
 1783SOL     OW16984   3.381   4.634  15.033 -0.7317 -0.5132  0.1010
 1783SOL    HW116985   3.287   4.652  15.041 -0.7875  0.2836 -2.2035
 1783SOL    HW216986   3.390   4.602  14.943  0.0772  0.3483 -0.1221
 1784SOL     OW16987   2.190   3.065   1.795  0.2723 -0.0801 -0.6696
 1784SOL    HW116988   2.097   3.043   1.806 -0.1504  0.9691 -2.1234
 1784SOL    HW216989   2.187   3.160   1.798  2.0819 -0.0611  0.2904
 1785SOL     OW16990   1.007   1.181  11.265 -0.5784 -0.7424 -0.3557
 1785SOL    HW116991   1.037   1.230  11.189 -0.0452  0.8052  0.8410
 1785SOL    HW216992   1.025   1.094  11.230 -0.6125 -1.3688  1.1710
 1786SOL     OW16993   2.247   4.499   7.015 -0.7696 -0.1463 -0.1602
 1786SOL    HW116994   2.243   4.474   7.107  0.3512 -0.0601 -0.0869
 1786SOL    HW216995   2.154   4.517   6.997 -0.1827  1.4107 -1.6384
 1787SOL     OW16996   2.766   2.899   2.884 -0.2000 -0.3982 -0.3617
 1787SOL    HW116997   2.814   2.871   2.806  1.7101 -0.6587  0.8963
 1787SOL    HW216998   2.842   2.923   2.938 -1.0494 -0.2787  0.7791
 1788SOL     OW16999   0.711   0.286   2.604  0.3118  0.0756 -0.5520
 1788SOL    HW117000   0.698   0.292   2.510  1.9309  0.3388 -0.7699
 1788SOL    HW217001   0.661   0.207   2.626  0.4988 -0.0613 -0.6112
 1789SOL     OW17002   3.827   1.832   5.784  0.2015  0.3315 -0.8776
 1789SOL    HW117003   3.806   1.756   5.838 -1.4505  1.1568 -0.3607
 1789SOL    HW217004   3.844   1.894   5.855  1.6895  1.1663 -1.9717
 1790SOL     OW17005   1.849   2.561   5.376  0.1244 -0.3707  0.3808
 1790SOL    HW117006   1.882   2.646   5.348 -2.2701 -0.0761 -1.4923
 1790SOL    HW217007   1.883   2.551   5.465 -0.9060  1.1703  0.9260
 1791SOL     OW17008   3.355   2.943   7.971  0.6324  0.3021  0.5382
 1791SOL    HW117009   3.408   2.912   8.045 -0.2354 -1.8646  0.2412
 1791SOL    HW217010   3.362   2.875   7.904  0.0444  0.2162  0.5634
 1792SOL     OW17011   4.322   0.676   5.501  0.4626  0.0601 -0.6791
 1792SOL    HW117012   4.320   0.581   5.487  1.1945 -0.3893  2.3132
 1792SOL    HW217013   4.381   0.697   5.573 -1.0586  1.0785  0.2768
 1793SOL     OW17014   3.453   3.917   9.409  0.4428  0.3322 -0.4188
 1793SOL    HW117015   3.487   3.872   9.486 -2.0801  0.1428  0.6170
 1793SOL    HW217016   3.381   3.961   9.456 -0.1699 -1.0477 -0.0656
 1794SOL     OW17017   1.168   0.636   2.126 -0.2612  0.2799 -0.1740
 1794SOL    HW117018   1.231   0.654   2.056  0.1291 -1.9039 -0.4003
 1794SOL    HW217019   1.181   0.719   2.171 -0.0598  0.5008 -0.6400
 1795SOL     OW17020   4.586   3.822   7.931  0.4281  0.0344 -0.1951
 1795SOL    HW117021   4.620   3.733   7.935 -0.7832 -0.3320  1.7079
 1795SOL    HW217022   4.497   3.812   7.964  0.1741  1.1210 -0.5229
 1796SOL     OW17023   2.817   3.333   3.621 -0.3952  0.0165 -0.6587
 1796SOL    HW117024   2.852   3.247   3.641  1.6078  1.1151  0.6239
 1796SOL    HW217025   2.898   3.384   3.619 -1.1213  1.1846 -0.3969
 1797SOL     OW17026   3.058   0.243  16.418 -0.3970 -0.0934 -0.3534
 1797SOL    HW117027   3.061   0.171  16.355 -0.1352 -1.3896  1.1558
 1797SOL    HW217028   3.152   0.256  16.430 -0.7025  0.4174  1.4756
 1798SOL     OW17029   2.083   0.376   8.531  0.7735 -0.2355  0.0025
 1798SOL    HW117030   2.123   0.408   8.450  1.4134  0.3841  0.5602
 1798SOL    HW217031   2.000   0.342   8.498  0.4851 -0.4230  0.9485
 1799SOL     OW17032   3.528   3.317   3.507  0.2625  0.5400  0.2121
 1799SOL    HW117033   3.482   3.305   3.424 -0.2801  1.1894  0.4213
 1799SOL    HW217034   3.610   3.356   3.475 -0.0274  0.2815 -0.8438
 1800SOL     OW17035   2.791   3.429   4.437  0.2180 -0.2047  0.2350
 1800SOL    HW117036   2.723   3.439   4.370 -1.1303 -0.4754  1.5640
 1800SOL    HW217037   2.831   3.352   4.396 -1.7147  0.2743 -2.5873
 1801SOL     OW17038   2.975   2.533   7.455 -0.0768 -0.1130  0.4418
 1801SOL    HW117039   3.000   2.442   7.473 -0.6760 -0.0401  1.6209
 1801SOL    HW217040   3.025   2.580   7.521  0.1522 -1.7286  1.4097
 1802SOL     OW17041   2.890   1.884  14.372  0.2169 -0.3781  0.3523
 1802SOL    HW117042   2.888   1.966  14.422  1.1129 -0.3045  0.2720
 1802SOL    HW217043   2.839   1.909  14.295  1.0964 -0.1267 -0.1562
 1803SOL     OW17044   2.952   2.364   4.603 -0.2483  0.3466  0.4233
 1803SOL    HW117045   2.963   2.286   4.548  1.1854  0.6753  0.2515
 1803SOL    HW217046   2.870   2.404   4.574 -1.1630 -0.9162  1.2398
 1804SOL     OW17047   0.362   2.769  11.365  0.6349 -0.4354 -0.2160
 1804SOL    HW117048   0.450   2.736  11.345  2.3878  3.6746  0.6720
 1804SOL    HW217049   0.388   2.832  11.433  0.4527 -0.8023  0.1893
 1805SOL     OW17050   1.071   2.620   2.410  0.2687 -0.3128 -0.0930
 1805SOL    HW117051   1.052   2.533   2.374 -1.0165 -0.8558  1.8899
 1805SOL    HW217052   1.080   2.675   2.332 -0.0881 -0.5278 -0.2841
 1806SOL     OW17053   1.672   2.361  11.804  0.0958 -0.0513  0.0117
 1806SOL    HW117054   1.600   2.393  11.858  0.8755 -0.6656  1.4147
 1806SOL    HW217055   1.641   2.270  11.806 -0.6744  0.1532 -2.5069
 1807SOL     OW17056   4.350   0.286   4.624 -0.1604 -0.2633 -0.1994
 1807SOL    HW117057   4.310   0.238   4.697 -0.8180 -1.9971 -1.7093
 1807SOL    HW217058   4.365   0.373   4.660  0.0721 -1.2379  2.0388
 1808SOL     OW17059   1.349   0.879   5.187 -0.2581 -0.5384  0.0582
 1808SOL    HW117060   1.277   0.828   5.150  1.6543 -1.1641 -2.7699
 1808SOL    HW217061   1.420   0.879   5.123  0.6905  0.8737  1.1093
 1809SOL     OW17062   0.337   4.290  11.973 -0.6398  0.0712 -0.2239
 1809SOL    HW117063   0.379   4.236  12.040 -0.1658 -2.9283 -2.9481
 1809SOL    HW217064   0.281   4.235  11.919 -0.4361  1.9901 -2.4265
 1810SOL     OW17065   0.446   3.311   8.783  0.4996  0.2690  0.5218
 1810SOL    HW117066   0.427   3.301   8.876  0.7058 -0.6987  0.4570
 1810SOL    HW217067   0.540   3.330   8.777  0.4415  0.0906 -1.0621
 1811SOL     OW17068   0.524   2.982  16.943 -0.4852  0.0381 -0.7155
 1811SOL    HW117069   0.465   2.989  17.017 -1.4919 -2.2854 -1.3120
 1811SOL    HW217070   0.501   2.892  16.920 -1.3478 -0.0851  0.6443
 1812SOL     OW17071   3.353   4.718   3.800  0.0550 -0.6348  0.5756
 1812SOL    HW117072   3.391   0.058   3.841 -1.2995  1.5337 -2.2447
 1812SOL    HW217073   3.386   4.652   3.861 -1.9352 -1.8734  0.3191
 1813SOL     OW17074   2.395   0.999   1.196 -0.0961 -0.0238  0.1471
 1813SOL    HW117075   2.392   1.087   1.159 -0.8403 -0.5256 -0.9758
 1813SOL    HW217076   2.487   0.974   1.187 -0.0298  1.1725 -2.3298
 1814SOL     OW17077   0.058   0.867   6.273  0.4843  0.0673  0.3256
 1814SOL    HW117078   0.007   0.833   6.200  2.6728 -0.9628 -0.7091
 1814SOL    HW217079   0.128   0.803   6.288 -2.3622 -2.9945  0.7024
 1815SOL     OW17080   2.750   1.386   5.251 -0.6422  0.4078 -0.1481
 1815SOL    HW117081   2.708   1.428   5.326 -1.0413  0.4724 -0.4097
 1815SOL    HW217082   2.818   1.333   5.294 -1.1514  0.3839  0.6306
 1816SOL     OW17083   3.387   0.833  16.381  0.0459  0.0640 -0.0104
 1816SOL    HW117084   3.309   0.788  16.351  2.0006 -3.1586 -0.2978
 1816SOL    HW217085   3.432   0.754  16.411  0.7635  0.5043  0.0865
 1817SOL     OW17086   4.173   1.684   8.761 -0.2897 -0.7330 -0.2379
 1817SOL    HW117087   4.227   1.758   8.788  0.4266 -1.1446 -0.5343
 1817SOL    HW217088   4.152   1.701   8.669 -1.0421  0.1258  0.0937
 1818SOL     OW17089   3.044   0.208   9.324 -0.4957  0.0291  0.1004
 1818SOL    HW117090   2.998   0.143   9.271  0.6250 -0.3671 -0.3903
 1818SOL    HW217091   2.994   0.281   9.289  1.3384  0.9120 -0.7194
 1819SOL     OW17092   1.592   4.266   5.519 -0.0024 -0.2208  0.6962
 1819SOL    HW117093   1.501   4.250   5.491  0.1712 -0.8331  0.4792
 1819SOL    HW217094   1.575   4.323   5.594  0.0959  0.5930  0.1115
 1820SOL     OW17095   1.871   1.006  13.711  0.2673 -0.0216  0.3451
 1820SOL    HW117096   1.896   1.079  13.653  0.7236 -0.4777 -0.0325
 1820SOL    HW217097   1.849   0.937  13.649 -0.1390  0.9645 -0.6198
 1821SOL     OW17098   0.224   0.163   5.354  0.5017  0.9843 -0.1990
 1821SOL    HW117099   0.280   0.229   5.394 -0.1191  0.9960  0.6569
 1821SOL    HW217100   0.242   0.092   5.416  0.2475  0.2940 -0.9099
 1822SOL     OW17101   1.530   1.521   3.912 -0.0413  0.3422  0.0671
 1822SOL    HW117102   1.605   1.539   3.968  0.2018  1.2644 -0.5591
 1822SOL    HW217103   1.529   1.426   3.923 -0.2304  0.2434 -0.8028
 1823SOL     OW17104   4.497   2.385   2.811  0.3562  0.2716 -0.5389
 1823SOL    HW117105   4.530   2.352   2.727 -0.2192 -2.6644  0.3977
 1823SOL    HW217106   4.553   2.463   2.817 -0.3224  0.8915 -2.1962
 1824SOL     OW17107   0.362   3.069   9.410  0.1017  0.1322 -0.3227
 1824SOL    HW117108   0.350   2.974   9.410 -0.3239  0.1883  1.3183
 1824SOL    HW217109   0.312   3.102   9.336 -0.6315 -1.1643 -0.4071
 1825SOL     OW17110   2.276   0.140  11.506 -0.5187 -0.5078  0.7711
 1825SOL    HW117111   2.208   0.118  11.443  0.4812 -0.8308 -0.2072
 1825SOL    HW217112   2.304   0.226  11.474 -0.8533 -0.0051  1.8445
 1826SOL     OW17113   0.086   3.879   4.310  0.1357 -0.4566 -0.4252
 1826SOL    HW117114   0.035   3.801   4.286  2.1801 -1.9953  0.2656
 1826SOL    HW217115   0.114   3.909   4.223  0.8935 -1.2925 -0.4605
 1827SOL     OW17116   0.267   0.879   0.008 -0.0843  0.3715 -0.6918
 1827SOL    HW117117   0.179   0.884  17.720  0.3993 -1.4007 -2.0335
 1827SOL    HW217118   0.288   0.786  17.745 -1.2625 -0.3207  2.2924
 1828SOL     OW17119   2.765   2.859   6.935  0.0907 -0.1215  0.2491
 1828SOL    HW117120   2.670   2.847   6.933 -0.0534  1.3538 -1.8186
 1828SOL    HW217121   2.785   2.825   7.022  1.9882  1.1758  0.3298
 1829SOL     OW17122   2.408   3.261  17.529 -0.1882 -0.1580 -0.1590
 1829SOL    HW117123   2.485   3.290  17.481  0.8623 -1.7826  0.5579
 1829SOL    HW217124   2.342   3.328  17.510 -0.9472 -0.3661  1.7908
 1830SOL     OW17125   4.181   3.444   7.818  0.1992  0.4287  0.1941
 1830SOL    HW117126   4.159   3.450   7.911  0.8475  1.0821  0.3063
 1830SOL    HW217127   4.123   3.515   7.789 -0.3246 -0.4169 -0.8110
 1831SOL     OW17128   2.784   0.582  17.248  0.7177 -0.1483 -0.0067
 1831SOL    HW117129   2.846   0.526  17.203  0.9916  0.1566 -0.0111
 1831SOL    HW217130   2.795   0.563  17.342  0.7654 -1.5477 -0.3056
 1832SOL     OW17131   3.099   3.335   1.692  0.5233 -0.2766  0.9419
 1832SOL    HW117132   3.033   3.375   1.748  2.0830  1.7171  1.3509
 1832SOL    HW217133   3.112   3.402   1.626  0.8461 -0.5406  0.7367
 1833SOL     OW17134   2.087   4.093  17.599  0.1455 -0.7361  0.9545
 1833SOL    HW117135   2.111   4.135  17.682 -0.8587 -2.7714  2.2754
 1833SOL    HW217136   2.149   4.138  17.543  2.3232 -0.8792  3.2522
 1834SOL     OW17137   1.139   0.869   7.694 -0.8478 -0.2315  0.6297
 1834SOL    HW117138   1.133   0.816   7.615  0.6003 -1.5025  1.3663
 1834SOL    HW217139   1.233   0.884   7.705 -0.8362  1.4333 -1.7490
 1835SOL     OW17140   2.345   0.977   3.033  0.0026  0.3984  0.3317
 1835SOL    HW117141   2.303   1.031   3.100  0.0658  2.2656 -1.1384
 1835SOL    HW217142   2.287   0.901   3.045  0.8225 -0.6210 -2.1541
 1836SOL     OW17143   1.511   2.377  10.615  0.1082  0.1753  0.2448
 1836SOL    HW117144   1.513   2.300  10.672 -0.0618  0.0531  0.0866
 1836SOL    HW217145   1.604   2.400  10.616 -0.0205  0.6650  0.7035
 1837SOL     OW17146   2.452   1.622   6.708  0.0186  0.0640 -0.0211
 1837SOL    HW117147   2.485   1.674   6.781 -2.7485  0.6661  0.7752
 1837SOL    HW217148   2.524   1.560   6.692 -1.5600 -1.6714 -0.4516
 1838SOL     OW17149   2.836   4.127  11.486  0.2972  0.1308  0.0164
 1838SOL    HW117150   2.902   4.191  11.511 -0.0760 -0.1301  1.7100
 1838SOL    HW217151   2.852   4.060  11.552 -0.1690  1.5818  1.6011
 1839SOL     OW17152   0.011   2.471   0.514 -0.0181 -0.6918  0.2997
 1839SOL    HW117153   0.046   2.503   0.597  1.1782  1.6730 -1.1401
 1839SOL    HW217154   0.058   2.537   0.463  0.2957 -0.4884  0.8466
 1840SOL     OW17155   4.735   1.013  11.951 -0.5331  0.0341 -0.1446
 1840SOL    HW117156   0.058   0.944  11.926 -0.8330 -0.7422  1.2860
 1840SOL    HW217157   0.028   1.036  12.039 -2.5737  1.4586  0.1894
 1841SOL     OW17158   1.053   4.116   7.028 -0.4477 -0.1259 -0.0170
 1841SOL    HW117159   1.134   4.141   7.073 -0.7251 -0.8538  0.8865
 1841SOL    HW217160   1.085   4.067   6.952  0.6162 -1.3906  1.2461
 1842SOL     OW17161   3.784   3.802   7.172 -0.1545  0.6036  0.2131
 1842SOL    HW117162   3.701   3.827   7.211 -1.1092  1.8251 -2.6645
 1842SOL    HW217163   3.836   3.879   7.192  2.9242 -1.0742 -1.2956
 1843SOL     OW17164   1.553   1.480   6.932  0.0044 -0.1854 -0.0156
 1843SOL    HW117165   1.577   1.415   6.866  2.3790 -0.4433  1.1196
 1843SOL    HW217166   1.468   1.512   6.904 -0.9187 -0.1775  2.7602
 1844SOL     OW17167   4.072   2.266   4.835 -0.3489 -0.5780  0.4265
 1844SOL    HW117168   4.106   2.324   4.902 -0.8779  1.2374 -0.8588
 1844SOL    HW217169   4.080   2.310   4.750 -1.3842 -0.9382  0.1306
 1845SOL     OW17170   1.382   1.218   3.347  0.2198 -0.0772 -0.4594
 1845SOL    HW117171   1.298   1.195   3.307 -1.2877  0.9067  2.1503
 1845SOL    HW217172   1.444   1.262   3.288  1.8295 -1.1541  0.4013
 1846SOL     OW17173   0.291   0.096   2.688  0.3602 -0.0264 -0.3367
 1846SOL    HW117174   0.300   0.168   2.626 -0.1615 -0.5321 -1.0044
 1846SOL    HW217175   0.301   0.129   2.777  0.7924  0.2227 -0.4764
 1847SOL     OW17176   2.574   3.274  11.256  0.4187 -0.1381 -0.0852
 1847SOL    HW117177   2.515   3.209  11.294  0.3456 -1.1353 -1.9030
 1847SOL    HW217178   2.510   3.319  11.201 -0.9288 -0.3258  1.3502
 1848SOL     OW17179   1.060   0.464   2.304 -0.0219 -0.0209  0.4224
 1848SOL    HW117180   0.983   0.446   2.249 -0.3162  2.1422  0.1340
 1848SOL    HW217181   1.108   0.519   2.243 -0.6859  0.0951  0.0057
 1849SOL     OW17182   4.359   4.396   1.922 -0.1050  0.2178 -0.7189
 1849SOL    HW117183   4.436   4.449   1.945 -0.7023  1.4200 -1.5530
 1849SOL    HW217184   4.301   4.427   1.991 -0.5730 -0.0383 -1.0038
 1850SOL     OW17185   2.294   4.030  11.003  0.8558  0.0912 -0.0647
 1850SOL    HW117186   2.279   4.124  10.994 -0.3150  0.0230  1.0566
 1850SOL    HW217187   2.341   4.032  11.086 -0.6053 -0.7509  0.7768
 1851SOL     OW17188   1.316   2.731   5.391  0.1117  0.8687 -0.0704
 1851SOL    HW117189   1.277   2.644   5.392 -1.6454  1.7087  3.5541
 1851SOL    HW217190   1.349   2.725   5.481  0.1447  1.3919 -0.0497
 1852SOL     OW17191   4.712   1.932   4.054  0.1885  0.2589  0.1294
 1852SOL    HW117192   4.695   1.962   3.964  1.2616 -0.2773 -0.2493
 1852SOL    HW217193   4.729   2.015   4.099  2.1012  0.5699 -1.1857
 1853SOL     OW17194   1.361   2.072   3.374  0.4182  0.0357  0.0536
 1853SOL    HW117195   1.312   2.070   3.456 -0.1185 -2.3028 -0.3230
 1853SOL    HW217196   1.398   1.984   3.372 -1.2798 -0.6807  0.4916
 1854SOL     OW17197   0.481   3.365   5.425 -0.2714  0.3294  0.1800
 1854SOL    HW117198   0.509   3.397   5.338  1.6913  0.5120  0.8708
 1854SOL    HW217199   0.562   3.325   5.457  1.0909  1.3854 -1.9069
 1855SOL     OW17200   4.662   3.757   6.349  0.3405  0.7707 -0.0724
 1855SOL    HW117201   4.679   3.779   6.257  1.3692 -2.0054 -0.5661
 1855SOL    HW217202   4.736   3.701   6.374  0.1942  0.1833 -0.9422
 1856SOL     OW17203   2.648   4.368   3.392  0.1419  0.1110 -0.5851
 1856SOL    HW117204   2.682   4.456   3.376  1.0783 -0.1445 -0.0080
 1856SOL    HW217205   2.708   4.347   3.464 -2.5805  0.8238  1.9006
 1857SOL     OW17206   2.379   3.544   8.909 -0.1807  0.3165  0.5452
 1857SOL    HW117207   2.382   3.512   8.999  0.4020 -0.4163  0.2645
 1857SOL    HW217208   2.426   3.626   8.924  0.2688  0.3027 -0.8082
 1858SOL     OW17209   3.551   3.013   9.061  0.4121  0.0707 -0.4773
 1858SOL    HW117210   3.622   2.995   9.123  1.5749  0.7937 -1.6195
 1858SOL    HW217211   3.599   3.040   8.983 -1.0587  1.2553 -0.9785
 1859SOL     OW17212   0.840   0.207   4.372 -0.2489  0.1575 -0.0793
 1859SOL    HW117213   0.766   0.165   4.416 -1.0927  2.2161  0.4537
 1859SOL    HW217214   0.882   0.130   4.335 -0.6080  0.0539 -0.2731
 1860SOL     OW17215   2.081   0.635   5.602  0.1857 -0.2794 -0.4482
 1860SOL    HW117216   2.141   0.699   5.564 -0.5227  1.4950  1.3959
 1860SOL    HW217217   1.996   0.680   5.604 -0.9030 -2.4143  1.7506
 1861SOL     OW17218   1.492   2.885  17.687 -0.0628  0.2376  0.0652
 1861SOL    HW117219   1.510   2.900  17.594 -0.9650 -1.1441 -0.3175
 1861SOL    HW217220   1.561   2.942  17.722  0.6465 -0.3212 -0.4277
 1862SOL     OW17221   2.539   1.734  16.281 -0.1942  0.0233 -0.2523
 1862SOL    HW117222   2.555   1.641  16.268  2.7707  0.3043  1.5404
 1862SOL    HW217223   2.544   1.762  16.189 -3.1920  1.8305  0.1372
 1863SOL     OW17224   2.659   2.697   8.407  0.0437 -0.1200  0.0958
 1863SOL    HW117225   2.706   2.658   8.333 -1.5226 -1.5286 -0.1481
 1863SOL    HW217226   2.737   2.721   8.457 -0.0843  0.7893 -0.1436
 1864SOL     OW17227   1.143   0.586   0.067  0.4951  0.4994 -0.0639
 1864SOL    HW117228   1.127   0.588  17.722  1.0530  0.8534 -0.1473
 1864SOL    HW217229   1.232   0.615   0.085 -0.1907  1.7797  1.3185
 1865SOL     OW17230   1.194   2.047  16.935  0.2967  0.1989 -0.4110
 1865SOL    HW117231   1.193   2.087  16.848  1.2528 -1.0070 -0.9705
 1865SOL    HW217232   1.267   1.986  16.932 -2.1644 -2.9005  2.9094
 1866SOL     OW17233   1.378   1.711   3.827 -0.3074  0.2372  0.2823
 1866SOL    HW117234   1.324   1.727   3.904 -1.4641 -0.3720 -0.4061
 1866SOL    HW217235   1.434   1.639   3.857 -0.9225 -0.2513  0.2570
 1867SOL     OW17236   0.442   3.612   8.108 -0.1236  0.1623 -0.1251
 1867SOL    HW117237   0.378   3.684   8.111 -0.1705  0.1390 -0.5798
 1867SOL    HW217238   0.387   3.536   8.127  0.6540 -0.7583 -1.5355
 1868SOL     OW17239   4.351   2.358  12.230  0.2551 -0.1822 -0.3011
 1868SOL    HW117240   4.258   2.338  12.239 -0.3591  2.2342 -1.1685
 1868SOL    HW217241   4.386   2.315  12.308 -1.4484 -0.8703  0.0778
 1869SOL     OW17242   2.720   4.297   8.493 -0.4199  0.1629  0.2833
 1869SOL    HW117243   2.779   4.260   8.558 -1.4459  2.2781  2.3990
 1869SOL    HW217244   2.713   4.236   8.419  1.0330  2.5854 -1.8410
 1870SOL     OW17245   3.474   3.538  15.591 -0.2021 -0.7192  0.2369
 1870SOL    HW117246   3.505   3.493  15.512 -0.2760  0.7067 -0.5966
 1870SOL    HW217247   3.556   3.579  15.619 -0.8033 -1.0153  2.4155
 1871SOL     OW17248   0.479   0.678   4.708  0.0034 -0.2989 -0.1577
 1871SOL    HW117249   0.451   0.694   4.798 -1.7497 -0.1661 -0.7284
 1871SOL    HW217250   0.557   0.624   4.724  1.0610  0.4353 -2.8250
 1872SOL     OW17251   4.195   1.321  17.677 -0.4838  0.0039  0.3994
 1872SOL    HW117252   4.141   1.310  17.599 -1.2692 -0.3172  0.9873
 1872SOL    HW217253   4.161   1.405  17.706  0.7260  0.7686 -0.3713
 1873SOL     OW17254   0.148   1.012  11.640  0.2922 -0.0362 -0.0493
 1873SOL    HW117255   0.226   0.981  11.595  0.8301  0.3126  0.6514
 1873SOL    HW217256   0.163   0.958  11.717  0.9960 -1.6215 -1.3044
 1874SOL     OW17257   0.477   1.228   2.723  0.3976  0.1360 -0.1226
 1874SOL    HW117258   0.549   1.248   2.782  1.7405 -0.2944 -1.6241
 1874SOL    HW217259   0.456   1.310   2.679 -0.8984 -0.0253  0.1819
 1875SOL     OW17260   0.886   0.861   7.815  0.4148  0.6393  0.1232
 1875SOL    HW117261   0.971   0.829   7.782 -1.5426 -1.1230 -3.1896
 1875SOL    HW217262   0.916   0.940   7.860  0.3294  1.2236 -0.8523
 1876SOL     OW17263   4.465   2.021  11.689 -0.0464 -0.0120  0.1529
 1876SOL    HW117264   4.536   2.086  11.691 -1.0388  1.0383  1.1146
 1876SOL    HW217265   4.520   1.943  11.695 -1.4282 -1.1765 -2.5601
 1877SOL     OW17266   0.976   2.649  17.747  0.2970 -0.0605 -0.1255
 1877SOL    HW117267   0.977   2.626  17.654  0.7067  1.0323 -0.3897
 1877SOL    HW217268   0.893   2.616   0.032  1.2395 -3.5569 -1.2407
 1878SOL     OW17269   3.588   3.931   8.117  0.1847 -0.6454  0.0274
 1878SOL    HW117270   3.621   4.004   8.170 -0.4873 -1.5080  1.6424
 1878SOL    HW217271   3.534   3.983   8.057 -0.1002  1.9071  2.5057
 1879SOL     OW17272   4.404   0.164   9.513 -0.2531 -0.5791 -0.3073
 1879SOL    HW117273   4.338   0.150   9.582 -0.3188 -0.1231 -0.2760
 1879SOL    HW217274   4.452   0.241   9.543 -0.9151 -0.4018  0.2965
 1880SOL     OW17275   2.852   0.601   6.801 -0.0550  0.5703  0.2685
 1880SOL    HW117276   2.810   0.675   6.756 -1.9366 -1.2370 -0.9046
 1880SOL    HW217277   2.809   0.526   6.762  0.2973  0.6926 -0.3463
 1881SOL     OW17278   4.217   1.423   2.381 -0.2441 -0.5317 -0.2805
 1881SOL    HW117279   4.262   1.375   2.311  0.1061  0.3906 -0.6946
 1881SOL    HW217280   4.174   1.354   2.431  0.0685 -1.3771 -1.1641
 1882SOL     OW17281   0.564   1.534  11.112  0.3750 -0.0799  0.3920
 1882SOL    HW117282   0.568   1.503  11.021 -0.2882 -0.1157  0.3776
 1882SOL    HW217283   0.647   1.582  11.116  0.5644 -0.3565 -0.2568
 1883SOL     OW17284   4.257   2.159  11.809 -0.0757 -0.4695  0.3463
 1883SOL    HW117285   4.321   2.103  11.766  0.4246  0.1383  0.2873
 1883SOL    HW217286   4.281   2.137  11.899 -1.6086 -1.5897  0.4775
 1884SOL     OW17287   3.537   0.507   6.044  0.1896 -0.1378  1.0689
 1884SOL    HW117288   3.546   0.569   6.117  1.2153 -1.7850  2.3495
 1884SOL    HW217289   3.494   0.548   5.969 -0.5204  0.1170  1.6054
 1885SOL     OW17290   3.861   3.146   2.301 -0.1455  0.6680 -0.0872
 1885SOL    HW117291   3.815   3.070   2.338 -0.0136 -0.3966 -2.0933
 1885SOL    HW217292   3.848   3.216   2.365  3.4203 -0.8502  2.3058
 1886SOL     OW17293   4.024   1.795   3.778 -0.1260  0.1128 -0.5454
 1886SOL    HW117294   3.933   1.770   3.786  0.1002 -0.6033 -0.2545
 1886SOL    HW217295   4.053   1.755   3.860  1.4820 -0.1874 -1.2511
 1887SOL     OW17296   0.981   0.397  10.235 -0.3577 -0.5100 -0.0637
 1887SOL    HW117297   0.889   0.414  10.254  0.3600  1.7042  1.3196
 1887SOL    HW217298   0.975   0.360  10.147 -0.0041 -1.1534  0.1842
 1888SOL     OW17299   2.605   0.438  13.761 -0.2676 -0.2277  0.0643
 1888SOL    HW117300   2.514   0.410  13.748 -0.3468 -0.1317  0.4110
 1888SOL    HW217301   2.628   0.410  13.850  1.2664 -0.1389 -0.3061
 1889SOL     OW17302   3.220   0.945   8.841 -0.0530  0.0094  0.2758
 1889SOL    HW117303   3.230   1.011   8.910  0.1996  0.3433 -0.0749
 1889SOL    HW217304   3.162   0.877   8.874  1.5950 -1.7757 -0.5459
 1890SOL     OW17305   0.360   0.845  14.911 -0.0853 -0.2788  0.2151
 1890SOL    HW117306   0.288   0.876  14.856 -0.3302  1.5136  1.5696
 1890SOL    HW217307   0.436   0.852  14.853  0.9360  0.2962  1.6007
 1891SOL     OW17308   4.637   2.806  10.301  0.2178  0.6707 -0.1782
 1891SOL    HW117309   4.698   2.814  10.375 -1.8364 -0.4003  1.6222
 1891SOL    HW217310   4.629   2.898  10.275 -0.3141  0.9181  0.8454
 1892SOL     OW17311   3.146   2.608   2.468 -0.3002  0.4559  0.0353
 1892SOL    HW117312   3.239   2.626   2.476 -0.0327  0.0192 -2.0157
 1892SOL    HW217313   3.144   2.609   2.372 -1.0495  1.3041  0.0531
 1893SOL     OW17314   4.235   3.573   3.571  0.7265  0.6216 -0.4858
 1893SOL    HW117315   4.301   3.576   3.501  0.6121 -0.3290 -0.6271
 1893SOL    HW217316   4.221   3.667   3.582  0.4936  0.1212  3.3488
 1894SOL     OW17317   3.043   4.549   9.554 -0.0767 -0.0933 -0.1607
 1894SOL    HW117318   3.083   4.519   9.472  0.4473 -0.9085  0.4022
 1894SOL    HW217319   3.125   4.580   9.592  0.1272 -3.1477  1.8967
 1895SOL     OW17320   4.691   1.159  11.391  0.2340 -0.2203  0.0053
 1895SOL    HW117321   4.731   1.222  11.331  1.1509 -2.0046 -1.2282
 1895SOL    HW217322   4.598   1.172  11.373 -0.0322 -0.7954  0.9799
 1896SOL     OW17323   0.632   0.674  12.987  0.2759  0.4076  0.2640
 1896SOL    HW117324   0.658   0.762  12.961 -2.5781  1.2480  0.2533
 1896SOL    HW217325   0.547   0.681  13.031  0.0912 -2.0067  0.3153
 1897SOL     OW17326   3.275   3.636   8.880 -0.2246 -0.4814 -0.2178
 1897SOL    HW117327   3.288   3.730   8.887 -2.9832 -0.0125 -1.0866
 1897SOL    HW217328   3.213   3.608   8.947  0.7353 -4.3644 -0.9464
 1898SOL     OW17329   3.178   1.989   4.168  0.1339  0.1360  0.3666
 1898SOL    HW117330   3.098   1.959   4.124  0.2494  1.1708 -0.5245
 1898SOL    HW217331   3.253   1.959   4.118 -1.8847 -3.7923 -0.3904
 1899SOL     OW17332   2.962   0.164   3.268  0.0992 -0.2774  0.1248
 1899SOL    HW117333   2.901   0.237   3.280  1.4888  1.1356 -1.2420
 1899SOL    HW217334   2.944   0.129   3.181  4.3310 -3.1031  0.3956
 1900SOL     OW17335   2.082   4.249   8.563 -0.2074  0.1464  0.2071
 1900SOL    HW117336   2.109   4.169   8.517  0.3777 -0.2594  1.2711
 1900SOL    HW217337   2.168   4.277   8.594  0.9866  0.4982 -3.4285
 1901SOL     OW17338   0.433   2.995   0.787 -0.6313 -0.1793 -0.0977
 1901SOL    HW117339   0.347   2.994   0.829  0.9133  1.9459  3.0859
 1901SOL    HW217340   0.407   3.058   0.720 -1.0498  0.9081  1.0865
 1902SOL     OW17341   3.071   2.412   3.071 -0.2605 -0.6101  0.3391
 1902SOL    HW117342   3.165   2.424   3.087  0.5324 -1.6880 -3.4017
 1902SOL    HW217343   3.069   2.317   3.074  3.5596 -0.6991  0.8884
 1903SOL     OW17344   0.368   2.092   8.055 -0.5820 -0.2011  1.0421
 1903SOL    HW117345   0.294   2.108   8.114 -1.1948 -0.2043  0.2630
 1903SOL    HW217346   0.417   2.172   8.072  0.3369 -0.7142  0.7886
 1904SOL     OW17347   0.086   3.111  16.913 -0.5624  0.2298 -0.5510
 1904SOL    HW117348   0.058   3.172  16.845 -0.0853  0.6989 -0.3234
 1904SOL    HW217349   0.163   3.155  16.947  0.3594 -2.0143  0.2729
 1905SOL     OW17350   0.503   4.231  13.118  0.1420  0.2561  0.0435
 1905SOL    HW117351   0.429   4.256  13.173 -1.1451 -0.9826 -1.1581
 1905SOL    HW217352   0.521   4.154  13.171  1.4731  1.4354  1.3263
 1906SOL     OW17353   3.599   2.261   7.874 -0.6572  0.6643  0.3238
 1906SOL    HW117354   3.536   2.209   7.924  2.4510 -0.4460  3.1171
 1906SOL    HW217355   3.592   2.214   7.792  0.5509 -0.3052  0.7930
 1907SOL     OW17356   3.290   0.519   8.960  0.4505  0.0289  0.0524
 1907SOL    HW117357   3.273   0.485   9.048 -0.5205 -0.8857 -0.4808
 1907SOL    HW217358   3.275   0.448   8.897 -0.6564  0.7507 -0.5007
 1908SOL     OW17359   1.696   0.502  15.518  0.0801  0.3841 -0.9647
 1908SOL    HW117360   1.600   0.505  15.517  0.1543  1.5713 -2.6616
 1908SOL    HW217361   1.725   0.593  15.515  3.0491 -0.5933 -1.9761
 1909SOL     OW17362   4.401   1.171   0.024 -1.3437  0.1015  0.5126
 1909SOL    HW117363   4.349   1.244  17.740 -0.7898  0.6838  0.9305
 1909SOL    HW217364   4.337   1.105  17.746 -2.6236  1.2248  0.7794
 1910SOL     OW17365   3.777   3.638   7.577  0.1159  0.8369 -0.3446
 1910SOL    HW117366   3.823   3.648   7.494  1.0170 -1.5323 -0.1354
 1910SOL    HW217367   3.755   3.728   7.600  0.8811  0.8381  0.3479
 1911SOL     OW17368   3.760   0.011   5.309 -0.7264 -0.6227  0.4435
 1911SOL    HW117369   3.793   4.672   5.356 -0.6070 -1.5751 -1.2205
 1911SOL    HW217370   3.668   4.731   5.327 -0.4349 -0.0528  2.5568
 1912SOL     OW17371   1.167   3.086   5.130  0.1795 -0.0705 -0.2421
 1912SOL    HW117372   1.257   3.106   5.103 -0.2939  0.9002 -1.0954
 1912SOL    HW217373   1.127   3.173   5.123 -0.2428 -0.0335  2.2963
 1913SOL     OW17374   3.972   0.751   2.674 -0.3598  0.0056 -0.1796
 1913SOL    HW117375   4.013   0.681   2.624  1.5806 -0.6278  2.3296
 1913SOL    HW217376   4.002   0.833   2.634  1.3391  0.0446  1.1402
 1914SOL     OW17377   1.764   0.862   6.759  0.1547  1.1212  0.0206
 1914SOL    HW117378   1.731   0.874   6.848 -1.3265 -1.1967 -0.2439
 1914SOL    HW217379   1.685   0.903   6.724 -0.2875  0.0136 -0.2776
 1915SOL     OW17380   2.790   0.731   2.821 -0.2363  0.2812 -0.2916
 1915SOL    HW117381   2.788   0.662   2.888 -1.2081  0.0979 -0.5031
 1915SOL    HW217382   2.865   0.700   2.771  0.1940 -0.0505  0.5546
 1916SOL     OW17383   2.532   3.261   2.269  0.7505  0.2102 -0.1900
 1916SOL    HW117384   2.496   3.277   2.181  0.1337  0.7777  0.1672
 1916SOL    HW217385   2.477   3.302   2.335  0.6098 -1.6919  0.8713
 1917SOL     OW17386   2.671   4.147   2.925 -0.2462 -0.5599  0.4897
 1917SOL    HW117387   2.673   4.181   3.015  0.2256  0.7982 -0.0235
 1917SOL    HW217388   2.696   4.055   2.935  1.0174 -0.1763  0.9419
 1918SOL     OW17389   4.422   0.788  15.340 -0.1218 -0.5021 -0.1357
 1918SOL    HW117390   4.493   0.757  15.284  1.7583  2.1392  0.7447
 1918SOL    HW217391   4.397   0.708  15.386 -0.1543  0.1783  1.0337
 1919SOL     OW17392   1.599   3.608   2.877 -0.0684 -0.3132  0.0640
 1919SOL    HW117393   1.674   3.567   2.921 -0.9638 -1.8981  0.1189
 1919SOL    HW217394   1.519   3.578   2.920  0.5554 -1.4869  0.4092
 1920SOL     OW17395   0.455   1.037   5.155 -0.0900 -0.4041 -0.4092
 1920SOL    HW117396   0.456   1.132   5.149  0.3600 -0.2255  2.5537
 1920SOL    HW217397   0.464   1.020   5.061  0.0347  0.7304 -0.5993
 1921SOL     OW17398   1.494   0.953   3.237  0.0519 -0.0856 -0.3325
 1921SOL    HW117399   1.478   0.988   3.150  2.1875 -0.8411 -1.0302
 1921SOL    HW217400   1.502   1.032   3.290 -0.8347  1.3146 -2.3118
 1922SOL     OW17401   0.040   0.791   4.055  0.2675  0.0371  0.0104
 1922SOL    HW117402   0.134   0.772   4.059  0.3240  0.2966 -0.0575
 1922SOL    HW217403   0.021   0.798   3.961  1.8505  0.2330 -0.2901
 1923SOL     OW17404   4.372   0.086   8.042  0.3886  0.1646  0.0556
 1923SOL    HW117405   4.295   0.045   8.082  0.1608  0.1654 -0.3823
 1923SOL    HW217406   4.435   0.059   8.109  0.8237  2.3343  0.5329
 1924SOL     OW17407   2.095   1.318  17.127  0.2852  0.2587  0.1017
 1924SOL    HW117408   2.190   1.306  17.126  0.5200  1.9138  0.9716
 1924SOL    HW217409   2.061   1.275  17.049  1.2680 -0.6636  0.1858
 1925SOL     OW17410   2.910   2.750   8.531  0.4077 -0.0115 -0.6875
 1925SOL    HW117411   2.986   2.774   8.584 -0.0318 -0.5166  0.1703
 1925SOL    HW217412   2.958   2.705   8.461 -1.2145 -1.3799 -0.9323
 1926SOL     OW17413   3.678   4.341   7.074 -0.0772  0.4904  0.7427
 1926SOL    HW117414   3.757   4.379   7.036 -0.1603 -1.1891 -1.1258
 1926SOL    HW217415   3.619   4.340   6.998  1.3886  2.4740 -0.4055
 1927SOL     OW17416   1.353   3.279   7.286 -0.3626  0.4005  0.2370
 1927SOL    HW117417   1.395   3.257   7.369 -1.9854 -1.0000  0.6913
 1927SOL    HW217418   1.382   3.208   7.228 -0.3261 -0.9684  1.9264
 1928SOL     OW17419   2.120   0.014   3.341 -0.2928 -0.2662 -0.2968
 1928SOL    HW117420   2.150   0.045   3.426 -1.3133 -2.5309  0.9069
 1928SOL    HW217421   2.061   4.684   3.375  1.1431 -1.6095 -0.4818
 1929SOL     OW17422   0.334   1.318   3.072  0.2617 -0.3845 -0.0952
 1929SOL    HW117423   0.365   1.337   2.983 -2.1744  1.6876 -0.5007
 1929SOL    HW217424   0.316   1.224   3.065  0.6946 -0.4435 -0.4234
 1930SOL     OW17425   3.625   1.405   5.913 -0.6152 -0.0069 -0.2065
 1930SOL    HW117426   3.619   1.499   5.893 -0.7273 -0.1466 -0.8339
 1930SOL    HW217427   3.581   1.374   5.834  0.7461  0.2032 -1.0500
 1931SOL     OW17428   4.110   2.059   7.194 -0.0783  0.1158 -0.0071
 1931SOL    HW117429   4.139   2.148   7.213 -2.3245  0.8857 -0.1428
 1931SOL    HW217430   4.180   2.011   7.237 -1.1110 -0.3684  1.1392
 1932SOL     OW17431   3.470   1.382   6.595  0.0818  0.1721 -0.4945
 1932SOL    HW117432   3.471   1.466   6.549  1.1907  1.2862  1.5946
 1932SOL    HW217433   3.380   1.350   6.600 -0.1075  0.5375 -1.5815
 1933SOL     OW17434   4.263   3.548   4.594 -0.0801  0.2915  0.5914
 1933SOL    HW117435   4.340   3.541   4.649  0.4355  0.3485 -0.1147
 1933SOL    HW217436   4.208   3.601   4.652  1.0684  1.9817  0.1375
 1934SOL     OW17437   1.327   3.172   8.329  0.4796  0.2069  0.1053
 1934SOL    HW117438   1.238   3.189   8.357 -1.1487 -1.5602 -3.9795
 1934SOL    HW217439   1.347   3.264   8.312 -1.8017  1.5229  4.6349
 1935SOL     OW17440   1.793   3.530   1.358 -0.1616 -0.0623 -0.0185
 1935SOL    HW117441   1.748   3.529   1.274  1.5028 -0.2908 -0.8995
 1935SOL    HW217442   1.881   3.566   1.349  0.3631 -1.8175 -1.8053
 1936SOL     OW17443   3.763   1.520   6.564 -0.0713 -0.1413 -0.0651
 1936SOL    HW117444   3.746   1.458   6.635  1.2539  0.6299  0.9309
 1936SOL    HW217445   3.773   1.459   6.491  3.6017  2.5010 -1.7357
 1937SOL     OW17446   0.298   1.248   8.593  0.0400 -0.1723 -0.4448
 1937SOL    HW117447   0.383   1.221   8.627 -1.2587  0.7311  3.4790
 1937SOL    HW217448   0.319   1.248   8.499 -0.3520 -0.7098 -0.5386
 1938SOL     OW17449   0.882   3.020  12.635 -0.0325  0.3367  0.5859
 1938SOL    HW117450   0.949   3.043  12.700  0.9867 -0.2311 -0.2689
 1938SOL    HW217451   0.932   2.947  12.599 -0.5328  0.9492 -1.3533
 1939SOL     OW17452   3.907   2.916  16.145 -0.2617  0.5744 -0.4063
 1939SOL    HW117453   3.892   2.955  16.232  1.7914 -0.1996  0.2898
 1939SOL    HW217454   3.977   2.969  16.106 -0.1068  0.5233 -0.1970
 1940SOL     OW17455   2.270   3.861   1.634  0.3210  0.0456 -0.3625
 1940SOL    HW117456   2.297   3.834   1.546  0.4024 -2.9348  0.5673
 1940SOL    HW217457   2.340   3.922   1.659  1.6063 -1.4485 -0.3497
 1941SOL     OW17458   3.253   2.083   5.498  0.3030 -0.2058 -0.0361
 1941SOL    HW117459   3.289   2.149   5.439 -0.5313 -0.9154 -1.3415
 1941SOL    HW217460   3.325   2.021   5.497  2.4623  2.3326 -3.6767
 1942SOL     OW17461   1.166   2.958  15.098  0.2995  0.1909 -0.4169
 1942SOL    HW117462   1.151   2.890  15.033  0.3697 -2.1480  2.0073
 1942SOL    HW217463   1.234   3.016  15.064 -0.1027  2.0810  1.9078
 1943SOL     OW17464   0.184   4.340  15.094 -0.4561 -0.6007  0.4981
 1943SOL    HW117465   0.146   4.305  15.012  1.0624  1.9678 -1.2890
 1943SOL    HW217466   0.253   4.393  15.055 -0.2060 -0.1657  1.5567
 1944SOL     OW17467   4.678   2.897   4.717 -0.5252  0.1836  0.0893
 1944SOL    HW117468   4.730   2.968   4.755 -1.2620  0.8951 -0.2234
 1944SOL    HW217469   4.605   2.883   4.777 -2.2024 -1.6661 -2.3547
 1945SOL     OW17470   2.696   3.600  10.659 -0.6235  0.1978  0.2345
 1945SOL    HW117471   2.661   3.512  10.649 -1.1058  0.1498  2.3540
 1945SOL    HW217472   2.758   3.607  10.586  1.8842 -1.0882  2.2540
 1946SOL     OW17473   0.186   0.129   6.194 -0.1292  0.1964  0.1342
 1946SOL    HW117474   0.200   0.074   6.117 -1.3246  1.3314 -0.9076
 1946SOL    HW217475   0.257   0.114   6.256 -0.6413 -0.4070  0.5883
 1947SOL     OW17476   4.377   1.470   8.582  0.2957 -0.7238  0.3400
 1947SOL    HW117477   4.320   1.514   8.518  0.7529 -0.1782  0.3150
 1947SOL    HW217478   4.393   1.389   8.533  0.8730  1.4346 -2.9953
 1948SOL     OW17479   3.051   1.059   3.773 -0.4554  0.1296  0.1901
 1948SOL    HW117480   3.102   1.073   3.694  1.3958 -0.0955  1.3340
 1948SOL    HW217481   2.964   1.044   3.737 -0.9456  2.1507  0.5750
 1949SOL     OW17482   2.604   2.983  14.888 -0.1086 -0.8431  0.1243
 1949SOL    HW117483   2.530   2.952  14.836 -0.2246  0.0274 -0.2334
 1949SOL    HW217484   2.564   2.969  14.974 -0.4132  0.0581  0.1325
 1950SOL     OW17485   3.451   0.205   7.894  0.0052  0.4543  0.3744
 1950SOL    HW117486   3.500   0.273   7.847 -2.9082  0.7771 -2.2205
 1950SOL    HW217487   3.365   0.246   7.902 -1.3825 -2.1087 -1.2374
 1951SOL     OW17488   1.299   4.167   7.181 -0.0202  0.7736  0.3324
 1951SOL    HW117489   1.305   4.096   7.117 -0.4604  1.7425 -0.7752
 1951SOL    HW217490   1.350   4.140   7.257 -0.6509 -0.5666  0.2884
 1952SOL     OW17491   4.246   0.496   3.668  0.5276 -0.4806  0.0229
 1952SOL    HW117492   4.167   0.458   3.629 -0.5986  2.8386 -0.9028
 1952SOL    HW217493   4.204   0.572   3.708 -1.1904 -1.0083 -0.7567
 1953SOL     OW17494   3.305   2.418  16.848 -0.1209  0.6959  0.3988
 1953SOL    HW117495   3.237   2.418  16.916  1.3254  0.8553  1.8354
 1953SOL    HW217496   3.252   2.458  16.779  2.3621 -1.8421 -2.9563
 1954SOL     OW17497   0.009   2.530  15.445  0.1308 -0.0879 -0.5067
 1954SOL    HW117498   0.053   2.615  15.440  1.2440 -0.5153  2.2366
 1954SOL    HW217499   4.657   2.553  15.467  0.9978  1.5936  1.3269
 1955SOL     OW17500   3.266   0.012   8.182 -0.0983 -0.4207  0.2643
 1955SOL    HW117501   3.345   4.736   8.130 -0.1515  1.1172 -0.2018
 1955SOL    HW217502   3.218   4.670   8.161  0.1736 -0.7358  0.8453
 1956SOL     OW17503   1.740   0.402  17.513 -0.6755  0.4845 -0.2097
 1956SOL    HW117504   1.805   0.457  17.469  0.9208 -0.1089  1.3769
 1956SOL    HW217505   1.775   0.315  17.491  0.6042  0.2843  2.5714
 1957SOL     OW17506   1.741   1.550   5.177 -0.9411 -0.5780  0.1048
 1957SOL    HW117507   1.808   1.554   5.246 -0.6730 -0.5548 -0.1593
 1957SOL    HW217508   1.738   1.457   5.155 -0.3171 -1.4336  3.4892
 1958SOL     OW17509   1.616   3.877  10.978 -0.5743 -0.0413  0.0285
 1958SOL    HW117510   1.600   3.820  10.903  0.1879 -1.6495  1.0714
 1958SOL    HW217511   1.617   3.825  11.059 -2.0543 -0.9295 -0.5419
 1959SOL     OW17512   1.308   2.016  12.424 -0.1595  0.1091 -0.3584
 1959SOL    HW117513   1.215   2.012  12.399 -0.0970  2.7361 -0.9865
 1959SOL    HW217514   1.350   1.994  12.341 -1.1014 -0.8521 -0.5775
 1960SOL     OW17515   3.892   4.701   0.123  0.1394 -0.1871 -0.1345
 1960SOL    HW117516   3.839   4.672   0.197  2.1126  0.1094  1.3990
 1960SOL    HW217517   3.982   4.710   0.152 -0.0020 -0.4806  0.3869
 1961SOL     OW17518   2.714   2.506   4.514  0.4664 -0.2201 -0.3538
 1961SOL    HW117519   2.671   2.545   4.438  2.2677  2.1866 -0.1391
 1961SOL    HW217520   2.765   2.581   4.546 -2.9233  1.5828  0.9168
 1962SOL     OW17521   3.909   4.594   2.089 -0.3174 -0.2858 -0.2704
 1962SOL    HW117522   3.921   4.627   1.999 -0.8849 -1.3517 -0.7400
 1962SOL    HW217523   3.826   4.549   2.075 -0.5308  0.0578 -0.0898
 1963SOL     OW17524   2.106   1.984  13.558 -0.3420 -0.2300  0.1594
 1963SOL    HW117525   2.079   2.073  13.579 -2.7019 -0.6765 -1.0197
 1963SOL    HW217526   2.099   1.976  13.463  0.1137  2.4449 -0.1048
 1964SOL     OW17527   4.364   1.535   6.991  0.2018  0.3179 -0.1507
 1964SOL    HW117528   4.310   1.612   6.971  2.4706  1.9740  0.1692
 1964SOL    HW217529   4.334   1.470   6.927 -2.0669  0.8583  0.3456
 1965SOL     OW17530   1.269   0.382   5.948  0.0324  0.1471  0.3798
 1965SOL    HW117531   1.186   0.337   5.963  0.2254 -0.5213 -0.5304
 1965SOL    HW217532   1.316   0.377   6.030  1.8271  0.8295 -0.5990
 1966SOL     OW17533   4.389   1.797  13.605  0.0034  0.0842 -0.2664
 1966SOL    HW117534   4.420   1.719  13.559 -2.9671 -0.2278 -1.7950
 1966SOL    HW217535   4.358   1.749  13.682  1.2695 -0.2838  0.0144
 1967SOL     OW17536   0.804   0.368   5.190 -0.1221  0.2254 -0.2652
 1967SOL    HW117537   0.720   0.326   5.167 -0.1836  0.0033  0.3676
 1967SOL    HW217538   0.827   0.328   5.274 -0.7450 -0.6629 -0.5122
 1968SOL     OW17539   3.931   2.655   2.587  0.2116  0.0304  0.6332
 1968SOL    HW117540   3.965   2.581   2.536  0.5834 -0.5008  1.6463
 1968SOL    HW217541   4.007   2.706   2.616  1.3757 -1.0206 -0.5602
 1969SOL     OW17542   2.937   1.530   5.580 -0.0864  0.2878 -0.0168
 1969SOL    HW117543   2.846   1.530   5.609 -0.0020 -1.4911  0.2795
 1969SOL    HW217544   2.942   1.617   5.541  1.9836  0.0464 -0.3042
 1970SOL     OW17545   3.285   3.494   7.784  0.0914 -0.1450  0.3444
 1970SOL    HW117546   3.257   3.537   7.703  0.5803  3.4539  2.0734
 1970SOL    HW217547   3.263   3.403   7.764  2.5463  0.3241 -4.5266
 1971SOL     OW17548   0.094   1.417   3.708 -0.1908  1.3481  0.0217
 1971SOL    HW117549   0.163   1.356   3.683 -0.0375  1.2845  0.6085
 1971SOL    HW217550   0.084   1.398   3.801  0.5634 -2.4427 -0.6921
 1972SOL     OW17551   3.861   3.578   6.668 -0.1331  0.6545 -0.2796
 1972SOL    HW117552   3.948   3.584   6.707  0.7187 -1.1920 -1.8619
 1972SOL    HW217553   3.805   3.590   6.745 -1.0207 -1.1238 -0.6182
 1973SOL     OW17554   1.614   3.425  11.277 -0.1115  0.2042 -0.2820
 1973SOL    HW117555   1.694   3.389  11.239 -1.3611  0.0754 -2.8040
 1973SOL    HW217556   1.595   3.359  11.343 -1.3777 -1.0112 -1.8718
 1974SOL     OW17557   4.486   3.731   3.203  0.2762  0.3472  0.8721
 1974SOL    HW117558   4.533   3.769   3.129  0.1500  0.3068  0.7711
 1974SOL    HW217559   4.542   3.768   3.272 -0.2831  0.6071  1.1903
 1975SOL     OW17560   4.729   4.100   4.464  0.2158 -0.3570 -0.0528
 1975SOL    HW117561   4.679   4.021   4.482  0.5014 -1.0412 -2.2626
 1975SOL    HW217562   0.043   4.073   4.388  0.7649 -2.7150  1.1581
 1976SOL     OW17563   2.335   0.098   9.363 -0.4403 -0.3528 -0.6102
 1976SOL    HW117564   2.282   0.061   9.435  0.4860 -1.0586 -0.2994
 1976SOL    HW217565   2.277   0.158   9.315  0.0447 -1.0369 -2.0497
 1977SOL     OW17566   0.473   3.470   6.155  0.2717  0.1906 -0.5101
 1977SOL    HW117567   0.501   3.538   6.216 -2.3663  2.1878 -1.5594
 1977SOL    HW217568   0.454   3.525   6.080 -0.7189 -0.6267 -0.8594
 1978SOL     OW17569   4.051   3.850  17.655 -0.8606 -0.0824  0.3006
 1978SOL    HW117570   4.062   3.786  17.726 -2.3173  1.2947  1.7768
 1978SOL    HW217571   4.004   3.919  17.703 -0.1426  0.1909  0.6173
 1979SOL     OW17572   1.639   0.129   2.282 -0.4883  0.6679  0.2411
 1979SOL    HW117573   1.667   0.165   2.366  0.6638  0.9523 -0.2708
 1979SOL    HW217574   1.719   0.137   2.230 -0.7228 -0.9718 -0.3640
 1980SOL     OW17575   3.227   3.354   3.837  0.5457 -0.1647  0.3476
 1980SOL    HW117576   3.302   3.411   3.854  0.1078  1.4085 -2.9113
 1980SOL    HW217577   3.182   3.407   3.771 -0.3828 -0.1000  1.0381
 1981SOL     OW17578   0.983   4.172  12.910  0.6563 -0.9713  0.5671
 1981SOL    HW117579   0.937   4.230  12.971  0.4342 -1.1237  0.5444
 1981SOL    HW217580   0.916   4.154  12.843  1.3886 -2.0914  0.1389
 1982SOL     OW17581   4.321   2.807   8.057 -0.3130 -0.0686 -0.5527
 1982SOL    HW117582   4.276   2.856   7.987 -1.8904  0.7297  1.0144
 1982SOL    HW217583   4.359   2.872   8.115 -0.6711  0.1321 -0.5399
 1983SOL     OW17584   0.330   3.931   7.215 -0.2273  0.2474  0.3195
 1983SOL    HW117585   0.363   3.942   7.126 -1.3563 -0.3293 -0.1690
 1983SOL    HW217586   0.349   3.839   7.230 -0.0398  0.2165 -0.1182
 1984SOL     OW17587   4.549   3.399   8.281 -0.1836 -0.0174 -0.1904
 1984SOL    HW117588   4.558   3.304   8.272 -1.7485 -0.1353 -0.3961
 1984SOL    HW217589   4.462   3.414   8.318 -0.1251 -2.4029  0.9480
 1985SOL     OW17590   3.149   4.716   3.452 -0.3244  0.4050  0.1011
 1985SOL    HW117591   3.177   4.653   3.518 -3.6421 -1.2096 -0.0198
 1985SOL    HW217592   3.231   4.724   3.402 -1.6566 -1.5432 -2.4050
 1986SOL     OW17593   0.649   1.993   3.143  0.3672 -0.2049 -0.6437
 1986SOL    HW117594   0.669   2.077   3.102  2.1175 -0.9269 -1.2486
 1986SOL    HW217595   0.706   1.989   3.220 -0.3960  0.5205 -0.0350
 1987SOL     OW17596   0.559   2.841  12.435 -0.3263 -0.1866  0.0785
 1987SOL    HW117597   0.542   2.848  12.529 -0.6391 -0.7107  0.0569
 1987SOL    HW217598   0.482   2.883  12.398  0.1190  0.3288 -0.2734
 1988SOL     OW17599   4.507   1.668   3.353 -0.3143  0.0075 -0.3176
 1988SOL    HW117600   4.482   1.581   3.323 -0.9636  0.6028 -1.5268
 1988SOL    HW217601   4.590   1.657   3.399 -0.3419 -1.2498 -0.5757
 1989SOL     OW17602   3.105   1.330   2.922  0.0769  0.3944  0.1158
 1989SOL    HW117603   3.073   1.312   2.834  1.3704  4.7659 -1.2569
 1989SOL    HW217604   3.118   1.425   2.914  1.5215  0.1259 -0.6854
 1990SOL     OW17605   3.856   4.488   6.497 -0.5115 -0.2630  0.0190
 1990SOL    HW117606   3.773   4.443   6.510  0.3527 -2.1406 -0.9358
 1990SOL    HW217607   3.898   4.441   6.424  1.5946  2.0667 -0.3105
 1991SOL     OW17608   3.938   3.161   6.866 -0.4037  0.3234 -0.2836
 1991SOL    HW117609   3.961   3.194   6.780  1.6603  1.7567  0.8117
 1991SOL    HW217610   3.912   3.234   6.923  0.1234 -1.4575  2.2807
 1992SOL     OW17611   0.941   0.983   5.952  0.2209 -0.3357  0.7169
 1992SOL    HW117612   0.963   1.068   5.915  0.3935 -1.2148 -1.1667
 1992SOL    HW217613   0.866   0.964   5.896  0.9164  1.5970 -0.8392
 1993SOL     OW17614   3.472   3.512   3.708 -0.4149 -0.2267 -0.3506
 1993SOL    HW117615   3.567   3.512   3.718 -0.1907 -0.1796 -2.4537
 1993SOL    HW217616   3.462   3.453   3.633  0.4008  0.4303 -0.9666
 1994SOL     OW17617   0.758   2.277   1.797 -0.4657  0.0349 -0.0848
 1994SOL    HW117618   0.834   2.253   1.850 -0.0255 -0.1294 -0.7919
 1994SOL    HW217619   0.732   2.352   1.850 -1.2475  0.4851 -1.1100
 1995SOL     OW17620   2.229   2.906   9.593  0.1776  0.3756 -1.0311
 1995SOL    HW117621   2.274   2.954   9.524  0.2500  1.0944 -0.4745
 1995SOL    HW217622   2.244   2.968   9.663  0.1122  0.6704 -1.2778
 1996SOL     OW17623   1.818   0.673   3.653 -0.4987 -0.3622 -0.1305
 1996SOL    HW117624   1.761   0.610   3.697 -1.2266 -0.6324 -1.4397
 1996SOL    HW217625   1.751   0.738   3.630 -1.8129 -0.5645  3.0970
 1997SOL     OW17626   0.293   0.650   1.780  0.0265  0.3672  0.6383
 1997SOL    HW117627   0.249   0.734   1.767 -3.4788 -1.6705 -0.7314
 1997SOL    HW217628   0.374   0.689   1.812  2.4882 -2.2025 -2.4926
 1998SOL     OW17629   1.844   0.294   8.426 -0.4178  0.1433 -0.3395
 1998SOL    HW117630   1.789   0.322   8.353 -0.3519 -0.2709 -0.5519
 1998SOL    HW217631   1.782   0.249   8.483  1.4330 -0.5783  1.1189
 1999SOL     OW17632   1.556   3.958   7.185  0.5985  0.2877  0.1101
 1999SOL    HW117633   1.484   3.949   7.123 -0.0182  1.0929  0.7111
 1999SOL    HW217634   1.532   4.046   7.215 -1.3794 -1.1946  2.8823
 2000SOL     OW17635   2.269   0.459   8.350  0.3927  0.2438 -0.1237
 2000SOL    HW117636   2.258   0.434   8.258 -1.5908  0.0818  0.1730
 2000SOL    HW217637   2.321   0.539   8.342  1.0783 -0.0460  1.5311
 2001SOL     OW17638   4.084   2.366  14.784 -0.1928 -0.5322 -0.9222
 2001SOL    HW117639   4.098   2.405  14.698  1.0577  0.1290 -0.4228
 2001SOL    HW217640   4.162   2.310  14.791  1.0909  1.4925  0.9986
 2002SOL     OW17641   3.274   2.883   0.980  0.2464  0.5286  0.2999
 2002SOL    HW117642   3.254   2.801   1.026  1.8060 -0.5614 -0.9812
 2002SOL    HW217643   3.204   2.942   1.007 -0.1729  1.6147 -3.1806
 2003SOL     OW17644   2.803   2.988  12.543  0.2805 -0.0394  0.2355
 2003SOL    HW117645   2.770   3.065  12.590 -1.2440 -0.2136 -0.5425
 2003SOL    HW217646   2.761   2.919  12.594  0.5166 -1.4501 -1.5058
 2004SOL     OW17647   2.627   0.942   3.957 -0.1701 -0.4867 -0.6578
 2004SOL    HW117648   2.678   1.008   3.911 -1.2838  2.3116  2.1683
 2004SOL    HW217649   2.556   0.927   3.895  0.0152 -0.7508 -0.8034
 2005SOL     OW17650   1.857   3.857   2.552  0.5207 -0.4064  0.6521
 2005SOL    HW117651   1.807   3.777   2.570  0.1170 -0.3697 -0.2955
 2005SOL    HW217652   1.871   3.842   2.458  2.8871  2.2237  0.5914
 2006SOL     OW17653   1.790   0.749   4.060  0.0733  0.7028  0.4143
 2006SOL    HW117654   1.766   0.745   3.967 -1.1975  0.0360  0.7659
 2006SOL    HW217655   1.752   0.668   4.095 -0.2791  1.0219  0.7659
 2007SOL     OW17656   2.807   2.520   7.953 -0.0370  0.0317  0.2973
 2007SOL    HW117657   2.771   2.604   7.924 -1.3950 -1.0360 -1.1086
 2007SOL    HW217658   2.896   2.516   7.917 -0.3068 -1.4971 -0.1791
 2008SOL     OW17659   2.837   3.959  10.082 -0.7542  0.3788 -0.4093
 2008SOL    HW117660   2.809   3.897  10.149 -2.2339 -0.9824 -2.2835
 2008SOL    HW217661   2.847   3.906  10.002  2.5197  1.0668 -0.4541
 2009SOL     OW17662   0.590   1.793  15.295 -0.2659  0.3266 -0.3919
 2009SOL    HW117663   0.521   1.859  15.299 -0.6377  0.1165 -3.0819
 2009SOL    HW217664   0.537   1.716  15.274 -0.7481  0.3184  0.9022
 2010SOL     OW17665   1.276   2.927   8.259  0.5259 -0.1907  0.7012
 2010SOL    HW117666   1.299   2.887   8.343  2.8177 -1.4917 -0.5119
 2010SOL    HW217667   1.295   3.020   8.272  0.6475 -0.0046 -0.8646
 2011SOL     OW17668   3.427   2.636  11.885 -0.0840  0.2370  0.0841
 2011SOL    HW117669   3.482   2.685  11.946 -0.1524 -1.7351  1.7431
 2011SOL    HW217670   3.350   2.613  11.937 -0.4391  0.8774 -0.1576
 2012SOL     OW17671   2.160   3.981  15.220 -0.2886  0.2548 -0.2711
 2012SOL    HW117672   2.104   4.055  15.245 -1.5630 -1.0427  0.7162
 2012SOL    HW217673   2.247   4.020  15.210 -0.5929  0.6810 -1.2987
 2013SOL     OW17674   3.330   1.332   3.602  0.2908  0.4309  0.2461
 2013SOL    HW117675   3.285   1.335   3.687  1.2351 -0.4935  0.7719
 2013SOL    HW217676   3.277   1.266   3.559  1.1024 -0.0271 -0.0479
 2014SOL     OW17677   3.737   3.338   2.513 -0.1704 -0.0986 -0.0972
 2014SOL    HW117678   3.782   3.422   2.518 -1.2047  0.3321  2.1476
 2014SOL    HW217679   3.690   3.344   2.596 -0.9465  4.6480 -0.8791
 2015SOL     OW17680   1.232   1.396   3.899 -0.1300  0.6274 -0.5218
 2015SOL    HW117681   1.301   1.462   3.891 -0.5490  1.4922  2.9482
 2015SOL    HW217682   1.272   1.318   3.859 -1.3402  0.6508 -1.7545
 2016SOL     OW17683   1.385   0.533   2.775  0.0309  0.1674  0.0758
 2016SOL    HW117684   1.296   0.500   2.786 -0.0114  0.5224  0.8267
 2016SOL    HW217685   1.385   0.564   2.685 -0.9205  0.1359  0.0659
 2017SOL     OW17686   2.838   2.523  17.564 -0.0189  0.2660 -0.1648
 2017SOL    HW117687   2.892   2.530  17.485 -0.6235  1.7774 -0.4416
 2017SOL    HW217688   2.827   2.616  17.584  0.8334  0.3676 -0.1504
 2018SOL     OW17689   3.539   1.341   9.396  0.3907 -0.3574  0.2146
 2018SOL    HW117690   3.634   1.348   9.387 -0.0030  1.2237 -2.5845
 2018SOL    HW217691   3.534   1.317   9.489  1.4499  0.4154  0.4617
 2019SOL     OW17692   1.407   3.860   2.245 -0.0985 -0.4773 -0.0474
 2019SOL    HW117693   1.412   3.910   2.326  0.6422  1.5102 -1.3190
 2019SOL    HW217694   1.323   3.891   2.213  0.0738  0.6169  0.5558
 2020SOL     OW17695   3.014   0.038   2.631  0.5006 -0.1424  0.5488
 2020SOL    HW117696   2.940   4.730   2.670  1.6441 -0.3634  2.4690
 2020SOL    HW217697   2.969   0.100   2.575 -1.4102 -2.0627 -0.0373
 2021SOL     OW17698   0.440   4.474   0.497  0.4680  0.0444  0.1885
 2021SOL    HW117699   0.522   4.433   0.524  0.0677  0.3511  1.8518
 2021SOL    HW217700   0.460   4.518   0.414 -0.7331 -0.8339 -0.5757
 2022SOL     OW17701   2.327   3.773   3.361 -0.1542  0.2199 -0.5733
 2022SOL    HW117702   2.362   3.809   3.443  0.7169 -0.8876 -0.4571
 2022SOL    HW217703   2.384   3.698   3.347  0.9030  0.9612 -0.2255
 2023SOL     OW17704   0.791   3.981   7.465 -0.1369 -0.6281 -0.3891
 2023SOL    HW117705   0.885   3.988   7.454 -0.0974  0.2977  0.4796
 2023SOL    HW217706   0.769   4.056   7.410  1.5312  0.0495 -0.1106
 2024SOL     OW17707   0.567   1.369   7.378  0.1027  0.0440 -0.5763
 2024SOL    HW117708   0.616   1.386   7.297  1.0537  0.4975  0.0841
 2024SOL    HW217709   0.506   1.443   7.376 -1.1069 -0.8888  2.3353
 2025SOL     OW17710   0.013   3.668   2.666 -0.5626  0.2443  0.4742
 2025SOL    HW117711   4.678   3.724   2.694 -1.8928 -1.0195 -0.4326
 2025SOL    HW217712   0.074   3.740   2.649  0.6810 -1.0061 -0.2914
 2026SOL     OW17713   0.845   4.116   6.781  0.4748  0.1270  0.0787
 2026SOL    HW117714   0.887   4.031   6.794  2.3972  1.2751  1.3502
 2026SOL    HW217715   0.822   4.133   6.872 -3.1761  2.7579 -1.3470
 2027SOL     OW17716   4.111   3.198  15.686  0.1568 -0.0657  0.0390
 2027SOL    HW117717   4.105   3.116  15.637 -0.5044  1.2755 -2.0897
 2027SOL    HW217718   4.018   3.193  15.706  0.3869 -2.4538  0.4946
 2028SOL     OW17719   4.683   4.678   5.903  0.4772  0.2887 -0.7373
 2028SOL    HW117720   4.639   4.660   5.820  0.1401 -0.1388 -0.4635
 2028SOL    HW217721   0.025   4.630   5.879  0.7599  2.2553 -3.7102
 2029SOL     OW17722   0.077   4.672   9.018  0.1566  0.2258 -0.4460
 2029SOL    HW117723   4.733   4.628   9.042  0.5816 -0.2776  0.0675
 2029SOL    HW217724   0.087   4.656   8.924  1.0582 -0.5829 -0.2163
 2030SOL     OW17725   4.707   2.517   7.299  0.2411  0.7458  0.2866
 2030SOL    HW117726   0.033   2.536   7.368  1.0853 -0.4504 -0.1670
 2030SOL    HW217727   4.646   2.591   7.305 -0.7587 -0.0432 -0.0482
 2031SOL     OW17728   2.640   3.386   6.397  0.3894 -0.4890 -0.0832
 2031SOL    HW117729   2.572   3.327   6.430 -0.1497  0.6973  0.9058
 2031SOL    HW217730   2.669   3.426   6.478 -1.8936  0.4421  0.2840
 2032SOL     OW17731   2.152   2.719   5.468 -0.1960  0.0784  0.0952
 2032SOL    HW117732   2.166   2.767   5.386 -1.1801  0.3124  0.0600
 2032SOL    HW217733   2.227   2.661   5.479  0.4983  0.8471 -0.5953
 2033SOL     OW17734   2.284   4.484   6.584  0.3141  0.2353 -0.1209
 2033SOL    HW117735   2.255   4.575   6.590 -0.6995 -0.2021  1.5811
 2033SOL    HW217736   2.379   4.494   6.579  0.5586 -1.6332  0.4904
 2034SOL     OW17737   2.350   1.083  12.643  0.3982 -0.2775  0.0221
 2034SOL    HW117738   2.412   1.148  12.675 -1.3345  0.6726  1.4297
 2034SOL    HW217739   2.353   1.020  12.715  1.0509 -0.9100 -0.5569
 2035SOL     OW17740   3.462   1.444  13.859  0.2002 -0.3303  0.2952
 2035SOL    HW117741   3.517   1.425  13.935 -0.8526 -0.0305  1.1405
 2035SOL    HW217742   3.459   1.539  13.846  1.2660 -0.4684 -0.9317
 2036SOL     OW17743   0.308   2.147  11.107 -0.4599 -0.5168  0.1414
 2036SOL    HW117744   0.233   2.206  11.111 -1.2522 -1.6701  2.2991
 2036SOL    HW217745   0.354   2.171  11.188 -0.7000  2.2119 -0.5229
 2037SOL     OW17746   2.284   3.867  10.677 -0.2924 -0.1180 -0.2009
 2037SOL    HW117747   2.366   3.865  10.727  0.9805 -0.2587 -2.2931
 2037SOL    HW217748   2.280   3.955  10.639  0.2212 -0.3942 -0.8967
 2038SOL     OW17749   0.690   3.510   2.136  0.8188  0.0579  0.0787
 2038SOL    HW117750   0.645   3.455   2.199 -0.8904  0.6281 -0.6489
 2038SOL    HW217751   0.760   3.555   2.184  0.4992  2.9492 -2.1445
 2039SOL     OW17752   0.438   1.107   5.529 -0.6291 -0.1283  0.2985
 2039SOL    HW117753   0.427   1.172   5.599 -0.5322 -2.0423  2.0931
 2039SOL    HW217754   0.356   1.058   5.535 -1.9748  1.9339 -1.1532
 2040SOL     OW17755   4.612   1.498   9.474  0.0470 -0.9473 -0.5452
 2040SOL    HW117756   4.577   1.587   9.468 -0.1940 -1.1819 -2.6593
 2040SOL    HW217757   4.556   1.450   9.413 -0.8599 -0.0038 -0.4504
 2041SOL     OW17758   3.505   4.394   8.471  0.5550 -0.2448  0.0903
 2041SOL    HW117759   3.501   4.312   8.520  0.5410  0.0575  0.6048
 2041SOL    HW217760   3.478   4.366   8.384  1.7165 -0.5955 -0.1634
 2042SOL     OW17761   0.200   2.409  13.980  0.3094  0.0158  0.0444
 2042SOL    HW117762   0.263   2.408  13.908 -0.7099  1.6265 -0.8532
 2042SOL    HW217763   0.176   2.317  13.995 -0.1088  0.3476  1.4221
 2043SOL     OW17764   3.268   4.552  12.872  0.5327 -0.0105 -0.4576
 2043SOL    HW117765   3.241   4.644  12.878 -0.1419 -0.2774  0.6620
 2043SOL    HW217766   3.195   4.510  12.917  0.8534  1.0999  1.0882
 2044SOL     OW17767   0.772   1.869  17.211 -0.2311  0.5071 -0.0278
 2044SOL    HW117768   0.787   1.907  17.298 -1.5617 -1.2911  0.9725
 2044SOL    HW217769   0.851   1.891  17.161  0.3980  0.3880  0.9164
 2045SOL     OW17770   0.233   3.421   4.050 -0.0955  0.0513 -0.4787
 2045SOL    HW117771   0.218   3.417   3.955 -1.3799 -0.9255 -0.2404
 2045SOL    HW217772   0.268   3.509   4.059 -0.2792  0.4820 -3.8921
 2046SOL     OW17773   4.622   4.103  15.031  0.4567 -0.6352  0.4390
 2046SOL    HW117774   4.554   4.144  14.977 -0.6803 -0.0492  2.3530
 2046SOL    HW217775   4.569   4.054  15.093  0.7103 -0.8570  0.4831
 2047SOL     OW17776   1.523   0.152   9.854 -0.1082 -0.2357  0.4098
 2047SOL    HW117777   1.608   0.160   9.897  0.8917 -2.5660 -1.2069
 2047SOL    HW217778   1.540   0.182   9.765 -1.5361 -0.9472 -0.1165
 2048SOL     OW17779   3.784   0.643   8.489  0.2836  0.5741  0.3276
 2048SOL    HW117780   3.752   0.561   8.527 -1.0320  0.2810 -1.4097
 2048SOL    HW217781   3.745   0.642   8.402 -0.4838 -1.2595  0.6869
 2049SOL     OW17782   3.475   1.567  14.640 -0.1030 -0.6142  0.1431
 2049SOL    HW117783   3.389   1.548  14.677 -0.8654  1.0208 -0.7841
 2049SOL    HW217784   3.516   1.594  14.722  0.0297  0.9024 -0.4247
 2050SOL     OW17785   4.274   2.674   4.409  0.3946  0.4937  0.2394
 2050SOL    HW117786   4.347   2.731   4.433 -0.0448  2.4739 -3.0033
 2050SOL    HW217787   4.207   2.732   4.445 -0.3730  1.5699 -2.8849
 2051SOL     OW17788   0.277   0.742  16.057 -0.5035 -0.2445  0.2856
 2051SOL    HW117789   0.287   0.691  15.977  0.3364  1.2223 -0.5506
 2051SOL    HW217790   0.221   0.682  16.106 -0.0650 -1.1719 -0.3515
 2052SOL     OW17791   2.954   4.019   9.309 -0.3528  0.0257  0.0109
 2052SOL    HW117792   2.948   3.945   9.248 -0.1135 -0.9380  1.1568
 2052SOL    HW217793   3.047   4.037   9.298  0.0478 -0.8766  1.8720
 2053SOL     OW17794   0.300   0.808   4.315  0.4965 -0.3749  0.0592
 2053SOL    HW117795   0.237   0.790   4.384  0.3436  0.2457  0.0806
 2053SOL    HW217796   0.364   0.863   4.360 -1.7680  1.8535  0.5118
 2054SOL     OW17797   1.215   0.901   8.390 -0.4517 -0.1305  0.1710
 2054SOL    HW117798   1.130   0.937   8.361 -1.1341 -2.0279 -0.1973
 2054SOL    HW217799   1.208   0.808   8.367  1.5931 -0.3829  0.6363
 2055SOL     OW17800   2.789   1.331   6.417 -0.6599  0.5017  0.0116
 2055SOL    HW117801   2.782   1.258   6.479  0.7187  1.2369  1.0198
 2055SOL    HW217802   2.698   1.361   6.414 -1.3734 -1.7019 -0.4272
 2056SOL     OW17803   4.292   3.152   4.303 -0.3893  0.4072 -0.1156
 2056SOL    HW117804   4.242   3.113   4.232  0.4624 -1.3295  0.2377
 2056SOL    HW217805   4.231   3.216   4.340 -3.2190 -2.3636 -0.0840
 2057SOL     OW17806   0.350   1.862   1.683  0.1484  0.5808  0.1072
 2057SOL    HW117807   0.363   1.952   1.652  2.0896  0.0998 -0.4918
 2057SOL    HW217808   0.255   1.861   1.673  0.3979 -1.3777 -2.0880
 2058SOL     OW17809   1.991   1.060   8.985  0.2147  0.5679  0.4576
 2058SOL    HW117810   2.056   1.130   8.982  3.1042 -2.1121 -0.6417
 2058SOL    HW217811   1.964   1.053   8.893 -1.2449 -0.6858  0.9924
 2059SOL     OW17812   2.996   2.591   4.931  0.1090  0.4935  0.1137
 2059SOL    HW117813   2.901   2.586   4.928  0.2001 -2.0897  1.7115
 2059SOL    HW217814   3.001   2.680   4.897 -0.4353 -0.8679 -3.5460
 2060SOL     OW17815   1.025   2.273   7.904  0.7112  0.6014 -0.4938
 2060SOL    HW117816   1.107   2.228   7.924  0.5855 -0.1133 -1.6208
 2060SOL    HW217817   1.009   2.227   7.822 -1.7292  1.6955 -0.6389
 2061SOL     OW17818   2.104   1.600   3.318  0.4005  0.6288 -0.2982
 2061SOL    HW117819   2.199   1.587   3.319  0.0575 -1.8636  0.8672
 2061SOL    HW217820   2.090   1.584   3.224  1.9685 -2.5195 -0.0187
 2062SOL     OW17821   3.915   1.164   7.380 -0.2002  0.4412 -0.3183
 2062SOL    HW117822   3.979   1.100   7.349 -0.7973  0.3295 -1.3231
 2062SOL    HW217823   3.839   1.109   7.395  0.6252 -0.6980 -0.3449
 2063SOL     OW17824   4.178   1.585   9.198  0.0840 -0.2511  0.1095
 2063SOL    HW117825   4.143   1.567   9.111  3.4312 -2.6788 -0.7615
 2063SOL    HW217826   4.134   1.516   9.246 -1.1974  0.5254  0.0484
 2064SOL     OW17827   3.518   1.328   4.895 -0.4469 -0.6035 -0.4205
 2064SOL    HW117828   3.598   1.301   4.941 -0.2807  1.1978  0.3453
 2064SOL    HW217829   3.466   1.358   4.969  0.5013 -1.3225  0.5333
 2065SOL     OW17830   0.219   3.201  10.296  0.0685  0.4395 -0.1180
 2065SOL    HW117831   0.133   3.177  10.329 -0.1952  3.7446  1.6146
 2065SOL    HW217832   0.267   3.211  10.379  0.5232  2.7997 -0.6764
 2066SOL     OW17833   2.445   0.859   7.100  0.2795  0.1300 -0.4404
 2066SOL    HW117834   2.352   0.881   7.105  0.6936  1.3290  1.6766
 2066SOL    HW217835   2.451   0.831   7.008 -1.5277  1.5197 -0.9822
 2067SOL     OW17836   4.403   3.329  12.016  0.4147 -0.7763  0.5351
 2067SOL    HW117837   4.457   3.377  12.079 -0.9252 -1.0109  1.8726
 2067SOL    HW217838   4.462   3.265  11.977 -1.4407 -0.7888 -2.2083
 2068SOL     OW17839   2.182   0.483   4.858 -0.7999 -0.0085  0.0913
 2068SOL    HW117840   2.149   0.566   4.891  0.2685  0.3017  0.3925
 2068SOL    HW217841   2.174   0.494   4.763 -1.7300 -1.3761  0.0052
 2069SOL     OW17842   0.447   2.367  12.082 -0.6058  0.2302 -0.1612
 2069SOL    HW117843   0.468   2.286  12.128  2.2767  2.0011  1.6735
 2069SOL    HW217844   0.531   2.406  12.058 -2.5391  3.5164 -1.6377
 2070SOL     OW17845   1.783   2.005   6.250 -0.0595  0.2509  0.2824
 2070SOL    HW117846   1.832   2.012   6.332  0.4493 -0.5210  0.0449
 2070SOL    HW217847   1.855   1.994   6.188  1.2197 -0.6941  1.9462
 2071SOL     OW17848   3.253   4.574   9.707  0.7497  0.0024  0.4713
 2071SOL    HW117849   3.338   4.564   9.749  1.1513  0.6579 -0.1784
 2071SOL    HW217850   3.197   4.542   9.777 -0.3941 -0.1806 -0.5218
 2072SOL     OW17851   1.277   0.266   9.904 -0.0005 -0.4494 -0.5991
 2072SOL    HW117852   1.345   0.207   9.871 -0.9153 -2.4177  1.0325
 2072SOL    HW217853   1.208   0.202   9.922 -1.0547  1.0603  0.7338
 2073SOL     OW17854   2.886   0.009  10.265 -0.0501 -0.3569  0.1018
 2073SOL    HW117855   2.935   4.715  10.189  1.0375  0.9949  0.2360
 2073SOL    HW217856   2.910   0.101  10.279  0.4919 -0.3640 -0.7541
 2074SOL     OW17857   3.751   1.728   1.181  0.7532  0.2857 -0.2865
 2074SOL    HW117858   3.783   1.807   1.136  2.3620 -0.0378  0.2899
 2074SOL    HW217859   3.765   1.754   1.272 -0.7488 -0.2322  0.0848
 2075SOL     OW17860   3.117   1.106  13.838 -0.2895  0.5704  0.6593
 2075SOL    HW117861   3.149   1.130  13.751  1.0219 -2.8421  0.2173
 2075SOL    HW217862   3.149   1.017  13.851 -0.8726  0.3920  0.8975
 2076SOL     OW17863   0.704   3.847   8.524 -0.0089  0.2187 -0.5287
 2076SOL    HW117864   0.767   3.881   8.461 -0.6941 -1.1870 -1.9695
 2076SOL    HW217865   0.639   3.815   8.461  0.9313  1.1290 -1.9320
 2077SOL     OW17866   4.378   4.722   2.124  0.0527 -0.0477 -0.1341
 2077SOL    HW117867   4.352   0.011   2.036  1.8055 -2.9806 -1.5406
 2077SOL    HW217868   4.311   4.665   2.163  1.0399 -0.0516  1.5467
 2078SOL     OW17869   1.263   3.155   6.211 -0.2708 -0.4120  0.1795
 2078SOL    HW117870   1.352   3.120   6.224 -0.5304 -1.7057 -1.4977
 2078SOL    HW217871   1.248   3.203   6.292 -0.6668  0.1385 -0.2245
 2079SOL     OW17872   0.876   2.528   8.742  0.1028  0.6852  0.3698
 2079SOL    HW117873   0.841   2.608   8.780  2.1354  1.6178  0.2277
 2079SOL    HW217874   0.837   2.524   8.654 -1.9713 -0.0214  1.3053
 2080SOL     OW17875   3.990   0.095   8.537  0.2887 -0.3826 -0.3000
 2080SOL    HW117876   4.082   0.120   8.542  0.3846 -0.5935 -1.0230
 2080SOL    HW217877   3.996   0.012   8.583 -2.8408  0.6624  2.0187
 2081SOL     OW17878   2.742   3.420   6.057 -0.2675  0.0521  0.0192
 2081SOL    HW117879   2.650   3.394   6.065 -0.1276 -0.8365 -1.2841
 2081SOL    HW217880   2.780   3.378   6.134 -0.7209  0.2449  0.3475
 2082SOL     OW17881   2.525   4.434  12.049 -0.5053 -0.4943 -0.0785
 2082SOL    HW117882   2.540   4.508  12.107 -0.8758 -0.5530  0.0931
 2082SOL    HW217883   2.442   4.400  12.083 -1.4484  2.1397  0.2293
 2083SOL     OW17884   1.527   3.270  17.580  0.1680  0.0503 -0.1999
 2083SOL    HW117885   1.598   3.206  17.583  2.0029  2.0855 -0.1437
 2083SOL    HW217886   1.509   3.292  17.671  2.6695 -2.2260  0.8504
 2084SOL     OW17887   4.644   0.366  14.717  0.1643 -0.1020  0.0625
 2084SOL    HW117888   4.721   0.416  14.742 -0.0255  0.0849  0.2844
 2084SOL    HW217889   4.677   0.335  14.633 -0.9336 -3.9801  1.0621
 2085SOL     OW17890   3.677   1.372   9.000  0.2353 -0.3797  0.2598
 2085SOL    HW117891   3.721   1.445   9.045  0.2819 -0.4230  0.2846
 2085SOL    HW217892   3.597   1.411   8.965  1.1792  0.6901 -0.7181
 2086SOL     OW17893   1.671   2.134   5.776 -0.2994 -0.3157  0.0559
 2086SOL    HW117894   1.600   2.114   5.715 -0.0444  1.4998 -0.8275
 2086SOL    HW217895   1.697   2.044   5.796 -0.0409  0.2168  2.1713
 2087SOL     OW17896   3.873   4.308  11.439 -0.1942  1.0427  0.0214
 2087SOL    HW117897   3.785   4.273  11.428  0.5556 -1.0403  0.6590
 2087SOL    HW217898   3.877   4.329  11.532  0.5077  1.2111 -0.0468
 2088SOL     OW17899   3.830   3.142   7.401 -0.7289 -0.1319 -0.7033
 2088SOL    HW117900   3.741   3.139   7.438 -0.8492 -0.1558 -0.9918
 2088SOL    HW217901   3.816   3.195   7.323 -1.9250 -1.3196 -1.3056
 2089SOL     OW17902   1.969   0.994  15.173 -0.3143 -0.2728 -0.3830
 2089SOL    HW117903   2.047   0.940  15.166  1.0121  1.6161 -0.0500
 2089SOL    HW217904   2.003   1.084  15.177  0.2266 -0.5270  0.7901
 2090SOL     OW17905   1.304   0.610   8.642  1.1361 -0.1677 -0.1293
 2090SOL    HW117906   1.255   0.641   8.565 -0.1781  1.4352  1.3686
 2090SOL    HW217907   1.394   0.638   8.623  0.6267  0.9012 -0.9985
 2091SOL     OW17908   1.352   1.470   4.805 -0.0542 -0.0411 -0.1441
 2091SOL    HW117909   1.401   1.551   4.788  0.8234 -0.4340  0.5735
 2091SOL    HW217910   1.284   1.478   4.738 -0.0637  2.6229  0.1561
 2092SOL     OW17911   1.180   2.197  15.782  0.3013 -0.3074 -0.0316
 2092SOL    HW117912   1.121   2.130  15.817  0.1258  1.3616  2.7748
 2092SOL    HW217913   1.123   2.229  15.712 -1.5570 -3.4614  0.0294
 2093SOL     OW17914   4.558   0.128   7.846 -0.7519 -0.1167 -0.0038
 2093SOL    HW117915   4.490   0.092   7.902 -1.5695  1.3895 -0.0454
 2093SOL    HW217916   4.501   0.147   7.772 -1.2596 -1.9214 -0.0850
 2094SOL     OW17917   1.182   1.880  13.898 -0.0747  0.5052 -0.2740
 2094SOL    HW117918   1.168   1.893  13.804  2.1861  0.4163 -0.6234
 2094SOL    HW217919   1.098   1.838  13.919 -0.0073  2.1318  3.1879
 2095SOL     OW17920   1.088   3.345   2.291 -0.2715 -0.1448  0.2193
 2095SOL    HW117921   1.094   3.283   2.218 -1.3109  1.3318 -1.1353
 2095SOL    HW217922   1.168   3.396   2.278 -0.2240 -0.3601 -0.3359
 2096SOL     OW17923   0.930   4.653   3.324  0.4902  0.0711 -0.3506
 2096SOL    HW117924   0.938   4.614   3.237  0.0023 -0.1193 -0.3137
 2096SOL    HW217925   0.842   4.619   3.340  1.2093 -1.2774  0.7857
 2097SOL     OW17926   1.740   0.519  12.939  0.0310  0.0653 -0.3583
 2097SOL    HW117927   1.768   0.592  12.884 -1.8864  1.0481 -0.0322
 2097SOL    HW217928   1.761   0.542  13.030 -2.5935 -0.2150  0.3201
 2098SOL     OW17929   3.600   2.198   1.990  0.1374 -0.5388 -0.5891
 2098SOL    HW117930   3.626   2.159   2.074 -1.5122 -0.0224  0.1561
 2098SOL    HW217931   3.675   2.170   1.938  0.6321 -1.3631  0.5605
 2099SOL     OW17932   3.372   1.496  16.682 -0.6063 -0.2299  0.0682
 2099SOL    HW117933   3.408   1.582  16.662  1.0070 -1.1253 -0.8825
 2099SOL    HW217934   3.348   1.497  16.775 -1.1630  2.1674 -0.1023
 2100SOL     OW17935   3.038   2.061   7.416 -0.2261 -0.3908  0.2539
 2100SOL    HW117936   3.060   2.137   7.470  0.8224  0.1409 -0.8952
 2100SOL    HW217937   3.130   2.052   7.390  0.0921  1.3634  0.7726
 2101SOL     OW17938   1.336   1.266   6.653  0.1422  0.5168  0.3137
 2101SOL    HW117939   1.305   1.350   6.618 -0.4100 -0.2470 -1.0339
 2101SOL    HW217940   1.282   1.209   6.599  3.5141 -0.5710 -1.9360
 2102SOL     OW17941   4.157   1.278   7.058 -0.3134  0.1431  0.3830
 2102SOL    HW117942   4.163   1.340   7.130  1.0678  1.6124 -0.9979
 2102SOL    HW217943   4.071   1.244   7.082 -0.1338  1.1602  2.4914
 2103SOL     OW17944   3.147   4.349   3.228  0.3930 -0.0094 -0.7591
 2103SOL    HW117945   3.213   4.356   3.297 -0.7366  0.7708  0.2593
 2103SOL    HW217946   3.116   4.440   3.231  0.5529  0.0223 -0.0506
 2104SOL     OW17947   0.483   0.300   4.431 -0.0213 -0.3314 -0.0525
 2104SOL    HW117948   0.520   0.215   4.457 -0.0237  0.6586  3.1157
 2104SOL    HW217949   0.389   0.289   4.448 -0.1088  1.6905  0.7626
 2105SOL     OW17950   0.331   2.406   5.394  0.3513  0.1041 -0.5550
 2105SOL    HW117951   0.378   2.472   5.343 -1.2102 -0.2957 -2.4841
 2105SOL    HW217952   0.368   2.322   5.367  0.8296 -0.2609  1.2319
 2106SOL     OW17953   2.239   2.967   8.159 -0.1910  0.6569 -0.1224
 2106SOL    HW117954   2.311   2.919   8.120 -0.8500  0.8651 -1.6331
 2106SOL    HW217955   2.272   3.057   8.168 -3.3751  2.2042 -3.2233
 2107SOL     OW17956   1.259   1.672   5.676  0.2786  0.0814  0.3661
 2107SOL    HW117957   1.329   1.607   5.672 -0.4769 -0.5789 -2.4242
 2107SOL    HW217958   1.211   1.656   5.595 -0.6936  1.1178  0.7437
 2108SOL     OW17959   0.601   0.201   3.281 -0.3992  0.1092 -0.1839
 2108SOL    HW117960   0.636   0.129   3.333  0.4392  0.5791 -0.0893
 2108SOL    HW217961   0.674   0.263   3.286  0.2152 -0.6535  0.3971
 2109SOL     OW17962   4.129   4.562   7.474 -0.4798  0.3294 -0.1554
 2109SOL    HW117963   4.125   4.620   7.398 -1.6232 -1.4359 -1.4418
 2109SOL    HW217964   4.223   4.555   7.491 -0.7683 -1.0236  0.9286
 2110SOL     OW17965   4.112   2.067  15.063  0.4823 -0.4696  0.3087
 2110SOL    HW117966   4.080   2.034  15.147  0.8518 -0.1426  0.5833
 2110SOL    HW217967   4.108   2.161  15.083 -1.4358 -0.4297 -0.2840
 2111SOL     OW17968   0.452   3.352   2.095 -0.4009  0.4734 -0.3282
 2111SOL    HW117969   0.368   3.342   2.140  1.1050  2.6879  2.9915
 2111SOL    HW217970   0.422   3.400   2.019 -0.8466  0.3581 -0.2229
 2112SOL     OW17971   3.782   3.503  11.577  0.6168  0.2191 -0.8008
 2112SOL    HW117972   3.768   3.410  11.594  0.5060  0.6081  1.2249
 2112SOL    HW217973   3.750   3.515  11.487  0.9013  1.2380 -0.7730
 2113SOL     OW17974   3.366   2.921   2.545 -0.2330 -0.1557 -0.2605
 2113SOL    HW117975   3.309   2.998   2.532  1.9057  1.1300 -1.8706
 2113SOL    HW217976   3.408   2.941   2.629  2.2322 -1.5607 -1.1897
 2114SOL     OW17977   3.009   0.903   5.435  0.4605  0.6737  0.0724
 2114SOL    HW117978   2.928   0.864   5.469 -0.4546  2.4686 -0.0492
 2114SOL    HW217979   3.049   0.918   5.520 -0.3727  1.0873  0.3980
 2115SOL     OW17980   3.295   1.982   7.332 -0.1846 -0.0938 -0.2706
 2115SOL    HW117981   3.375   1.953   7.376  1.0768 -0.8748 -3.0389
 2115SOL    HW217982   3.242   1.907   7.307  0.3076 -1.0408  1.5708
 2116SOL     OW17983   3.022   4.184   1.948 -0.0288  0.2608 -0.1016
 2116SOL    HW117984   3.032   4.121   2.018  1.2235  0.7839  0.1866
 2116SOL    HW217985   2.960   4.246   1.988 -0.1894 -0.2528  0.4310
 2117SOL     OW17986   2.087   2.509   5.017  0.1180  0.1757  0.1576
 2117SOL    HW117987   1.991   2.506   5.013  0.2266  0.5651 -2.7546
 2117SOL    HW217988   2.116   2.464   5.097 -3.2446 -0.1516  1.2176
 2118SOL     OW17989   3.772   1.828   1.785  0.2869  0.4417 -0.3468
 2118SOL    HW117990   3.682   1.795   1.783  1.0488 -1.4677 -2.0454
 2118SOL    HW217991   3.779   1.846   1.879  1.1212 -0.0610 -0.3169
 2119SOL     OW17992   4.113   3.142   8.722 -0.2564  0.1225  0.5219
 2119SOL    HW117993   4.052   3.069   8.725  0.7934 -0.7934 -0.2561
 2119SOL    HW217994   4.058   3.212   8.757 -0.3810  0.8128 -1.0558
 2120SOL     OW17995   2.053   4.351   4.249 -0.6127  0.1958  0.3430
 2120SOL    HW117996   2.076   4.414   4.181 -0.0880 -0.2223  0.1405
 2120SOL    HW217997   2.048   4.276   4.190 -0.2785  2.0279 -2.0189
 2121SOL     OW17998   1.982   2.741   2.122 -0.1740 -0.0379 -0.1077
 2121SOL    HW117999   2.057   2.688   2.151 -0.3234 -0.5194 -0.6207
 2121SOL    HW218000   2.009   2.827   2.154  0.6414  0.1262 -1.2171
 2122SOL     OW18001   2.233   3.216   5.112 -0.1718 -0.4074  0.0985
 2122SOL    HW118002   2.150   3.262   5.095 -0.5247 -0.7332  0.9514
 2122SOL    HW218003   2.238   3.186   5.202 -1.1863 -0.1582  0.2478
 2123SOL     OW18004   2.998   0.959   8.385 -0.1517 -0.0602 -0.1173
 2123SOL    HW118005   3.010   1.012   8.464 -1.1097  1.8897 -1.2838
 2123SOL    HW218006   3.088   0.938   8.360  0.5119  0.6832  1.5928
 2124SOL     OW18007   3.963   0.220   4.650  0.1803 -0.2735 -0.3036
 2124SOL    HW118008   3.984   0.136   4.609 -1.2938  0.6633 -2.9211
 2124SOL    HW218009   3.939   0.197   4.740 -1.1072  2.6502  0.0727
 2125SOL     OW18010   4.163   1.119   3.956 -0.2637  0.3590 -0.5151
 2125SOL    HW118011   4.111   1.039   3.969  0.3307  0.3782  2.0718
 2125SOL    HW218012   4.238   1.095   4.011  0.8620 -0.9373 -2.6287
 2126SOL     OW18013   3.280   3.855   7.213  0.3178  0.0117  0.6155
 2126SOL    HW118014   3.285   3.919   7.142  2.1318 -2.0960 -1.1572
 2126SOL    HW218015   3.234   3.780   7.175  0.6782  0.2589 -0.2865
 2127SOL     OW18016   1.950   0.025   9.840  0.4243 -0.1471 -0.0152
 2127SOL    HW118017   1.867   0.025   9.792 -0.6920  2.9292  1.8814
 2127SOL    HW218018   1.928   0.065   9.925  1.1057 -0.8676  0.5064
 2128SOL     OW18019   4.200   3.390  12.999 -0.1727  0.1352  0.1322
 2128SOL    HW118020   4.164   3.386  12.910  2.1896 -0.1557 -0.7974
 2128SOL    HW218021   4.250   3.309  12.994  0.3407  0.4183  0.6869
 2129SOL     OW18022   1.185   3.678   9.678 -0.2773  0.2030  0.5078
 2129SOL    HW118023   1.161   3.683   9.771  1.2926  0.9831  0.8689
 2129SOL    HW218024   1.109   3.708   9.629 -0.9453 -2.0337  0.1884
 2130SOL     OW18025   2.221   2.038   5.184  0.0619 -0.4911 -0.0008
 2130SOL    HW118026   2.253   1.955   5.221 -0.0106 -0.0811  0.9923
 2130SOL    HW218027   2.279   2.105   5.220 -1.0978  1.3103 -1.5017
 2131SOL     OW18028   0.454   0.826   7.434 -0.3942 -0.2502  0.9254
 2131SOL    HW118029   0.457   0.918   7.460  2.5927  0.0937 -0.6855
 2131SOL    HW218030   0.449   0.788   7.521 -1.3410  0.7000  1.2893
 2132SOL     OW18031   1.958   1.984   6.508  0.0982 -0.1377 -0.1725
 2132SOL    HW118032   1.953   1.897   6.467  0.3655 -0.4575  0.4684
 2132SOL    HW218033   1.986   1.969   6.598 -2.4189 -0.5756  0.5461
 2133SOL     OW18034   2.745   4.700  12.323  0.0645 -0.1308 -0.1416
 2133SOL    HW118035   2.771   0.053  12.305  0.1240 -0.0278  0.4587
 2133SOL    HW218036   2.662   4.695  12.276  0.4130 -2.6176 -0.4944
 2134SOL     OW18037   1.828   4.700   8.590 -0.5298  0.6030 -0.2407
 2134SOL    HW118038   1.847   4.619   8.541 -1.6260  0.0675  0.2250
 2134SOL    HW218039   1.916   4.720   8.621 -0.5269 -0.3408  0.3629
 2135SOL     OW18040   1.785   2.465   3.025  0.5606 -0.0113  0.3987
 2135SOL    HW118041   1.803   2.532   3.090 -0.8297  0.6713  0.0783
 2135SOL    HW218042   1.749   2.520   2.955  1.4116 -1.6257 -1.3196
 2136SOL     OW18043   4.565   3.065   4.334  0.0272  0.3329  0.3236
 2136SOL    HW118044   4.484   3.074   4.284  0.2761  1.4056  0.1019
 2136SOL    HW218045   4.628   3.110   4.278  0.1644  1.5123  1.4079
 2137SOL     OW18046   2.802   3.824   6.157 -0.4443  0.2766 -0.0848
 2137SOL    HW118047   2.836   3.778   6.080  2.6041  3.8330 -0.8636
 2137SOL    HW218048   2.738   3.887   6.122 -0.5346  1.5303  2.3100
 2138SOL     OW18049   0.139   0.978   2.086  0.4798  0.1999 -0.0580
 2138SOL    HW118050   0.145   1.067   2.122  1.6012 -0.0967  0.4864
 2138SOL    HW218051   0.105   0.999   1.999 -0.5214  2.3847  0.8550
 2139SOL     OW18052   1.151   4.210   5.811  0.6959  0.7601  0.2523
 2139SOL    HW118053   1.080   4.265   5.779  2.2785  3.0228  0.6510
 2139SOL    HW218054   1.226   4.244   5.763  1.1366 -1.5624 -0.7238
 2140SOL     OW18055   4.332   0.210   2.557 -0.6732 -0.2736 -0.1041
 2140SOL    HW118056   4.355   0.302   2.569  1.1399 -0.7086 -0.3735
 2140SOL    HW218057   4.381   0.178   2.481 -1.5241 -0.1772 -0.7023
 2141SOL     OW18058   3.556   2.469   5.579  0.6006  0.1015  0.4629
 2141SOL    HW118059   3.477   2.455   5.632  0.0881 -2.7139 -1.0009
 2141SOL    HW218060   3.570   2.379   5.550  0.0772  0.6448 -1.4347
 2142SOL     OW18061   2.042   1.755  12.358  0.1996  0.0686  0.0148
 2142SOL    HW118062   1.992   1.810  12.418 -0.1135  0.8764 -0.9736
 2142SOL    HW218063   2.131   1.791  12.358  0.2787 -0.1785  1.9475
 2143SOL     OW18064   0.151   3.685   6.728  0.5617  0.5645  0.4630
 2143SOL    HW118065   0.218   3.641   6.677  0.9153  1.7586 -0.1111
 2143SOL    HW218066   0.087   3.722   6.667  0.6768  0.7532  0.4561
 2144SOL     OW18067   3.360   1.753   2.561  0.3061 -0.6012  0.2191
 2144SOL    HW118068   3.348   1.706   2.479 -3.0083 -1.0171  0.9229
 2144SOL    HW218069   3.273   1.794   2.561  1.2928  1.5071  1.5623
 2145SOL     OW18070   1.167   1.058   2.773  0.6220 -0.2379  0.5295
 2145SOL    HW118071   1.166   1.001   2.696 -0.4126  1.4954 -0.7536
 2145SOL    HW218072   1.083   1.034   2.812 -0.9944 -1.1306 -3.4850
 2146SOL     OW18073   2.657   4.665   9.944  0.2148 -0.2661  0.2303
 2146SOL    HW118074   2.612   4.719   9.880  2.0690  0.6659 -0.2590
 2146SOL    HW218075   2.730   4.625   9.897 -0.2662 -0.5654 -0.2618
 2147SOL     OW18076   2.241   1.174   5.036 -0.0386 -0.1705  0.4803
 2147SOL    HW118077   2.167   1.195   5.093 -0.2481  1.8798 -0.5684
 2147SOL    HW218078   2.196   1.128   4.966  1.5652  1.3114 -1.4933
 2148SOL     OW18079   1.030   3.361   4.647  0.0207 -0.0513  0.0045
 2148SOL    HW118080   0.992   3.436   4.693 -0.5316  1.4166 -2.8380
 2148SOL    HW218081   0.990   3.292   4.701 -1.2725  1.9226  1.5697
 2149SOL     OW18082   2.406   4.708   3.730  0.8169 -0.1407  0.0108
 2149SOL    HW118083   2.429   4.619   3.758 -0.1976 -0.0489  1.1111
 2149SOL    HW218084   2.488   0.015   3.710  0.7445 -0.2237 -0.4610
 2150SOL     OW18085   2.498   2.215  12.141  0.9958  0.1873 -0.7276
 2150SOL    HW118086   2.424   2.259  12.183  2.1550  0.2910  1.1872
 2150SOL    HW218087   2.563   2.280  12.115  1.7511 -0.3871 -0.2743
 2151SOL     OW18088   3.555   0.798   2.605  0.5083 -0.8643  0.1340
 2151SOL    HW118089   3.603   0.822   2.526 -1.2654 -1.3794 -1.0882
 2151SOL    HW218090   3.576   0.879   2.651  1.0390 -0.6235 -0.5286
 2152SOL     OW18091   2.954   1.455  15.149 -0.2762  0.4359 -0.3756
 2152SOL    HW118092   2.953   1.533  15.204 -0.9543 -0.3679  0.7302
 2152SOL    HW218093   3.018   1.397  15.190 -1.9042 -2.1633 -1.5353
 2153SOL     OW18094   2.519   1.707  17.365  0.0633  0.0677 -0.7340
 2153SOL    HW118095   2.607   1.718  17.329 -0.5213  0.0220 -2.1488
 2153SOL    HW218096   2.476   1.790  17.347 -0.0191  0.1358 -0.2410
 2154SOL     OW18097   0.467   4.303   2.019  1.0130 -0.0551 -0.9149
 2154SOL    HW118098   0.495   4.394   2.029 -0.1678  0.0044  1.5497
 2154SOL    HW218099   0.523   4.273   1.947  0.6974 -0.7856 -0.8549
 2155SOL     OW18100   3.149   0.671   7.830 -0.2307  0.0445 -0.3132
 2155SOL    HW118101   3.084   0.663   7.761 -2.8168  1.2334  2.0266
 2155SOL    HW218102   3.093   0.656   7.906  2.2128  1.9592  1.8811
 2156SOL     OW18103   2.989   3.871   7.681  0.1872  0.1253  0.3101
 2156SOL    HW118104   3.020   3.947   7.730  0.6250 -0.0843  0.3574
 2156SOL    HW218105   3.041   3.803   7.724 -0.7838  0.6263  2.2532
 2157SOL     OW18106   3.178   1.926   8.628  0.5857  0.3160 -0.2921
 2157SOL    HW118107   3.135   1.883   8.554 -1.2264  1.8851 -0.1472
 2157SOL    HW218108   3.168   2.012   8.588  1.1701  1.0436  1.1148
 2158SOL     OW18109   3.510   2.842  11.416 -0.1021 -0.0656  0.4671
 2158SOL    HW118110   3.594   2.823  11.457 -0.5826 -1.6456  0.7151
 2158SOL    HW218111   3.516   2.935  11.439  2.8617 -0.7960  2.5030
 2159SOL     OW18112   2.482   1.264   5.636  0.1296  0.3111 -0.0371
 2159SOL    HW118113   2.391   1.293   5.640  0.0496  0.0390  0.1548
 2159SOL    HW218114   2.529   1.295   5.714 -1.1904  0.8990  0.5290
 2160SOL     OW18115   2.648   1.794  16.620  0.2343  0.4959 -0.1655
 2160SOL    HW118116   2.616   1.704  16.609 -0.9369  1.0810 -1.5577
 2160SOL    HW218117   2.742   1.781  16.607  0.4692  0.9858  1.1446
 2161SOL     OW18118   1.959   1.619   6.845 -0.0324 -0.2260  0.1622
 2161SOL    HW118119   1.907   1.559   6.898 -2.0783  0.8255 -0.6680
 2161SOL    HW218120   1.888   1.637   6.783  0.9610  1.4759 -0.4728
 2162SOL     OW18121   1.288   0.380  15.161  0.0341 -0.7426 -0.2538
 2162SOL    HW118122   1.330   0.434  15.093 -1.0125 -0.2380 -0.5066
 2162SOL    HW218123   1.264   0.451  15.221  0.2184  0.1461 -1.2159
 2163SOL     OW18124   2.326   3.852   4.662  0.2041  0.5125 -0.1843
 2163SOL    HW118125   2.369   3.776   4.623 -1.6857 -0.7135  0.1148
 2163SOL    HW218126   2.326   3.914   4.589 -0.7248  0.5087 -0.1855
 2164SOL     OW18127   1.720   1.186   4.654  0.5881 -0.4866  0.5379
 2164SOL    HW118128   1.788   1.156   4.594  2.6980  1.1141  2.1529
 2164SOL    HW218129   1.664   1.238   4.596 -1.1016 -2.9396 -0.0076
 2165SOL     OW18130   2.092   0.208   0.915 -0.2275 -0.5818  0.4167
 2165SOL    HW118131   2.154   0.142   0.946 -1.9993 -2.2801  0.3494
 2165SOL    HW218132   2.139   0.270   0.860 -1.8834  1.7272  1.6407
 2166SOL     OW18133   2.701   3.210   8.905  0.2399  0.9191  0.0852
 2166SOL    HW118134   2.720   3.149   8.834  0.2478  0.0917  0.7870
 2166SOL    HW218135   2.655   3.276   8.853 -0.5137  0.9954  0.8317
 2167SOL     OW18136   2.824   4.449   5.390  0.6850  0.1425 -0.3992
 2167SOL    HW118137   2.731   4.448   5.371  0.6354 -0.5412 -0.0917
 2167SOL    HW218138   2.855   4.377   5.335  1.4750 -0.4835  0.8642
 2168SOL     OW18139   3.637   1.592   8.629 -0.1464  0.0969  0.2413
 2168SOL    HW118140   3.585   1.573   8.707  1.0707 -0.7841  0.8551
 2168SOL    HW218141   3.598   1.535   8.563 -0.0214  0.3007 -0.0087
 2169SOL     OW18142   0.448   3.945   3.568  0.4850 -0.2078 -0.3865
 2169SOL    HW118143   0.527   3.949   3.514  0.9174  0.6790  0.3038
 2169SOL    HW218144   0.401   4.024   3.543  1.9812  0.3950 -1.3378
 2170SOL     OW18145   1.681   1.239  12.869  0.3881  0.1594 -0.0266
 2170SOL    HW118146   1.757   1.255  12.925 -0.9145 -2.8669  2.5948
 2170SOL    HW218147   1.609   1.265  12.926 -0.7062  0.2913 -1.4486
 2171SOL     OW18148   1.760   4.496   4.587  0.1496 -0.0904 -0.5800
 2171SOL    HW118149   1.853   4.518   4.589  0.1986 -0.2092 -1.8929
 2171SOL    HW218150   1.736   4.581   4.623  1.4304  0.0783 -0.1245
 2172SOL     OW18151   2.803   0.892   8.213  0.0556  0.2063 -0.1805
 2172SOL    HW118152   2.860   0.883   8.137 -1.0682 -1.2815 -0.8470
 2172SOL    HW218153   2.867   0.909   8.282  0.6941 -2.4532 -0.0948
 2173SOL     OW18154   1.818   0.471   2.729 -0.1335  0.1328  0.2281
 2173SOL    HW118155   1.818   0.417   2.808 -0.4967 -0.0762  0.0861
 2173SOL    HW218156   1.910   0.495   2.729  0.4622 -2.1793 -0.0514
 2174SOL     OW18157   0.457   3.998  14.498 -0.4480 -0.2673  0.9602
 2174SOL    HW118158   0.388   4.064  14.509  0.8592  1.2858 -0.1042
 2174SOL    HW218159   0.447   3.947  14.579  2.3253 -3.2697 -0.5978
 2175SOL     OW18160   1.082   2.874   4.967  0.1798 -0.1035  0.4591
 2175SOL    HW118161   1.143   2.915   4.905 -0.7479  0.4798 -0.0748
 2175SOL    HW218162   1.056   2.944   5.027 -0.9907 -0.7692  0.7260
 2176SOL     OW18163   3.027   3.803   4.263  0.2695  0.2774 -0.8668
 2176SOL    HW118164   2.976   3.727   4.234 -2.4930  2.0719 -0.7348
 2176SOL    HW218165   3.099   3.796   4.201  1.2600 -2.8782  0.6638
 2177SOL     OW18166   1.016   4.200   3.465  0.1058  0.3244  0.8165
 2177SOL    HW118167   0.949   4.267   3.473  1.0441  1.2319  1.0160
 2177SOL    HW218168   1.012   4.172   3.557 -2.2300 -0.1072  0.5810
 2178SOL     OW18169   4.324   1.845   5.759  0.0813 -0.3844 -0.1584
 2178SOL    HW118170   4.228   1.837   5.755 -0.2231  2.2430  1.3900
 2178SOL    HW218171   4.342   1.937   5.740 -0.7585 -0.7122 -2.5289
 2179SOL     OW18172   4.703   2.336   8.805  0.2147  0.1517  0.5228
 2179SOL    HW118173   0.046   2.286   8.810 -1.7128 -2.7660  2.5063
 2179SOL    HW218174   4.635   2.277   8.838  0.6786 -0.6068  0.1042
 2180SOL     OW18175   3.289   1.397   9.371 -0.6429  0.2513  0.5246
 2180SOL    HW118176   3.271   1.410   9.464 -1.5198 -1.3997  0.5790
 2180SOL    HW218177   3.384   1.397   9.364 -0.8610 -0.1500 -2.2209
 2181SOL     OW18178   4.423   0.863  14.445 -0.1205 -0.1983  0.4632
 2181SOL    HW118179   4.336   0.829  14.465  0.0992  0.3519  2.3063
 2181SOL    HW218180   4.466   0.840  14.527 -0.7221  0.0521  0.8465
 2182SOL     OW18181   2.870   3.765   8.318  0.5318 -0.1900 -0.5660
 2182SOL    HW118182   2.902   3.675   8.315  0.1620 -0.3513  0.3379
 2182SOL    HW218183   2.790   3.764   8.266  2.1650  0.2845 -3.0520
 2183SOL     OW18184   2.651   2.217   6.652 -0.7088  0.2493 -0.4832
 2183SOL    HW118185   2.615   2.131   6.629  0.7112 -0.1644 -1.0945
 2183SOL    HW218186   2.619   2.214   6.743  1.6663  0.6732  0.3515
 2184SOL     OW18187   0.449   1.779  15.972  0.1291 -0.0123 -0.0606
 2184SOL    HW118188   0.406   1.855  16.010  0.8279  0.6048 -0.5146
 2184SOL    HW218189   0.435   1.722  16.048  1.4868 -1.3848 -0.8395
 2185SOL     OW18190   2.598   0.227   3.282  0.1404  0.2139 -0.1902
 2185SOL    HW118191   2.654   0.299   3.253  2.1334 -0.6956  1.3525
 2185SOL    HW218192   2.530   0.273   3.332  0.2935  1.8936 -1.5288
 2186SOL     OW18193   3.767   0.968  17.589  0.1025  0.2696  0.6253
 2186SOL    HW118194   3.683   0.925  17.574  0.7484 -1.1833  1.1361
 2186SOL    HW218195   3.831   0.901  17.565 -0.9490 -0.1879 -0.8694
 2187SOL     OW18196   3.659   0.001   9.852  0.3307 -0.2137 -0.4014
 2187SOL    HW118197   3.723   4.667   9.862  0.5389 -0.0485 -0.5426
 2187SOL    HW218198   3.587   4.678   9.836 -0.3415  0.2183  1.0140
 2188SOL     OW18199   1.988   2.752   6.774 -0.9539  0.2717  0.6396
 2188SOL    HW118200   2.035   2.684   6.725 -1.2837  0.1455  0.4953
 2188SOL    HW218201   1.987   2.825   6.712  0.8426  0.1411  0.4489
 2189SOL     OW18202   0.320   2.853   3.008  0.0789  0.5505  0.2473
 2189SOL    HW118203   0.312   2.917   3.079  0.2903 -0.1954  0.9402
 2189SOL    HW218204   0.384   2.908   2.962  1.6985 -1.5204  0.0325
 2190SOL     OW18205   3.468   3.456   8.790 -0.0953  0.4016  0.2483
 2190SOL    HW118206   3.405   3.527   8.798  1.3763  1.8227 -0.8392
 2190SOL    HW218207   3.435   3.411   8.712  2.6301 -3.6683  1.3754
 2191SOL     OW18208   4.329   2.492  10.190 -0.2816 -0.2838 -0.4495
 2191SOL    HW118209   4.367   2.500  10.102  1.8958  0.4409  0.5466
 2191SOL    HW218210   4.358   2.402  10.206 -0.6741  0.0377  1.9502
 2192SOL     OW18211   4.226   2.955   6.082  0.0602  0.3014  0.0116
 2192SOL    HW118212   4.199   2.904   6.005  1.2287  1.6147 -1.2739
 2192SOL    HW218213   4.278   3.024   6.040  1.1275  0.6571  1.9269
 2193SOL     OW18214   2.731   1.074  16.002 -0.1385 -0.5101 -0.1843
 2193SOL    HW118215   2.765   1.054  16.089  0.5245  2.0212  0.1361
 2193SOL    HW218216   2.788   1.146  15.975  0.1408 -0.5967  0.1642
 2194SOL     OW18217   3.789   0.194  17.035 -0.0897  0.1477 -0.3303
 2194SOL    HW118218   3.757   0.116  16.989  2.5185 -0.6404 -0.8305
 2194SOL    HW218219   3.870   0.158  17.070 -0.8996 -1.0231  0.3345
 2195SOL     OW18220   0.309   3.651  15.483  0.2372 -0.7828  0.1825
 2195SOL    HW118221   0.229   3.682  15.440  1.1510 -0.5629 -1.3726
 2195SOL    HW218222   0.272   3.667  15.569 -2.0104 -2.2824 -0.5242
 2196SOL     OW18223   3.229   1.690   3.291  0.6446 -0.2248  0.2807
 2196SOL    HW118224   3.212   1.699   3.385  2.3454  0.2674  0.5486
 2196SOL    HW218225   3.289   1.764   3.284  0.7715 -0.0445  3.1875
 2197SOL     OW18226   0.626   2.686   6.974  0.2088 -0.2634  0.0973
 2197SOL    HW118227   0.688   2.631   7.021  1.2607  0.3687 -0.5578
 2197SOL    HW218228   0.552   2.694   7.034  0.2925  0.8416  0.0507
 2198SOL     OW18229   1.909   2.056  12.926 -0.3506  0.3544 -0.3301
 2198SOL    HW118230   1.985   2.020  12.879 -0.9622 -2.4348  0.7788
 2198SOL    HW218231   1.840   2.001  12.890 -0.2776 -0.5919  0.9792
 2199SOL     OW18232   0.039   0.205   9.783 -0.3454  0.4132  0.2836
 2199SOL    HW118233   4.706   0.253   9.741  0.2635  1.2123  0.1590
 2199SOL    HW218234   0.085   0.274   9.831  0.3313 -0.2159  0.5376
 2200SOL     OW18235   0.186   2.357   3.662 -0.2892 -0.5641  0.2100
 2200SOL    HW118236   0.212   2.370   3.753  1.0830  0.4778 -0.3263
 2200SOL    HW218237   0.212   2.436   3.615 -1.1581 -0.2161  0.3127
 2201SOL     OW18238   2.287   3.991   0.309 -0.2395 -0.3215  0.0286
 2201SOL    HW118239   2.354   4.049   0.345  0.7814 -0.4927 -1.5580
 2201SOL    HW218240   2.265   3.938   0.386  0.7890  1.2425  1.4011
 2202SOL     OW18241   0.293   3.935   5.973  0.2866  0.0164 -0.4592
 2202SOL    HW118242   0.218   3.875   5.968  0.4533  0.0736 -4.0141
 2202SOL    HW218243   0.365   3.873   5.962 -0.1616 -0.9842  2.3402
 2203SOL     OW18244   1.010   0.752  10.189 -0.6515  0.2602 -0.9126
 2203SOL    HW118245   1.029   0.806  10.112  1.2861 -0.7240 -1.1284
 2203SOL    HW218246   1.088   0.698  10.200 -1.5714 -1.0925 -1.0022
 2204SOL     OW18247   3.733   2.815  12.744 -0.1524  0.0717  0.4472
 2204SOL    HW118248   3.814   2.773  12.772 -0.9372 -2.0356 -0.4154
 2204SOL    HW218249   3.730   2.789  12.652  0.2300  0.0063  0.4522
 2205SOL     OW18250   0.351   3.837   5.051 -0.3741 -0.1786 -0.0338
 2205SOL    HW118251   0.334   3.748   5.021  1.9282 -0.3110 -1.0107
 2205SOL    HW218252   0.367   3.812   5.142 -0.1947  0.2713  0.0619
 2206SOL     OW18253   3.746   4.486   8.693 -0.0856  0.6274  0.3303
 2206SOL    HW118254   3.674   4.535   8.655  0.4431  0.6396 -0.6454
 2206SOL    HW218255   3.764   4.540   8.770 -0.4263  1.8860 -0.4819
 2207SOL     OW18256   3.058   4.390  16.891 -0.3125 -0.2089  0.0134
 2207SOL    HW118257   3.145   4.417  16.862 -0.2661  0.2376  0.5768
 2207SOL    HW218258   3.038   4.467  16.943  0.3865 -0.3494  0.4872
 2208SOL     OW18259   0.303   3.386   8.119 -0.1293 -0.4677 -0.0623
 2208SOL    HW118260   0.226   3.343   8.157 -1.7488 -0.2028 -3.0164
 2208SOL    HW218261   0.362   3.375   8.193  1.1392 -0.9333 -1.1483
 2209SOL     OW18262   2.486   3.326  16.988  0.2716  0.9518  0.1447
 2209SOL    HW118263   2.581   3.338  16.981  0.2689  0.9842  0.1617
 2209SOL    HW218264   2.462   3.346  16.897  2.4215 -0.7237 -0.7607
 2210SOL     OW18265   4.650   3.327  10.913 -0.0078  0.1326 -0.0388
 2210SOL    HW118266   4.682   3.247  10.870 -1.9444 -0.5114 -0.3178
 2210SOL    HW218267   4.571   3.353  10.866  0.1126  0.7180  0.0875
 2211SOL     OW18268   3.961   1.762   7.766 -0.1210 -0.5260  0.8101
 2211SOL    HW118269   3.973   1.820   7.842 -0.6388  1.8269 -0.9158
 2211SOL    HW218270   4.000   1.683   7.805  1.5427 -1.2058 -2.2908
 2212SOL     OW18271   0.054   1.185  12.391  0.4858  0.2511 -0.2843
 2212SOL    HW118272   0.110   1.258  12.366 -0.4352  1.3314  0.8421
 2212SOL    HW218273   0.106   1.114  12.354  1.1095  1.4145 -1.6522
 2213SOL     OW18274   0.397   1.482   7.654  0.1987 -0.0339 -0.2351
 2213SOL    HW118275   0.466   1.512   7.595 -0.7377  2.9105  0.1319
 2213SOL    HW218276   0.326   1.517   7.600  0.6793 -1.3800 -1.7419
 2214SOL     OW18277   4.398   2.611   5.105 -0.5371 -0.7830 -0.1925
 2214SOL    HW118278   4.482   2.565   5.113  0.5422  0.8372 -2.4346
 2214SOL    HW218279   4.363   2.574   5.024 -0.4388 -0.4704 -0.3767
 2215SOL     OW18280   0.498   4.095   5.191 -0.4151 -0.5689  0.1233
 2215SOL    HW118281   0.457   4.009   5.191 -0.9147 -0.3277 -0.8560
 2215SOL    HW218282   0.555   4.088   5.268 -1.4597 -0.0899  0.9473
 2216SOL     OW18283   1.424   1.188   2.994 -0.4469  0.3350  0.4594
 2216SOL    HW118284   1.353   1.198   3.057 -0.3405 -0.5457  0.7246
 2216SOL    HW218285   1.400   1.246   2.922 -0.8635 -1.1618 -0.5991
 2217SOL     OW18286   1.974   2.151   4.382  0.0257  0.1004 -0.0689
 2217SOL    HW118287   2.027   2.222   4.417 -0.5929 -0.0899  1.2558
 2217SOL    HW218288   1.997   2.085   4.448 -1.0170  1.5978  1.7827
 2218SOL     OW18289   4.314   2.374  11.674  0.4249 -0.1067 -0.3005
 2218SOL    HW118290   4.285   2.305  11.734  0.7858  0.7191  0.8198
 2218SOL    HW218291   4.383   2.402  11.734 -0.3470  1.3724 -0.1024
 2219SOL     OW18292   2.981   3.702   2.274  0.2260 -0.0935  0.2334
 2219SOL    HW118293   3.062   3.736   2.235  0.3313 -1.5338 -0.8113
 2219SOL    HW218294   3.014   3.630   2.328 -0.6934  0.0092  0.9265
 2220SOL     OW18295   3.732   0.346  14.589 -0.7112  0.2169  0.6565
 2220SOL    HW118296   3.812   0.318  14.635 -0.6977 -1.7218 -0.5458
 2220SOL    HW218297   3.701   0.256  14.577  1.8955 -0.8251  1.6104
 2221SOL     OW18298   1.828   4.130   8.371 -1.0332 -0.6206 -0.4985
 2221SOL    HW118299   1.828   4.078   8.291 -0.5154 -0.4873 -0.5901
 2221SOL    HW218300   1.893   4.084   8.423 -0.4250 -1.0001 -1.5928
 2222SOL     OW18301   3.632   2.669   7.193 -0.4012 -0.7237 -0.0541
 2222SOL    HW118302   3.717   2.643   7.158 -1.2665 -2.6782 -0.6610
 2222SOL    HW218303   3.645   2.744   7.252  1.1015 -0.2893 -0.9381
 2223SOL     OW18304   4.000   2.904   3.549 -0.2076  0.1242  0.4029
 2223SOL    HW118305   4.029   2.833   3.493 -1.2991 -0.5361  0.6911
 2223SOL    HW218306   4.076   2.962   3.542  0.3016 -0.5080  0.7556
 2224SOL     OW18307   3.311   1.319  12.507 -0.1631  0.4406  0.6887
 2224SOL    HW118308   3.360   1.374  12.568 -0.6543  2.9040 -1.1384
 2224SOL    HW218309   3.334   1.226  12.514 -0.4728  0.1917 -1.4790
 2225SOL     OW18310   0.933   0.251   9.980  0.6144 -0.1508  0.8073
 2225SOL    HW118311   0.976   0.168   9.958  0.4897  0.7990 -2.9972
 2225SOL    HW218312   0.893   0.273   9.896 -0.5072 -1.9528  0.8623
 2226SOL     OW18313   0.918   1.804   6.117  0.4322 -0.3605 -0.2404
 2226SOL    HW118314   1.007   1.769   6.120  0.7301  0.3612 -0.8116
 2226SOL    HW218315   0.939   1.892   6.148  3.3949 -0.8737 -0.7217
 2227SOL     OW18316   0.313   0.708   7.960  0.2071 -0.9371 -0.4119
 2227SOL    HW118317   0.283   0.748   8.041  0.8031 -1.9724  0.3167
 2227SOL    HW218318   0.335   0.617   7.980 -2.2427 -1.1490  1.2301
 2228SOL     OW18319   3.777   0.561   8.003 -1.0527  0.4970  0.6022
 2228SOL    HW118320   3.821   0.585   8.085 -0.1289  0.7480  0.0322
 2228SOL    HW218321   3.821   0.476   7.994 -0.7534  0.6384  0.7432
 2229SOL     OW18322   1.154   1.340   3.524  0.0533  0.6302 -0.6898
 2229SOL    HW118323   1.180   1.416   3.576  0.1666  0.0634  0.0804
 2229SOL    HW218324   1.242   1.306   3.508  0.6189  1.1335  1.3838
 2230SOL     OW18325   1.466   1.925   9.590  0.0715  0.2665 -0.3021
 2230SOL    HW118326   1.558   1.947   9.598  0.5222 -0.7252 -2.5985
 2230SOL    HW218327   1.476   1.897   9.499  1.6869 -0.5144  0.1203
 2231SOL     OW18328   0.247   4.325   9.729  0.7191 -0.1784 -0.3728
 2231SOL    HW118329   0.215   4.301   9.642 -2.5389  0.0890  0.7607
 2231SOL    HW218330   0.264   4.243   9.776  0.3016  0.6683  1.2422
 2232SOL     OW18331   3.821   4.462   6.046  0.3508  0.1737  0.0094
 2232SOL    HW118332   3.746   4.421   6.003  1.2377 -1.5995  0.1689
 2232SOL    HW218333   3.773   4.526   6.097 -1.6083 -0.1834 -1.3779
 2233SOL     OW18334   2.414   3.179   4.914  0.1002  0.1202 -0.4377
 2233SOL    HW118335   2.452   3.263   4.890  1.2452 -0.1420  0.4454
 2233SOL    HW218336   2.352   3.211   4.979 -1.5230  0.1287 -1.9778
 2234SOL     OW18337   1.121   1.592   8.395  0.1136 -0.2434 -0.1039
 2234SOL    HW118338   1.093   1.507   8.429 -0.3183  0.2920  0.8856
 2234SOL    HW218339   1.129   1.572   8.302  1.3423 -0.4824  0.0487
 2235SOL     OW18340   1.157   2.616  16.619 -0.3990  0.2402  0.0627
 2235SOL    HW118341   1.154   2.523  16.597 -0.7204  0.7123 -1.9424
 2235SOL    HW218342   1.073   2.635  16.660  0.1241  2.2430  0.2434
 2236SOL     OW18343   3.305   2.963   1.682 -0.1625 -0.0937 -0.1866
 2236SOL    HW118344   3.290   3.041   1.735  2.1084  0.3146 -0.1444
 2236SOL    HW218345   3.353   3.002   1.608 -2.1758  2.5214 -0.1189
 2237SOL     OW18346   0.755   4.149  13.322  0.1751 -0.1445 -0.4136
 2237SOL    HW118347   0.769   4.222  13.382  0.0018 -0.2504 -0.2452
 2237SOL    HW218348   0.664   4.121  13.329  0.0044  0.3721 -0.6215
 2238SOL     OW18349   0.414   4.480   3.707  0.5666  0.6759 -0.0729
 2238SOL    HW118350   0.384   4.433   3.784  1.7423 -1.3537 -0.8679
 2238SOL    HW218351   0.344   4.502   3.646  0.7899  0.9844 -0.2217
 2239SOL     OW18352   0.698   1.499   0.151  0.3505 -0.2512 -0.2499
 2239SOL    HW118353   0.726   1.499   0.243 -1.9016  0.5537  0.4221
 2239SOL    HW218354   0.613   1.454   0.154  1.6712 -2.9518 -2.7246
 2240SOL     OW18355   1.672   1.120  16.187  0.0102  0.1981  0.0294
 2240SOL    HW118356   1.725   1.090  16.113 -1.0620  2.1493 -1.5517
 2240SOL    HW218357   1.680   1.042  16.241  1.1404 -0.4654 -1.0806
 2241SOL     OW18358   4.486   4.217   4.849  0.0629 -0.6737  0.1233
 2241SOL    HW118359   4.564   4.271   4.836  0.5204 -0.6298  3.1596
 2241SOL    HW218360   4.465   4.205   4.756 -1.4300  0.0818  0.3668
 2242SOL     OW18361   1.240   4.403  15.795  0.1627  0.1664 -0.5544
 2242SOL    HW118362   1.304   4.472  15.778  0.7685  0.3555  2.4698
 2242SOL    HW218363   1.206   4.437  15.878  1.1737 -4.0657  1.5787
 2243SOL     OW18364   0.512   3.173   5.724 -0.0104  0.0706  0.2077
 2243SOL    HW118365   0.493   3.082   5.701  0.0261 -0.2849  1.6129
 2243SOL    HW218366   0.505   3.177   5.819 -0.8382 -2.0838  0.2434
 2244SOL     OW18367   2.109   3.866   9.521  0.0582  0.3509  0.2456
 2244SOL    HW118368   2.180   3.886   9.461 -0.9206  0.4703 -0.8748
 2244SOL    HW218369   2.095   3.945   9.573  0.4378  1.0891 -0.7900
 2245SOL     OW18370   2.305   2.560   5.843  0.1363  0.1082  0.4972
 2245SOL    HW118371   2.213   2.539   5.823 -0.4370  2.3196  0.7382
 2245SOL    HW218372   2.312   2.494   5.911  0.8123  0.8608  1.1516
 2246SOL     OW18373   2.826   4.205   5.245 -0.1231 -0.3192 -0.1144
 2246SOL    HW118374   2.773   4.228   5.168  1.2308 -0.0544 -0.9714
 2246SOL    HW218375   2.915   4.196   5.209 -1.2948 -1.1579 -2.8400
 2247SOL     OW18376   1.713   2.126   4.297  0.3005  0.1977  0.0958
 2247SOL    HW118377   1.798   2.163   4.321  0.5038  0.4290 -0.9980
 2247SOL    HW218378   1.682   2.108   4.386  2.0615 -1.3450  0.4000
 2248SOL     OW18379   4.610   1.242   6.371 -0.2020  0.2244  0.0328
 2248SOL    HW118380   4.683   1.199   6.328  0.1733  0.3009  0.5997
 2248SOL    HW218381   4.630   1.244   6.465  1.6276  0.6113 -0.3723
 2249SOL     OW18382   0.093   0.525   4.756 -0.2532 -0.2187 -0.0376
 2249SOL    HW118383   0.029   0.503   4.689  2.0270  1.6358 -2.8544
 2249SOL    HW218384   0.032   0.536   4.828  1.1136 -0.3950  1.1530
 2250SOL     OW18385   2.091   2.433   8.986 -0.2189  0.3573 -0.1726
 2250SOL    HW118386   2.165   2.399   9.036  1.0645  1.1707 -1.5544
 2250SOL    HW218387   2.015   2.401   9.035 -0.0908  0.4994  0.1203
 2251SOL     OW18388   2.384   1.303   4.693  0.3346  0.2987 -0.0102
 2251SOL    HW118389   2.458   1.278   4.748 -0.7440 -0.4063  1.1489
 2251SOL    HW218390   2.365   1.393   4.718  0.2705  0.1880  0.3435
 2252SOL     OW18391   4.559   4.524   2.052 -0.1126 -0.3069 -0.3240
 2252SOL    HW118392   4.513   4.588   2.106  0.6070  0.2490 -0.3597
 2252SOL    HW218393   4.552   4.448   2.109 -0.4540  0.7518  1.0347
 2253SOL     OW18394   3.252   0.454   9.210  0.5051  0.0448  0.0478
 2253SOL    HW118395   3.193   0.501   9.270  2.2199  0.1368  1.6608
 2253SOL    HW218396   3.244   0.366   9.248 -1.6955  0.5989  0.9035
 2254SOL     OW18397   1.125   3.861   7.669 -0.6440  0.2233  0.1503
 2254SOL    HW118398   1.180   3.783   7.662 -0.4848  0.4942 -1.6900
 2254SOL    HW218399   1.172   3.898   7.744  4.0714 -3.6053 -0.9057
 2255SOL     OW18400   2.016   4.603  11.371 -0.1038  0.1951 -0.8228
 2255SOL    HW118401   2.059   4.521  11.347 -0.8147 -0.6880  0.9627
 2255SOL    HW218402   1.963   4.622  11.294  0.3064 -1.4023 -1.5016
 2256SOL     OW18403   1.171   1.436   6.232  0.5674  0.1493  0.0111
 2256SOL    HW118404   1.110   1.384   6.180  0.5922  0.3997 -0.2684
 2256SOL    HW218405   1.151   1.526   6.210 -1.9146 -0.3989  0.0007
 2257SOL     OW18406   0.067   2.166   5.342  0.2043 -0.3184 -0.1533
 2257SOL    HW118407   0.094   2.083   5.382 -1.3909 -1.0625 -0.6363
 2257SOL    HW218408   4.719   2.189   5.378 -0.5792 -1.2565 -1.4252
 2258SOL     OW18409   1.071   2.379   2.730  0.3886 -0.2544 -0.6077
 2258SOL    HW118410   0.987   2.402   2.689 -0.2437 -0.2037  0.6988
 2258SOL    HW218411   1.047   2.421   2.813  1.9369  0.3074 -0.4399
 2259SOL     OW18412   2.273   0.345  10.218  0.3286  0.0634  0.5304
 2259SOL    HW118413   2.350   0.376  10.169 -0.4957 -1.8048 -1.9492
 2259SOL    HW218414   2.208   0.410  10.191 -0.5875 -0.9513  0.2973
 2260SOL     OW18415   2.184   1.712   8.963 -0.2868 -0.4095  0.0927
 2260SOL    HW118416   2.106   1.753   9.001 -0.6319  0.8992 -2.0424
 2260SOL    HW218417   2.141   1.670   8.890  1.0487 -2.2956  0.3823
 2261SOL     OW18418   3.981   3.266   2.079  0.6798 -0.4301  0.3838
 2261SOL    HW118419   3.941   3.231   2.158 -2.2932 -0.1647 -1.0232
 2261SOL    HW218420   3.974   3.188   2.025  2.8015 -0.4872  0.1892
 2262SOL     OW18421   3.309   1.776  14.513 -0.2989  0.1335  0.4436
 2262SOL    HW118422   3.314   1.836  14.587  0.4476 -0.6680  1.0445
 2262SOL    HW218423   3.360   1.703  14.548 -0.6146  0.4873  1.6397
 2263SOL     OW18424   2.794   2.019   4.919  0.5171 -0.7901  0.0161
 2263SOL    HW118425   2.799   1.968   4.838  1.2128 -2.0860  0.8745
 2263SOL    HW218426   2.860   2.085   4.895 -0.9625  0.2109 -1.2567
 2264SOL     OW18427   1.149   1.957   7.368 -0.1785  0.3778  0.1049
 2264SOL    HW118428   1.074   2.015   7.376 -1.3717 -1.1164 -0.1473
 2264SOL    HW218429   1.123   1.890   7.432  2.8555  1.0171  2.0167
 2265SOL     OW18430   4.101   2.508   0.117 -0.4932  0.4764 -0.2039
 2265SOL    HW118431   4.154   2.496   0.196  1.0552 -1.5913 -1.5390
 2265SOL    HW218432   4.071   2.598   0.129 -3.1804 -0.2884 -1.0884
 2266SOL     OW18433   0.797   0.961  17.005  0.3068 -0.1470 -0.1818
 2266SOL    HW118434   0.737   0.998  17.069 -0.3478 -2.4968  0.5850
 2266SOL    HW218435   0.877   0.968  17.057 -0.1917 -0.7034  0.6717
 2267SOL     OW18436   1.243   1.438   2.109  0.0937  0.3728 -0.3542
 2267SOL    HW118437   1.327   1.467   2.144  0.7362 -1.7517 -0.1599
 2267SOL    HW218438   1.198   1.517   2.080  0.4968  0.6868 -0.1110
 2268SOL     OW18439   1.002   3.053  13.472  0.2543 -0.2109 -0.5435
 2268SOL    HW118440   0.917   3.056  13.427  1.2279  1.6914 -2.2068
 2268SOL    HW218441   0.971   3.005  13.549  0.8312 -0.7575 -0.6525
 2269SOL     OW18442   1.363   3.089  14.946 -0.3791  0.0841 -0.2246
 2269SOL    HW118443   1.450   3.071  14.909 -0.3207  0.7492 -0.4110
 2269SOL    HW218444   1.331   3.162  14.892  0.3197 -0.6382 -1.6403
 2270SOL     OW18445   2.976   1.270   2.656 -0.8076  0.0088 -0.0843
 2270SOL    HW118446   2.953   1.233   2.570  0.6153 -0.6263 -0.2051
 2270SOL    HW218447   2.909   1.242   2.719 -1.4881  1.8840  0.0159
 2271SOL     OW18448   2.190   0.752   6.065 -0.6143  0.0260  0.1497
 2271SOL    HW118449   2.247   0.800   6.005  2.0525 -0.4067  2.3582
 2271SOL    HW218450   2.103   0.784   6.039 -0.9897 -1.2315 -0.1707
 2272SOL     OW18451   4.122   0.122   5.887 -0.0499  0.3744  0.4468
 2272SOL    HW118452   4.155   0.039   5.854  0.8945  0.8449  0.2183
 2272SOL    HW218453   4.161   0.126   5.975 -0.3503 -0.2156  0.6050
 2273SOL     OW18454   2.530   1.685   6.408  0.1344 -0.1121  0.1104
 2273SOL    HW118455   2.566   1.742   6.340  0.7196 -2.4947 -1.5722
 2273SOL    HW218456   2.477   1.745   6.462  1.3624  2.3075 -1.4003
 2274SOL     OW18457   3.298   0.749   6.606 -0.5568 -0.4728 -0.1894
 2274SOL    HW118458   3.351   0.689   6.657  0.1276  1.2034  1.0698
 2274SOL    HW218459   3.369   0.803   6.570 -0.2992 -0.6221  0.0994
 2275SOL     OW18460   1.488   3.384   4.932  0.7983 -0.2329  0.9774
 2275SOL    HW118461   1.577   3.364   4.959  1.1313 -0.6921 -0.4211
 2275SOL    HW218462   1.441   3.306   4.962  0.0305  0.1628  0.7977
 2276SOL     OW18463   4.494   4.435  14.097  0.0093 -0.1278 -0.6742
 2276SOL    HW118464   4.564   4.421  14.162 -0.3547  0.6081 -0.1284
 2276SOL    HW218465   4.465   4.344  14.098  0.7341 -0.3650 -0.5482
 2277SOL     OW18466   2.968   1.424   8.220 -0.2617 -0.2707 -0.1253
 2277SOL    HW118467   2.951   1.440   8.313  0.0549  0.7149 -0.2440
 2277SOL    HW218468   2.927   1.337   8.222 -2.7778  0.9336  0.1823
 2278SOL     OW18469   2.956   0.345   8.614 -0.2175 -0.4700 -0.3420
 2278SOL    HW118470   2.878   0.307   8.574 -1.2291 -1.6083  2.7213
 2278SOL    HW218471   3.016   0.275   8.588 -0.3878 -0.4496 -0.7921
 2279SOL     OW18472   0.414   0.002   5.238  0.7677 -0.1392  0.0557
 2279SOL    HW118473   0.407   0.078   5.295 -1.7019  0.5012 -1.0995
 2279SOL    HW218474   0.481   4.687   5.281  0.7138  0.3526  0.7384
 2280SOL     OW18475   4.530   4.319  17.276 -0.4614 -0.2565  0.3211
 2280SOL    HW118476   4.503   4.398  17.229  0.3015  0.6686  1.4338
 2280SOL    HW218477   4.613   4.311  17.229  1.6979  0.7257  3.9738
 2281SOL     OW18478   3.540   3.248   8.030 -0.2639 -0.1484  0.5390
 2281SOL    HW118479   3.591   3.167   8.029 -0.1365 -0.1016  3.2731
 2281SOL    HW218480   3.606   3.318   8.024  1.6564 -2.2579 -3.4752
 2282SOL     OW18481   1.537   3.995  12.641  0.1578 -0.3094  0.1896
 2282SOL    HW118482   1.536   3.996  12.545  1.3580  1.3782  0.1811
 2282SOL    HW218483   1.623   3.954  12.650  0.4605  0.4006  0.6012
 2283SOL     OW18484   3.685   0.321   6.433  0.8563  0.0576  0.0438
 2283SOL    HW118485   3.605   0.316   6.380  0.6858  2.1479  0.1142
 2283SOL    HW218486   3.708   0.230   6.452  2.2237  0.0764 -1.4734
 2284SOL     OW18487   4.734   2.091  17.171 -0.3788 -0.3143  0.2426
 2284SOL    HW118488   4.685   2.087  17.089  2.4234  2.4985 -1.5564
 2284SOL    HW218489   0.061   2.159  17.152 -1.5466  0.7444  0.0635
 2285SOL     OW18490   3.045   3.867   5.391  0.1223 -0.4299  0.3602
 2285SOL    HW118491   3.035   3.784   5.437 -0.4350 -0.9956 -0.7841
 2285SOL    HW218492   3.004   3.930   5.450  0.5285 -0.5776  0.7932
 2286SOL     OW18493   4.706   3.565   2.954 -0.0132  0.4517 -0.7449
 2286SOL    HW118494   4.649   3.642   2.957 -3.6006 -2.1893 -0.8111
 2286SOL    HW218495   0.032   3.584   2.885  0.9798  0.0565  0.0563
 2287SOL     OW18496   3.708   0.930   5.608  0.2907 -0.3605 -0.8237
 2287SOL    HW118497   3.693   0.840   5.580 -0.3045 -0.7528  0.7763
 2287SOL    HW218498   3.801   0.929   5.632  0.3884 -0.3720 -1.1885
 2288SOL     OW18499   2.019   3.705   1.341 -0.4140 -0.1393  0.1540
 2288SOL    HW118500   1.970   3.771   1.291  1.8240  0.8871 -0.6962
 2288SOL    HW218501   2.018   3.747   1.427  2.4194  1.8556 -0.8046
 2289SOL     OW18502   4.676   4.380   9.141  0.1466  0.0447 -0.1308
 2289SOL    HW118503   4.661   4.361   9.048 -1.8297  1.8284 -0.1708
 2289SOL    HW218504   4.640   4.469   9.150  2.4759  0.9531  0.1895
 2290SOL     OW18505   3.859   2.009  10.580  0.0504 -0.3330  0.0095
 2290SOL    HW118506   3.906   2.001  10.497 -0.1332  0.1972 -0.1479
 2290SOL    HW218507   3.903   2.087  10.614 -1.2556 -0.3516  1.7446
 2291SOL     OW18508   1.202   1.611   7.888  0.4840  0.3864  0.3434
 2291SOL    HW118509   1.283   1.565   7.869 -0.0227 -1.2794  2.2940
 2291SOL    HW218510   1.195   1.669   7.812  0.4356  0.7726  0.6417
 2292SOL     OW18511   4.301   4.476  10.744  0.3092  0.0206 -0.0565
 2292SOL    HW118512   4.325   4.568  10.751  0.2816 -0.0243  0.6449
 2292SOL    HW218513   4.338   4.431  10.819  1.1703 -1.9320 -1.6569
 2293SOL     OW18514   1.818   2.261   5.157  0.0777  0.8178 -0.0385
 2293SOL    HW118515   1.862   2.208   5.223  0.9969  1.1206 -0.4099
 2293SOL    HW218516   1.765   2.195   5.111 -0.7794  1.1675  0.4473
 2294SOL     OW18517   3.291   1.989   0.819  0.1853 -0.0307  0.2626
 2294SOL    HW118518   3.354   2.060   0.836  0.2802  0.2969 -1.5137
 2294SOL    HW218519   3.286   2.006   0.725  2.6410 -1.6942 -0.1676
 2295SOL     OW18520   4.578   0.833   2.667 -0.1916  0.3862 -0.0669
 2295SOL    HW118521   4.586   0.928   2.667  1.8974  0.2270  1.6282
 2295SOL    HW218522   4.490   0.826   2.704 -0.0875  0.8382  0.2738
 2296SOL     OW18523   2.257   1.973   2.272 -0.1454  0.0537  0.3515
 2296SOL    HW118524   2.331   1.919   2.300  0.4133  1.1137  0.9220
 2296SOL    HW218525   2.210   1.917   2.211 -0.7111  1.4479 -0.4739
 2297SOL     OW18526   3.019   0.400   8.897  0.3079 -0.3678 -0.3386
 2297SOL    HW118527   3.104   0.356   8.891 -0.1217 -0.9329 -2.3291
 2297SOL    HW218528   2.991   0.383   8.807 -1.2281  0.5738 -0.0224
 2298SOL     OW18529   4.524   1.476  17.147  0.2464 -0.3017  0.4577
 2298SOL    HW118530   4.466   1.449  17.218  0.2796 -1.1377  0.1695
 2298SOL    HW218531   4.584   1.522  17.205  0.3870  1.4830 -1.0773
 2299SOL     OW18532   4.143   0.436   4.466 -1.0393  0.3093  0.4344
 2299SOL    HW118533   4.121   0.373   4.534 -2.4871 -0.9082 -1.1678
 2299SOL    HW218534   4.151   0.382   4.388  0.1880 -0.3478  1.0205
 2300SOL     OW18535   4.014   0.890  12.281 -0.0119 -0.4424  0.3739
 2300SOL    HW118536   4.021   0.985  12.294 -1.1570 -0.6386  2.4537
 2300SOL    HW218537   3.994   0.855  12.367  1.7068 -1.8425  0.1912
 2301SOL     OW18538   1.977   3.967   6.222 -0.6518  0.2739 -0.1451
 2301SOL    HW118539   2.063   3.935   6.249  0.4479  2.5383 -1.0417
 2301SOL    HW218540   1.995   4.050   6.180  1.6729  0.6042  1.5405
 2302SOL     OW18541   0.514   3.675   6.844  0.0529 -0.0043 -0.1454
 2302SOL    HW118542   0.470   3.657   6.760 -0.8917 -1.7218  0.7190
 2302SOL    HW218543   0.540   3.593   6.885  2.4158 -0.2871 -2.1572
 2303SOL     OW18544   2.951   0.877   6.321  0.0514 -0.2806  0.0018
 2303SOL    HW118545   2.962   0.927   6.241  2.2111  0.0353  0.4915
 2303SOL    HW218546   2.957   0.789   6.283  1.2120 -0.4979  0.6658
 2304SOL     OW18547   3.924   3.247   4.158  0.4712 -0.0068 -0.1250
 2304SOL    HW118548   3.852   3.271   4.100 -0.0126 -0.0254  0.4620
 2304SOL    HW218549   3.980   3.188   4.108 -2.4927 -2.5162 -0.4531
 2305SOL     OW18550   3.617   1.891  11.808 -0.0081 -0.8115  0.1873
 2305SOL    HW118551   3.643   1.975  11.769 -2.2477  0.2920  1.0443
 2305SOL    HW218552   3.549   1.860  11.748  0.0100  0.3269 -0.4282
 2306SOL     OW18553   1.503   4.009   2.939 -0.4066  0.1095 -0.9411
 2306SOL    HW118554   1.555   3.996   2.860  0.6647  1.6755 -0.4810
 2306SOL    HW218555   1.531   4.098   2.957  1.3079 -0.6907  0.2887
 2307SOL     OW18556   2.423   2.588   2.554 -0.5916  0.9218  0.5062
 2307SOL    HW118557   2.442   2.505   2.598  0.7701  0.2007 -1.4848
 2307SOL    HW218558   2.506   2.628   2.528  0.5020 -0.5044  1.7774
 2308SOL     OW18559   0.381   4.135   0.465  0.2560  0.6122 -0.2836
 2308SOL    HW118560   0.454   4.158   0.408 -0.4632  0.7225 -1.1776
 2308SOL    HW218561   0.416   4.142   0.553 -0.4154 -0.0765  0.0382
 2309SOL     OW18562   1.859   4.177   8.750 -0.1084  0.4678 -0.0108
 2309SOL    HW118563   1.926   4.212   8.691 -1.6121  0.7148 -1.5665
 2309SOL    HW218564   1.810   4.256   8.774 -1.2324 -1.0403  2.6536
 2310SOL     OW18565   2.563   1.653  17.614 -0.7517 -0.6883 -0.2004
 2310SOL    HW118566   2.487   1.603  17.645 -0.3312 -1.3961 -0.3125
 2310SOL    HW218567   2.544   1.650  17.521  2.2329  0.8151 -0.8634
 2311SOL     OW18568   0.532   1.975   7.341 -0.2675  0.0430 -0.0763
 2311SOL    HW118569   0.485   1.912   7.396 -1.0998  0.3609 -0.4140
 2311SOL    HW218570   0.583   1.922   7.280 -1.0928 -0.8552  0.0186
 2312SOL     OW18571   0.149   0.579   0.768  0.0554  0.0187 -0.0581
 2312SOL    HW118572   0.072   0.559   0.821 -0.3345  0.4528 -0.4615
 2312SOL    HW218573   0.129   0.645   0.702  1.4265 -1.4022 -1.8628
 2313SOL     OW18574   2.985   2.348  11.110  0.8379  0.4177  0.0398
 2313SOL    HW118575   2.983   2.417  11.176  0.2913 -0.6268  1.1217
 2313SOL    HW218576   2.897   2.310  11.111  0.7923  0.5491  2.2444
 2314SOL     OW18577   4.069   3.922   9.448  0.4139 -0.7159  0.0374
 2314SOL    HW118578   4.107   3.987   9.508 -0.6731  0.8867 -1.0078
 2314SOL    HW218579   4.093   3.843   9.496  1.9028 -0.4785 -0.3133
 2315SOL     OW18580   2.831   3.428   8.247 -0.5788 -0.3298  0.6038
 2315SOL    HW118581   2.872   3.404   8.331  2.5305  0.6134 -0.6781
 2315SOL    HW218582   2.874   3.376   8.180  0.4948 -0.7981  1.6567
 2316SOL     OW18583   2.981   4.471   5.014 -0.3233 -0.0598 -0.1690
 2316SOL    HW118584   3.005   4.398   5.072 -2.7652 -1.0609 -0.4347
 2316SOL    HW218585   2.942   4.424   4.940  2.6796 -1.8774 -0.6354
 2317SOL     OW18586   3.714   2.022   6.890 -0.6321 -0.1109  0.6848
 2317SOL    HW118587   3.798   1.994   6.926 -0.5858 -0.7899  0.0341
 2317SOL    HW218588   3.719   1.961   6.817 -1.4452 -0.0865  0.6063
 2318SOL     OW18589   2.636   1.380   4.990  0.2365  0.6192 -0.0331
 2318SOL    HW118590   2.665   1.391   5.080  0.2999 -1.0404  0.1544
 2318SOL    HW218591   2.629   1.472   4.965 -0.2473  0.1831 -1.5347
 2319SOL     OW18592   0.236   2.118   7.439 -0.5653 -0.0954 -0.4619
 2319SOL    HW118593   0.168   2.119   7.505 -2.2857  1.0898 -2.2712
 2319SOL    HW218594   0.284   2.035   7.453 -1.7569 -0.8412 -0.8104
 2320SOL     OW18595   2.011   0.548   3.251  0.5098 -0.3214 -0.0903
 2320SOL    HW118596   1.915   0.547   3.252  0.5187 -1.0539  0.6268
 2320SOL    HW218597   2.032   0.544   3.345 -0.1541 -3.6243 -0.0843
 2321SOL     OW18598   1.157   0.113   6.228 -0.3984  0.0056  0.0484
 2321SOL    HW118599   1.116   0.199   6.222  0.2600  0.2579 -0.8395
 2321SOL    HW218600   1.215   0.132   6.302 -0.0691 -1.2374  0.1028
 2322SOL     OW18601   4.266   0.954   7.942 -0.5369 -0.0510 -0.0736
 2322SOL    HW118602   4.238   0.962   7.851  1.0857 -3.7459 -0.8947
 2322SOL    HW218603   4.356   0.984   7.938 -0.2010 -0.8362  1.5889
 2323SOL     OW18604   2.653   0.337   5.614 -0.0109  0.3136  0.3048
 2323SOL    HW118605   2.707   0.306   5.687 -1.2834  0.3189  1.2552
 2323SOL    HW218606   2.701   0.301   5.540 -1.9827  2.0899 -1.8653
 2324SOL     OW18607   0.464   0.155  14.493 -0.2738 -0.0649 -0.7921
 2324SOL    HW118608   0.541   0.101  14.508 -1.0499 -1.1043 -0.5390
 2324SOL    HW218609   0.477   0.175  14.400  0.5746  0.6421 -0.5200
 2325SOL     OW18610   2.048   2.360  12.149 -0.1389  0.3594 -0.1455
 2325SOL    HW118611   1.960   2.363  12.112  0.0674  0.3997 -0.6328
 2325SOL    HW218612   2.100   2.294  12.103 -1.3034 -0.9730  0.4462
 2326SOL     OW18613   1.784   3.143   8.446  0.1560 -0.4219  0.5606
 2326SOL    HW118614   1.857   3.121   8.504  0.9793  1.7201  0.3343
 2326SOL    HW218615   1.740   3.207   8.501  0.1905  0.0489  0.0444
 2327SOL     OW18616   2.769   1.894  11.498 -0.1790  0.1921 -0.3811
 2327SOL    HW118617   2.725   1.932  11.422 -1.5175  1.7144  1.1721
 2327SOL    HW218618   2.823   1.961  11.541 -0.7253 -0.8605  1.9734
 2328SOL     OW18619   3.039   2.717  14.188  0.0983  0.0284 -0.0088
 2328SOL    HW118620   3.009   2.808  14.195 -2.1221 -0.6372 -0.8227
 2328SOL    HW218621   3.060   2.699  14.097 -1.0053  0.3282 -0.3240
 2329SOL     OW18622   3.485   1.940   4.278  0.4949 -0.4709 -0.4998
 2329SOL    HW118623   3.515   1.934   4.188  2.9945  0.6745  0.2501
 2329SOL    HW218624   3.433   1.860   4.286  0.2951 -0.4223 -1.3493
 2330SOL     OW18625   1.140   4.075   5.461  0.0348  0.1002  0.6309
 2330SOL    HW118626   1.163   4.023   5.385  0.9824  1.0349  0.2875
 2330SOL    HW218627   1.165   4.015   5.532  0.2305 -2.3257 -1.4954
 2331SOL     OW18628   1.974   1.141   2.104 -0.3278  0.0488  0.1860
 2331SOL    HW118629   2.065   1.123   2.128 -0.0522  2.7258  1.1373
 2331SOL    HW218630   1.956   1.053   2.071  2.6683 -1.1150  1.7308
 2332SOL     OW18631   0.812   2.727   8.077  0.3831 -0.4098  0.0071
 2332SOL    HW118632   0.900   2.762   8.069  0.0846  0.6134  1.2328
 2332SOL    HW218633   0.833   2.642   8.115  0.8921 -0.5802 -0.6768
 2333SOL     OW18634   3.114   4.261   9.437  0.1513  0.3967 -0.4291
 2333SOL    HW118635   3.182   4.238   9.373  1.4782 -0.9835  1.4573
 2333SOL    HW218636   3.086   4.344   9.398 -0.1890  0.6092  0.2679
 2334SOL     OW18637   1.960   3.808   7.851  0.0903  0.1274 -0.3367
 2334SOL    HW118638   1.996   3.798   7.939  0.5316  2.2466 -0.2678
 2334SOL    HW218639   1.867   3.811   7.873  0.3675 -2.5034  1.2642
 2335SOL     OW18640   3.865   2.049   2.627 -0.6285  0.3076 -0.4244
 2335SOL    HW118641   3.936   2.095   2.583  0.3088  2.5136  3.3101
 2335SOL    HW218642   3.856   1.961   2.591  1.6026 -0.4396  0.8341
 2336SOL     OW18643   1.841   2.956   2.921 -0.0796 -0.3421  0.1284
 2336SOL    HW118644   1.795   2.951   3.004  1.5261  0.3391  1.0568
 2336SOL    HW218645   1.766   2.987   2.870 -1.2326  1.4391  2.9084
 2337SOL     OW18646   2.504   4.461  17.072 -0.2642 -0.3060  0.0377
 2337SOL    HW118647   2.506   4.554  17.093  3.6557 -0.6233  1.0378
 2337SOL    HW218648   2.424   4.478  17.023 -0.0723  0.1384 -0.1206
 2338SOL     OW18649   1.448   0.922   4.710 -0.5415  1.0024 -0.3613
 2338SOL    HW118650   1.490   1.008   4.705  1.2027 -0.0757 -3.7655
 2338SOL    HW218651   1.356   0.950   4.704 -1.1790 -1.4145 -1.8227
 2339SOL     OW18652   0.041   2.170   3.317  0.1059  0.3089 -0.1428
 2339SOL    HW118653   4.732   2.202   3.394 -1.6699  1.9928 -1.9594
 2339SOL    HW218654   4.732   2.212   3.246  1.0052  0.1883 -0.8101
 2340SOL     OW18655   1.618   2.970   1.407 -0.7783  0.1132  0.1511
 2340SOL    HW118656   1.638   2.988   1.498 -0.3903 -2.2208  0.5246
 2340SOL    HW218657   1.557   2.896   1.408  0.4201 -0.8566  1.1602
 2341SOL     OW18658   1.783   3.658   3.972  0.0086  0.1478 -0.7121
 2341SOL    HW118659   1.875   3.655   3.996 -0.7278 -1.0192  1.9164
 2341SOL    HW218660   1.742   3.622   4.051  0.3907  0.7173 -0.2557
 2342SOL     OW18661   1.474   2.251   9.376  0.1919  0.0064  0.3587
 2342SOL    HW118662   1.538   2.232   9.445  1.9076 -1.2444 -1.5740
 2342SOL    HW218663   1.496   2.344   9.369  0.6295 -0.2429 -1.5739
 2343SOL     OW18664   1.820   3.407   9.159  0.2380  0.6793 -0.1296
 2343SOL    HW118665   1.812   3.315   9.184  2.6285  0.5298  0.1073
 2343SOL    HW218666   1.750   3.450   9.207 -2.7242 -4.7904  0.4550
 2344SOL     OW18667   3.892   0.287   0.192 -0.0965 -0.3232  0.5231
 2344SOL    HW118668   3.855   0.210   0.235  0.3905 -0.7947  0.1013
 2344SOL    HW218669   3.980   0.278   0.228  0.0591 -0.8049  0.0145
 2345SOL     OW18670   1.035   0.981  16.049  0.6218 -0.1832  0.0425
 2345SOL    HW118671   1.088   1.038  15.993  0.3336 -0.5942 -0.6459
 2345SOL    HW218672   1.080   0.984  16.133  1.0230  3.0770 -0.2900
 2346SOL     OW18673   2.352   4.490   5.043  0.1014  0.3024  0.2578
 2346SOL    HW118674   2.427   4.544   5.018 -0.3616  0.6378 -0.3998
 2346SOL    HW218675   2.324   4.445   4.964 -0.0770 -0.8085  0.9650
 2347SOL     OW18676   0.902   3.907   6.082  0.2507  0.2415  0.2453
 2347SOL    HW118677   0.887   3.996   6.049 -0.1661  0.1388  0.1673
 2347SOL    HW218678   0.995   3.895   6.061  0.1419  0.1093 -0.1613
 2348SOL     OW18679   0.248   3.374   6.776 -0.0895 -0.1021 -0.0161
 2348SOL    HW118680   0.154   3.364   6.759 -0.0380  0.8811 -0.9177
 2348SOL    HW218681   0.264   3.345   6.865 -0.6337  0.3044  0.2164
 2349SOL     OW18682   3.178   4.538   4.393  0.4399 -0.1865 -0.5879
 2349SOL    HW118683   3.199   4.452   4.431 -0.6771 -0.1263  0.1602
 2349SOL    HW218684   3.128   4.517   4.314 -2.7777 -2.0941  1.9531
 2350SOL     OW18685   4.324   0.845  11.156 -0.1921  0.5922  0.0369
 2350SOL    HW118686   4.391   0.785  11.123 -0.1632  0.1579  0.8840
 2350SOL    HW218687   4.378   0.922  11.172  0.9100  0.2534 -2.0556
 2351SOL     OW18688   4.322   3.732  11.387  0.9553 -0.4099 -0.0952
 2351SOL    HW118689   4.405   3.779  11.399 -0.4760  1.7297  1.3581
 2351SOL    HW218690   4.329   3.717  11.292 -0.6482  0.7963 -0.4021
 2352SOL     OW18691   0.360   1.586  15.320 -0.1025  0.6230 -0.1593
 2352SOL    HW118692   0.271   1.603  15.349  0.4803 -0.9979  2.5966
 2352SOL    HW218693   0.351   1.520  15.251 -0.1668 -1.0470  1.4527
 2353SOL     OW18694   2.763   0.474  15.497 -0.1070  0.5645 -0.0476
 2353SOL    HW118695   2.709   0.500  15.572  1.5108 -2.4009  2.1383
 2353SOL    HW218696   2.845   0.517  15.523  1.2461 -1.9101 -0.2324
 2354SOL     OW18697   3.914   0.148   4.938 -0.0665 -1.0205  0.3383
 2354SOL    HW118698   3.988   0.124   4.995  0.2829  1.4134  0.8884
 2354SOL    HW218699   3.878   0.060   4.928 -1.6360 -0.4907  1.4116
 2355SOL     OW18700   1.968   4.687   6.341  0.3037  0.4422 -0.0230
 2355SOL    HW118701   1.880   4.651   6.334 -0.4504  1.9857  1.4246
 2355SOL    HW218702   2.009   4.609   6.305  2.3151  1.1596  0.7266
 2356SOL     OW18703   0.106   2.048  12.016 -0.3911 -0.4284  0.1090
 2356SOL    HW118704   0.020   2.005  12.014  0.6972 -2.6830  1.4384
 2356SOL    HW218705   0.155   2.008  12.088  0.2659 -2.0064 -1.1961
 2357SOL     OW18706   0.754   2.209   3.042 -0.4802 -0.7086  0.8187
 2357SOL    HW118707   0.737   2.291   2.996  1.2067 -0.2817  0.9741
 2357SOL    HW218708   0.777   2.244   3.128 -1.0402  0.9066  0.3128
 2358SOL     OW18709   0.003   4.246   3.231 -0.3114 -0.0958  0.1136
 2358SOL    HW118710   4.678   4.249   3.304  0.9096  0.2799  1.1388
 2358SOL    HW218711   4.705   4.298   3.159 -0.6534  0.6523  0.8224
 2359SOL     OW18712   0.513   1.684   7.510  0.2617 -0.3920  0.2261
 2359SOL    HW118713   0.601   1.688   7.473  1.4373  0.5506  3.1428
 2359SOL    HW218714   0.511   1.729   7.594 -0.2169 -1.6955  0.9232
 2360SOL     OW18715   4.414   0.653   7.318  0.1369 -0.1785  0.6393
 2360SOL    HW118716   4.456   0.735   7.342  1.0228 -0.6660  0.7415
 2360SOL    HW218717   4.490   0.597   7.305 -0.5499 -0.7280 -0.9662
 2361SOL     OW18718   2.734   1.451  15.745  0.0685 -0.7853  0.5484
 2361SOL    HW118719   2.788   1.383  15.787 -0.1224 -0.6877  0.9581
 2361SOL    HW218720   2.735   1.429  15.652 -0.2634  0.7933  0.1753
 2362SOL     OW18721   0.383   3.656   2.492 -0.2189 -0.0177 -0.4579
 2362SOL    HW118722   0.352   3.688   2.576 -0.7430 -0.2765 -0.5504
 2362SOL    HW218723   0.477   3.671   2.492 -0.5608  2.0559  1.5590
 2363SOL     OW18724   0.603   0.503   5.500 -0.6086  0.1860  0.0042
 2363SOL    HW118725   0.690   0.544   5.504 -0.7811  0.8406 -2.8978
 2363SOL    HW218726   0.538   0.569   5.474 -0.7983 -0.8207 -2.1199
 2364SOL     OW18727   1.020   2.825  14.566  0.2047 -0.1155  0.4383
 2364SOL    HW118728   1.052   2.784  14.646 -0.3409 -0.8919  0.2598
 2364SOL    HW218729   0.999   2.753  14.507 -0.4849  0.4688 -0.0362
 2365SOL     OW18730   0.032   3.006   2.601  0.1104  0.2988  0.8149
 2365SOL    HW118731   0.106   3.067   2.605  0.3850  0.1377 -1.3189
 2365SOL    HW218732   4.716   3.037   2.673 -2.2346  1.9346 -1.6546
 2366SOL     OW18733   3.771   3.506   5.131 -0.8053  0.1878 -0.1593
 2366SOL    HW118734   3.845   3.447   5.145  0.1267  2.2898  3.6648
 2366SOL    HW218735   3.712   3.472   5.199  0.5573 -1.5456  0.1652
 2367SOL     OW18736   1.914   3.739   8.888 -0.1520  0.5043 -0.2967
 2367SOL    HW118737   1.821   3.759   8.888 -0.3898 -0.5920  0.5604
 2367SOL    HW218738   1.933   3.798   8.815  0.6779  0.3297 -0.2186
 2368SOL     OW18739   1.370   2.002   5.246 -0.2653  0.2302  0.0723
 2368SOL    HW118740   1.378   2.044   5.332 -0.0492 -0.0901  0.2102
 2368SOL    HW218741   1.280   2.022   5.222 -0.3396 -1.0549 -0.7376
 2369SOL     OW18742   1.661   0.590   4.291 -0.2571  0.4933  0.5072
 2369SOL    HW118743   1.738   0.579   4.347 -2.0940  1.6933  3.2633
 2369SOL    HW218744   1.595   0.604   4.358 -0.7779 -1.1206  0.3385
 2370SOL     OW18745   1.041   2.838   8.072 -0.3068  0.6708  0.3874
 2370SOL    HW118746   1.060   2.878   7.987 -1.4228 -0.9634 -0.6478
 2370SOL    HW218747   1.129   2.824   8.106  0.0326  0.3865 -0.5990
 2371SOL     OW18748   1.027   1.203   6.626 -0.0547 -0.1578 -0.2687
 2371SOL    HW118749   1.026   1.120   6.673 -0.8538 -0.0739 -0.1346
 2371SOL    HW218750   1.032   1.263   6.701 -1.8160 -0.3073 -0.0487
 2372SOL     OW18751   0.050   0.944   1.438 -0.2537  0.3387  0.3706
 2372SOL    HW118752   0.052   1.031   1.398 -0.0804 -1.1195 -2.8208
 2372SOL    HW218753   0.088   0.889   1.370 -1.1155 -0.0534  0.2035
 2373SOL     OW18754   4.481   4.054   3.926 -0.4126 -0.5891  0.5266
 2373SOL    HW118755   4.391   4.046   3.957 -0.5915  2.1832  0.7278
 2373SOL    HW218756   4.502   4.146   3.940  0.8119 -0.5706 -1.4251
 2374SOL     OW18757   3.596   1.338   7.170  0.0020  1.0658  0.0712
 2374SOL    HW118758   3.611   1.332   7.265  1.0095 -0.1195 -0.1738
 2374SOL    HW218759   3.622   1.252   7.140  0.1025  0.4380  1.9303
 2375SOL     OW18760   2.907   2.314  13.249  0.2956 -0.1490  0.4661
 2375SOL    HW118761   2.876   2.381  13.310 -2.6047 -0.8662 -0.2263
 2375SOL    HW218762   2.833   2.301  13.191  0.0206 -0.9463  0.9920
 2376SOL     OW18763   1.856   4.173  17.189  0.5891 -0.3305  0.1709
 2376SOL    HW118764   1.915   4.249  17.188 -1.8330  1.5690 -0.4910
 2376SOL    HW218765   1.892   4.117  17.257  0.8393  0.1589  0.4417
 2377SOL     OW18766   2.694   3.014   5.889 -0.0431 -0.7627  0.0575
 2377SOL    HW118767   2.665   2.951   5.824  1.3833 -1.9773  0.6011
 2377SOL    HW218768   2.737   2.957   5.954 -0.3190 -1.1683 -0.1188
 2378SOL     OW18769   3.574   2.400  16.724 -0.1360 -0.6147 -0.7577
 2378SOL    HW118770   3.489   2.411  16.767 -1.5210 -1.6658 -3.1967
 2378SOL    HW218771   3.597   2.310  16.746  0.8523 -0.6696 -2.0337
 2379SOL     OW18772   3.765   0.604   4.790 -0.1203  0.1516  0.2598
 2379SOL    HW118773   3.846   0.644   4.760 -0.0345 -1.8379 -2.1066
 2379SOL    HW218774   3.807   0.555   4.861 -1.5268 -0.9402  0.3374
 2380SOL     OW18775   0.703   3.512   7.466  0.2581  0.8594 -0.6367
 2380SOL    HW118776   0.759   3.567   7.520 -0.4083 -0.7986  1.7113
 2380SOL    HW218777   0.754   3.432   7.478 -0.4388  0.0900 -2.6451
 2381SOL     OW18778   0.993   1.581   5.226  0.4940 -0.0869  0.7305
 2381SOL    HW118779   0.957   1.605   5.141  0.8254  0.5426  0.7624
 2381SOL    HW218780   0.942   1.502   5.240  1.2150 -0.6809  0.0177
 2382SOL     OW18781   3.657   2.138  11.691  0.2190 -0.1278  0.2455
 2382SOL    HW118782   3.714   2.212  11.671  2.2793 -1.4053  1.3352
 2382SOL    HW218783   3.572   2.178  11.711  0.6324  0.5052  0.7104
 2383SOL     OW18784   3.882   2.162   1.140 -0.1238 -0.3012 -0.8317
 2383SOL    HW118785   3.884   2.256   1.120 -1.0987  0.2963  1.9270
 2383SOL    HW218786   3.790   2.152   1.166 -0.2420  1.5921 -0.4977
 2384SOL     OW18787   3.993   4.392   7.109  0.3123 -0.1110  0.0358
 2384SOL    HW118788   4.085   4.402   7.085  0.7695 -0.7896  1.4882
 2384SOL    HW218789   3.997   4.301   7.138 -1.9945  0.1374  1.1277
 2385SOL     OW18790   0.543   2.018   0.683  0.1933 -0.0806 -0.5973
 2385SOL    HW118791   0.574   2.012   0.774 -0.7090 -0.0130 -0.2873
 2385SOL    HW218792   0.455   2.053   0.693  0.4463  0.1176  1.0359
 2386SOL     OW18793   0.793   2.100   0.241 -0.4118 -0.1785 -0.1598
 2386SOL    HW118794   0.786   2.085   0.336 -2.3383  0.5187 -0.1778
 2386SOL    HW218795   0.757   2.189   0.241  2.4118  0.9543  1.2726
 2387SOL     OW18796   1.566   3.348   1.407 -0.1367 -0.2778 -0.0588
 2387SOL    HW118797   1.641   3.399   1.376  0.2568 -1.4965 -1.1196
 2387SOL    HW218798   1.493   3.395   1.366 -0.3068  1.0266  1.7355
 2388SOL     OW18799   0.854   2.792   3.933 -0.3719  0.1677 -0.1531
 2388SOL    HW118800   0.842   2.879   3.895  1.1745  0.9712  1.1761
 2388SOL    HW218801   0.874   2.811   4.025  0.3766 -0.3030 -0.2200
 2389SOL     OW18802   2.258   2.573  11.359 -0.1029  0.0229  0.6752
 2389SOL    HW118803   2.235   2.568  11.452  1.0713 -0.7360  0.9237
 2389SOL    HW218804   2.342   2.619  11.355 -0.3511  0.3941 -0.3174
 2390SOL     OW18805   0.421   1.450   6.850 -0.2944 -0.1109  0.3616
 2390SOL    HW118806   0.501   1.399   6.835  0.6575  1.4800  0.0311
 2390SOL    HW218807   0.400   1.464   6.758  0.9619 -1.1838 -0.1077
 2391SOL     OW18808   3.983   4.275   9.541  0.0002  0.4546 -0.2656
 2391SOL    HW118809   3.967   4.316   9.626 -0.8168 -0.0376 -0.1743
 2391SOL    HW218810   4.078   4.272   9.538 -0.0407 -0.0633 -1.0074
 2392SOL     OW18811   4.106   1.307   6.674  0.1067 -0.3274 -0.7876
 2392SOL    HW118812   4.036   1.284   6.735 -0.2762 -0.2813 -1.2063
 2392SOL    HW218813   4.057   1.362   6.612 -2.3325 -3.0771 -1.2666
 2393SOL     OW18814   1.688   3.189  16.518 -0.2828  0.2701  0.0395
 2393SOL    HW118815   1.688   3.279  16.486  1.2799 -0.0867 -0.9787
 2393SOL    HW218816   1.626   3.200  16.590 -0.4655  1.6561 -0.3326
 2394SOL     OW18817   0.414   1.313   1.504 -0.1941 -0.2110 -0.1041
 2394SOL    HW118818   0.391   1.384   1.443  2.2259  0.1042 -0.6491
 2394SOL    HW218819   0.497   1.272   1.479 -0.4228 -0.4857 -0.4171
 2395SOL     OW18820   2.614   0.897   2.696 -0.1314 -0.2136 -0.3158
 2395SOL    HW118821   2.553   0.835   2.655  0.1482  1.9829 -4.0080
 2395SOL    HW218822   2.686   0.839   2.724  2.3543  3.0548  0.0120
 2396SOL     OW18823   0.319   3.985  15.531  0.2451  0.0988 -0.1464
 2396SOL    HW118824   0.404   3.972  15.490 -0.8175 -1.9696 -1.6884
 2396SOL    HW218825   0.255   3.931  15.485  2.7593 -2.1815 -1.0036
 2397SOL     OW18826   2.239   3.881   5.430  0.1091  1.3214 -0.0708
 2397SOL    HW118827   2.201   3.872   5.343  0.4970 -0.9148 -0.0159
 2397SOL    HW218828   2.165   3.849   5.483  2.5152  0.9703  3.1009
 2398SOL     OW18829   3.543   3.719   5.680 -0.4034  0.3267  0.2579
 2398SOL    HW118830   3.624   3.754   5.642  0.6444  0.1574  2.3068
 2398SOL    HW218831   3.559   3.625   5.673 -3.9621 -0.2966  0.4961
 2399SOL     OW18832   0.561   2.052  16.136 -0.0188  0.0722 -0.1952
 2399SOL    HW118833   0.597   1.978  16.185  0.6869  1.9849  2.1640
 2399SOL    HW218834   0.647   2.063  16.097  0.7934 -2.5836  0.8619
 2400SOL     OW18835   0.348   1.259   1.925  0.6759 -0.4872 -0.0039
 2400SOL    HW118836   0.346   1.343   1.972 -0.6588 -0.2507 -0.4978
 2400SOL    HW218837   0.294   1.208   1.985  1.4509 -2.1600 -0.7363
 2401SOL     OW18838   2.272   1.341  13.446  0.1897  0.1900  0.1012
 2401SOL    HW118839   2.194   1.296  13.411  1.3329 -0.8494 -1.1284
 2401SOL    HW218840   2.299   1.277  13.512  4.9566  2.8066  0.6527
 2402SOL     OW18841   0.042   2.740   2.545 -0.2001  0.1871 -0.1722
 2402SOL    HW118842   0.008   2.703   2.627  0.3795 -0.7071 -0.3347
 2402SOL    HW218843   0.050   2.831   2.575 -0.9525  0.4402 -0.7291
 2403SOL     OW18844   4.148   0.234  17.678  0.1220  0.4217  0.6492
 2403SOL    HW118845   4.136   0.205   0.019 -0.2780  0.8013  0.7210
 2403SOL    HW218846   4.177   0.325  17.674 -0.4486  0.5952  0.3710
 2404SOL     OW18847   3.788   4.655   4.865 -0.9641 -0.3240 -0.0377
 2404SOL    HW118848   3.821   4.570   4.836 -1.1905  0.0543 -1.3973
 2404SOL    HW218849   3.772   4.622   4.954  3.5870 -0.6883  0.6847
 2405SOL     OW18850   4.515   2.133  16.277  0.4080  0.5131  0.5254
 2405SOL    HW118851   4.523   2.212  16.332 -1.6283  1.2235 -0.1968
 2405SOL    HW218852   4.597   2.133  16.228 -2.4384  1.1474 -4.1781
 2406SOL     OW18853   1.307   4.435   6.632 -0.3190 -0.1487  0.1928
 2406SOL    HW118854   1.257   4.500   6.681  1.2748 -0.0532  1.6733
 2406SOL    HW218855   1.263   4.354   6.656 -0.6646  0.3104  1.1172
 2407SOL     OW18856   2.599   4.716   4.853 -1.0492  0.3359  0.4911
 2407SOL    HW118857   2.674   0.038   4.848 -0.9858  0.2521  0.4273
 2407SOL    HW218858   2.615   4.693   4.944  1.7069  0.2248 -0.0129
 2408SOL     OW18859   1.083   1.678   2.300 -0.0288  0.2927  0.0119
 2408SOL    HW118860   1.153   1.683   2.366  0.7264 -0.5403 -0.7204
 2408SOL    HW218861   1.071   1.765   2.262  0.5445  0.3404 -0.0739
 2409SOL     OW18862   0.169   4.344   8.246  0.2637 -0.0064 -0.3280
 2409SOL    HW118863   0.157   4.272   8.184 -2.2399  0.8615 -0.8668
 2409SOL    HW218864   0.167   4.416   8.182 -1.2540  0.1513 -0.1240
 2410SOL     OW18865   4.142   0.389   6.272  0.0737 -0.1233  0.3573
 2410SOL    HW118866   4.125   0.461   6.212  2.7425  1.4639  1.5409
 2410SOL    HW218867   4.070   0.329   6.255  0.9202 -0.4564 -2.0286
 2411SOL     OW18868   0.868   3.936  13.551 -0.5683  0.0152  0.0877
 2411SOL    HW118869   0.909   3.849  13.548  1.2510  0.8919 -0.1859
 2411SOL    HW218870   0.926   3.994  13.502 -1.9213  1.8913  0.7323
 2412SOL     OW18871   3.838   3.362  15.481 -0.4602  0.2550  0.3642
 2412SOL    HW118872   3.847   3.451  15.446  0.4827  0.4878  1.2115
 2412SOL    HW218873   3.917   3.344  15.532 -0.9688  2.8482  2.0897
 2413SOL     OW18874   0.307   3.564   5.083  0.0624 -0.2283 -0.1192
 2413SOL    HW118875   0.381   3.510   5.110 -0.6344 -0.2446  1.7293
 2413SOL    HW218876   0.226   3.522   5.114  0.7123 -0.8694  0.6957
 2414SOL     OW18877   3.966   3.652   9.006 -0.0767  0.0374 -0.5264
 2414SOL    HW118878   3.885   3.601   8.998 -1.2376  1.8168  0.0177
 2414SOL    HW218879   3.959   3.701   9.087  0.7237  3.7359 -2.7061
 2415SOL     OW18880   2.320   3.645   4.137 -0.6266 -0.3421  0.1401
 2415SOL    HW118881   2.380   3.687   4.198 -0.6058 -0.4896  0.2200
 2415SOL    HW218882   2.260   3.594   4.191 -0.3323 -0.0751  0.7211
 2416SOL     OW18883   3.528   3.841   7.324  0.2781 -0.6816 -0.2228
 2416SOL    HW118884   3.436   3.822   7.304 -0.0624  0.5325  0.1578
 2416SOL    HW218885   3.517   3.885   7.408 -2.6222 -2.6646  0.4305
 2417SOL     OW18886   2.386   4.281   3.505  0.4873 -0.4209  0.4783
 2417SOL    HW118887   2.380   4.190   3.475  3.9584 -0.7592  0.7863
 2417SOL    HW218888   2.460   4.320   3.458 -1.2569 -0.0434 -1.9944
 2418SOL     OW18889   4.384   0.862   8.651 -0.4533 -0.7929 -0.4049
 2418SOL    HW118890   4.336   0.934   8.692  0.1328  0.6688 -2.3229
 2418SOL    HW218891   4.345   0.785   8.694  0.3054 -0.9615 -0.0168
 2419SOL     OW18892   2.039   4.572   4.502 -0.0496 -0.0263  0.6598
 2419SOL    HW118893   2.073   4.483   4.492 -0.0930 -0.1061  1.2620
 2419SOL    HW218894   2.097   4.625   4.447 -2.2157  1.8009  0.1640
 2420SOL     OW18895   0.615   3.510   5.808  0.3545 -0.0135 -0.2113
 2420SOL    HW118896   0.690   3.492   5.864 -1.1807 -0.5953  1.6508
 2420SOL    HW218897   0.617   3.443   5.739  0.3386 -0.2890  0.0569
 2421SOL     OW18898   1.546   3.002   9.279  0.5746 -0.2237 -0.2560
 2421SOL    HW118899   1.584   3.013   9.191  0.3336  0.1615 -0.3138
 2421SOL    HW218900   1.474   3.065   9.278  0.9336  0.1865 -1.6042
 2422SOL     OW18901   3.557   1.319   0.993  0.4205 -0.1398 -0.1959
 2422SOL    HW118902   3.561   1.414   1.002  2.4610  0.0054 -2.5228
 2422SOL    HW218903   3.565   1.296   1.086 -3.4387 -1.5536 -0.2109
 2423SOL     OW18904   1.099   2.881   8.786  0.1462  0.7462  0.3264
 2423SOL    HW118905   1.150   2.806   8.754  0.1950  0.8456  0.1698
 2423SOL    HW218906   1.082   2.924   8.703  1.0132  1.0397  0.2951
 2424SOL     OW18907   1.196   0.339   0.669 -0.0482 -0.0303  0.1315
 2424SOL    HW118908   1.143   0.375   0.598 -0.1340 -0.0143  0.2036
 2424SOL    HW218909   1.215   0.249   0.644 -0.7860  0.7284 -3.0913
 2425SOL     OW18910   2.609   0.378   6.790  0.4074  0.1945  0.0589
 2425SOL    HW118911   2.646   0.292   6.809  1.0727  0.8218  1.5943
 2425SOL    HW218912   2.615   0.405   6.882 -0.5365  2.1959 -0.4834
 2426SOL     OW18913   0.989   1.624  12.608 -0.0262  0.4613  0.7168
 2426SOL    HW118914   1.038   1.648  12.529 -0.5325 -0.9524 -0.0268
 2426SOL    HW218915   0.988   1.706  12.658  0.8496  1.5424 -0.9979
 2427SOL     OW18916   2.835   2.695   1.705  0.1592 -0.5255 -0.3382
 2427SOL    HW118917   2.815   2.623   1.646 -1.8242  0.2193 -0.5729
 2427SOL    HW218918   2.816   2.651   1.788 -0.5362 -0.5491 -0.5076
 2428SOL     OW18919   3.292   2.876   2.977  0.0967  0.2153 -0.6629
 2428SOL    HW118920   3.234   2.947   2.949  0.4412  0.6467 -0.2695
 2428SOL    HW218921   3.255   2.810   2.918  0.4552  0.1569 -0.8223
 2429SOL     OW18922   0.544   3.042  11.307  0.2595 -0.1480 -0.3200
 2429SOL    HW118923   0.587   2.957  11.301  1.1755  0.2652  0.2951
 2429SOL    HW218924   0.500   3.020  11.388  2.9112 -3.0535  0.3321
 2430SOL     OW18925   3.255   4.498   1.988 -0.2556 -0.2263 -0.3449
 2430SOL    HW118926   3.176   4.527   2.034 -0.9897  0.2184 -1.9069
 2430SOL    HW218927   3.303   4.452   2.058 -0.4697 -0.7249 -0.5261
 2431SOL     OW18928   2.663   2.369   8.297 -0.2760  0.7218  0.5076
 2431SOL    HW118929   2.700   2.344   8.213 -2.4660  2.5024 -0.9752
 2431SOL    HW218930   2.589   2.423   8.270 -1.8652 -1.7771 -0.1488
 2432SOL     OW18931   3.544   0.960   8.118  0.3305  0.3268  0.2099
 2432SOL    HW118932   3.481   0.980   8.049  0.2494  0.5670  0.3552
 2432SOL    HW218933   3.554   0.865   8.110  3.1625  0.5963  0.5420
 2433SOL     OW18934   3.080   3.043   5.280  0.3464  0.1540 -0.0671
 2433SOL    HW118935   3.023   3.047   5.357  2.0491  2.0546  1.0927
 2433SOL    HW218936   3.012   3.042   5.213  0.9779 -2.5982 -0.6678
 2434SOL     OW18937   4.045   0.357   1.391  0.1537 -0.2347 -0.0925
 2434SOL    HW118938   4.079   0.426   1.335 -0.2791  0.3792  0.3961
 2434SOL    HW218939   3.972   0.335   1.333  0.7202  0.0148 -0.9022
 2435SOL     OW18940   3.563   0.165   4.583 -0.4047 -0.5459 -0.2473
 2435SOL    HW118941   3.624   0.238   4.587 -0.7178 -0.4317  2.2014
 2435SOL    HW218942   3.627   0.094   4.588 -0.7922 -0.9537 -0.9925
 2436SOL     OW18943   0.005   1.724   6.329  0.1190 -0.4116 -0.2866
 2436SOL    HW118944   0.026   1.719   6.422 -0.0643  0.0883 -0.2225
 2436SOL    HW218945   0.044   1.648   6.286  2.1994  0.1314  0.6631
 2437SOL     OW18946   4.104   3.736   4.027 -0.1577  0.3693  0.2159
 2437SOL    HW118947   4.123   3.770   4.114 -0.6740  1.3329 -0.0461
 2437SOL    HW218948   4.081   3.647   4.055 -0.0816  0.7862  1.6095
 2438SOL     OW18949   2.383   0.134   2.760 -0.2047  0.1297 -0.1034
 2438SOL    HW118950   2.467   0.111   2.720  0.1506  1.2125  0.0164
 2438SOL    HW218951   2.368   0.047   2.797  0.0753  0.0298 -0.2235
 2439SOL     OW18952   0.225   0.153   8.081  0.6244  0.1948  0.0652
 2439SOL    HW118953   0.162   0.212   8.122  0.9664 -0.0053  0.8597
 2439SOL    HW218954   0.156   0.097   8.043  0.2171  2.6534 -2.8125
 2440SOL     OW18955   0.791   0.348   6.082 -0.1886 -0.0484  0.0685
 2440SOL    HW118956   0.834   0.301   6.153 -1.1075  1.2118  1.4610
 2440SOL    HW218957   0.701   0.344   6.113 -0.1582 -0.3991  0.1085
 2441SOL     OW18958   2.359   2.592  13.953 -0.5966  0.0118 -0.0581
 2441SOL    HW118959   2.373   2.610  13.860  1.5240  1.6159  0.5755
 2441SOL    HW218960   2.331   2.680  13.979 -0.2311 -0.3146  1.4599
 2442SOL     OW18961   2.710   4.405  16.823 -0.4624 -0.4413  0.1828
 2442SOL    HW118962   2.640   4.461  16.857 -1.5331 -1.5422 -0.1788
 2442SOL    HW218963   2.688   4.417  16.730  0.7120  1.8064  0.2183
 2443SOL     OW18964   2.216   2.050   2.659  1.0658 -0.1375  0.3597
 2443SOL    HW118965   2.231   2.144   2.647  1.0490 -0.2997 -0.9053
 2443SOL    HW218966   2.140   2.042   2.716  1.5200  0.3130  1.0334
 2444SOL     OW18967   2.076   3.531   2.405 -0.3600 -0.1280 -0.6118
 2444SOL    HW118968   2.061   3.521   2.499 -3.0164 -1.7953 -1.2148
 2444SOL    HW218969   2.019   3.606   2.385 -1.6686 -1.1185 -0.5751
 2445SOL     OW18970   1.880   2.762   4.577 -0.1040 -0.2131 -0.0902
 2445SOL    HW118971   1.885   2.678   4.623 -1.7882 -1.8400 -2.8540
 2445SOL    HW218972   1.786   2.778   4.564  0.5907  1.8998 -2.4875
 2446SOL     OW18973   1.214   0.999   5.774 -0.3971  0.4435  0.0918
 2446SOL    HW118974   1.237   1.077   5.825 -1.2510  0.4590  0.4571
 2446SOL    HW218975   1.304   0.968   5.762 -0.3650  0.1764  1.0270
 2447SOL     OW18976   3.669   0.089   2.214 -0.3807  0.8458 -0.1611
 2447SOL    HW118977   3.610   0.029   2.259  1.6732 -0.2428  1.1068
 2447SOL    HW218978   3.622   0.103   2.132  0.8256 -1.6936 -1.2597
 2448SOL     OW18979   2.846   0.811   8.988 -0.2797 -0.2504 -0.5452
 2448SOL    HW118980   2.931   0.777   8.960 -0.1178 -1.2629  1.1733
 2448SOL    HW218981   2.816   0.743   9.048 -0.1753  0.7323  0.6054
 2449SOL     OW18982   0.306   4.198   3.713 -0.2323  0.4642 -0.2618
 2449SOL    HW118983   0.264   4.257   3.775  2.2493 -0.3474  2.1872
 2449SOL    HW218984   0.231   4.159   3.669 -2.0712  1.2304  2.1965
 2450SOL     OW18985   0.989   3.732   4.197  0.4077  0.5480  0.0125
 2450SOL    HW118986   0.985   3.821   4.233 -0.5148  1.1612 -1.5901
 2450SOL    HW218987   0.993   3.676   4.275 -1.9203 -0.5020 -0.6063
 2451SOL     OW18988   4.618   4.361   8.877 -0.4144  0.4479  0.3628
 2451SOL    HW118989   4.674   4.314   8.815  0.8180  2.4389 -0.0429
 2451SOL    HW218990   4.610   4.445   8.831  3.6628  1.2546  1.1636
 2452SOL     OW18991   4.049   0.883   4.020  0.1524  0.1541  0.3109
 2452SOL    HW118992   3.955   0.896   4.034  0.2408  0.8342  0.2314
 2452SOL    HW218993   4.051   0.795   4.057  0.2544  0.5866  1.3241
 2453SOL     OW18994   3.028   1.477   7.076  0.2226  0.3578  0.5410
 2453SOL    HW118995   3.103   1.535   7.089  0.4482  0.0619  0.5430
 2453SOL    HW218996   2.991   1.506   6.992  0.9795 -1.1593 -0.3168
 2454SOL     OW18997   0.390   4.384   5.871 -0.0527 -0.2555  0.2485
 2454SOL    HW118998   0.420   4.335   5.795 -1.2948  1.3790 -1.3064
 2454SOL    HW218999   0.478   4.405   5.903 -1.7771  2.3045  3.3275
 2455SOL     OW19000   4.372   0.371  10.065 -0.1323  0.3781 -0.0720
 2455SOL    HW119001   4.459   0.388  10.103 -0.2825  0.6939  0.1272
 2455SOL    HW219002   4.341   0.454  10.030 -0.2933 -0.7247 -2.5543
 2456SOL     OW19003   2.310   1.107   1.823 -0.1954 -0.4294  0.1028
 2456SOL    HW119004   2.379   1.063   1.774  0.0245  0.5397 -0.4760
 2456SOL    HW219005   2.354   1.189   1.847  0.9412 -0.6625 -1.1743
 2457SOL     OW19006   3.213   4.302  13.412  0.2848 -0.3270 -0.2364
 2457SOL    HW119007   3.235   4.211  13.394 -0.4065 -0.9345  2.0011
 2457SOL    HW219008   3.279   4.348  13.361 -0.1638 -0.3977 -0.8896
 2458SOL     OW19009   2.664   3.838  17.194  0.1550  0.0584  0.3702
 2458SOL    HW119010   2.603   3.808  17.127  2.4685 -0.5342 -1.4736
 2458SOL    HW219011   2.727   3.880  17.135  0.2340 -2.0046 -1.0125
 2459SOL     OW19012   4.681   4.725  12.589 -0.1429  0.0269  0.6103
 2459SOL    HW119013   4.625   4.701  12.515 -0.7698  0.8006  0.8366
 2459SOL    HW219014   0.027   4.685  12.566  1.0376  1.2867  2.8425
 2460SOL     OW19015   0.210   0.963   5.511  0.0031 -0.0309 -0.5135
 2460SOL    HW119016   0.207   0.887   5.453  0.7416  0.3407 -1.0314
 2460SOL    HW219017   0.119   0.994   5.509  0.1872  0.4570 -1.0600
 2461SOL     OW19018   2.295   4.354  10.113 -0.4816 -0.0272 -0.3918
 2461SOL    HW119019   2.344   4.397  10.042  0.7739 -0.0891  0.4283
 2461SOL    HW219020   2.216   4.325  10.068 -1.0354  0.7251  0.0939
 2462SOL     OW19021   2.498   1.953  11.586  0.5284  0.3599 -0.7467
 2462SOL    HW119022   2.587   1.937  11.617 -0.3028  0.3957  1.6211
 2462SOL    HW219023   2.473   1.979  11.675  0.5893 -2.4169  0.0763
 2463SOL     OW19024   2.569   4.445   4.376  0.2755  0.1299 -0.6768
 2463SOL    HW119025   2.616   4.527   4.378 -0.8410  0.7225  1.0312
 2463SOL    HW219026   2.616   4.392   4.311  1.9974  1.2938 -0.3484
 2464SOL     OW19027   0.143   0.132  10.444  0.2645  0.0003  0.6194
 2464SOL    HW119028   0.067   0.091  10.484 -0.1323 -0.8149 -0.9506
 2464SOL    HW219029   0.174   0.208  10.494  0.2381  0.5695 -0.2264
 2465SOL     OW19030   1.423   3.165   4.678 -0.5379  0.4855 -0.2633
 2465SOL    HW119031   1.420   3.241   4.736  2.3567 -0.0405  0.5942
 2465SOL    HW219032   1.437   3.213   4.596  0.5673 -0.9668 -0.9363
 2466SOL     OW19033   0.510   0.603   6.197  0.0975  0.0387  0.6910
 2466SOL    HW119034   0.520   0.520   6.150 -0.2988 -1.3830  3.1197
 2466SOL    HW219035   0.584   0.610   6.258 -0.0501  3.4132  0.4594
 2467SOL     OW19036   2.079   2.158   6.311  0.1670 -0.1856  0.0209
 2467SOL    HW119037   2.062   2.105   6.389 -2.3229  1.0921  0.3301
 2467SOL    HW219038   2.026   2.233   6.340  1.3167  1.0580 -1.0935
 2468SOL     OW19039   0.757   1.902  14.227  0.2659 -0.0617  0.1508
 2468SOL    HW119040   0.831   1.904  14.287  0.1447 -1.4310  0.3491
 2468SOL    HW219041   0.704   1.978  14.251 -0.3386  0.4228 -2.6819
 2469SOL     OW19042   0.027   4.287  14.867  0.1622  0.3129 -0.6088
 2469SOL    HW119043   4.695   4.329  14.816 -1.4174 -1.4539  0.0984
 2469SOL    HW219044   4.713   4.220  14.912  0.0067  0.6484 -0.2848
 2470SOL     OW19045   0.797   4.135   5.705 -0.3813 -0.4226  0.2804
 2470SOL    HW119046   0.851   4.210   5.682 -0.3880  0.2572  2.3979
 2470SOL    HW219047   0.859   4.063   5.714  0.1193 -0.1350 -0.9175
 2471SOL     OW19048   3.621   2.721   5.653 -0.0743  0.5012 -0.3308
 2471SOL    HW119049   3.616   2.630   5.622  1.9234  0.7923 -1.5678
 2471SOL    HW219050   3.642   2.765   5.571  3.2507  0.6315  0.5815
 2472SOL     OW19051   1.589   2.327   8.076  0.3658 -1.0264 -0.6471
 2472SOL    HW119052   1.656   2.386   8.040  1.1281 -0.8449  1.0987
 2472SOL    HW219053   1.600   2.330   8.171 -1.0012  0.2420 -0.5245
 2473SOL     OW19054   1.895   0.030   4.947 -0.1599 -0.4087  0.0183
 2473SOL    HW119055   1.934   0.117   4.950  0.4528 -0.6401 -0.9814
 2473SOL    HW219056   1.963   4.718   4.993  1.4770 -0.6357 -2.6454
 2474SOL     OW19057   2.624   1.993   9.417 -0.4171  0.1735  0.0909
 2474SOL    HW119058   2.589   1.926   9.476  0.4706 -1.0618 -0.7916
 2474SOL    HW219059   2.669   2.045   9.483  1.4457  0.7078 -1.6204
 2475SOL     OW19060   1.831   0.797   3.154  0.3200 -0.3823 -0.5215
 2475SOL    HW119061   1.823   0.707   3.122 -0.2641  0.9545 -4.1519
 2475SOL    HW219062   1.806   0.845   3.075 -3.3525  0.7622  1.3875
 2476SOL     OW19063   1.211   1.589   4.251  0.7507  0.1684  0.1764
 2476SOL    HW119064   1.123   1.553   4.251  1.4194 -1.4612  0.0006
 2476SOL    HW219065   1.211   1.648   4.176 -2.9794 -0.5174 -0.3626
 2477SOL     OW19066   0.335   3.060  16.634 -0.2241  0.2375  0.6924
 2477SOL    HW119067   0.405   3.123  16.652  0.2572 -0.4234  1.0985
 2477SOL    HW219068   0.302   3.082  16.547 -3.8925  1.2707  2.3184
 2478SOL     OW19069   0.904   4.291   0.668 -0.0938  0.7035 -0.2424
 2478SOL    HW119070   0.813   4.306   0.641 -0.1082 -0.4472 -0.8766
 2478SOL    HW219071   0.913   4.202   0.632 -1.4088  1.1030 -1.5306
 2479SOL     OW19072   2.382   2.123   6.453  0.2390 -0.1455  0.3814
 2479SOL    HW119073   2.373   2.115   6.358  1.4881  1.4943  0.1395
 2479SOL    HW219074   2.290   2.134   6.476 -0.2774 -0.9289 -1.3361
 2480SOL     OW19075   1.303   3.571   5.019  0.2425  0.3125  0.4306
 2480SOL    HW119076   1.353   3.614   5.088 -0.8306  0.5567  1.0551
 2480SOL    HW219077   1.372   3.515   4.983 -0.1451 -0.5952  1.1235
 2481SOL     OW19078   0.915   3.902   9.363  0.3342  0.1058  0.5270
 2481SOL    HW119079   0.888   3.991   9.341 -0.0826 -0.4491 -1.2381
 2481SOL    HW219080   0.997   3.917   9.409 -0.9296 -0.7941  3.0782
 2482SOL     OW19081   3.926   2.180   0.248 -0.3153 -0.1651 -0.6329
 2482SOL    HW119082   3.900   2.198   0.158  0.9387  1.9710 -0.5886
 2482SOL    HW219083   3.913   2.086   0.256 -3.5108  0.2005 -1.3697
 2483SOL     OW19084   2.478   2.222   6.867 -0.2698 -0.0470 -0.0625
 2483SOL    HW119085   2.445   2.133   6.880  1.7211 -0.9537 -1.2328
 2483SOL    HW219086   2.554   2.237   6.924 -1.2372  0.0938  1.1852
 2484SOL     OW19087   0.292   1.190   6.500 -0.3903 -0.5142  0.2071
 2484SOL    HW119088   0.222   1.182   6.435  2.7321  1.2299 -3.3625
 2484SOL    HW219089   0.367   1.155   6.452  0.4082  0.4115  0.7625
 2485SOL     OW19090   0.428   0.557   7.090 -0.4007  0.1916 -0.0866
 2485SOL    HW119091   0.369   0.616   7.138 -0.7535 -1.8240  1.9745
 2485SOL    HW219092   0.413   0.600   7.006 -0.4899  1.4565  0.5686
 2486SOL     OW19093   1.214   3.664   6.438  0.6637  0.8633  0.8243
 2486SOL    HW119094   1.199   3.758   6.431 -0.1959  0.5033 -2.0206
 2486SOL    HW219095   1.137   3.647   6.492  0.8619 -1.1298  0.5144
 2487SOL     OW19096   3.316   1.169   7.693 -0.1680 -0.0252  0.1226
 2487SOL    HW119097   3.293   1.208   7.609  0.2078  1.0464  0.5233
 2487SOL    HW219098   3.410   1.183   7.687  0.2651 -2.3123  1.4704
 2488SOL     OW19099   2.705   1.626   9.591 -0.1218  0.1857 -0.0372
 2488SOL    HW119100   2.682   1.663   9.676  0.2992 -0.4960  0.3758
 2488SOL    HW219101   2.672   1.539   9.612  0.8623 -0.4442 -1.0764
 2489SOL     OW19102   3.805   4.691   5.865  0.2420  0.3233  0.1183
 2489SOL    HW119103   3.810   4.624   5.796 -0.9070  0.7381 -0.3695
 2489SOL    HW219104   3.890   4.676   5.906  0.9086  1.5749 -0.7826
 2490SOL     OW19105   4.542   2.993  12.530  0.1302 -0.1582  0.0560
 2490SOL    HW119106   4.557   2.973  12.437 -0.0322  1.2752 -0.2799
 2490SOL    HW219107   4.543   2.904  12.565  0.2759  0.5721  1.8640
 2491SOL     OW19108   2.652   4.555  11.828 -0.0292  0.1218 -0.5038
 2491SOL    HW119109   2.651   4.564  11.923 -0.9150  0.9093 -0.5890
 2491SOL    HW219110   2.583   4.490  11.813 -1.4342  1.8232 -1.3363
 2492SOL     OW19111   2.624   3.543   2.849 -1.0158 -0.3992  0.1773
 2492SOL    HW119112   2.544   3.503   2.816 -2.0966  0.6145  1.5778
 2492SOL    HW219113   2.632   3.495   2.932  1.0555  0.2427  0.3542
 2493SOL     OW19114   2.458   4.015  13.987 -0.3997 -0.1626 -0.1523
 2493SOL    HW119115   2.452   4.067  13.907 -0.0816 -4.3648 -2.8714
 2493SOL    HW219116   2.486   4.076  14.055 -0.1457  0.9384 -1.2552
 2494SOL     OW19117   0.346   1.918  12.679  0.3334 -0.1038 -0.1642
 2494SOL    HW119118   0.370   1.969  12.602 -0.5333  1.8282  0.8481
 2494SOL    HW219119   0.279   1.972  12.722  1.2105  0.0049  1.0835
 2495SOL     OW19120   1.338   2.732   1.720  0.6090  0.5165 -0.5578
 2495SOL    HW119121   1.277   2.698   1.655 -0.8477 -0.3745  1.2806
 2495SOL    HW219122   1.340   2.654   1.776 -2.5911  0.2700 -0.7985
 2496SOL     OW19123   0.403   2.090   6.564 -0.0451  0.3450  0.3442
 2496SOL    HW119124   0.484   2.141   6.571  0.7926 -0.8072 -1.1347
 2496SOL    HW219125   0.358   2.124   6.642  2.0965  0.8135  1.3587
 2497SOL     OW19126   1.891   1.007  13.412 -1.0344  0.2082  0.0743
 2497SOL    HW119127   1.913   0.916  13.433  0.2830  0.3670 -0.6234
 2497SOL    HW219128   1.830   0.998  13.340 -0.8310  0.2619 -0.1043
 2498SOL     OW19129   4.306   4.406  13.786 -0.1153  0.0659 -0.2975
 2498SOL    HW119130   4.232   4.409  13.725 -0.4567 -2.6898 -0.0236
 2498SOL    HW219131   4.270   4.355  13.859 -0.3844  1.0687  0.2704
 2499SOL     OW19132   1.573   2.887   1.814  0.2631 -0.4417  0.1575
 2499SOL    HW119133   1.508   2.837   1.765  0.1345  0.6548 -0.7909
 2499SOL    HW219134   1.530   2.972   1.825 -2.4473 -1.7473 -0.3563
 2500SOL     OW19135   2.227   3.043   3.827  0.3504  0.3556 -0.3079
 2500SOL    HW119136   2.310   3.054   3.780  0.1100 -3.6439 -1.6046
 2500SOL    HW219137   2.240   3.104   3.900 -1.1461  1.9761 -1.4002
 2501SOL     OW19138   2.636   3.505   5.379  0.5157  0.4180  0.1279
 2501SOL    HW119139   2.608   3.596   5.390  0.7309  0.7208 -1.7188
 2501SOL    HW219140   2.666   3.490   5.468  0.6910  2.0269  0.3553
 2502SOL     OW19141   0.405   1.508   9.072 -0.3022 -0.6173 -1.3679
 2502SOL    HW119142   0.327   1.460   9.046 -1.9679  0.6598  1.1929
 2502SOL    HW219143   0.456   1.503   8.991  1.2635 -0.8327 -0.3859
 2503SOL     OW19144   3.365   2.857   3.383  0.0200  0.0020  0.0907
 2503SOL    HW119145   3.354   2.799   3.457  0.3125  0.3675  0.4204
 2503SOL    HW219146   3.429   2.814   3.327 -0.7623 -1.0302 -0.0080
 2504SOL     OW19147   4.250   0.856   5.102  0.0120 -0.0311 -0.4240
 2504SOL    HW119148   4.292   0.846   5.017 -3.0763 -2.1802 -1.7116
 2504SOL    HW219149   4.161   0.822   5.090 -0.4673  0.6604  1.1728
 2505SOL     OW19150   3.247   4.583   2.631 -0.0732 -0.6215  0.7092
 2505SOL    HW119151   3.321   4.638   2.657 -0.5576  0.1234  0.4889
 2505SOL    HW219152   3.177   4.643   2.608 -0.2140 -1.0383  0.0530
 2506SOL     OW19153   0.394   0.672  17.515  0.6321 -0.1734  0.2281
 2506SOL    HW119154   0.408   0.601  17.452 -0.1361 -0.5253  0.4604
 2506SOL    HW219155   0.301   0.691  17.508  0.9835  1.4376 -0.1099
 2507SOL     OW19156   4.367   0.642   1.158 -0.1488  0.1406  0.2052
 2507SOL    HW119157   4.315   0.563   1.144 -0.4295  0.2858  0.4306
 2507SOL    HW219158   4.445   0.608   1.201  0.7089  1.3538 -0.4174
 2508SOL     OW19159   0.725   4.585   8.824  0.3867 -0.8262  0.2333
 2508SOL    HW119160   0.771   4.501   8.820 -0.7097 -1.4648  0.8151
 2508SOL    HW219161   0.717   4.611   8.733 -1.6515  0.5928  0.8214
 2509SOL     OW19162   2.543   4.559   6.622 -0.2209  0.1867  0.0609
 2509SOL    HW119163   2.599   4.490   6.586  2.7409  1.2904  2.5165
 2509SOL    HW219164   2.595   4.633   6.590  0.9181 -1.1782 -1.2337
 2510SOL     OW19165   2.978   2.909   8.977 -0.2522  0.7517 -0.7676
 2510SOL    HW119166   2.900   2.901   9.030 -0.2427 -0.3338 -0.9294
 2510SOL    HW219167   3.010   2.996   9.003 -2.6072  0.7554  2.0010
 2511SOL     OW19168   1.121   1.270  14.278 -0.4216 -0.6883  0.2928
 2511SOL    HW119169   1.215   1.277  14.295 -0.3672  0.9357 -0.7054
 2511SOL    HW219170   1.099   1.362  14.266  0.3935 -0.9146 -2.8937
 2512SOL     OW19171   1.368   4.390  13.380 -0.5144  0.5927 -0.0084
 2512SOL    HW119172   1.367   4.312  13.435 -0.5049  0.8186  0.3107
 2512SOL    HW219173   1.463   4.391  13.369 -0.4498 -0.1103  0.4886
 2513SOL     OW19174   2.875   4.452   5.661 -0.7811  0.2897 -0.5446
 2513SOL    HW119175   2.879   4.437   5.566 -0.6516  0.6266 -0.5910
 2513SOL    HW219176   2.780   4.457   5.666 -0.9633 -0.6683 -2.7612
 2514SOL     OW19177   4.651   3.297   7.019 -0.6478  0.1043  0.4048
 2514SOL    HW119178   4.639   3.292   7.114  0.4199 -0.0724  0.5261
 2514SOL    HW219179   4.673   3.206   6.997 -0.0303  0.5662 -0.8387
 2515SOL     OW19180   3.822   3.377  13.926  0.0213 -0.0144  0.8388
 2515SOL    HW119181   3.800   3.470  13.931  0.0230  0.0346  0.0264
 2515SOL    HW219182   3.856   3.375  13.836 -1.8597 -1.2807  0.1690
 2516SOL     OW19183   3.219   1.668   7.030 -0.1091 -0.1682 -0.1124
 2516SOL    HW119184   3.277   1.709   6.966 -1.9671  0.1315 -1.5991
 2516SOL    HW219185   3.281   1.622   7.086 -2.0689 -1.4682  1.0033
 2517SOL     OW19186   2.737   2.261   7.390  0.2149  0.1112 -0.3928
 2517SOL    HW119187   2.737   2.231   7.481  1.7694  0.9051 -0.1333
 2517SOL    HW219188   2.671   2.331   7.393  0.1211 -0.0503  1.2063
 2518SOL     OW19189   4.639   4.000   0.632  0.0160  0.5620 -0.6330
 2518SOL    HW119190   4.727   3.976   0.601  0.1052  0.8714 -0.6216
 2518SOL    HW219191   4.637   4.090   0.600  1.4884  1.0629  0.6891
 2519SOL     OW19192   0.831   0.939   4.623  0.4225  0.5010  0.0825
 2519SOL    HW119193   0.750   0.989   4.620  0.0560 -0.0601  0.6129
 2519SOL    HW219194   0.854   0.930   4.715  0.2263 -2.0591 -0.1298
 2520SOL     OW19195   1.195   1.403  14.025 -0.2542  0.0722  0.1720
 2520SOL    HW119196   1.194   1.464  13.952  0.9833 -0.1304 -0.0103
 2520SOL    HW219197   1.115   1.354  14.005 -0.7904  0.0668  2.2580
 2521SOL     OW19198   2.837   1.361   7.853 -0.1688 -0.3491 -0.0983
 2521SOL    HW119199   2.807   1.288   7.906  0.2506 -0.4169  0.0472
 2521SOL    HW219200   2.923   1.326   7.830 -0.0813  0.6460 -1.3184
 2522SOL     OW19201   3.565   2.008   2.213 -0.5031 -0.1989 -0.0995
 2522SOL    HW119202   3.559   1.962   2.296  0.5989 -0.4530 -0.1556
 2522SOL    HW219203   3.485   2.061   2.219 -0.6249 -0.3302 -0.5460
 2523SOL     OW19204   3.863   3.355  13.660  0.1510  0.8628 -0.0330
 2523SOL    HW119205   3.876   3.261  13.643 -0.1127  0.2958  2.8640
 2523SOL    HW219206   3.897   3.402  13.583 -1.4802 -0.6893 -1.7104
 2524SOL     OW19207   3.633   2.686   8.192 -0.4043  0.5079 -0.6011
 2524SOL    HW119208   3.629   2.625   8.119 -0.4660 -1.0870  0.7280
 2524SOL    HW219209   3.706   2.746   8.174 -0.5795  1.0114  0.3292
 2525SOL     OW19210   1.617   3.614   3.512  0.0426  0.2373  0.4907
 2525SOL    HW119211   1.583   3.699   3.483 -1.3755 -0.0508  1.2630
 2525SOL    HW219212   1.710   3.635   3.515  0.3015 -1.0560  1.3103
 2526SOL     OW19213   1.213   0.485  13.756 -0.0717 -0.4805  0.4091
 2526SOL    HW119214   1.199   0.406  13.809  0.2529 -1.1411 -0.4818
 2526SOL    HW219215   1.296   0.462  13.713 -0.0166 -3.1038  1.8944
 2527SOL     OW19216   2.011   2.547   4.362 -0.2919 -0.5030 -0.4438
 2527SOL    HW119217   1.957   2.522   4.287  1.9372 -1.2597 -1.7813
 2527SOL    HW219218   1.961   2.606   4.418 -0.4333  0.1053 -1.1999
 2528SOL     OW19219   2.486   2.681   9.754  0.1474 -0.2737  0.3629
 2528SOL    HW119220   2.435   2.737   9.812 -0.4336 -0.2550 -0.1664
 2528SOL    HW219221   2.412   2.639   9.710  1.0695  0.8513 -2.2421
 2529SOL     OW19222   3.638   2.158  16.785 -0.2580 -0.4331 -0.5828
 2529SOL    HW119223   3.685   2.099  16.726 -0.7320 -0.1101 -1.2804
 2529SOL    HW219224   3.669   2.118  16.866 -0.7527 -1.5244 -0.9342
 2530SOL     OW19225   2.153   3.156   1.215  0.6292  0.7181  0.0576
 2530SOL    HW119226   2.165   3.104   1.294 -0.8413 -0.0787 -0.2498
 2530SOL    HW219227   2.066   3.195   1.218  0.1093 -0.5324  1.2540
 2531SOL     OW19228   1.154   2.025   9.108  0.0684 -0.2631 -0.7202
 2531SOL    HW119229   1.186   2.115   9.120 -0.6252 -0.2415  1.1099
 2531SOL    HW219230   1.206   2.002   9.032  1.2237  0.8131 -0.2618
 2532SOL     OW19231   2.172   4.124   2.254  0.0739  0.1129  0.6490
 2532SOL    HW119232   2.265   4.108   2.269  0.0603 -0.5760  0.0283
 2532SOL    HW219233   2.132   4.109   2.339  0.5837  0.0678  0.8791
 2533SOL     OW19234   2.812   1.112   6.909 -0.3549 -0.4742  0.0581
 2533SOL    HW119235   2.753   1.115   6.834 -0.1130 -3.8142 -0.2805
 2533SOL    HW219236   2.889   1.079   6.864  0.2891 -2.5943  2.7074
 2534SOL     OW19237   0.699   1.324   9.716 -0.3283  0.1400 -0.4232
 2534SOL    HW119238   0.666   1.238   9.690 -0.3475  0.7326 -2.3407
 2534SOL    HW219239   0.684   1.379   9.639  2.4747 -0.4706 -1.3965
 2535SOL     OW19240   3.519   0.360   5.317  0.0996 -0.1622 -0.2553
 2535SOL    HW119241   3.500   0.286   5.259 -0.0066 -1.0457  0.8926
 2535SOL    HW219242   3.563   0.317   5.390  1.6925  2.5934  0.3865
 2536SOL     OW19243   2.912   3.775  11.876  0.4089  0.5217  0.2852
 2536SOL    HW119244   2.840   3.803  11.932 -0.7942  1.1195 -1.5618
 2536SOL    HW219245   2.896   3.681  11.887  1.9272 -0.1560 -3.3507
 2537SOL     OW19246   1.789   3.886   8.233  0.4315 -0.5358 -0.3084
 2537SOL    HW119247   1.834   3.805   8.255  1.1514  0.5777  2.2613
 2537SOL    HW219248   1.766   3.865   8.142 -1.0441  0.0569 -0.0629
 2538SOL     OW19249   2.183   4.726  15.615  0.8436 -0.4116  0.0305
 2538SOL    HW119250   2.152   0.078  15.599 -0.6704 -1.2272 -1.6357
 2538SOL    HW219251   2.095   4.699  15.642  0.6083  0.5719  0.2802
 2539SOL     OW19252   0.369   1.152  17.162 -0.2489  0.1261  0.1388
 2539SOL    HW119253   0.441   1.090  17.153  1.5257  1.9401  1.5860
 2539SOL    HW219254   0.359   1.140  17.257  2.4640 -0.8469  0.2928
 2540SOL     OW19255   1.493   3.384   7.773  0.3255  0.0534  0.6569
 2540SOL    HW119256   1.455   3.467   7.800  0.1938 -0.6959  2.8022
 2540SOL    HW219257   1.487   3.339   7.858 -0.0205 -1.7363 -0.3179
 2541SOL     OW19258   3.610   1.563   8.199 -0.1361  0.1531  0.4027
 2541SOL    HW119259   3.595   1.635   8.260 -1.5601 -0.2170  0.5011
 2541SOL    HW219260   3.518   1.539   8.185  0.5251 -2.4864  0.6382
 2542SOL     OW19261   3.694   2.791   0.709  0.0822 -0.2918 -0.2125
 2542SOL    HW119262   3.605   2.826   0.710  1.0585  2.1621 -0.8146
 2542SOL    HW219263   3.750   2.867   0.697  0.2049 -0.1496  1.2286
 2543SOL     OW19264   4.417   3.362  15.462 -0.6644  0.3177  0.2722
 2543SOL    HW119265   4.458   3.447  15.450 -0.6332  0.5230  1.7720
 2543SOL    HW219266   4.409   3.333  15.371  1.0360  0.2187  0.1507
 2544SOL     OW19267   2.417   3.070  13.125  0.0890 -0.4536 -0.4699
 2544SOL    HW119268   2.443   3.149  13.077 -2.4855  0.8670  0.3242
 2544SOL    HW219269   2.484   3.010  13.091 -0.1639 -1.0368  0.0502
 2545SOL     OW19270   2.846   1.031  16.248  0.1126 -0.2664  0.4081
 2545SOL    HW119271   2.835   0.961  16.312 -3.4963  0.1379  0.2362
 2545SOL    HW219272   2.912   1.083  16.294 -0.1043 -0.2022  0.6486
 2546SOL     OW19273   2.355   4.388   4.048  0.4652 -0.7821 -0.3155
 2546SOL    HW119274   2.266   4.420   4.035  0.2998 -1.9732 -2.0651
 2546SOL    HW219275   2.399   4.394   3.963  0.0268  0.8879 -0.4045
 2547SOL     OW19276   2.067   0.347   8.846 -0.1881  0.3397  0.0344
 2547SOL    HW119277   1.976   0.320   8.856  0.0832 -0.6974 -0.2724
 2547SOL    HW219278   2.055   0.439   8.872  0.5486  0.0047  1.5759
 2548SOL     OW19279   0.188   0.524   1.994  0.1326 -0.2041  0.1856
 2548SOL    HW119280   0.254   0.489   1.935  0.8541  0.3325  0.6728
 2548SOL    HW219281   0.147   0.583   1.930  0.8655 -0.7412 -0.7594
 2549SOL     OW19282   1.407   1.523  14.138 -0.2632 -0.3361 -0.2431
 2549SOL    HW119283   1.348   1.479  14.077  0.1781 -0.7321 -0.3888
 2549SOL    HW219284   1.424   1.450  14.198  1.2316 -1.3535 -1.8933
 2550SOL     OW19285   0.354   2.544   4.226  0.1598  0.9424  0.4073
 2550SOL    HW119286   0.370   2.624   4.276 -1.1446  2.8379 -2.1775
 2550SOL    HW219287   0.393   2.486   4.291 -0.6282  0.7383  0.6981
 2551SOL     OW19288   4.165   4.533   9.280 -0.2622  0.0573 -0.4677
 2551SOL    HW119289   4.221   4.608   9.259  3.4561 -2.2416  1.3870
 2551SOL    HW219290   4.218   4.487   9.344 -1.5963 -0.5016  0.2357
 2552SOL     OW19291   1.911   2.457  15.987 -0.1207  0.1925 -0.1700
 2552SOL    HW119292   1.934   2.545  15.957 -1.6147  1.1764  1.6191
 2552SOL    HW219293   1.829   2.470  16.033  0.1450  2.2110 -0.2771
 2553SOL     OW19294   0.617   4.645  15.332  0.2261 -0.0234  0.2209
 2553SOL    HW119295   0.706   4.679  15.322 -0.0409  0.8511  0.8455
 2553SOL    HW219296   0.575   4.678  15.253 -1.1270 -0.5126  0.7336
 2554SOL     OW19297   3.639   1.503  14.851  0.0901 -0.2163  0.3497
 2554SOL    HW119298   3.713   1.492  14.792 -2.0527  0.4825 -2.4358
 2554SOL    HW219299   3.620   1.414  14.880 -0.2657 -0.0233  0.7275
 2555SOL     OW19300   1.678   4.555   5.665  0.3994  0.0496 -0.3438
 2555SOL    HW119301   1.716   4.611   5.598 -0.1163 -1.2423 -1.7207
 2555SOL    HW219302   1.600   4.608   5.684 -1.3895 -2.8799  0.5348
 2556SOL     OW19303   3.725   3.516   5.865  0.1546  0.0154 -0.1247
 2556SOL    HW119304   3.772   3.435   5.885 -1.0320 -0.5107  0.5389
 2556SOL    HW219305   3.695   3.491   5.777  0.1673  1.2913 -0.4854
 2557SOL     OW19306   0.088   1.572   3.468 -0.5438 -0.2778 -0.1097
 2557SOL    HW119307   0.083   1.536   3.557  0.5509  0.1758  0.1310
 2557SOL    HW219308   0.126   1.659   3.479 -1.6272  0.7147 -4.1976
 2558SOL     OW19309   1.985   1.725  11.344 -0.1537 -0.1295  0.0252
 2558SOL    HW119310   2.065   1.770  11.370  0.4554  0.3469 -2.6107
 2558SOL    HW219311   1.920   1.754  11.408 -0.0351  0.1902  0.0016
 2559SOL     OW19312   2.804   1.881   9.206 -0.0058  0.0908 -0.3816
 2559SOL    HW119313   2.726   1.912   9.253  1.6007  0.7058  1.8858
 2559SOL    HW219314   2.813   1.791   9.239  1.4197  1.1602  2.1441
 2560SOL     OW19315   1.131   3.032   4.394  0.0444 -0.1426  0.3086
 2560SOL    HW119316   1.172   2.990   4.318 -2.6608 -2.8769  0.3451
 2560SOL    HW219317   1.149   2.968   4.463  0.4814  1.1755  1.4008
 2561SOL     OW19318   0.172   3.076  15.228  0.1390 -0.6056  0.3144
 2561SOL    HW119319   0.255   3.029  15.237 -0.0448 -0.7840  1.0011
 2561SOL    HW219320   0.173   3.116  15.315  1.3734  2.3273 -1.0235
 2562SOL     OW19321   4.680   0.741   7.147  0.1963 -0.1283  0.1440
 2562SOL    HW119322   4.664   0.658   7.190 -3.3420  1.0170  1.0822
 2562SOL    HW219323   0.019   0.769   7.197 -0.1521  1.2808 -0.0955
 2563SOL     OW19324   2.488   2.560   2.840  0.0277 -0.0876  0.0603
 2563SOL    HW119325   2.474   2.655   2.844  0.0779 -0.1637  2.0248
 2563SOL    HW219326   2.579   2.563   2.808  0.1341  0.8477  0.4582
 2564SOL     OW19327   2.553   2.326   4.616  0.1538  0.5692  0.4721
 2564SOL    HW119328   2.528   2.254   4.558  2.3778 -1.8582  2.5240
 2564SOL    HW219329   2.604   2.373   4.549  0.6036 -0.4001  0.1387
 2565SOL     OW19330   1.095   4.592   5.958  0.0007 -0.3692  0.0311
 2565SOL    HW119331   1.030   4.657   5.985 -0.3348 -0.2941 -0.9842
 2565SOL    HW219332   1.056   4.519   6.007 -1.9270  0.0024 -0.9383
 2566SOL     OW19333   2.277   4.552   2.128 -1.1330 -0.3387  0.6055
 2566SOL    HW119334   2.229   4.469   2.129 -0.0057 -1.0066 -0.0962
 2566SOL    HW219335   2.322   4.552   2.212 -0.9432 -1.9969  0.5150
 2567SOL     OW19336   3.000   0.096  11.557 -0.0046 -0.2367  0.3550
 2567SOL    HW119337   3.067   0.141  11.607 -0.1205  0.9275 -0.5275
 2567SOL    HW219338   2.980   0.032  11.625  2.4317 -0.6048  0.7223
 2568SOL     OW19339   2.348   3.536   4.931 -0.4139 -0.3039  0.7852
 2568SOL    HW119340   2.325   3.627   4.948  0.2776 -0.1022  0.6593
 2568SOL    HW219341   2.262   3.498   4.914 -0.9155 -0.3238  3.3768
 2569SOL     OW19342   4.179   0.762   8.969  0.1357 -0.8757 -0.2003
 2569SOL    HW119343   4.134   0.725   8.893 -1.2699  0.4941 -0.0269
 2569SOL    HW219344   4.151   0.703   9.040  1.8379 -0.3626  0.8862
 2570SOL     OW19345   4.343   2.142   3.976 -0.3634  0.1252 -1.0703
 2570SOL    HW119346   4.419   2.197   3.992 -0.6899 -0.6830  3.2859
 2570SOL    HW219347   4.312   2.115   4.063  0.1828  1.7779 -0.3596
 2571SOL     OW19348   3.228   3.217   0.836  0.5081  0.1355 -0.3359
 2571SOL    HW119349   3.310   3.172   0.857 -0.8872 -1.6525  1.3017
 2571SOL    HW219350   3.165   3.160   0.880  1.3665 -1.2978 -0.9540
 2572SOL     OW19351   1.874   1.531   1.561 -0.4459 -0.3178 -0.1365
 2572SOL    HW119352   1.803   1.556   1.502  0.6096  3.2400  0.0711
 2572SOL    HW219353   1.896   1.616   1.600 -0.4663  0.4250 -1.7433
 2573SOL     OW19354   3.792   4.588   2.748 -0.0559 -0.1004 -0.7562
 2573SOL    HW119355   3.791   4.494   2.765  0.9182 -0.6010 -3.3406
 2573SOL    HW219356   3.876   4.612   2.787 -0.2441  1.0929 -1.0683
 2574SOL     OW19357   1.307   2.256   2.765  0.0159 -0.6594 -0.5818
 2574SOL    HW119358   1.353   2.312   2.702 -1.5558 -0.1379 -1.2507
 2574SOL    HW219359   1.215   2.278   2.751  0.6073  1.4542 -1.1335
 2575SOL     OW19360   4.395   4.172   2.356 -0.3698  0.0901  0.2185
 2575SOL    HW119361   4.455   4.097   2.361 -0.0537  0.5599  3.7915
 2575SOL    HW219362   4.346   4.148   2.277  0.0992 -0.4428  0.0894
 2576SOL     OW19363   3.278   3.033   4.760  0.1566  0.5735  0.1190
 2576SOL    HW119364   3.313   2.956   4.805  1.1234 -0.1389 -1.8522
 2576SOL    HW219365   3.185   3.013   4.769 -0.0153  0.6745 -1.3410
 2577SOL     OW19366   3.278   1.043   2.102  0.5169  0.6218 -0.1092
 2577SOL    HW119367   3.204   1.102   2.089 -0.1695  0.0730  1.3362
 2577SOL    HW219368   3.326   1.080   2.177  0.6976  1.3905 -0.6025
 2578SOL     OW19369   4.573   3.019   5.590  0.8888  0.0412 -0.5922
 2578SOL    HW119370   4.626   2.939   5.582 -1.0717 -1.2856 -0.2087
 2578SOL    HW219371   4.578   3.036   5.684  0.1212 -2.6962 -0.0787
 2579SOL     OW19372   0.259   1.737   5.026  0.8481  0.2453 -0.0373
 2579SOL    HW119373   0.203   1.659   5.030  1.5229 -0.2679 -0.7664
 2579SOL    HW219374   0.262   1.735   4.930 -0.9610 -1.5595 -0.0585
 2580SOL     OW19375   0.306   0.299  10.047  0.0680  0.2202  0.2992
 2580SOL    HW119376   0.262   0.298  10.132  0.2346  0.8423  0.3913
 2580SOL    HW219377   0.398   0.287  10.070  0.3713  2.3765  0.2075
 2581SOL     OW19378   2.661   4.620   9.528  0.5383 -0.0631  0.0108
 2581SOL    HW119379   2.664   4.708   9.565  1.5615 -0.4139  0.7924
 2581SOL    HW219380   2.674   4.572   9.611  0.2693 -0.1580 -0.0022
 2582SOL     OW19381   3.847   2.479   5.648 -0.5244 -0.2946 -0.7524
 2582SOL    HW119382   3.774   2.427   5.682 -1.0365  1.0847  0.2706
 2582SOL    HW219383   3.850   2.451   5.556  0.1350 -0.3256 -0.7203
 2583SOL     OW19384   0.852   0.418   3.143 -0.6626 -0.2220 -0.4916
 2583SOL    HW119385   0.912   0.492   3.153 -0.3464 -0.8465  2.1333
 2583SOL    HW219386   0.858   0.391   3.234 -1.0250 -1.0900 -0.7261
 2584SOL     OW19387   1.558   0.475  16.558 -0.8059  0.2533 -0.3238
 2584SOL    HW119388   1.631   0.535  16.545  0.2255 -0.8766  0.2186
 2584SOL    HW219389   1.504   0.506  16.485  0.0787  0.5710 -0.8400
 2585SOL     OW19390   3.836   4.166  16.877  0.5129  0.4882 -0.5477
 2585SOL    HW119391   3.790   4.121  16.948  0.6862  0.7585 -0.2673
 2585SOL    HW219392   3.779   4.143  16.803 -2.2266 -2.0514  2.3261
 2586SOL     OW19393   2.973   0.581   7.168  0.0659  0.3089  0.3170
 2586SOL    HW119394   2.928   0.507   7.129  1.4362 -0.2221 -0.2479
 2586SOL    HW219395   2.986   0.632   7.088 -0.4879 -1.8923 -1.1717
 2587SOL     OW19396   4.234   4.658  11.393  0.5394  0.9449 -0.3913
 2587SOL    HW119397   4.228   0.002  11.344 -0.4608 -0.0790 -2.0007
 2587SOL    HW219398   4.158   4.669  11.449 -0.3699 -0.4709 -1.3545
 2588SOL     OW19399   3.415   3.719  17.213  0.2316  0.2850  0.3761
 2588SOL    HW119400   3.417   3.776  17.135 -1.4696  0.1341  0.2196
 2588SOL    HW219401   3.328   3.684  17.228 -0.2337  1.1081 -0.3698
 2589SOL     OW19402   1.602   2.118   8.507  0.2798  0.0918  0.6641
 2589SOL    HW119403   1.533   2.117   8.573 -0.1039  0.8009  0.2781
 2589SOL    HW219404   1.605   2.025   8.487  2.5621 -0.1865  2.2857
 2590SOL     OW19405   1.372   2.510   4.675  0.0845  0.0554 -0.4286
 2590SOL    HW119406   1.357   2.529   4.768  0.4018  0.4508 -0.4557
 2590SOL    HW219407   1.296   2.454   4.655  0.4310 -0.1013 -1.2751
 2591SOL     OW19408   2.303   3.759   8.031  0.0128  0.0395 -0.1479
 2591SOL    HW119409   2.335   3.669   8.035  1.0870  0.3875 -0.7550
 2591SOL    HW219410   2.360   3.809   7.973  1.5572 -0.7828  0.6608
 2592SOL     OW19411   1.753   4.732   6.747  0.0964 -0.1260 -0.4063
 2592SOL    HW119412   1.672   0.001   6.697  0.3601 -2.1073 -1.1293
 2592SOL    HW219413   1.742   4.644   6.784 -0.2056 -0.1136 -0.4708
 2593SOL     OW19414   1.716   4.019   5.475 -0.2530  0.4148 -0.2508
 2593SOL    HW119415   1.676   4.102   5.501  0.4421  0.7534 -0.2756
 2593SOL    HW219416   1.648   3.954   5.493  0.3418 -0.6744 -1.8837
 2594SOL     OW19417   2.300   1.917   8.333 -0.7000 -0.2718 -0.1896
 2594SOL    HW119418   2.386   1.918   8.375 -1.3984 -0.0755  1.2458
 2594SOL    HW219419   2.238   1.942   8.402 -0.8126 -1.4503  0.1459
 2595SOL     OW19420   1.014   4.488   5.455 -0.2326 -0.0311 -0.2985
 2595SOL    HW119421   1.062   4.468   5.375 -0.6350  1.1902 -0.8518
 2595SOL    HW219422   0.988   4.578   5.432 -1.6738 -0.6152 -0.9286
 2596SOL     OW19423   3.201   1.082   5.197 -0.0621  0.5139  0.3173
 2596SOL    HW119424   3.181   0.989   5.205 -0.6314  0.6387  0.3055
 2596SOL    HW219425   3.206   1.094   5.102 -1.2448  1.1824  0.3513
 2597SOL     OW19426   3.876   3.306   9.172  0.4551  0.2479 -0.4776
 2597SOL    HW119427   3.903   3.223   9.211 -0.8966 -1.5830 -3.4402
 2597SOL    HW219428   3.883   3.366   9.246 -0.2623  0.7512 -0.8105
 2598SOL     OW19429   3.004   0.517   3.465  0.2649  0.1415  0.1966
 2598SOL    HW119430   3.073   0.565   3.511  0.0221  0.4181  0.2689
 2598SOL    HW219431   2.981   0.465   3.542  2.1087  0.7580  1.1782
 2599SOL     OW19432   1.011   2.267   5.449 -0.1405  0.4269 -0.1254
 2599SOL    HW119433   0.931   2.266   5.396 -0.2245 -0.4673  0.0274
 2599SOL    HW219434   1.060   2.186   5.436 -0.1433 -0.1167  3.3654
 2600SOL     OW19435   1.199   3.381   6.394 -0.3303  0.8357  0.0174
 2600SOL    HW119436   1.172   3.349   6.480  0.4906  0.1760  0.0326
 2600SOL    HW219437   1.226   3.471   6.415  1.3680  0.4796 -0.6837
 2601SOL     OW19438   2.880   4.161   8.660 -0.3346 -0.1465  0.3659
 2601SOL    HW119439   2.825   4.094   8.701 -0.5942  0.8123  1.6106
 2601SOL    HW219440   2.957   4.161   8.717 -0.0470 -0.5535 -0.0283
 2602SOL     OW19441   4.057   0.573   9.125  0.0743 -0.5249  0.0141
 2602SOL    HW119442   3.965   0.563   9.152  0.6601  1.0191  2.5015
 2602SOL    HW219443   4.086   0.493   9.169  0.5397 -0.1275  0.4151
 2603SOL     OW19444   3.773   0.084   1.821 -0.8042 -0.0736  0.0804
 2603SOL    HW119445   3.679   0.084   1.840 -0.8835  2.0457 -0.3622
 2603SOL    HW219446   3.769   0.047   1.732 -2.3584  1.2168 -0.3917
 2604SOL     OW19447   3.102   2.626   9.841 -0.4379  0.3907  0.0342
 2604SOL    HW119448   3.154   2.704   9.861 -0.6881  0.7690 -0.8187
 2604SOL    HW219449   3.017   2.648   9.881 -0.6026  0.4681 -0.3633
 2605SOL     OW19450   3.163   2.193  16.083 -0.3517  0.6720  0.3450
 2605SOL    HW119451   3.123   2.236  16.007 -0.5861  0.7563  0.5136
 2605SOL    HW219452   3.220   2.262  16.117  2.9274 -0.2081 -3.3508
 2606SOL     OW19453   2.898   2.178   5.485  0.0107 -0.0942  0.1851
 2606SOL    HW119454   2.968   2.121   5.453  0.2789  0.9395 -1.0576
 2606SOL    HW219455   2.880   2.232   5.408 -2.6528 -1.6234 -0.2548
 2607SOL     OW19456   3.760   3.803   3.819  0.0263 -0.1488  0.2589
 2607SOL    HW119457   3.783   3.739   3.887 -0.1135 -0.4214  0.0436
 2607SOL    HW219458   3.814   3.771   3.747 -2.0288 -2.1556 -0.3719
 2608SOL     OW19459   2.815   0.112   0.322  0.7407 -0.7794 -0.0171
 2608SOL    HW119460   2.798   0.067   0.239 -1.1931  1.0213 -0.5757
 2608SOL    HW219461   2.846   0.035   0.369  1.1593 -0.9303 -0.5355
 2609SOL     OW19462   4.531   1.991  13.463 -0.2753  0.5160 -0.8403
 2609SOL    HW119463   4.567   2.034  13.540 -2.5111 -0.1469  0.5631
 2609SOL    HW219464   4.471   1.924  13.496 -0.9870  0.9535 -1.2528
 2610SOL     OW19465   2.560   2.008   5.156 -0.5647  0.4669 -0.2073
 2610SOL    HW119466   2.597   2.069   5.093 -0.6991  0.4493 -0.3020
 2610SOL    HW219467   2.517   2.069   5.216 -0.8490 -1.4213  1.5439
 2611SOL     OW19468   2.561   2.519   6.724  0.3397 -0.0567 -0.0646
 2611SOL    HW119469   2.491   2.476   6.676 -1.7607  0.3085  2.7165
 2611SOL    HW219470   2.554   2.473   6.808 -0.1922 -1.5896 -0.9456
 2612SOL     OW19471   2.188   3.775   4.899 -0.5356  0.2837 -0.3667
 2612SOL    HW119472   2.157   3.853   4.853  1.0631  1.5132  0.6210
 2612SOL    HW219473   2.198   3.723   4.819 -2.4393  1.7656 -1.5545
 2613SOL     OW19474   2.261   1.407  12.163  0.4923 -0.6531  0.0414
 2613SOL    HW119475   2.258   1.312  12.149  0.5492 -0.5834 -0.4573
 2613SOL    HW219476   2.269   1.401  12.258  1.5179  2.7072  0.1529
 2614SOL     OW19477   2.421   2.207  16.439 -0.1302 -0.0575  0.0745
 2614SOL    HW119478   2.457   2.119  16.434  1.5644  0.7309 -1.6518
 2614SOL    HW219479   2.475   2.238  16.512 -0.1440 -2.4491  1.1105
 2615SOL     OW19480   2.851   2.088  10.538  0.3723 -0.1384  0.0182
 2615SOL    HW119481   2.896   2.004  10.529  0.8037  0.0936 -0.0023
 2615SOL    HW219482   2.879   2.109  10.627 -2.5618  0.9891  0.6893
 2616SOL     OW19483   0.518   2.774  17.715 -0.2208 -0.0462  0.9801
 2616SOL    HW119484   0.490   2.865  17.705 -1.3048 -0.6532 -1.4339
 2616SOL    HW219485   0.491   2.736  17.632  1.5548 -0.2651  0.5020
 2617SOL     OW19486   1.140   0.366   1.869 -0.1420  0.5521 -0.4901
 2617SOL    HW119487   1.210   0.380   1.933 -0.7017 -0.5044  0.3545
 2617SOL    HW219488   1.181   0.390   1.786 -1.1007  0.4091 -1.0037
 2618SOL     OW19489   3.842   2.271   9.613 -0.1630 -0.6732  0.7187
 2618SOL    HW119490   3.780   2.339   9.637 -0.2717  0.2123 -2.0932
 2618SOL    HW219491   3.873   2.298   9.527 -2.4043  1.9859  0.7877
 2619SOL     OW19492   0.778   2.246  11.831  0.1163  0.6773  0.0994
 2619SOL    HW119493   0.763   2.267  11.923 -0.7691  0.6331 -0.0310
 2619SOL    HW219494   0.724   2.315  11.791 -0.3131 -0.2534 -0.9313
 2620SOL     OW19495   4.372   4.310   8.967 -0.2319  0.3950 -0.2922
 2620SOL    HW119496   4.454   4.326   8.921  0.3631 -0.6757  0.4259
 2620SOL    HW219497   4.379   4.361   9.047 -4.0984  2.4483 -1.2154
 2621SOL     OW19498   2.748   4.283  11.978  0.5027  0.0648 -0.7448
 2621SOL    HW119499   2.663   4.310  12.015  1.6944  2.5591  0.1620
 2621SOL    HW219500   2.728   4.292  11.884 -1.4437  1.0717 -0.2444
 2622SOL     OW19501   1.604   1.658   3.209 -0.2778 -0.5206 -0.0020
 2622SOL    HW119502   1.632   1.576   3.167 -1.1311 -0.9183  0.2013
 2622SOL    HW219503   1.625   1.724   3.143  0.7872  0.3846  1.2412
 2623SOL     OW19504   4.144   0.364   6.959  0.2451 -0.6702  0.4012
 2623SOL    HW119505   4.199   0.421   7.013 -0.6866 -0.4076  1.0688
 2623SOL    HW219506   4.189   0.280   6.964 -1.5964 -1.6951 -0.4469
 2624SOL     OW19507   1.225   0.408   5.054 -0.3254  0.1610 -0.1943
 2624SOL    HW119508   1.314   0.417   5.090 -0.6010 -2.3984  1.0924
 2624SOL    HW219509   1.248   0.341   4.989  1.8099  0.4486  0.2450
 2625SOL     OW19510   0.606   2.781   6.384  0.3463  0.2849  0.1708
 2625SOL    HW119511   0.532   2.809   6.330 -0.0474  1.6319  1.4201
 2625SOL    HW219512   0.626   2.696   6.344 -0.9448 -0.5446  1.3015
 2626SOL     OW19513   1.638   3.412  15.602  0.2669  0.3068 -0.5755
 2626SOL    HW119514   1.711   3.375  15.553  0.1987  1.4228 -1.5189
 2626SOL    HW219515   1.684   3.433  15.683 -1.9308  0.5505  0.6302
 2627SOL     OW19516   4.510   2.931   7.715 -0.5647 -0.3576  0.2505
 2627SOL    HW119517   4.589   2.925   7.662 -1.1039 -0.4987 -0.5403
 2627SOL    HW219518   4.474   2.843   7.718 -1.2882 -0.0449  0.8911
 2628SOL     OW19519   4.113   4.335  13.593 -0.2717 -0.2512  0.9544
 2628SOL    HW119520   4.111   4.339  13.497 -0.4698 -1.4911  0.9022
 2628SOL    HW219521   4.157   4.251  13.607 -0.4100 -0.5443 -0.3542
 2629SOL     OW19522   2.881   3.487   2.665 -0.0300  0.3338 -0.1339
 2629SOL    HW119523   2.825   3.442   2.728 -0.8175 -0.2971 -1.2716
 2629SOL    HW219524   2.832   3.569   2.668 -2.2829 -1.0392  0.5860
 2630SOL     OW19525   0.549   2.673   7.970 -0.1481 -0.5016 -0.1967
 2630SOL    HW119526   0.639   2.686   7.999 -0.6204 -1.0123  1.5268
 2630SOL    HW219527   0.497   2.715   8.040  0.6336  2.0485 -1.1376
 2631SOL     OW19528   0.825   1.226  10.242 -0.0695  0.0310 -0.2433
 2631SOL    HW119529   0.794   1.186  10.160 -1.5244 -0.0644  0.3585
 2631SOL    HW219530   0.737   1.246  10.274 -0.1612 -0.7373 -0.0080
 2632SOL     OW19531   0.613   3.299   2.619 -0.1329 -0.3069 -0.5500
 2632SOL    HW119532   0.580   3.375   2.667 -0.4726 -1.0004  0.3099
 2632SOL    HW219533   0.565   3.226   2.658 -0.9754 -0.9815 -2.8081
 2633SOL     OW19534   2.790   0.450   0.730  0.4039  0.3220  0.0546
 2633SOL    HW119535   2.815   0.394   0.657  0.1459 -0.4467  0.5539
 2633SOL    HW219536   2.766   0.530   0.684 -0.7746 -0.2237 -0.2607
 2634SOL     OW19537   1.563   3.758  16.950 -0.2264  0.6565  0.1997
 2634SOL    HW119538   1.544   3.796  16.864  2.1705  0.5618 -0.3693
 2634SOL    HW219539   1.558   3.663  16.938  0.1330  0.6412  0.1610
 2635SOL     OW19540   3.883   3.022   6.001 -0.0762  0.4229  0.2118
 2635SOL    HW119541   3.959   2.983   5.957  0.6320  0.3726  1.4843
 2635SOL    HW219542   3.910   3.050   6.089  1.9008  0.2599 -0.3352
 2636SOL     OW19543   0.736   0.940   5.754 -0.4965  0.9643 -0.5748
 2636SOL    HW119544   0.766   0.893   5.676 -0.5639 -1.1095  0.6355
 2636SOL    HW219545   0.737   1.028   5.716  0.4477  1.4710  0.6235
 2637SOL     OW19546   0.970   3.333   8.686  0.0050 -0.0603 -1.0823
 2637SOL    HW119547   0.983   3.248   8.643  0.3662 -0.6476  0.1798
 2637SOL    HW219548   1.056   3.372   8.674  0.3776 -1.0235 -1.5201
 2638SOL     OW19549   0.473   3.134   7.322  0.3669  0.0955 -0.4280
 2638SOL    HW119550   0.407   3.129   7.391  0.4130  2.0303 -0.2397
 2638SOL    HW219551   0.521   3.056   7.348 -3.2575 -1.1667  2.3837
 2639SOL     OW19552   3.400   3.610  17.620  0.2640  0.2770 -0.2530
 2639SOL    HW119553   3.414   3.558  17.541  0.5515 -0.5815  0.3517
 2639SOL    HW219554   3.456   3.685  17.604 -1.0323  1.4008  0.4834
 2640SOL     OW19555   0.530   4.000  10.391  0.0607 -0.1687 -0.1272
 2640SOL    HW119556   0.522   3.942  10.467  0.4221 -0.4608 -0.3164
 2640SOL    HW219557   0.622   4.024  10.397  0.2496 -0.3813 -2.2286
 2641SOL     OW19558   0.659   3.442   1.852  0.0635 -0.4342  0.1701
 2641SOL    HW119559   0.568   3.420   1.835  0.2940  0.1721 -1.8224
 2641SOL    HW219560   0.666   3.447   1.948 -0.4842  2.7324  0.0512
 2642SOL     OW19561   3.089   4.692   6.289  0.3172 -0.4362  0.0140
 2642SOL    HW119562   3.107   0.015   6.361 -0.7857 -1.5492  1.2405
 2642SOL    HW219563   3.029   0.005   6.235  0.0956 -2.5705 -1.7307
 2643SOL     OW19564   3.751   0.480   8.852 -0.1888 -0.0477  0.1383
 2643SOL    HW119565   3.744   0.554   8.913 -1.8614 -1.5514  1.7817
 2643SOL    HW219566   3.768   0.408   8.913  2.6336  1.2434  0.8763
 2644SOL     OW19567   1.613   2.979  10.066 -0.4529 -0.4863  0.1766
 2644SOL    HW119568   1.702   2.979  10.032 -0.2968  1.2393  0.5739
 2644SOL    HW219569   1.622   2.921  10.142 -0.4057  0.3294  0.7910
 2645SOL     OW19570   1.567   4.191   8.318  0.0930 -0.4648 -0.0817
 2645SOL    HW119571   1.611   4.263   8.273  2.6779 -2.5403 -0.8787
 2645SOL    HW219572   1.638   4.159   8.373 -0.2419  0.5320  0.9270
 2646SOL     OW19573   4.146   0.690   0.769  0.4012 -0.0215 -0.6963
 2646SOL    HW119574   4.112   0.604   0.792 -1.3544  0.8147 -0.1399
 2646SOL    HW219575   4.078   0.719   0.707 -0.2002 -2.2754 -1.0886
 2647SOL     OW19576   3.602   3.934   1.516 -0.2645  0.3311 -0.2669
 2647SOL    HW119577   3.518   3.964   1.553 -1.4080 -2.4854 -0.6057
 2647SOL    HW219578   3.598   3.979   1.432 -0.8968 -0.1001 -0.4680
 2648SOL     OW19579   1.285   3.989  15.952  0.3134  0.0223  0.8225
 2648SOL    HW119580   1.380   4.004  15.948  0.3508 -0.3906  0.0754
 2648SOL    HW219581   1.259   4.067  16.000 -0.0061  2.0267 -2.6243
 2649SOL     OW19582   4.649   2.607   5.325 -0.4058  0.2587  0.2158
 2649SOL    HW119583   4.654   2.678   5.260  0.3672 -1.4459 -1.5900
 2649SOL    HW219584   4.681   2.532   5.275  0.6008 -0.3017  1.7386
 2650SOL     OW19585   1.628   2.232   5.376 -0.1775  0.1499 -0.9181
 2650SOL    HW119586   1.684   2.211   5.301 -0.7137 -0.4501 -1.1407
 2650SOL    HW219587   1.608   2.143   5.403 -0.2339 -0.1626 -2.0127
 2651SOL     OW19588   3.200   2.791  12.780 -0.7678 -0.0884  0.2696
 2651SOL    HW119589   3.226   2.876  12.817  0.5094 -1.0437  1.6153
 2651SOL    HW219590   3.285   2.745  12.779 -1.0021 -0.5278  0.5425
 2652SOL     OW19591   3.795   0.114   8.286  0.0584  0.3118  0.1131
 2652SOL    HW119592   3.844   0.195   8.305 -1.5417  0.6673  2.6875
 2652SOL    HW219593   3.838   0.089   8.204  0.5489 -0.5171  0.6294
 2653SOL     OW19594   4.603   4.418   2.755  0.0208 -0.1704  0.0633
 2653SOL    HW119595   4.591   4.458   2.669 -1.0328  0.0690  0.3174
 2653SOL    HW219596   4.549   4.479   2.805  0.1022  0.0396 -0.1065
 2654SOL     OW19597   2.372   1.073   4.063  0.3370 -0.8879  0.4985
 2654SOL    HW119598   2.444   1.013   4.080  1.8439  1.0956  1.0801
 2654SOL    HW219599   2.389   1.146   4.122 -2.6994 -0.4939  0.8703
 2655SOL     OW19600   2.644   3.422   4.219  0.4676  0.2192 -0.0836
 2655SOL    HW119601   2.554   3.452   4.204  0.2059 -0.6115 -0.2169
 2655SOL    HW219602   2.670   3.380   4.137  1.7285  1.6084 -0.3844
 2656SOL     OW19603   3.867   1.820  10.804  0.6713 -0.4303 -0.5517
 2656SOL    HW119604   3.805   1.757  10.771 -1.2024  1.1868 -0.1195
 2656SOL    HW219605   3.896   1.860  10.722  0.4965 -0.4877 -0.6400
 2657SOL     OW19606   2.213   3.118   9.802  0.5990  0.1039  0.2225
 2657SOL    HW119607   2.174   3.188   9.751 -1.7833  0.1110  2.0819
 2657SOL    HW219608   2.306   3.133   9.785  0.3345  0.3927 -0.9460
 2658SOL     OW19609   4.327   3.092   5.222  0.0867 -0.4363  0.0201
 2658SOL    HW119610   4.328   2.999   5.198 -0.0280 -0.6853  0.9762
 2658SOL    HW219611   4.252   3.128   5.175 -0.3484 -0.3919  0.7492
 2659SOL     OW19612   4.276   3.203   2.788 -0.5333  0.0526 -0.5966
 2659SOL    HW119613   4.318   3.276   2.833  1.4167 -1.1609 -0.4560
 2659SOL    HW219614   4.192   3.217   2.831  0.7344  0.1035  1.8296
 2660SOL     OW19615   4.182   4.645   6.966 -0.3732  0.2696  0.1156
 2660SOL    HW119616   4.111   4.626   6.905 -0.5844 -0.4668  0.5873
 2660SOL    HW219617   4.242   4.691   6.908 -0.7950 -0.8990 -1.2415
 2661SOL     OW19618   2.865   1.863   9.679 -0.1256 -0.1393 -0.0171
 2661SOL    HW119619   2.777   1.831   9.701  0.9881 -1.2659  2.7303
 2661SOL    HW219620   2.855   1.953   9.649 -2.1829 -0.8342 -1.4601
 2662SOL     OW19621   0.942   3.848   2.752  0.0258 -0.3493  0.1601
 2662SOL    HW119622   0.925   3.840   2.658  0.9279 -0.7471  0.0375
 2662SOL    HW219623   0.956   3.941   2.766  0.9313 -0.7519  1.8124
 2663SOL     OW19624   2.338   2.193   9.599  0.0785 -0.3295  0.4025
 2663SOL    HW119625   2.302   2.249   9.667 -3.6098  0.1137 -1.8993
 2663SOL    HW219626   2.411   2.245   9.565  0.4825 -0.2367  1.4140
 2664SOL     OW19627   4.489   4.218   2.941 -0.1151 -0.3959 -0.5947
 2664SOL    HW119628   4.558   4.163   2.978  0.7680  0.9664 -0.2513
 2664SOL    HW219629   4.514   4.219   2.848  0.0294 -0.1557 -0.5492
 2665SOL     OW19630   4.518   2.068  12.301  0.1830  0.4546  0.0625
 2665SOL    HW119631   4.483   2.138  12.356 -4.9661 -1.3956 -0.9422
 2665SOL    HW219632   4.576   2.118  12.243  0.3059 -0.0193 -0.2227
 2666SOL     OW19633   2.664   1.763  10.620  0.7493 -0.0868 -0.0783
 2666SOL    HW119634   2.627   1.838  10.573  4.3463  1.2731 -0.6999
 2666SOL    HW219635   2.753   1.764  10.585  1.0650 -0.2665  0.7152
 2667SOL     OW19636   3.653   4.354  13.873  0.2108 -0.2538 -0.5332
 2667SOL    HW119637   3.665   4.445  13.901 -1.7273  0.6417 -2.6260
 2667SOL    HW219638   3.609   4.373  13.790  0.0383 -3.2870 -1.1437
 2668SOL     OW19639   2.293   1.638   7.085 -0.2991 -0.1463  0.2697
 2668SOL    HW119640   2.265   1.554   7.121 -1.1719  0.2717  0.5673
 2668SOL    HW219641   2.377   1.613   7.048 -0.3497  1.6261 -1.0257
 2669SOL     OW19642   0.388   4.067   4.880 -0.2545  0.1557 -0.4620
 2669SOL    HW119643   0.344   4.036   4.801 -0.1208  2.1792 -1.3305
 2669SOL    HW219644   0.382   3.992   4.939  2.5255  0.6070  0.4014
 2670SOL     OW19645   0.238   3.510   2.719  0.2109 -0.7584  0.1284
 2670SOL    HW119646   0.195   3.593   2.697 -1.3592 -1.3282  1.0408
 2670SOL    HW219647   0.180   3.443   2.683  0.8307 -1.7701  1.0190
 2671SOL     OW19648   4.485   0.532   5.134  0.2125  0.1393 -0.1355
 2671SOL    HW119649   4.392   0.545   5.151  0.0157 -3.2715  1.4649
 2671SOL    HW219650   4.500   0.439   5.147  0.6825  0.1674 -0.4595
 2672SOL     OW19651   2.658   2.797   9.556  0.2288 -0.3069 -0.2149
 2672SOL    HW119652   2.589   2.730   9.565 -1.3212  1.3235  0.0011
 2672SOL    HW219653   2.644   2.847   9.637 -5.1768 -1.8072 -0.1997
 2673SOL     OW19654   2.876   0.571   0.417 -0.1422  0.7715 -0.1322
 2673SOL    HW119655   2.824   0.491   0.428  3.8256 -1.5761  1.5827
 2673SOL    HW219656   2.861   0.590   0.324  0.5456  1.3479 -0.1203
 2674SOL     OW19657   3.884   4.625  11.971 -0.3608  0.5804  0.4115
 2674SOL    HW119658   3.973   4.659  11.959 -1.3746  3.0787 -0.1140
 2674SOL    HW219659   3.835   4.694  11.926  1.1999  0.4634 -1.4791
 2675SOL     OW19660   1.210   4.078  13.234 -0.1992  0.7240 -0.1956
 2675SOL    HW119661   1.233   4.163  13.196  0.5712 -1.1168 -3.9247
 2675SOL    HW219662   1.171   4.037  13.156 -1.3843  1.3415  0.0741
 2676SOL     OW19663   0.431   1.745  11.962 -0.1434  0.1879  0.4908
 2676SOL    HW119664   0.443   1.832  11.923  0.0393 -0.1161 -0.1414
 2676SOL    HW219665   0.339   1.722  11.949  0.4042 -1.1541 -1.1258
 2677SOL     OW19666   4.092   0.902   0.968  0.4479  0.2745 -0.1021
 2677SOL    HW119667   3.996   0.910   0.967  0.5330  1.3031 -0.0592
 2677SOL    HW219668   4.111   0.899   0.874  0.3274 -1.8851 -0.0365
 2678SOL     OW19669   3.978   4.386  11.942 -0.1824 -0.2865  0.5221
 2678SOL    HW119670   3.941   4.380  11.854  0.0983  2.2672  0.2267
 2678SOL    HW219671   3.946   4.472  11.970  1.5254  0.8137 -0.9537
 2679SOL     OW19672   3.041   3.500   3.647 -0.3073 -0.0501 -0.1462
 2679SOL    HW119673   3.062   3.572   3.707 -0.1210  1.0084 -1.4713
 2679SOL    HW219674   3.048   3.544   3.562 -0.9310  1.0689  0.3903
 2680SOL     OW19675   3.994   3.320   4.682  0.8246  0.4192 -0.1483
 2680SOL    HW119676   4.085   3.335   4.707  1.1098 -1.1937 -0.2049
 2680SOL    HW219677   3.966   3.411   4.673  0.1569  0.2683  0.3942
 2681SOL     OW19678   0.157   3.351   8.778 -0.3032  0.0270 -0.1117
 2681SOL    HW119679   0.252   3.337   8.777 -0.6672 -2.2335 -2.3881
 2681SOL    HW219680   0.132   3.334   8.687  2.3699 -0.5118 -0.7388
 2682SOL     OW19681   2.258   2.956  16.478  0.0694 -0.1668  0.5583
 2682SOL    HW119682   2.353   2.943  16.470 -0.2679 -1.7313 -0.8396
 2682SOL    HW219683   2.216   2.944  16.393  0.0737 -1.8787  0.7973
 2683SOL     OW19684   1.504   3.578   4.747  0.3166 -0.4079 -0.0604
 2683SOL    HW119685   1.521   3.531   4.665 -0.3107  0.9323 -0.9591
 2683SOL    HW219686   1.514   3.518   4.820  1.8933  1.5129  1.2936
 2684SOL     OW19687   1.125   1.219   1.976 -0.1068  0.1526  0.1795
 2684SOL    HW119688   1.152   1.297   2.024  1.4397 -0.2420 -0.0648
 2684SOL    HW219689   1.181   1.155   2.018 -0.1404 -0.0914 -0.1512
 2685SOL     OW19690   3.533   3.860   3.954  0.3673  0.2515 -0.8428
 2685SOL    HW119691   3.618   3.862   3.911  0.8123  1.8301  0.0895
 2685SOL    HW219692   3.539   3.938   4.010  0.7098 -2.0951  2.3945
 2686SOL     OW19693   4.149   1.822   2.550 -0.7219 -0.1380  0.3212
 2686SOL    HW119694   4.222   1.764   2.573 -1.4146 -0.4101  1.7990
 2686SOL    HW219695   4.176   1.855   2.464 -0.5943  0.3380  0.5419
 2687SOL     OW19696   2.818   3.748   3.576 -0.4449  0.2818  0.2300
 2687SOL    HW119697   2.887   3.736   3.641 -0.2467  1.0987  0.1739
 2687SOL    HW219698   2.858   3.719   3.494  1.0833 -0.6822  1.3158
 2688SOL     OW19699   0.742   2.274  17.526 -0.2308  0.3156  0.2936
 2688SOL    HW119700   0.763   2.300  17.616  1.1145  0.2996 -0.0060
 2688SOL    HW219701   0.826   2.310  17.497 -0.8746  0.5498 -1.2761
 2689SOL     OW19702   2.521   2.769   6.899  0.1677  0.4324  0.2755
 2689SOL    HW119703   2.555   2.703   6.838  2.7442  2.2146 -0.1933
 2689SOL    HW219704   2.461   2.817   6.842 -0.5205 -0.0972  0.5501
 2690SOL     OW19705   4.526   4.562  13.843  0.2379 -0.5418  0.2711
 2690SOL    HW119706   4.478   4.498  13.791 -0.7075  2.2993 -2.3409
 2690SOL    HW219707   4.498   4.537  13.930 -2.3699  1.1761 -0.0749
 2691SOL     OW19708   1.079   1.144   6.362 -0.4088  0.0623  0.1636
 2691SOL    HW119709   1.045   1.168   6.448 -1.0628 -0.7213  0.1267
 2691SOL    HW219710   1.003   1.153   6.305 -1.2037 -0.0765  1.2009
 2692SOL     OW19711   1.614   4.214   6.428  0.3563 -0.5800  0.3173
 2692SOL    HW119712   1.588   4.140   6.482 -0.2696 -0.1374  0.6150
 2692SOL    HW219713   1.708   4.195   6.421  0.2654 -0.8419 -0.1699
 2693SOL     OW19714   2.030   0.421   2.355 -0.1870  0.3394 -0.4013
 2693SOL    HW119715   1.941   0.456   2.361  0.1733  1.3685 -0.9773
 2693SOL    HW219716   2.078   0.485   2.407  1.2131  0.3988 -1.7691
 2694SOL     OW19717   3.286   2.641  12.226  0.1714  0.3190 -0.2860
 2694SOL    HW119718   3.238   2.594  12.294  0.4242  0.2019 -0.1881
 2694SOL    HW219719   3.239   2.608  12.149 -0.8964  0.3372  0.3563
 2695SOL     OW19720   0.874   4.259   4.331 -0.6581 -0.6328  0.6605
 2695SOL    HW119721   0.877   4.225   4.420 -1.0212  0.0448  0.9237
 2695SOL    HW219722   0.839   4.345   4.354 -1.0639 -0.5286 -0.3152
 2696SOL     OW19723   4.450   3.252  15.214  0.0235 -0.2929 -0.0577
 2696SOL    HW119724   4.410   3.171  15.246 -1.0679 -0.0949 -0.9211
 2696SOL    HW219725   4.535   3.217  15.186 -0.0234 -0.6074  0.1840
 2697SOL     OW19726   3.917   3.476   9.395  0.4345 -0.3777  0.6400
 2697SOL    HW119727   3.866   3.553   9.374 -0.0594 -1.4752 -2.1551
 2697SOL    HW219728   3.998   3.519   9.423  0.4672 -1.3520  2.0399
 2698SOL     OW19729   4.269   3.927  12.563  0.3547  0.1422  0.1033
 2698SOL    HW119730   4.331   3.905  12.494  0.2807  1.8893 -0.5192
 2698SOL    HW219731   4.323   3.929  12.642 -0.3318  0.4904  0.5741
 2699SOL     OW19732   3.690   0.712   0.618  0.2437 -0.7239  0.2131
 2699SOL    HW119733   3.740   0.791   0.642 -0.8308  0.5970 -1.8885
 2699SOL    HW219734   3.760   0.647   0.622  0.2318 -0.5788  2.8014
 2700SOL     OW19735   4.607   0.375   2.031 -0.2678 -0.6594 -0.6936
 2700SOL    HW119736   4.667   0.320   1.980 -2.4123 -2.9759 -0.7009
 2700SOL    HW219737   4.543   0.413   1.969 -1.7848 -0.8193  0.7883
 2701SOL     OW19738   2.546   4.326   7.642 -0.2191 -0.2816 -0.0200
 2701SOL    HW119739   2.546   4.419   7.620  2.3220 -1.0020 -3.0854
 2701SOL    HW219740   2.467   4.315   7.695 -0.0707 -0.9602  0.0645
 2702SOL     OW19741   4.409   3.242   8.990  0.4972  0.0084 -0.0570
 2702SOL    HW119742   4.457   3.220   8.910 -0.9598 -1.1880 -0.5957
 2702SOL    HW219743   4.409   3.336   8.974  0.0614 -0.0820 -0.5507
 2703SOL     OW19744   3.833   3.599   3.257  0.1857 -0.1844  0.1442
 2703SOL    HW119745   3.839   3.693   3.237  1.9298 -0.9351 -2.7458
 2703SOL    HW219746   3.927   3.581   3.260  0.2655  0.1698 -0.3125
 2704SOL     OW19747   0.701   4.189   7.983 -0.4065  0.7454 -0.0928
 2704SOL    HW119748   0.655   4.225   8.058 -0.0846 -0.5064  0.7057
 2704SOL    HW219749   0.634   4.132   7.946 -1.5495  2.7780 -1.1174
 2705SOL     OW19750   3.785   2.448  16.106  0.3161 -0.4422  0.1904
 2705SOL    HW119751   3.725   2.512  16.144 -0.0357 -0.5021 -0.2679
 2705SOL    HW219752   3.867   2.482  16.144 -0.5337  4.6032 -2.4198
 2706SOL     OW19753   2.237   1.182   8.218 -0.3151  0.7366 -0.4208
 2706SOL    HW119754   2.300   1.254   8.224  1.4948 -1.0180  1.6781
 2706SOL    HW219755   2.166   1.224   8.170  0.7407  0.8050 -1.9219
 2707SOL     OW19756   4.192   3.044   8.477  0.0183  0.5543 -0.0008
 2707SOL    HW119757   4.189   3.083   8.565 -1.4725  0.6420 -0.0792
 2707SOL    HW219758   4.098   3.029   8.463 -0.3589  0.9566  1.9696
 2708SOL     OW19759   2.636   3.498   6.680  0.2940 -0.5371  0.2166
 2708SOL    HW119760   2.651   3.436   6.752 -0.9927 -1.0423  0.0575
 2708SOL    HW219761   2.545   3.526   6.692  0.0599 -1.0615 -0.3299
 2709SOL     OW19762   4.461   3.434  16.393 -0.5923 -0.2286  0.1662
 2709SOL    HW119763   4.481   3.440  16.486 -1.4414  0.4410  0.2946
 2709SOL    HW219764   4.417   3.518  16.383  1.6074  1.2135  2.6279
 2710SOL     OW19765   4.088   2.468   5.039  0.1386 -0.3236  0.4483
 2710SOL    HW119766   4.113   2.516   4.961  1.8154  1.5284  2.1493
 2710SOL    HW219767   3.994   2.466   5.020 -0.0138  1.8583  0.9588
 2711SOL     OW19768   0.633   2.865   0.361  0.2008  0.4919 -0.4073
 2711SOL    HW119769   0.721   2.889   0.390  1.4662 -2.1269 -2.1002
 2711SOL    HW219770   0.569   2.922   0.404 -0.1089  1.7356 -2.5744
 2712SOL     OW19771   0.238   0.658   6.318  0.0693  0.3469 -0.0814
 2712SOL    HW119772   0.283   0.655   6.234 -0.0759  1.8797 -0.2116
 2712SOL    HW219773   0.218   0.564   6.318  2.0785 -0.0723 -2.0755
 2713SOL     OW19774   2.461   4.140   5.066 -0.7621 -0.4310 -0.1053
 2713SOL    HW119775   2.472   4.082   4.991  2.4348 -3.1911  2.5165
 2713SOL    HW219776   2.381   4.107   5.107 -2.0268  2.4351 -0.2498
 2714SOL     OW19777   1.718   3.816   2.149 -0.1009 -0.3214  0.2312
 2714SOL    HW119778   1.711   3.819   2.053  0.0005  0.4273  0.2473
 2714SOL    HW219779   1.628   3.825   2.182 -0.2089 -2.4122  0.5353
 2715SOL     OW19780   0.167   2.547   7.953 -0.1267  0.1115 -0.1444
 2715SOL    HW119781   0.243   2.493   7.932  0.3252  0.7464 -0.1254
 2715SOL    HW219782   0.149   2.518   8.043  0.2250  0.6147  0.0843
 2716SOL     OW19783   3.303   1.452   5.941  0.3073 -0.7130 -0.6906
 2716SOL    HW119784   3.360   1.524   5.913 -1.8179  0.8289 -1.0373
 2716SOL    HW219785   3.258   1.426   5.861  0.4252  0.3786 -1.1046
 2717SOL     OW19786   2.091   3.946   1.054 -0.2744 -0.0854 -0.1284
 2717SOL    HW119787   2.157   3.986   1.111 -1.6463 -0.1412  1.5168
 2717SOL    HW219788   2.149   3.902   0.992 -1.4996  0.6744 -1.8055
 2718SOL     OW19789   2.860   3.561   9.970  0.2009  0.1692  0.5559
 2718SOL    HW119790   2.789   3.622   9.989  0.3425  0.9702 -1.4786
 2718SOL    HW219791   2.931   3.610   9.927  0.1152  1.0153  1.3668
 2719SOL     OW19792   1.659   4.486  15.877  0.2509 -0.6991  0.3110
 2719SOL    HW119793   1.601   4.487  15.802  1.7858 -2.0382 -0.8928
 2719SOL    HW219794   1.634   4.401  15.914 -2.8868  0.8042  1.5898
 2720SOL     OW19795   2.372   0.695   2.812 -0.2288 -0.6493  0.2939
 2720SOL    HW119796   2.298   0.748   2.783 -0.2835  0.2216  2.0684
 2720SOL    HW219797   2.406   0.670   2.726 -1.5253  2.1351 -1.0143
 2721SOL     OW19798   1.923   3.110   3.202  0.3096 -0.6128 -0.3785
 2721SOL    HW119799   1.879   3.187   3.167  0.5841 -0.6893 -0.8818
 2721SOL    HW219800   2.012   3.144   3.207 -0.7048  1.5843  2.6376
 2722SOL     OW19801   1.456   0.678  13.805 -0.1673  0.0051 -0.4551
 2722SOL    HW119802   1.369   0.694  13.843  0.5056  1.8394  0.2790
 2722SOL    HW219803   1.447   0.609  13.739 -2.3174  0.6575 -0.8690
 2723SOL     OW19804   2.706   1.511   7.651  0.5950 -0.5959  0.5010
 2723SOL    HW119805   2.656   1.435   7.623 -0.0256  0.9816 -2.6922
 2723SOL    HW219806   2.755   1.473   7.724  0.6312 -1.6088 -0.0588
 2724SOL     OW19807   0.494   1.218  15.194  0.3086 -0.3837  0.6290
 2724SOL    HW119808   0.445   1.136  15.198  1.6103 -1.2378 -1.0528
 2724SOL    HW219809   0.547   1.207  15.272  3.1277 -0.5286 -1.3155
 2725SOL     OW19810   1.434   2.273   8.955 -0.1670 -0.3592 -0.0759
 2725SOL    HW119811   1.440   2.240   8.866  1.8579 -2.3725  0.8145
 2725SOL    HW219812   1.485   2.352   8.938 -0.7974  0.2550  0.8564
 2726SOL     OW19813   3.026   0.747  14.637 -0.4340 -0.1922 -0.4969
 2726SOL    HW119814   2.945   0.720  14.595 -0.6937 -0.2778  0.0611
 2726SOL    HW219815   3.005   0.840  14.646  3.3689  0.9455 -3.3428
 2727SOL     OW19816   1.705   1.130   6.927  0.0964  0.6470  0.5897
 2727SOL    HW119817   1.643   1.146   6.999 -0.3323 -1.0855  0.6238
 2727SOL    HW219818   1.661   1.173   6.854  2.1794 -0.1739 -1.1383
 2728SOL     OW19819   4.378   1.923   3.317  0.1287  0.7202 -0.0842
 2728SOL    HW119820   4.358   1.900   3.407  3.4811 -3.2726 -0.3732
 2728SOL    HW219821   4.425   1.845   3.288 -0.8146 -0.3643  1.3333
 2729SOL     OW19822   4.341   2.714   6.764 -0.0087 -0.2135 -0.2596
 2729SOL    HW119823   4.262   2.707   6.818  1.1071 -1.0379  1.2718
 2729SOL    HW219824   4.334   2.807   6.743  0.3673 -0.6113 -2.1325
 2730SOL     OW19825   4.001   1.921   7.965 -0.0751  0.0059  0.1390
 2730SOL    HW119826   3.964   2.007   7.945  0.6586  0.2994  0.0571
 2730SOL    HW219827   3.929   1.886   8.018  0.3287 -0.3881  0.4261
 2731SOL     OW19828   2.891   4.130   3.846 -0.5825  0.3920 -0.3079
 2731SOL    HW119829   2.841   4.051   3.868  2.0708 -0.0674  3.9528
 2731SOL    HW219830   2.930   4.146   3.932 -2.4035  1.7573  0.2735
 2732SOL     OW19831   3.289   2.112   0.577  0.3832  0.0890  0.1334
 2732SOL    HW119832   3.359   2.148   0.523 -0.0122  3.1121  1.5983
 2732SOL    HW219833   3.215   2.166   0.547  0.5048 -0.9584 -1.9812
 2733SOL     OW19834   0.909   3.282   3.124 -0.0103  0.2431  0.0669
 2733SOL    HW119835   0.848   3.213   3.150 -1.2605  1.7451  1.1628
 2733SOL    HW219836   0.871   3.333   3.052  0.0618  2.8202  1.8278
 2734SOL     OW19837   0.479   0.311   6.185 -0.5131  0.9544 -0.3527
 2734SOL    HW119838   0.434   0.316   6.269  2.1738  4.1584  0.8854
 2734SOL    HW219839   0.518   0.224   6.194  1.6326  2.0721  1.2151
 2735SOL     OW19840   2.701   0.170   0.817 -0.6126  0.0662  0.1885
 2735SOL    HW119841   2.752   0.250   0.830 -1.2666  0.3311  1.0912
 2735SOL    HW219842   2.621   0.201   0.859 -1.5589 -0.0293 -1.5638
 2736SOL     OW19843   4.618   4.441   6.570  0.0410  0.4751  0.4299
 2736SOL    HW119844   4.701   4.477   6.540 -0.3190  1.0757  0.1333
 2736SOL    HW219845   4.594   4.369   6.511 -1.2192  0.8229  0.5023
 2737SOL     OW19846   0.504   2.210   5.308  0.6163  0.0919 -0.7947
 2737SOL    HW119847   0.561   2.170   5.242  0.9189 -0.0297 -0.4612
 2737SOL    HW219848   0.485   2.134   5.362  0.4741 -2.0353 -3.8574
 2738SOL     OW19849   0.813   0.876   6.831 -0.4293  1.0715 -0.5364
 2738SOL    HW119850   0.745   0.912   6.774 -1.1501  0.9488  0.2505
 2738SOL    HW219851   0.772   0.825   6.901  1.1841 -1.8794 -1.7412
 2739SOL     OW19852   3.429   0.489   6.635 -0.5042  0.5468  0.2975
 2739SOL    HW119853   3.449   0.401   6.667 -0.5951 -0.6984 -3.1211
 2739SOL    HW219854   3.354   0.473   6.577 -0.6949  0.7179  0.4943
 2740SOL     OW19855   2.988   1.746   6.640  0.7904  0.5399  0.0009
 2740SOL    HW119856   2.917   1.697   6.598  3.5490 -0.7914 -3.0843
 2740SOL    HW219857   2.943   1.831   6.638  0.7312  0.4532 -2.3470
 2741SOL     OW19858   0.829   0.571   9.078 -0.1043 -0.0959 -0.2449
 2741SOL    HW119859   0.919   0.542   9.063 -0.0554 -0.0018 -0.1228
 2741SOL    HW219860   0.838   0.666   9.084  0.4208 -0.1880  0.3677
 2742SOL     OW19861   2.251   1.663   2.351  0.3327 -0.4709  0.1964
 2742SOL    HW119862   2.192   1.715   2.406  1.6631  2.1708 -0.8965
 2742SOL    HW219863   2.205   1.582   2.372  0.6772 -0.2345  1.8149
 2743SOL     OW19864   3.092   4.547   9.908 -0.0670  0.3716  0.5390
 2743SOL    HW119865   3.044   4.482   9.960 -0.1835 -1.3369 -1.6812
 2743SOL    HW219866   3.129   4.599   9.979 -0.3593 -0.2016  1.1072
 2744SOL     OW19867   1.273   2.255   8.618 -0.2842  0.0881 -0.3187
 2744SOL    HW119868   1.242   2.190   8.555 -1.1987  0.2811 -0.0742
 2744SOL    HW219869   1.191   2.269   8.665  0.4451  0.2123  0.9162
 2745SOL     OW19870   1.643   3.373   6.334  0.3684 -0.2016 -0.3101
 2745SOL    HW119871   1.605   3.285   6.328  0.7002 -0.3113 -0.8373
 2745SOL    HW219872   1.569   3.412   6.381  1.8819  1.1676  0.9159
 2746SOL     OW19873   4.082   4.539   3.431 -0.0263  0.5741  0.1425
 2746SOL    HW119874   4.049   4.603   3.494  1.0900  0.4095  0.8864
 2746SOL    HW219875   4.044   4.584   3.356 -0.1234 -0.2869 -0.3198
 2747SOL     OW19876   4.239   3.076   7.008 -0.3635  0.0262  0.2746
 2747SOL    HW119877   4.210   3.043   7.093 -1.0030 -0.0170  0.0386
 2747SOL    HW219878   4.161   3.117   6.970 -0.4471  0.2340  0.6673
 2748SOL     OW19879   1.371   3.765   6.789  0.0045 -0.4794 -0.0283
 2748SOL    HW119880   1.391   3.723   6.873  0.0246 -1.3656 -0.4716
 2748SOL    HW219881   1.447   3.730   6.743 -0.9976 -1.7264 -0.7357
 2749SOL     OW19882   4.191   1.071   9.118  0.0962  0.3623 -0.2170
 2749SOL    HW119883   4.130   1.117   9.060 -0.8492 -1.2021 -0.4697
 2749SOL    HW219884   4.208   1.143   9.179  1.2284 -0.7297  0.7567
 2750SOL     OW19885   2.269   0.293   9.922 -0.8796 -0.3050 -0.1915
 2750SOL    HW119886   2.214   0.280   9.844 -0.1706  0.5984 -0.8498
 2750SOL    HW219887   2.346   0.342   9.893 -0.7279 -0.8036 -0.6298
 2751SOL     OW19888   0.853   3.020   5.785 -0.1046  0.3056  0.0888
 2751SOL    HW119889   0.799   2.977   5.851  0.0982 -2.0474 -1.2738
 2751SOL    HW219890   0.835   2.970   5.705  4.0070 -1.6473  0.3812
 2752SOL     OW19891   2.456   0.990   5.031 -0.1330 -0.7089 -0.1128
 2752SOL    HW119892   2.408   0.915   5.067 -4.5733  1.3166 -1.8017
 2752SOL    HW219893   2.393   1.061   5.045 -0.9180 -1.1631 -1.4197
 2753SOL     OW19894   2.245   3.503  17.486  0.5329  0.0741  0.9088
 2753SOL    HW119895   2.176   3.570  17.484  0.3862 -0.0854  0.5948
 2753SOL    HW219896   2.312   3.556  17.441 -0.4444  0.2919 -0.3122
 2754SOL     OW19897   4.684   4.648   7.063  0.5333  0.4322  0.0663
 2754SOL    HW119898   4.718   4.732   7.095 -2.7338  1.8727 -0.1861
 2754SOL    HW219899   4.678   4.660   6.968  0.5092  1.2901  0.1740
 2755SOL     OW19900   3.455   4.568   4.275  0.1822  0.5556  0.3459
 2755SOL    HW119901   3.457   4.498   4.340 -2.3514 -1.4670 -1.7441
 2755SOL    HW219902   3.369   4.552   4.237  0.6523  3.9705 -2.0875
 2756SOL     OW19903   2.301   2.864   6.010  0.0520 -0.0818 -0.0760
 2756SOL    HW119904   2.308   2.829   6.099 -1.7818 -0.9045 -0.2696
 2756SOL    HW219905   2.381   2.828   5.972  0.2260 -0.5571  0.7473
 2757SOL     OW19906   1.499   1.216   7.079 -0.2542 -0.0647  0.2407
 2757SOL    HW119907   1.433   1.207   7.010  0.0616 -0.7259  0.0209
 2757SOL    HW219908   1.466   1.297   7.119  0.3289 -0.7002  2.0017
 2758SOL     OW19909   2.528   3.637  17.013  0.3172  0.0008  0.3561
 2758SOL    HW119910   2.473   3.559  17.011 -0.0879  0.2747  0.8332
 2758SOL    HW219911   2.597   3.622  16.949  0.2157  0.8775  0.0476
 2759SOL     OW19912   2.807   4.437  17.115  0.5842 -0.8599 -0.0917
 2759SOL    HW119913   2.745   4.435  17.043  2.8550  3.8208 -2.1616
 2759SOL    HW219914   2.782   4.510  17.173  0.1142 -1.3261  0.3013
 2760SOL     OW19915   1.193   3.279   3.216  0.1644 -0.2987  0.3966
 2760SOL    HW119916   1.107   3.321   3.221  0.5030  0.7968 -2.7872
 2760SOL    HW219917   1.249   3.355   3.203  1.1108 -1.0613  0.0116
 2761SOL     OW19918   1.433   3.118   6.753 -0.3860 -0.8149 -0.0368
 2761SOL    HW119919   1.517   3.157   6.778  0.2971 -1.9444 -0.5933
 2761SOL    HW219920   1.465   3.033   6.724 -0.6197 -1.3576  1.2785
 2762SOL     OW19921   0.802   1.152  12.705  0.2924 -0.2481 -0.3633
 2762SOL    HW119922   0.739   1.223  12.709  0.4715  0.0388 -2.4888
 2762SOL    HW219923   0.878   1.198  12.740  0.0705  0.3136 -0.6239
 2763SOL     OW19924   2.416   3.472   0.974 -0.0905 -0.0747 -0.1804
 2763SOL    HW119925   2.493   3.529   0.979  0.6545 -1.0792 -0.0730
 2763SOL    HW219926   2.361   3.490   1.050  3.6338  2.1739  2.0057
 2764SOL     OW19927   0.444   2.422   2.894 -0.4124 -0.2872 -0.0347
 2764SOL    HW119928   0.431   2.487   2.963 -0.7396 -2.5072  2.0415
 2764SOL    HW219929   0.538   2.419   2.877  0.0800  1.3639  2.4342
 2765SOL     OW19930   1.135   3.525   7.050  0.3353 -0.3921 -0.3074
 2765SOL    HW119931   1.140   3.450   6.990  0.9220  0.4317 -1.3011
 2765SOL    HW219932   1.103   3.600   7.000  2.2049  0.1333 -0.7126
 2766SOL     OW19933   3.474   1.894  11.211  0.0879  0.6867  0.0760
 2766SOL    HW119934   3.496   1.807  11.244  0.4166  0.3371 -1.0642
 2766SOL    HW219935   3.555   1.938  11.186 -0.0879  1.1209  0.2612
 2767SOL     OW19936   3.492   3.937   2.848 -0.1199 -0.1175 -0.1634
 2767SOL    HW119937   3.490   3.855   2.897  2.9143 -0.3709 -0.4742
 2767SOL    HW219938   3.411   3.977   2.879  0.7898 -0.0213  2.1380
 2768SOL     OW19939   2.005   2.055   4.994  0.6925 -0.0948  0.7255
 2768SOL    HW119940   2.064   2.044   5.068 -0.6359 -2.1302  1.4718
 2768SOL    HW219941   1.925   2.038   5.043 -0.4805 -0.8096 -1.4320
 2769SOL     OW19942   3.945   3.857   2.179 -0.3348  0.8148 -0.1722
 2769SOL    HW119943   3.875   3.917   2.154  0.0599  0.5610 -1.8985
 2769SOL    HW219944   3.944   3.877   2.273 -2.3290 -2.0623  0.3851
 2770SOL     OW19945   3.661   1.571   3.867  0.4431  0.5511  0.8076
 2770SOL    HW119946   3.708   1.565   3.784  0.8171  0.0423  1.0624
 2770SOL    HW219947   3.713   1.635   3.916  0.1267  0.5108  1.2035
 2771SOL     OW19948   3.085   4.128   3.653 -0.3696  0.2434 -0.1180
 2771SOL    HW119949   3.009   4.101   3.602  0.0700  0.1129 -0.6946
 2771SOL    HW219950   3.032   4.133   3.733 -0.6345  0.4901 -0.3103
 2772SOL     OW19951   0.708   0.352  15.109 -0.3014 -0.2970  0.2103
 2772SOL    HW119952   0.724   0.272  15.158  1.9984  0.2340  0.3028
 2772SOL    HW219953   0.783   0.351  15.049 -0.0370  0.0792  0.5362
 2773SOL     OW19954   3.203   3.883  10.625  0.0251 -0.3323 -0.4616
 2773SOL    HW119955   3.175   3.861  10.714  0.4040  0.9541 -0.0269
 2773SOL    HW219956   3.295   3.859  10.620  0.2364 -0.0816  2.2237
 2774SOL     OW19957   4.555   0.073   8.379  0.2287 -0.0481 -0.0872
 2774SOL    HW119958   4.605   4.737   8.347  4.5706  2.2376  1.4092
 2774SOL    HW219959   4.477   0.032   8.415 -0.2576  2.2277  1.5085
 2775SOL     OW19960   0.874   1.607   2.116  0.4897 -0.3582 -0.0436
 2775SOL    HW119961   0.948   1.596   2.056  1.1710  2.0123  0.3445
 2775SOL    HW219962   0.916   1.626   2.200  1.0718 -2.0635  0.0496
 2776SOL     OW19963   1.219   2.378  12.836 -0.0401  0.0978 -1.1259
 2776SOL    HW119964   1.249   2.337  12.754  1.2574 -1.5023  0.1393
 2776SOL    HW219965   1.293   2.436  12.855  0.8825 -1.0526 -1.2273
 2777SOL     OW19966   4.296   1.272   1.239  0.6945  0.5959 -0.0486
 2777SOL    HW119967   4.253   1.199   1.284  0.0676  1.5218  0.8552
 2777SOL    HW219968   4.224   1.277   1.175 -1.0834 -0.9891  1.8352
 2778SOL     OW19969   2.732   2.901   6.495  0.2159 -0.2351  0.0576
 2778SOL    HW119970   2.778   2.908   6.578  0.2715 -0.8447  0.0849
 2778SOL    HW219971   2.719   2.806   6.495 -0.0844 -0.1854  0.6272
 2779SOL     OW19972   3.757   0.745   6.569 -0.1956 -0.2506 -0.4406
 2779SOL    HW119973   3.747   0.660   6.612  1.6960 -0.2256  0.0477
 2779SOL    HW219974   3.844   0.777   6.592 -1.3928  1.6830  1.4013
 2780SOL     OW19975   3.664   2.321   5.337 -0.5091 -0.2945  0.4125
 2780SOL    HW119976   3.643   2.282   5.253  0.0888 -2.5628  1.3152
 2780SOL    HW219977   3.730   2.388   5.319  0.9203 -2.1062 -0.9501
 2781SOL     OW19978   1.446   3.756   6.184  1.0500 -0.2188  0.3720
 2781SOL    HW119979   1.532   3.727   6.217  1.2353 -0.7966 -0.6202
 2781SOL    HW219980   1.441   3.849   6.206 -0.2779  0.1393 -1.4851
 2782SOL     OW19981   0.276   2.909   0.460  0.6394 -0.1966 -0.7500
 2782SOL    HW119982   0.308   2.869   0.379  0.1133 -1.9106 -0.1072
 2782SOL    HW219983   0.196   2.944   0.423  0.2853  1.1166  1.2389
 2783SOL     OW19984   0.045   2.271   2.675 -0.0510  0.4996  0.2063
 2783SOL    HW119985   0.071   2.326   2.749  1.9937 -1.3840  0.8929
 2783SOL    HW219986   0.086   2.310   2.598  0.5357 -1.7503 -0.6193
 2784SOL     OW19987   2.217   1.365   6.461 -0.2106 -0.2824 -0.7731
 2784SOL    HW119988   2.144   1.372   6.523  2.4515  0.2285  2.3194
 2784SOL    HW219989   2.226   1.270   6.471  0.0180 -0.2189 -0.3647
 2785SOL     OW19990   3.334   4.033   6.729 -0.3745  0.3142 -0.5650
 2785SOL    HW119991   3.252   4.017   6.683 -0.1102  1.3881 -1.4066
 2785SOL    HW219992   3.373   4.079   6.655 -1.9187 -1.3212 -2.3843
 2786SOL     OW19993   0.298   0.672   5.931 -0.2859  0.1383  0.0540
 2786SOL    HW119994   0.355   0.598   5.954 -0.9290 -0.1371  0.7588
 2786SOL    HW219995   0.263   0.628   5.854 -1.5320  1.3553 -0.0673
 2787SOL     OW19996   1.495   1.438   5.381 -0.2446  0.4615  0.0170
 2787SOL    HW119997   1.514   1.361   5.328  1.3772 -0.2480  1.6238
 2787SOL    HW219998   1.425   1.478   5.331  3.2745  4.1029 -1.9914
 2788SOL     OW19999   4.193   0.982   5.833  0.2616 -0.2739 -0.3764
 2788SOL    HW120000   4.128   1.001   5.901  1.2777 -2.4821  1.1913
 2788SOL    HW220001   4.249   0.920   5.879  1.0745 -0.7644 -2.0155
 2789SOL     OW20002   0.664   3.030  12.921 -0.4877  0.4112 -0.2422
 2789SOL    HW120003   0.638   2.979  12.998  1.0349 -1.6484 -1.0929
 2789SOL    HW220004   0.736   3.084  12.955  0.0207 -0.9927  0.9099
 2790SOL     OW20005   2.470   2.102   7.510  0.0734 -0.3077 -0.0755
 2790SOL    HW120006   2.483   2.097   7.415 -0.1156 -1.6878 -0.0403
 2790SOL    HW220007   2.560   2.129   7.530 -1.0674  2.1240  1.6645
 2791SOL     OW20008   2.900   1.265   3.438  0.1681  0.1601 -0.4207
 2791SOL    HW120009   2.842   1.190   3.456  0.7794 -0.1689  0.1875
 2791SOL    HW220010   2.914   1.249   3.345 -1.5503 -0.2366 -0.6215
 2792SOL     OW20011   0.415   0.976   4.901 -0.4196 -0.6994 -0.1948
 2792SOL    HW120012   0.338   0.922   4.884 -0.1519 -1.0927 -0.1508
 2792SOL    HW220013   0.484   0.914   4.924  0.0930  0.2736  0.8685
 2793SOL     OW20014   3.788   1.411   6.320 -0.0736  0.2012 -0.4373
 2793SOL    HW120015   3.732   1.437   6.247  0.8795 -0.1740 -1.2903
 2793SOL    HW220016   3.871   1.456   6.303  1.0134 -1.6463 -0.0111
 2794SOL     OW20017   0.751   2.923   3.389  0.1493  0.0426 -0.4665
 2794SOL    HW120018   0.749   2.830   3.411  0.5851 -0.1758 -1.3676
 2794SOL    HW220019   0.659   2.937   3.413  0.4346 -1.1854  1.3110
 2795SOL     OW20020   2.882   2.120  14.504  0.4220 -0.2056 -0.2000
 2795SOL    HW120021   2.858   2.212  14.515 -0.8632 -0.5594 -0.0522
 2795SOL    HW220022   2.976   2.123  14.485  0.6053 -0.8117  0.5832
 2796SOL     OW20023   0.406   2.063   4.129 -0.1844  0.5485  0.1031
 2796SOL    HW120024   0.372   1.977   4.105  0.5152  0.5152 -0.7892
 2796SOL    HW220025   0.368   2.086   4.214  0.1199  1.8681 -0.1242
 2797SOL     OW20026   0.996   0.780  10.978 -0.2601  0.2772  0.3248
 2797SOL    HW120027   0.924   0.800  10.918  0.5677  2.2318  0.0041
 2797SOL    HW220028   1.063   0.744  10.920 -1.2774 -0.0953 -0.6317
 2798SOL     OW20029   3.365   3.800   5.179 -0.2180 -0.1146 -0.3890
 2798SOL    HW120030   3.450   3.806   5.221  0.7390 -0.7888 -2.2223
 2798SOL    HW220031   3.356   3.705   5.187 -0.4704 -0.0440  0.1070
 2799SOL     OW20032   1.276   3.412   9.093  0.0451 -0.0215  0.1557
 2799SOL    HW120033   1.303   3.335   9.043 -1.0636 -0.7809  0.7079
 2799SOL    HW220034   1.203   3.382   9.149 -0.0560  0.5643  0.3354
 2800SOL     OW20035   0.948   2.756   7.746 -0.1631 -0.1905  0.4391
 2800SOL    HW120036   0.895   2.699   7.690  0.7015 -1.6156  1.1032
 2800SOL    HW220037   0.970   2.693   7.814  2.1851  0.3123  0.1312
 2801SOL     OW20038   0.560   4.306   0.042  0.4120 -0.3794  0.8896
 2801SOL    HW120039   0.560   4.397   0.010 -0.9307 -0.8263 -0.4278
 2801SOL    HW220040   0.467   4.289   0.024  0.8527 -1.0007 -0.8020
 2802SOL     OW20041   0.292   4.684   3.132  0.2240  0.6279  0.3073
 2802SOL    HW120042   0.232   4.614   3.157 -0.2083  1.3180  1.1835
 2802SOL    HW220043   0.344   4.699   3.211 -0.1602  4.2307 -0.1218
 2803SOL     OW20044   2.496   3.017   6.256 -0.1616 -0.4138  0.6177
 2803SOL    HW120045   2.505   3.085   6.189 -1.8992 -0.2505  0.5363
 2803SOL    HW220046   2.526   2.941   6.207 -1.5711 -0.4511 -0.2100
 2804SOL     OW20047   3.641   0.889   8.641 -0.1456  0.0890 -0.0859
 2804SOL    HW120048   3.661   0.972   8.599  0.8338 -0.3676 -0.5326
 2804SOL    HW220049   3.677   0.825   8.580  1.2014  0.6051  0.1534
 2805SOL     OW20050   3.702   0.967   7.788 -0.5422  0.2111  0.0288
 2805SOL    HW120051   3.657   0.890   7.754 -1.2938  0.7128 -0.1244
 2805SOL    HW220052   3.709   0.946   7.882  1.6312 -0.3180 -0.2638
 2806SOL     OW20053   3.961   0.707  12.694  0.0080 -0.1223  0.4888
 2806SOL    HW120054   3.943   0.670  12.608 -1.2623  0.0526  0.6736
 2806SOL    HW220055   3.914   0.641  12.745 -1.2505  0.4684  0.1214
 2807SOL     OW20056   2.095   0.427  10.455  0.1545 -0.5412 -0.2493
 2807SOL    HW120057   2.020   0.377  10.487 -1.9158  0.5240 -3.4873
 2807SOL    HW220058   2.109   0.379  10.374 -3.5885  1.5975 -2.1582
 2808SOL     OW20059   0.937   2.773   7.022 -0.1772 -0.2849 -0.1186
 2808SOL    HW120060   1.032   2.764   7.026 -0.2651 -1.5677 -1.0321
 2808SOL    HW220061   0.932   2.797   6.930 -0.3447  3.2362  0.8169
 2809SOL     OW20062   1.102   3.822   1.074 -0.5711 -0.6640  0.0595
 2809SOL    HW120063   1.183   3.869   1.095 -1.4714  2.2129 -2.9401
 2809SOL    HW220064   1.054   3.829   1.156  0.6878 -0.4481  0.7816
 2810SOL     OW20065   4.586   2.529  12.174  0.8031 -0.1995  0.4365
 2810SOL    HW120066   4.632   2.445  12.173 -0.2917 -0.7870 -0.4482
 2810SOL    HW220067   4.514   2.516  12.112  0.5234 -2.3412  1.2217
 2811SOL     OW20068   3.664   0.881   4.558 -0.1078  0.1832 -0.6943
 2811SOL    HW120069   3.715   0.929   4.623 -1.5047  0.1956  0.4043
 2811SOL    HW220070   3.602   0.842   4.620  1.4075  0.6104  1.1032
 2812SOL     OW20071   4.465   3.864   6.532 -0.0421  0.1653  0.3927
 2812SOL    HW120072   4.470   3.792   6.595 -1.2035  0.5218  0.8972
 2812SOL    HW220073   4.508   3.820   6.459 -1.6920  0.2459 -0.6187
 2813SOL     OW20074   0.179   4.489   2.405 -0.1573  0.1503 -0.4243
 2813SOL    HW120075   0.114   4.419   2.403  1.1433 -1.0314 -0.9505
 2813SOL    HW220076   0.162   4.518   2.494 -2.1515 -1.7058 -0.2011
 2814SOL     OW20077   1.898   3.636   0.349 -0.1518 -0.1009  0.2918
 2814SOL    HW120078   1.870   3.728   0.340  1.3957  0.0950 -2.3303
 2814SOL    HW220079   1.816   3.587   0.337  0.1245  0.3724 -3.5709
 2815SOL     OW20080   0.205   4.430  17.511 -0.9212  0.5545 -0.2138
 2815SOL    HW120081   0.187   4.392  17.597 -0.7969  0.6229 -0.1578
 2815SOL    HW220082   0.224   4.519  17.541 -0.0146  0.6923 -1.1589
 2816SOL     OW20083   0.668   0.897   7.292 -0.2629  0.2201  0.2959
 2816SOL    HW120084   0.649   0.990   7.308 -0.0952  0.3757 -0.4127
 2816SOL    HW220085   0.592   0.860   7.338 -0.6605 -0.8252 -1.2301
 2817SOL     OW20086   3.200   1.988   9.050  0.3933 -0.8461 -0.0698
 2817SOL    HW120087   3.142   1.914   9.067 -0.4031 -0.0739  0.6089
 2817SOL    HW220088   3.268   1.969   9.114 -0.9799  0.2998  1.7376
 2818SOL     OW20089   1.622   0.176  16.235 -0.2152 -0.2787 -0.0571
 2818SOL    HW120090   1.630   0.178  16.139  0.7516 -0.9742  0.0103
 2818SOL    HW220091   1.674   0.248  16.272  1.1230  0.4099 -3.2335
 2819SOL     OW20092   0.215   2.695  14.105 -0.6273  0.4230  0.0806
 2819SOL    HW120093   0.303   2.693  14.143 -0.3666  0.8821 -0.4921
 2819SOL    HW220094   0.232   2.705  14.012 -0.7505  0.2601  0.0409
 2820SOL     OW20095   3.353   2.618   7.539 -0.0394 -0.8473  0.0483
 2820SOL    HW120096   3.359   2.587   7.449  0.1386 -1.4524  0.2681
 2820SOL    HW220097   3.441   2.591   7.567 -0.9846 -3.4216  0.5441
 2821SOL     OW20098   0.593   2.085  15.013 -0.0577  0.1697 -0.2280
 2821SOL    HW120099   0.676   2.128  14.990 -0.0805 -0.3701 -1.3059
 2821SOL    HW220100   0.601   2.004  14.962 -0.1346 -0.4692  0.7795
 2822SOL     OW20101   1.078   4.354   9.113  0.3191 -0.7622 -0.5974
 2822SOL    HW120102   1.158   4.405   9.106 -0.8101  0.5784 -3.5679
 2822SOL    HW220103   1.062   4.364   9.207  1.5447  0.7043 -0.5535
 2823SOL     OW20104   3.384   2.279   7.647 -0.0953  0.0952 -0.4030
 2823SOL    HW120105   3.398   2.186   7.664 -0.1610  0.4548  1.6890
 2823SOL    HW220106   3.438   2.296   7.570  1.4269  2.7827  1.2911
 2824SOL     OW20107   2.140   3.435   6.952  0.2431 -0.5234  0.4588
 2824SOL    HW120108   2.150   3.450   6.858 -0.5336  0.8791  0.6037
 2824SOL    HW220109   2.103   3.516   6.988  0.1205  0.6830 -2.3718
 2825SOL     OW20110   0.203   4.542   8.065  0.1307  0.1347  0.1673
 2825SOL    HW120111   0.120   4.588   8.052  0.0693 -0.8251 -2.9394
 2825SOL    HW220112   0.241   4.546   7.977  1.5915  0.8509  0.8358
 2826SOL     OW20113   0.255   0.217  14.655  0.4196  0.0092 -0.3774
 2826SOL    HW120114   0.197   0.263  14.595 -1.0247 -0.7366  0.4445
 2826SOL    HW220115   0.312   0.170  14.594 -0.7278 -1.6100 -0.2050
 2827SOL     OW20116   0.853   3.168   9.090  0.1722  0.4874  0.1269
 2827SOL    HW120117   0.776   3.169   9.148 -0.1723  2.9030 -0.3749
 2827SOL    HW220118   0.872   3.261   9.101  0.4704  0.6512 -1.8697
 2828SOL     OW20119   0.647   1.782   2.672  0.1449 -0.6940  0.3269
 2828SOL    HW120120   0.662   1.781   2.767 -0.0884 -0.9292  0.3592
 2828SOL    HW220121   0.580   1.849   2.661  1.6321  0.5112 -1.2863
 2829SOL     OW20122   4.611   4.002   2.314 -0.9291  0.0489 -1.0152
 2829SOL    HW120123   4.593   3.908   2.320  0.3716 -0.0372  1.9678
 2829SOL    HW220124   4.682   4.007   2.250  1.2097 -1.9209  1.1688
 2830SOL     OW20125   3.824   1.757   3.993  0.1365 -0.9212  0.0954
 2830SOL    HW120126   3.786   1.836   4.031  1.2034  0.7881 -2.3470
 2830SOL    HW220127   3.871   1.709   4.061 -1.5968 -0.1807  1.8232
 2831SOL     OW20128   2.426   1.395   3.876 -0.5993 -0.3990  0.3134
 2831SOL    HW120129   2.419   1.310   3.920 -2.4784 -0.1764  0.4549
 2831SOL    HW220130   2.454   1.359   3.792  0.4693 -1.1851  1.0072
 2832SOL     OW20131   4.013   2.176   3.228 -0.0245  0.0358 -0.2798
 2832SOL    HW120132   4.055   2.090   3.235  0.4639  0.0709 -2.4526
 2832SOL    HW220133   3.922   2.146   3.231 -0.2201  0.6314 -0.2942
 2833SOL     OW20134   1.664   1.338   6.426  0.4328  0.5884 -0.3001
 2833SOL    HW120135   1.609   1.403   6.383 -1.0641 -1.0467 -0.8275
 2833SOL    HW220136   1.645   1.259   6.375  1.4621  0.4480 -0.4824
 2834SOL     OW20137   4.130   3.543   6.537 -0.3686  0.2102 -0.6179
 2834SOL    HW120138   4.108   3.565   6.627  0.1008  0.5570 -0.5933
 2834SOL    HW220139   4.149   3.450   6.552  2.1094  0.5986 -1.3247
 2835SOL     OW20140   0.438   1.866   6.758 -0.5825  0.0532  0.0837
 2835SOL    HW120141   0.454   1.928   6.687  0.7177 -0.0751  0.2585
 2835SOL    HW220142   0.374   1.906   6.816 -0.7002 -0.9151  0.6223
 2836SOL     OW20143   0.517   1.995   5.460 -0.7817  0.0083  0.4545
 2836SOL    HW120144   0.486   1.905   5.469  0.8586 -0.5079  0.9835
 2836SOL    HW220145   0.606   1.992   5.424 -0.7027 -1.1521  0.7539
 2837SOL     OW20146   3.260   0.437   1.057  0.1965 -0.2023  0.1513
 2837SOL    HW120147   3.327   0.453   1.124  1.7800 -0.8435 -1.2720
 2837SOL    HW220148   3.307   0.369   1.008 -2.1212 -1.7631  0.1177
 2838SOL     OW20149   2.930   4.201  10.224  0.1270  0.3607 -0.6512
 2838SOL    HW120150   2.963   4.116  10.197  0.7567  0.9602 -1.7973
 2838SOL    HW220151   2.856   4.170  10.276 -0.1829  0.1672 -1.2079
 2839SOL     OW20152   3.920   3.280   1.026  0.1170  0.1406  0.0091
 2839SOL    HW120153   3.969   3.362   1.014 -1.0233  0.9087  0.6293
 2839SOL    HW220154   3.846   3.299   0.969  1.6992  1.2422 -1.7173
 2840SOL     OW20155   1.916   1.489   6.405 -0.2474 -0.3581  0.0384
 2840SOL    HW120156   1.954   1.449   6.483  1.6717  0.2420 -0.6072
 2840SOL    HW220157   1.830   1.446   6.404 -0.9413  1.0555 -0.7653
 2841SOL     OW20158   2.786   4.698  17.587 -0.1088  0.1090 -0.2329
 2841SOL    HW120159   2.714   4.656  17.634  0.5792 -0.0406  0.6765
 2841SOL    HW220160   2.854   4.698  17.654 -2.1877  1.8926  1.8575
 2842SOL     OW20161   0.397   0.792   3.004  0.2354  0.1639 -0.1569
 2842SOL    HW120162   0.447   0.730   3.058  0.7609  0.6028 -0.1441
 2842SOL    HW220163   0.361   0.723   2.948 -0.1574 -0.3880  0.7739
 2843SOL     OW20164   4.677   0.167  13.073 -0.2097 -0.1207  0.4541
 2843SOL    HW120165   4.660   0.171  12.979  1.5447 -3.4719 -0.0026
 2843SOL    HW220166   0.027   0.207  13.074 -0.1348 -0.3135  1.5461
 2844SOL     OW20167   3.784   2.373  11.593  0.2236 -0.2217  0.1433
 2844SOL    HW120168   3.695   2.406  11.603 -0.7201 -2.4022 -1.0145
 2844SOL    HW220169   3.829   2.423  11.661  0.6002  0.1860 -0.4106
 2845SOL     OW20170   0.603   0.841  17.494 -0.4577 -0.1706 -0.2544
 2845SOL    HW120171   0.582   0.894  17.571  3.3752  0.8074  0.1163
 2845SOL    HW220172   0.523   0.789  17.490 -0.7026  0.0812  1.3950
 2846SOL     OW20173   2.114   3.198   2.644  0.0224  0.1703 -0.4073
 2846SOL    HW120174   2.126   3.136   2.716 -2.2621 -1.6371 -1.5865
 2846SOL    HW220175   2.019   3.213   2.654  0.0566 -1.2829  2.3483
 2847SOL     OW20176   2.787   1.915  13.862  0.1868  0.4944  0.4972
 2847SOL    HW120177   2.740   1.844  13.819  0.7853  0.3937  0.0036
 2847SOL    HW220178   2.813   1.974  13.790  0.6038 -1.6009 -1.0715
 2848SOL     OW20179   1.344   0.636   2.534  0.2433  0.6432  0.0175
 2848SOL    HW120180   1.406   0.646   2.463 -2.1340 -1.2549 -2.3294
 2848SOL    HW220181   1.317   0.546   2.517 -1.3287  1.4226 -1.5207
 2849SOL     OW20182   3.459   2.698  12.742  0.2293 -0.7037  0.9173
 2849SOL    HW120183   3.515   2.768  12.774  0.8271 -0.4473 -0.6805
 2849SOL    HW220184   3.520   2.625  12.743 -0.2975 -1.1583  0.3985
 2850SOL     OW20185   1.190   4.611  13.383  0.2452  0.0404  0.2712
 2850SOL    HW120186   1.129   4.538  13.395 -0.4106  0.5789  0.2006
 2850SOL    HW220187   1.272   4.563  13.372  0.6522  0.2307  2.6710
 2851SOL     OW20188   2.504   3.155   6.004  0.5999 -0.6232 -0.0244
 2851SOL    HW120189   2.586   3.119   5.972 -0.1252 -1.1304 -1.2867
 2851SOL    HW220190   2.485   3.212   5.929 -0.8617  0.0687  0.8670
 2852SOL     OW20191   0.091   2.549   5.926 -0.1069  0.2625 -0.1706
 2852SOL    HW120192   0.063   2.592   6.006 -0.2713 -0.9768  0.4410
 2852SOL    HW220193   0.011   2.508   5.891 -0.1325 -1.7645  2.3140
 2853SOL     OW20194   2.046   2.017   6.798  0.5208 -0.4202 -0.4146
 2853SOL    HW120195   2.081   1.943   6.848  0.3240  0.8749  1.6560
 2853SOL    HW220196   2.006   2.075   6.863  0.2631  0.9854 -1.8135
 2854SOL     OW20197   4.515   4.655  10.812 -0.5899 -0.6033  0.1476
 2854SOL    HW120198   4.541   4.612  10.894 -0.8325 -0.2013  0.4347
 2854SOL    HW220199   4.594   4.706  10.796 -2.0662  1.4601 -0.5020
 2855SOL     OW20200   0.200   3.131  10.640  0.2337 -0.0622 -0.5248
 2855SOL    HW120201   0.250   3.080  10.703  0.6823 -0.3792 -1.1343
 2855SOL    HW220202   0.267   3.158  10.578  1.0435  1.1136  0.8853
 2856SOL     OW20203   3.615   0.230   5.542  0.5265 -0.1297 -0.0452
 2856SOL    HW120204   3.598   0.144   5.582 -0.4381 -1.1714 -2.6795
 2856SOL    HW220205   3.638   0.278   5.622  1.0524 -0.2896 -0.0960
 2857SOL     OW20206   2.188   2.567   9.960 -0.5065 -0.4057  0.0069
 2857SOL    HW120207   2.204   2.578  10.053  0.0621 -0.3752 -0.0942
 2857SOL    HW220208   2.195   2.660   9.939  2.8522 -0.9402 -1.3232
 2858SOL     OW20209   4.366   2.192   5.645  0.0211 -0.0232  0.5337
 2858SOL    HW120210   4.376   2.177   5.739  0.8753  0.9627  0.6072
 2858SOL    HW220211   4.272   2.207   5.640 -0.4511 -3.4286 -0.5613
 2859SOL     OW20212   1.943   2.625   3.787  0.6466 -0.0345  0.4046
 2859SOL    HW120213   1.990   2.704   3.815  0.7363 -0.2164  0.7702
 2859SOL    HW220214   1.964   2.627   3.694 -0.3737  0.2104  0.1890
 2860SOL     OW20215   1.140   1.384   3.001  0.0020 -0.4580  1.0228
 2860SOL    HW120216   1.216   1.442   3.002 -0.9597  0.8507 -0.5479
 2860SOL    HW220217   1.076   1.428   3.057 -0.3334 -0.8965  0.9821
 2861SOL     OW20218   2.220   1.201   6.877 -0.3467  0.5396  0.6691
 2861SOL    HW120219   2.204   1.200   6.971  0.6734 -0.0412  0.8360
 2861SOL    HW220220   2.220   1.294   6.855  1.0351  0.1703 -0.9404
 2862SOL     OW20221   1.797   2.102   6.997  0.1868 -0.0015  0.1681
 2862SOL    HW120222   1.846   2.149   7.065  1.5794 -0.1850 -0.7324
 2862SOL    HW220223   1.754   2.166   6.941 -0.5940  0.0356  0.8054
 2863SOL     OW20224   2.379   2.902   7.117  0.1065  0.7765  0.5343
 2863SOL    HW120225   2.376   2.833   7.183  1.5734 -0.4744 -0.7124
 2863SOL    HW220226   2.473   2.899   7.097  0.2412  3.0903  0.7469
 2864SOL     OW20227   1.163   2.455   5.572 -0.2352 -0.0889 -0.3818
 2864SOL    HW120228   1.254   2.424   5.570 -0.1191 -0.0606  3.3755
 2864SOL    HW220229   1.114   2.382   5.535  0.9194 -1.6283  1.0983
 2865SOL     OW20230   0.178   2.417   5.604 -0.3934  0.3734 -0.2850
 2865SOL    HW120231   0.235   2.392   5.531 -1.2375 -0.7567 -0.5565
 2865SOL    HW220232   0.151   2.505   5.578  0.8745  0.4009 -1.5207
 2866SOL     OW20233   2.512   2.725  11.308  0.2312 -0.1717 -0.5751
 2866SOL    HW120234   2.573   2.776  11.362  0.7332  0.0325 -1.3400
 2866SOL    HW220235   2.554   2.702  11.226 -0.2007  0.5279 -0.9938
 2867SOL     OW20236   3.849   3.109   7.880 -0.4320 -0.4645  0.2123
 2867SOL    HW120237   3.922   3.116   7.941 -0.4606  0.1917  0.1693
 2867SOL    HW220238   3.893   3.094   7.796  1.3614  3.8074  0.4259
 2868SOL     OW20239   1.514   0.969   9.805  1.0088 -0.3754  0.2747
 2868SOL    HW120240   1.436   1.005   9.847  0.3125 -0.7782 -0.6772
 2868SOL    HW220241   1.477   0.919   9.733 -0.9644  0.3516  0.7914
 2869SOL     OW20242   0.982   1.057   7.974  0.1678  0.5613 -0.1382
 2869SOL    HW120243   1.021   1.142   7.954 -2.3107  2.5449  3.4980
 2869SOL    HW220244   0.916   1.094   8.034  0.2595  2.9559 -1.5084
 2870SOL     OW20245   1.466   4.543   7.162  0.1910  0.0501 -0.0036
 2870SOL    HW120246   1.475   4.582   7.249 -0.4273 -0.3960  0.2662
 2870SOL    HW220247   1.558   4.521   7.148  0.5670  1.2122  0.6133
 2871SOL     OW20248   3.951   1.619  11.668 -0.0809 -0.4044 -0.2582
 2871SOL    HW120249   3.990   1.548  11.617  0.6619 -0.0246 -0.2171
 2871SOL    HW220250   3.923   1.677  11.597 -1.2161  0.3981  0.8509
 2872SOL     OW20251   1.603   0.199  12.051  0.2435 -0.3069  0.2921
 2872SOL    HW120252   1.547   0.202  11.974 -1.3298  1.0826  1.4795
 2872SOL    HW220253   1.542   0.233  12.118 -2.7451 -2.0126 -1.5539
 2873SOL     OW20254   3.255   3.766   7.638 -0.1080  0.1023  0.3540
 2873SOL    HW120255   3.258   3.842   7.581 -0.1758 -0.7832 -0.8151
 2873SOL    HW220256   3.304   3.807   7.709 -1.5093 -1.4121  2.2043
 2874SOL     OW20257   0.866   2.056   9.147 -0.5267 -0.3876  0.6825
 2874SOL    HW120258   0.850   1.962   9.161  1.0025 -0.3607  2.7211
 2874SOL    HW220259   0.962   2.053   9.154 -0.4001 -0.9526 -1.0881
 2875SOL     OW20260   1.673   3.505   2.460  0.2129  0.2990  0.1937
 2875SOL    HW120261   1.724   3.504   2.379 -2.1255 -0.6588 -1.2629
 2875SOL    HW220262   1.626   3.423   2.446  2.1643 -1.0502  1.4951
 2876SOL     OW20263   1.725   1.794   3.708 -0.2317 -0.2026  0.2501
 2876SOL    HW120264   1.645   1.836   3.739  0.2888  0.1412  1.1217
 2876SOL    HW220265   1.689   1.743   3.635  0.0963 -0.3924  0.2203
 2877SOL     OW20266   3.988   1.225  15.446  0.0592  0.2452  0.2702
 2877SOL    HW120267   4.008   1.156  15.508 -1.9351  0.4618  1.1413
 2877SOL    HW220268   4.065   1.282  15.456  0.7741 -0.4316 -1.3915
 2878SOL     OW20269   0.622   4.204   2.614  0.0322 -0.9411 -0.1919
 2878SOL    HW120270   0.594   4.292   2.639  2.0975  0.0869 -1.5596
 2878SOL    HW220271   0.556   4.188   2.547 -0.2345 -0.5107 -0.0353
 2879SOL     OW20272   0.916   1.552   7.258 -0.2273  0.4543  0.0724
 2879SOL    HW120273   0.884   1.500   7.184  0.0732 -0.4159  0.5655
 2879SOL    HW220274   0.961   1.487   7.312 -0.7203 -0.0862 -0.1699
 2880SOL     OW20275   2.096   2.583   6.340  0.1229  0.1154  0.0795
 2880SOL    HW120276   2.123   2.585   6.431  1.7461  0.2304 -0.3939
 2880SOL    HW220277   2.135   2.664   6.307 -1.3402  1.0375  0.6170
 2881SOL     OW20278   2.870   4.604   0.473  0.4762  0.1153 -0.9396
 2881SOL    HW120279   2.933   4.533   0.457  0.6777  0.1296 -0.1942
 2881SOL    HW220280   2.921   4.660   0.532 -0.9183  1.7731 -1.3321
 2882SOL     OW20281   4.291   1.800   6.292  0.5145 -0.6136 -0.6667
 2882SOL    HW120282   4.269   1.763   6.206  0.6917  0.5439 -1.2010
 2882SOL    HW220283   4.285   1.894   6.273  1.3410 -0.5426 -0.5556
 2883SOL     OW20284   1.302   3.611  11.358  0.5067 -0.1563 -0.0301
 2883SOL    HW120285   1.320   3.703  11.337 -2.0190 -0.1530 -2.1886
 2883SOL    HW220286   1.340   3.613  11.445  0.0683 -2.6496  0.1965
 2884SOL     OW20287   0.318   2.319   8.358  0.1232  0.1122  0.3335
 2884SOL    HW120288   0.338   2.331   8.451 -2.5280  0.0451  0.9308
 2884SOL    HW220289   0.399   2.353   8.320 -0.5029  0.2421 -0.8891
 2885SOL     OW20290   0.447   0.579   8.523 -0.2947  0.1976 -0.2308
 2885SOL    HW120291   0.390   0.562   8.597 -1.3757 -1.1697 -1.3613
 2885SOL    HW220292   0.377   0.564   8.459 -0.8260 -0.0388  0.4153
 2886SOL     OW20293   0.121   3.380  16.408  0.1669  0.0022  0.2209
 2886SOL    HW120294   0.209   3.400  16.440  0.6185  1.3445 -1.8894
 2886SOL    HW220295   0.109   3.289  16.434 -0.3330  0.1803  0.6332
 2887SOL     OW20296   1.713   2.465  12.575 -0.5890  0.3414  0.2626
 2887SOL    HW120297   1.718   2.413  12.495  2.9625  1.4252 -0.2165
 2887SOL    HW220298   1.780   2.532  12.565  1.1545 -1.3829  0.4850
 2888SOL     OW20299   0.128   4.141  11.868  0.3301 -0.0866  0.0556
 2888SOL    HW120300   0.058   4.120  11.806  0.8423 -1.7833  0.0554
 2888SOL    HW220301   0.081   4.219  11.898  2.0782  1.3402 -0.9391
 2889SOL     OW20302   0.058   1.091   3.510  0.0144  0.2429  0.5491
 2889SOL    HW120303   0.114   1.109   3.586 -3.2357 -0.1465  3.0457
 2889SOL    HW220304   0.117   1.034   3.462 -0.8935  0.3092 -0.6345
 2890SOL     OW20305   3.542   2.716   9.350  0.5287 -0.3430  0.5412
 2890SOL    HW120306   3.519   2.696   9.259  1.0430  0.8641  0.1422
 2890SOL    HW220307   3.590   2.636   9.370 -1.2304 -1.7721 -0.8741
 2891SOL     OW20308   0.746   4.204   2.892 -0.4915  0.1550  0.4235
 2891SOL    HW120309   0.741   4.206   2.796 -2.4131 -0.1497  0.5159
 2891SOL    HW220310   0.827   4.157   2.909 -0.1284  0.5386 -0.2391
 2892SOL     OW20311   1.696   4.305   5.254 -0.5053  0.1779  0.6803
 2892SOL    HW120312   1.671   4.307   5.347 -3.8270  2.1474 -0.2518
 2892SOL    HW220313   1.775   4.359   5.258  0.0253 -0.6103  0.8174
 2893SOL     OW20314   0.439   4.630   9.915  0.3932 -0.1435  0.4546
 2893SOL    HW120315   0.476   4.711   9.880  0.6590 -1.1163 -1.5360
 2893SOL    HW220316   0.344   4.636   9.906  0.7190  1.0527 -2.2932
 2894SOL     OW20317   1.507   0.045   7.631  0.0880 -0.2199  0.2841
 2894SOL    HW120318   1.521   0.135   7.601 -1.4427 -0.8943 -2.5389
 2894SOL    HW220319   1.581   0.037   7.691  0.1124  1.8938  0.5355
 2895SOL     OW20320   2.283   0.039   9.646  0.0870 -0.3004  0.2158
 2895SOL    HW120321   2.242   0.123   9.665  0.7930 -0.4587  2.4488
 2895SOL    HW220322   2.281   4.736   9.733  1.6466  1.3901  1.0616
 2896SOL     OW20323   0.528   3.003   8.458  0.0926  0.1240  0.0655
 2896SOL    HW120324   0.606   2.951   8.478 -0.2691 -0.1140  0.8786
 2896SOL    HW220325   0.479   2.995   8.540  2.3779 -1.7680  1.2439
 2897SOL     OW20326   2.577   0.723   8.039  0.4566 -0.4279  0.9320
 2897SOL    HW120327   2.578   0.629   8.018  0.0489 -0.0295 -0.9181
 2897SOL    HW220328   2.482   0.727   8.050  0.2412  0.4553 -1.1406
 2898SOL     OW20329   3.530   3.696   5.959 -0.0247 -0.1950 -0.5472
 2898SOL    HW120330   3.519   3.738   5.873 -0.6147  0.2766 -0.2372
 2898SOL    HW220331   3.610   3.646   5.946  0.0744 -0.4394  1.0703
 2899SOL     OW20332   1.428   3.087   9.897 -0.0433  0.2450  0.2159
 2899SOL    HW120333   1.471   3.026   9.837 -1.2078  0.0942 -0.4492
 2899SOL    HW220334   1.494   3.083   9.967 -0.6728 -0.3390  0.7647
 2900SOL     OW20335   0.219   0.700   4.574  0.2951 -0.0725  0.1745
 2900SOL    HW120336   0.297   0.697   4.628  1.0844  0.5420 -0.9304
 2900SOL    HW220337   0.158   0.664   4.638 -1.1478  1.2842 -0.4065
 2901SOL     OW20338   3.002   2.399   5.989 -0.2232 -0.0643  0.1452
 2901SOL    HW120339   2.995   2.386   6.084 -0.9961  1.2739  0.2725
 2901SOL    HW220340   3.069   2.332   5.973 -0.6081  0.0324 -1.8579
 2902SOL     OW20341   3.128   0.453  13.436  0.0762 -0.3090 -0.1662
 2902SOL    HW120342   3.120   0.390  13.364 -0.8635 -2.7779  2.0790
 2902SOL    HW220343   3.149   0.536  13.394  0.2100  0.3936  1.2740
 2903SOL     OW20344   4.691   1.827   4.917 -0.2784 -0.1980  0.3997
 2903SOL    HW120345   4.723   1.902   4.967  1.5469 -0.3842 -0.4845
 2903SOL    HW220346   0.034   1.777   4.908 -1.1337 -1.4143 -0.5587
 2904SOL     OW20347   2.000   0.152   4.019  0.3945  0.0675  0.2035
 2904SOL    HW120348   2.052   0.098   3.959  0.4136  0.3240 -0.0078
 2904SOL    HW220349   1.991   0.236   3.974  1.0395  1.3859  2.4953
 2905SOL     OW20350   1.137   2.223   3.968  0.3904 -0.6529 -0.0653
 2905SOL    HW120351   1.055   2.212   4.016 -0.1011  0.9270 -0.5680
 2905SOL    HW220352   1.172   2.286   4.031  0.7432 -0.0448 -0.8831
 2906SOL     OW20353   4.729   3.368   2.651  0.1295  0.5836 -0.4654
 2906SOL    HW120354   4.734   3.377   2.556  0.5588  0.1963 -0.4772
 2906SOL    HW220355   4.694   3.456   2.668  1.6024  1.0337  0.2633
 2907SOL     OW20356   0.530   2.021   8.469 -0.3084  0.2763  0.4560
 2907SOL    HW120357   0.586   1.966   8.523 -1.6102 -0.6836  0.8062
 2907SOL    HW220358   0.516   1.963   8.394 -0.1312  2.1453 -1.0174
 2908SOL     OW20359   0.686   0.836   9.864 -0.0344 -0.2481 -0.3048
 2908SOL    HW120360   0.666   0.755   9.817 -2.0357  0.4530 -0.6624
 2908SOL    HW220361   0.703   0.817   9.956 -0.5682  0.9116  0.0387
 2909SOL     OW20362   0.236   3.671   6.170 -0.1015 -0.5697 -0.3998
 2909SOL    HW120363   0.241   3.590   6.119  2.5731  0.1494 -1.2827
 2909SOL    HW220364   0.167   3.720   6.125 -0.2633 -1.0132 -0.6327
 2910SOL     OW20365   3.041   0.600   8.599 -0.2431  0.3622  0.1896
 2910SOL    HW120366   2.956   0.639   8.580  0.2623  1.0978 -0.5715
 2910SOL    HW220367   3.011   0.513   8.623  0.2869 -0.3860 -1.8969
 2911SOL     OW20368   0.403   0.919   9.035 -0.3726  0.2925 -0.1406
 2911SOL    HW120369   0.326   0.912   8.979 -0.1617  0.5929 -0.4702
 2911SOL    HW220370   0.458   0.851   8.996 -3.2051 -0.1816 -3.3312
 2912SOL     OW20371   4.528   2.657   0.834  0.3859 -0.1574 -0.3068
 2912SOL    HW120372   4.613   2.630   0.869 -0.0437  0.8539  1.5395
 2912SOL    HW220373   4.470   2.666   0.910  2.7431  0.5456  1.4066
 2913SOL     OW20374   2.001   3.037   7.489  0.3044  0.0184  0.3842
 2913SOL    HW120375   1.951   3.104   7.536 -0.3780 -1.3518  1.6027
 2913SOL    HW220376   1.982   3.056   7.397  1.3311 -0.6277  0.0360
 2914SOL     OW20377   0.908   2.099  16.541 -0.4573 -0.3949  0.3034
 2914SOL    HW120378   0.828   2.122  16.494  0.2310  1.6073  0.0870
 2914SOL    HW220379   0.864   2.094  16.626 -0.2903 -0.3258  0.3941
 2915SOL     OW20380   2.653   2.034   8.740  0.1109 -0.1692  0.5114
 2915SOL    HW120381   2.697   1.975   8.802 -1.6466  1.7725  3.6309
 2915SOL    HW220382   2.629   2.107   8.797 -0.2799 -0.7996  1.1528
 2916SOL     OW20383   1.876   4.625   7.307 -0.1960 -0.2641 -0.4509
 2916SOL    HW120384   1.967   4.628   7.277 -0.1581 -1.1878 -0.4293
 2916SOL    HW220385   1.838   4.546   7.267 -4.1794  2.5027 -2.1328
 2917SOL     OW20386   1.126   2.945   7.809 -0.0725 -0.2367  0.3169
 2917SOL    HW120387   1.208   2.899   7.790 -0.2928 -0.5250  0.0690
 2917SOL    HW220388   1.061   2.891   7.764  0.3684  0.5965 -1.3572
 2918SOL     OW20389   3.514   3.769   8.736 -0.1370 -0.1586  0.5892
 2918SOL    HW120390   3.546   3.857   8.759  0.0601 -0.1025  0.1140
 2918SOL    HW220391   3.426   3.769   8.774  1.2718  0.4003  3.7987
 2919SOL     OW20392   1.192   2.057   6.459  0.3421 -0.5128  0.5275
 2919SOL    HW120393   1.204   2.017   6.545 -0.5482 -0.6784  0.5740
 2919SOL    HW220394   1.232   2.144   6.468 -1.5119  0.2895  1.0847
 2920SOL     OW20395   3.466   3.924   9.160 -0.5935 -0.2648 -0.0116
 2920SOL    HW120396   3.474   3.911   9.254  1.6752  0.9338 -0.0357
 2920SOL    HW220397   3.552   3.906   9.122 -2.1807 -1.4964 -3.0350
 2921SOL     OW20398   0.362   2.768  13.622  0.3327 -0.3645  0.2950
 2921SOL    HW120399   0.437   2.709  13.631 -0.6236 -1.0724  3.5779
 2921SOL    HW220400   0.299   2.723  13.679  1.3885 -0.6137  1.2660
 2922SOL     OW20401   1.159   4.698   9.145 -0.3744  0.2555  0.6107
 2922SOL    HW120402   1.233   0.022   9.148  0.8027 -1.1569  0.5425
 2922SOL    HW220403   1.146   4.683   9.239  0.7722  2.8583  1.2046
 2923SOL     OW20404   0.281   3.001   4.628  0.7117  0.3664  0.0206
 2923SOL    HW120405   0.204   3.048   4.659 -0.3558  0.4491 -2.7464
 2923SOL    HW220406   0.339   2.996   4.704  0.4531 -1.2093  0.1160
 2924SOL     OW20407   2.503   4.107   9.369  0.0485  0.3782 -0.6216
 2924SOL    HW120408   2.481   4.200   9.381  1.2582  0.3458  1.9735
 2924SOL    HW220409   2.598   4.117   9.377  0.0195 -0.5063  0.8099
 2925SOL     OW20410   4.376   0.924   9.006  0.5383 -0.5862 -0.0024
 2925SOL    HW120411   4.322   0.847   8.989  1.1144 -0.2298 -3.5808
 2925SOL    HW220412   4.314   0.980   9.052 -0.5444  0.1572 -2.3509
 2926SOL     OW20413   0.519   3.569  16.205  0.0870 -0.2505  0.6588
 2926SOL    HW120414   0.504   3.475  16.211 -0.8064 -0.3394 -2.4990
 2926SOL    HW220415   0.577   3.574  16.128 -0.2956  1.1174  0.4579
 2927SOL     OW20416   0.371   0.418   1.633 -0.1380 -0.1173 -0.1796
 2927SOL    HW120417   0.457   0.441   1.668  0.6275 -0.5864 -1.7440
 2927SOL    HW220418   0.325   0.493   1.669  1.5224  1.1295 -0.6793
 2928SOL     OW20419   0.173   2.556   1.321  0.6997  0.3689 -0.0108
 2928SOL    HW120420   0.156   2.615   1.395 -0.5549 -0.6595  0.5301
 2928SOL    HW220421   0.150   2.623   1.257 -2.0759 -0.7442 -0.2115
 2929SOL     OW20422   2.142   1.205   9.260 -0.1497 -0.3329  0.4594
 2929SOL    HW120423   2.110   1.265   9.193  0.0647  1.0709  1.6119
 2929SOL    HW220424   2.123   1.251   9.342  2.2323  4.2458 -1.5918
 2930SOL     OW20425   2.691   4.244   4.222  0.3231  0.0490 -0.3191
 2930SOL    HW120426   2.606   4.206   4.240 -0.0162  1.8771  1.9356
 2930SOL    HW220427   2.740   4.162   4.211  0.0600 -0.3886  1.7357
 2931SOL     OW20428   1.634   3.663  13.740  0.0290  0.0369 -0.2748
 2931SOL    HW120429   1.723   3.698  13.734  0.6784 -1.7432 -0.8388
 2931SOL    HW220430   1.628   3.670  13.836 -2.8504  0.5157 -0.4712
 2932SOL     OW20431   3.288   3.346  16.249  0.3932 -0.0297  0.0278
 2932SOL    HW120432   3.241   3.409  16.303 -0.7445  0.1486 -1.1736
 2932SOL    HW220433   3.377   3.382  16.245  0.7320 -1.0061 -1.2945
 2933SOL     OW20434   0.737   3.484   9.459  0.3558 -0.2649 -0.4817
 2933SOL    HW120435   0.646   3.473   9.432  0.4037  0.8826 -1.1129
 2933SOL    HW220436   0.733   3.521   9.547 -0.3697  0.1845 -0.7024
 2934SOL     OW20437   1.234   2.396  17.449 -0.8699 -0.6899 -0.1296
 2934SOL    HW120438   1.304   2.331  17.459 -0.5602 -0.3240  0.1032
 2934SOL    HW220439   1.246   2.435  17.536 -0.5994 -2.1143  0.4875
 2935SOL     OW20440   4.459   2.233  10.117 -0.2178  0.2338 -0.2192
 2935SOL    HW120441   4.515   2.219  10.193 -0.4759 -0.9582 -0.2508
 2935SOL    HW220442   4.492   2.168  10.056 -0.3372 -0.5780  0.5911
 2936SOL     OW20443   1.349   1.325   8.135 -0.0967  0.2921  0.9529
 2936SOL    HW120444   1.385   1.413   8.119 -0.8658  0.2014 -1.2551
 2936SOL    HW220445   1.350   1.325   8.231  1.7430  0.8572  0.9345
 2937SOL     OW20446   3.857   3.697  10.067 -0.2915  0.7461 -0.5150
 2937SOL    HW120447   3.763   3.697  10.053  0.0435 -1.3706 -2.8896
 2937SOL    HW220448   3.864   3.692  10.162 -1.9931 -1.9768 -0.5339
 2938SOL     OW20449   3.068   0.957   8.095 -0.0937 -0.5545  0.0120
 2938SOL    HW120450   3.059   0.887   8.030  0.8388 -0.2902 -0.4066
 2938SOL    HW220451   3.158   0.947   8.127  0.5459 -1.3979 -2.0625
 2939SOL     OW20452   4.523   1.286   3.051  0.4069  0.0271  0.0129
 2939SOL    HW120453   4.575   1.215   3.012 -1.3608 -1.1001 -0.2778
 2939SOL    HW220454   4.572   1.317   3.128  0.0069 -0.1506  0.3365
 2940SOL     OW20455   2.313   1.944   8.891  0.5990 -0.6582 -0.3472
 2940SOL    HW120456   2.349   1.924   8.978  0.2626 -0.9180 -0.2658
 2940SOL    HW220457   2.272   1.861   8.864 -0.9475 -0.2079  0.5753
 2941SOL     OW20458   2.593   0.443   5.147  0.6768 -0.1972  0.0977
 2941SOL    HW120459   2.673   0.489   5.119  0.4666 -0.6585 -1.2252
 2941SOL    HW220460   2.627   0.356   5.169  1.3789  0.0791  0.1201
 2942SOL     OW20461   0.404   3.260  15.980 -0.1915 -0.4126  0.3833
 2942SOL    HW120462   0.467   3.257  16.051  0.8836  0.5210 -0.5169
 2942SOL    HW220463   0.340   3.321  16.017  0.1545  0.0037  0.3000
 2943SOL     OW20464   2.947   4.022  13.631 -0.2810  0.2414 -0.3826
 2943SOL    HW120465   2.874   4.039  13.692  0.5128 -1.9863  1.1631
 2943SOL    HW220466   2.955   4.111  13.597  2.0388  0.7163  1.4201
 2944SOL     OW20467   0.125   0.544  11.823 -0.5333  0.2713  0.0751
 2944SOL    HW120468   0.094   0.611  11.883  0.5958 -0.5711  1.6291
 2944SOL    HW220469   0.041   0.498  11.819  0.2401 -1.3458  2.3966
 2945SOL     OW20470   3.601   0.210   7.542 -0.3010 -0.2513 -0.4211
 2945SOL    HW120471   3.639   0.222   7.454 -1.3895 -1.9801 -1.1263
 2945SOL    HW220472   3.592   0.299   7.575  1.6560 -0.1943 -0.0231
 2946SOL     OW20473   3.623   0.494   9.521  0.4272  0.7380  0.5920
 2946SOL    HW120474   3.534   0.464   9.537 -0.5270  2.3395 -1.8920
 2946SOL    HW220475   3.676   0.438   9.579 -1.2759 -0.7836  0.6613
 2947SOL     OW20476   3.176   3.197   6.505  0.0064 -0.0416 -0.5925
 2947SOL    HW120477   3.124   3.175   6.583 -0.7720  1.9816 -0.5390
 2947SOL    HW220478   3.232   3.119   6.497 -1.9032 -1.4915 -0.0240
 2948SOL     OW20479   2.459   0.611   1.513 -0.0330 -0.1923  0.0877
 2948SOL    HW120480   2.491   0.536   1.563  2.1636  0.6952  0.0493
 2948SOL    HW220481   2.538   0.640   1.467 -0.2532  0.0262 -0.1458
 2949SOL     OW20482   2.229   2.346   6.857  0.1501 -0.4057 -0.6913
 2949SOL    HW120483   2.304   2.294   6.828  0.0527 -0.0652 -1.5625
 2949SOL    HW220484   2.274   2.400   6.922  0.2326  1.0277 -1.9360
 2950SOL     OW20485   2.812   3.805   5.574  0.2130  0.0411 -0.1431
 2950SOL    HW120486   2.807   3.820   5.669 -1.3206  2.1602 -0.5498
 2950SOL    HW220487   2.876   3.734   5.567  0.6479  0.3765  0.3885
 2951SOL     OW20488   3.736   3.711   1.676 -0.1355 -0.1854  0.0405
 2951SOL    HW120489   3.693   3.790   1.643 -0.8138  0.4635  2.5468
 2951SOL    HW220490   3.667   3.645   1.669  1.0375 -1.3182 -1.1020
 2952SOL     OW20491   4.159   0.999   8.469  0.3174  0.4249 -0.1068
 2952SOL    HW120492   4.246   0.978   8.434  0.4237  0.2666  0.2473
 2952SOL    HW220493   4.119   0.913   8.481  0.0009  0.5742 -0.0983
 2953SOL     OW20494   3.720   4.294   3.417 -0.0351  0.8237 -0.2047
 2953SOL    HW120495   3.804   4.275   3.459 -0.5207 -0.9104 -0.0067
 2953SOL    HW220496   3.718   4.389   3.411  0.3801  0.8928  0.7683
 2954SOL     OW20497   3.591   2.334   2.852  0.6524 -0.1119 -0.2857
 2954SOL    HW120498   3.630   2.418   2.873 -0.4855  0.5047 -0.6381
 2954SOL    HW220499   3.534   2.371   2.785  1.9723  0.7791 -0.9221
 2955SOL     OW20500   3.649   3.877  14.900 -0.2758 -0.1194  0.1383
 2955SOL    HW120501   3.637   3.789  14.866 -1.7938 -0.2810  1.0872
 2955SOL    HW220502   3.731   3.901  14.857  0.0482  0.1450  0.9014
 2956SOL     OW20503   0.930   3.622   4.722 -0.0471  0.5100 -0.1786
 2956SOL    HW120504   0.858   3.599   4.781 -0.5723 -0.0505 -1.0207
 2956SOL    HW220505   0.979   3.684   4.775 -2.7656  1.3160  1.3929
 2957SOL     OW20506   0.871   0.556   2.618  0.4163 -0.1269  0.0525
 2957SOL    HW120507   0.776   0.554   2.631  0.5546 -0.8698  0.9364
 2957SOL    HW220508   0.901   0.465   2.613  2.6189  0.6336 -0.7241
 2958SOL     OW20509   1.144   2.563   8.262  0.0848 -0.1176 -0.1396
 2958SOL    HW120510   1.201   2.621   8.211  2.6124 -1.4623  1.1275
 2958SOL    HW220511   1.201   2.514   8.321 -0.1359 -0.3866 -0.1516
 2959SOL     OW20512   3.968   4.190   3.470  0.2778 -0.3521 -0.1032
 2959SOL    HW120513   4.028   4.188   3.395 -0.1902  1.0402 -0.5026
 2959SOL    HW220514   3.982   4.103   3.508 -1.5096 -0.3830  0.4922
 2960SOL     OW20515   0.153   4.086   7.675 -0.6271  0.5471 -0.0143
 2960SOL    HW120516   0.156   4.061   7.582 -0.0439  1.2419 -0.1818
 2960SOL    HW220517   0.204   4.011   7.707  0.9693  1.7636  0.2710
 2961SOL     OW20518   2.084   0.572   2.852  0.6261 -0.1107  0.2733
 2961SOL    HW120519   2.035   0.569   2.935  1.2292 -0.7453  0.6044
 2961SOL    HW220520   2.153   0.510   2.877 -1.4086 -1.7697  1.8478
 2962SOL     OW20521   0.442   3.933   9.798  0.7269  0.5034  0.9467
 2962SOL    HW120522   0.459   3.970   9.712  0.3332 -1.2593  0.1056
 2962SOL    HW220523   0.368   3.982   9.834 -0.2230 -0.7609  0.6984
 2963SOL     OW20524   0.869   1.190  14.636  0.5585 -0.2579  0.0863
 2963SOL    HW120525   0.793   1.248  14.630  1.3992  0.8903  0.5441
 2963SOL    HW220526   0.826   1.105  14.645  0.6261 -0.2588  0.4133
 2964SOL     OW20527   3.511   3.568   1.725  0.1239 -0.1111  0.2808
 2964SOL    HW120528   3.434   3.620   1.703  2.5866  3.0861 -0.7149
 2964SOL    HW220529   3.474   3.510   1.791  1.3073 -2.0550 -0.7720
 2965SOL     OW20530   1.414   2.134   6.176 -0.5553  0.5266 -0.7239
 2965SOL    HW120531   1.361   2.214   6.169 -0.9051  0.4369  1.0125
 2965SOL    HW220532   1.451   2.149   6.263 -0.3418  0.7749 -0.8562
 2966SOL     OW20533   1.311   0.607   3.274 -0.3768 -0.1486 -0.1288
 2966SOL    HW120534   1.257   0.529   3.284  1.2408 -1.5172 -2.4567
 2966SOL    HW220535   1.282   0.636   3.187 -1.9481 -0.3374  0.3224
 2967SOL     OW20536   2.519   2.481   6.375  0.0447  0.1985  0.1208
 2967SOL    HW120537   2.547   2.552   6.433  1.0223 -2.8538  3.4176
 2967SOL    HW220538   2.589   2.421   6.398 -1.0203 -0.1962  2.3075
 2968SOL     OW20539   2.668   2.500  15.787 -0.3867  0.1724  0.2930
 2968SOL    HW120540   2.653   2.406  15.801 -1.9879  0.1635 -1.4883
 2968SOL    HW220541   2.582   2.529  15.758 -0.6085 -2.2491 -1.5494
 2969SOL     OW20542   3.807   3.548  14.941  0.8356 -0.1963 -0.2900
 2969SOL    HW120543   3.738   3.571  14.879  0.7480 -2.8701 -1.1857
 2969SOL    HW220544   3.807   3.454  14.925 -0.1732 -0.2651  0.0888
 2970SOL     OW20545   2.951   0.411   4.718  0.5171  0.6108 -0.1600
 2970SOL    HW120546   3.005   0.476   4.675 -0.2745 -0.7222 -3.1533
 2970SOL    HW220547   2.882   0.474   4.738  1.1612  1.4876 -0.7256
 2971SOL     OW20548   4.480   4.586   2.905  0.8256 -0.2616 -0.2710
 2971SOL    HW120549   4.488   4.673   2.865  2.1284  0.3319  1.3206
 2971SOL    HW220550   4.415   4.599   2.973  0.6172  1.3025 -0.7742
 2972SOL     OW20551   3.585   3.149   5.263  0.0038 -0.1620  0.3282
 2972SOL    HW120552   3.609   3.079   5.203 -0.5141  0.3595 -0.4995
 2972SOL    HW220553   3.492   3.155   5.238 -0.5137  0.4992  2.3700
 2973SOL     OW20554   2.177   3.178   8.983  0.1836 -0.0708 -0.4020
 2973SOL    HW120555   2.206   3.109   9.042 -0.1582  1.7215  1.8616
 2973SOL    HW220556   2.163   3.248   9.047 -3.6879 -1.6925  0.5838
 2974SOL     OW20557   3.873   4.481   5.711  0.2599 -0.2820 -0.1179
 2974SOL    HW120558   3.829   4.406   5.671  1.8053 -0.5765 -1.3061
 2974SOL    HW220559   3.933   4.440   5.773  1.8253  0.6614 -0.9932
 2975SOL     OW20560   4.550   0.970   7.950  0.0224  0.3800  0.0513
 2975SOL    HW120561   4.613   0.912   7.992  0.6736 -1.7319 -3.8053
 2975SOL    HW220562   4.605   1.028   7.896 -1.6544  0.9685 -1.0385
 2976SOL     OW20563   1.835   0.553   6.528 -0.3429  0.3190 -0.1934
 2976SOL    HW120564   1.843   0.629   6.470  3.6727 -1.1488 -1.5836
 2976SOL    HW220565   1.899   0.581   6.594  0.8594 -1.5919 -0.5290
 2977SOL     OW20566   2.953   1.216   5.340  0.5540 -0.0618 -0.0119
 2977SOL    HW120567   3.038   1.222   5.296 -0.2381  3.6272 -0.9645
 2977SOL    HW220568   2.960   1.121   5.355 -2.1101 -0.4435 -1.2883
 2978SOL     OW20569   3.645   4.647   6.116  0.0470 -0.1611 -0.0886
 2978SOL    HW120570   3.657   4.669   6.023  1.9901 -1.1546 -0.0723
 2978SOL    HW220571   3.554   4.625   6.133 -0.4626  1.3597 -0.8706
 2979SOL     OW20572   2.696   2.299  11.115  0.3077  0.3518  0.0235
 2979SOL    HW120573   2.695   2.269  11.024 -1.1248  0.9055 -0.1427
 2979SOL    HW220574   2.643   2.230  11.156  0.0724 -0.3722 -1.4695
 2980SOL     OW20575   0.813   1.243   7.376 -0.4169 -0.6124 -0.5518
 2980SOL    HW120576   0.833   1.246   7.470  0.3253 -0.3068 -0.7162
 2980SOL    HW220577   0.722   1.269   7.388 -1.2849 -3.1343 -1.6381
 2981SOL     OW20578   0.826   1.918  15.060 -0.1721  0.3806 -0.2970
 2981SOL    HW120579   0.778   1.843  15.095  1.0328  0.8299  2.3019
 2981SOL    HW220580   0.810   1.979  15.132 -0.9635 -0.5405  0.3100
 2982SOL     OW20581   4.245   0.849   4.377  0.5624 -0.2673  0.2377
 2982SOL    HW120582   4.177   0.803   4.327  0.1574  0.3201  0.2426
 2982SOL    HW220583   4.191   0.908   4.430 -1.5907  0.6255 -2.9108
 2983SOL     OW20584   2.660   1.651  14.478  0.3236 -0.1432 -0.0235
 2983SOL    HW120585   2.680   1.615  14.392 -1.5929 -0.3530 -0.3764
 2983SOL    HW220586   2.737   1.707  14.489 -0.2477  0.5808  0.3028
 2984SOL     OW20587   3.749   1.026  16.003 -0.5214  0.8498 -0.1813
 2984SOL    HW120588   3.768   1.062  16.089  0.5066 -1.4893  0.5920
 2984SOL    HW220589   3.680   0.969  16.039  0.3896 -0.1739 -0.0499
 2985SOL     OW20590   0.032   0.672   3.284 -0.0813  0.2461 -0.4937
 2985SOL    HW120591   4.727   0.608   3.341  0.0917  0.7078  0.1505
 2985SOL    HW220592   0.047   0.738   3.351  0.0521  1.4615 -1.7200
 2986SOL     OW20593   2.428   2.252   8.485  0.0076 -0.1598  0.0146
 2986SOL    HW120594   2.498   2.286   8.541  1.2719  0.0620 -1.6706
 2986SOL    HW220595   2.347   2.271   8.532  1.0353  0.4957  1.5320
 2987SOL     OW20596   4.380   2.577   5.647 -0.5055  0.0640 -0.0381
 2987SOL    HW120597   4.423   2.541   5.725  0.6711  0.5788 -0.4551
 2987SOL    HW220598   4.356   2.498   5.597  1.2457  0.7891 -1.9866
 2988SOL     OW20599   3.373   3.427   6.605 -0.3125  0.2921  0.0315
 2988SOL    HW120600   3.347   3.356   6.546  0.7753 -0.4685  0.4769
 2988SOL    HW220601   3.420   3.378   6.672 -0.0856  0.5494  0.0587
 2989SOL     OW20602   3.969   1.237   5.640  0.2632  0.2395 -0.4230
 2989SOL    HW120603   3.962   1.203   5.551 -0.6894 -1.4877  0.3208
 2989SOL    HW220604   3.897   1.199   5.690  0.0582 -2.1727 -2.5705
 2990SOL     OW20605   3.933   0.845   3.625  0.2293 -0.1429  0.5777
 2990SOL    HW120606   3.853   0.845   3.678  0.5589  0.5804  1.0733
 2990SOL    HW220607   3.892   0.893   3.552 -0.7843 -0.5954  0.8424
 2991SOL     OW20608   2.104   3.792   2.128 -0.2950 -0.2039  0.1484
 2991SOL    HW120609   2.145   3.822   2.048 -1.0681  0.7375  0.1112
 2991SOL    HW220610   2.182   3.756   2.171 -0.5713 -0.9982 -0.0054
 2992SOL     OW20611   2.482   1.639   2.474  0.0749 -0.0094 -0.4734
 2992SOL    HW120612   2.461   1.546   2.489  0.7246 -0.3398 -1.5765
 2992SOL    HW220613   2.411   1.660   2.414 -1.0873  0.5238  1.1018
 2993SOL     OW20614   2.119   2.315   8.183  0.0666  0.0101  0.0227
 2993SOL    HW120615   2.091   2.287   8.096  0.9989  1.5243 -0.7675
 2993SOL    HW220616   2.058   2.263   8.236  0.4346 -0.0619  0.3729
 2994SOL     OW20617   2.355   0.322   1.672 -0.2784 -0.2396 -0.4194
 2994SOL    HW120618   2.444   0.358   1.670  1.6260 -4.9504 -0.1840
 2994SOL    HW220619   2.334   0.347   1.762  1.3771  1.1413 -0.4082
 2995SOL     OW20620   4.051   1.513  11.898  0.2637 -0.4185 -0.1655
 2995SOL    HW120621   3.988   1.542  11.964 -1.7605 -3.5184 -0.7018
 2995SOL    HW220622   4.016   1.562  11.824 -0.9323  0.6720  1.1288
 2996SOL     OW20623   0.931   0.068  15.372  0.0727  0.5241 -0.0805
 2996SOL    HW120624   0.970   4.729  15.329  0.0716  0.9465 -0.8550
 2996SOL    HW220625   0.954   0.132  15.305  0.1377  1.3550  0.7437
 2997SOL     OW20626   3.264   1.159   4.874  0.2550 -0.5455  0.0611
 2997SOL    HW120627   3.230   1.134   4.788 -2.0007  0.5865  0.6431
 2997SOL    HW220628   3.310   1.241   4.855 -2.1081  0.5447 -0.9531
 2998SOL     OW20629   3.264   0.335   2.567 -0.4929  0.6945 -0.1842
 2998SOL    HW120630   3.351   0.299   2.550 -0.7483  0.2860 -0.6013
 2998SOL    HW220631   3.255   0.417   2.519 -0.7318 -0.1461 -1.5903
 2999SOL     OW20632   4.193   2.259   7.553  0.2955 -0.3574  0.5957
 2999SOL    HW120633   4.109   2.213   7.556  0.7233 -1.0221  2.1286
 2999SOL    HW220634   4.180   2.336   7.608  0.7201 -1.5221  2.3218
 3000SOL     OW20635   3.013   2.973   4.222 -0.4993 -0.8199  0.9264
 3000SOL    HW120636   2.925   3.010   4.218  0.2491  1.0148  0.9636
 3000SOL    HW220637   3.034   2.957   4.314 -1.2151 -0.8395  1.0807
 3001SOL     OW20638   1.652   3.635   6.688  0.3981 -0.2807  0.3702
 3001SOL    HW120639   1.714   3.679   6.747  1.8146 -1.6425 -0.1102
 3001SOL    HW220640   1.678   3.677   6.606 -0.2871 -0.2865  0.1444
 3002SOL     OW20641   2.399   4.109  11.798 -0.3648  0.3106  0.3886
 3002SOL    HW120642   2.388   4.203  11.785 -2.9672  0.0991  0.9351
 3002SOL    HW220643   2.312   4.075  11.821 -1.4640  1.3186 -2.3344
 3003SOL     OW20644   2.243   3.824   8.970 -0.2520  0.0095 -0.1882
 3003SOL    HW120645   2.329   3.805   8.933  0.8854  0.1635  2.3731
 3003SOL    HW220646   2.220   3.894   8.908 -0.3086  0.2224  0.0725
 3004SOL     OW20647   0.339   0.608   0.331 -0.1876 -0.4089  0.0401
 3004SOL    HW120648   0.345   0.577   0.240  0.9266 -0.7264  0.2234
 3004SOL    HW220649   0.411   0.568   0.378  0.7059 -0.2370 -1.1714
 3005SOL     OW20650   1.506   0.779   3.846 -0.2454 -0.4748 -0.3131
 3005SOL    HW120651   1.488   0.791   3.939  0.2341 -0.8443 -0.1725
 3005SOL    HW220652   1.554   0.697   3.835  2.4291  1.0248  0.3125
 3006SOL     OW20653   4.488   1.466   6.289 -0.1688 -0.3550 -0.4221
 3006SOL    HW120654   4.405   1.421   6.308  1.0843 -1.0978  3.2374
 3006SOL    HW220655   4.554   1.404   6.317  1.2184  0.9070 -0.9203
 3007SOL     OW20656   4.083   1.428   9.003 -0.7740  0.6515 -0.1574
 3007SOL    HW120657   4.084   1.434   8.907  0.5903 -1.3136 -0.2491
 3007SOL    HW220658   4.039   1.344   9.014  0.1036  0.4388  1.6131
 3008SOL     OW20659   0.577   4.096  12.442 -0.3846 -0.3728 -0.0877
 3008SOL    HW120660   0.570   4.041  12.520  1.3755 -0.5751 -0.0728
 3008SOL    HW220661   0.669   4.084  12.421  0.2864  2.6801  1.0381
 3009SOL     OW20662   3.178   3.836   9.212  0.3046  0.2305 -0.6698
 3009SOL    HW120663   3.153   3.763   9.270 -1.3529  1.9939  0.8492
 3009SOL    HW220664   3.273   3.827   9.206  0.4240  0.2972  1.1496
 3010SOL     OW20665   4.441   0.333   7.082  0.4222  0.2359  0.0096
 3010SOL    HW120666   4.475   0.301   6.999 -0.0155  0.0193 -0.0829
 3010SOL    HW220667   4.504   0.404   7.099  0.6363 -0.6016  2.8224
 3011SOL     OW20668   0.852   0.199   7.540 -0.2945  0.6620 -0.4202
 3011SOL    HW120669   0.908   0.215   7.615  0.0682 -0.1798 -0.5045
 3011SOL    HW220670   0.914   0.234   7.476  1.8896  1.1392  1.9713
 3012SOL     OW20671   0.731   4.679  16.943 -0.1673  0.3965 -0.5685
 3012SOL    HW120672   0.691   4.716  16.865  0.4637  1.9244 -0.1665
 3012SOL    HW220673   0.680   4.601  16.965 -3.3875  1.9740 -2.4162
 3013SOL     OW20674   3.902   3.212   8.471 -0.2810 -0.1580  0.3875
 3013SOL    HW120675   3.932   3.283   8.414 -1.5208  0.6624  0.7800
 3013SOL    HW220676   3.914   3.241   8.561 -1.8451  1.6980 -0.0123
 3014SOL     OW20677   2.430   1.413  13.160  0.0687  0.2439 -0.3531
 3014SOL    HW120678   2.385   1.367  13.231 -0.9464  1.8910  0.0708
 3014SOL    HW220679   2.516   1.373  13.157  0.6767  1.7328 -2.9088
 3015SOL     OW20680   4.302   1.069   4.206 -0.1792  0.6676  0.4149
 3015SOL    HW120681   4.397   1.073   4.201 -0.0877 -0.7978  1.0147
 3015SOL    HW220682   4.296   0.979   4.238 -2.8799  0.6364 -0.1416
 3016SOL     OW20683   4.487   4.414   1.617  0.1911  0.5353  0.2503
 3016SOL    HW120684   4.573   4.407   1.576  0.4532  2.4217  0.4775
 3016SOL    HW220685   4.512   4.376   1.701  1.9740  0.3359 -0.3771
 3017SOL     OW20686   3.235   0.004   3.011 -0.6511  0.5978 -0.1688
 3017SOL    HW120687   3.141   0.019   3.001 -0.7795  0.0801  0.2574
 3017SOL    HW220688   3.262   0.034   2.925  1.6432 -0.5413  0.1709
 3018SOL     OW20689   1.710   1.075   5.441  0.1345  0.3374  0.0403
 3018SOL    HW120690   1.701   1.108   5.531 -0.3838  0.1786  0.0499
 3018SOL    HW220691   1.621   1.042   5.427 -0.6451  3.0302 -1.3733
 3019SOL     OW20692   2.798   1.522   2.088 -0.4380 -0.1699  0.2159
 3019SOL    HW120693   2.855   1.563   2.154  0.1937  1.6324 -1.4573
 3019SOL    HW220694   2.829   1.431   2.094  0.8419  0.2673  0.3202
 3020SOL     OW20695   1.865   4.588   3.338  0.6651 -0.3749  0.1102
 3020SOL    HW120696   1.771   4.571   3.351  0.9471 -1.8230  0.3092
 3020SOL    HW220697   1.864   4.546   3.252  1.1551  2.3086 -1.1889
 3021SOL     OW20698   3.861   1.447   8.725  0.3504  0.3889  0.0119
 3021SOL    HW120699   3.835   1.401   8.805  0.2668 -1.8039 -1.2643
 3021SOL    HW220700   3.780   1.485   8.691 -0.3433 -2.4803 -1.5635
 3022SOL     OW20701   2.497   0.955   8.531  0.2318 -0.9206  0.6045
 3022SOL    HW120702   2.490   1.034   8.478 -1.5513 -1.1089  0.5812
 3022SOL    HW220703   2.588   0.960   8.562 -0.1523  4.0667  0.8716
 3023SOL     OW20704   2.956   2.740  11.216  0.1164  0.4814 -0.2800
 3023SOL    HW120705   2.950   2.801  11.289  0.2261  2.8654 -2.2342
 3023SOL    HW220706   2.884   2.683  11.241 -0.3681  0.2557 -2.1984
 3024SOL     OW20707   1.917   2.367   6.378  0.2634  0.1335  0.0896
 3024SOL    HW120708   1.899   2.378   6.471  2.0758 -1.9708  0.6689
 3024SOL    HW220709   1.952   2.451   6.346 -0.0667  0.0756 -0.4321
 3025SOL     OW20710   3.337   2.256   2.530 -0.2417 -0.8481  0.3421
 3025SOL    HW120711   3.364   2.341   2.565  0.8893 -1.7440  1.6681
 3025SOL    HW220712   3.369   2.263   2.440 -0.7870 -1.4761  0.1024
 3026SOL     OW20713   4.371   0.028  12.054  0.1590  0.5035 -0.1511
 3026SOL    HW120714   4.355   4.689  11.999  4.1871 -1.8117  1.9295
 3026SOL    HW220715   4.332   0.005  12.138 -0.3846 -0.4811 -0.6787
 3027SOL     OW20716   3.920   2.697   6.262  0.1630  0.3222 -0.2752
 3027SOL    HW120717   3.991   2.650   6.304  0.5961 -1.1264 -2.6155
 3027SOL    HW220718   3.963   2.739   6.188  0.3942 -0.0180 -0.3328
 3028SOL     OW20719   2.637   2.085   6.276  0.1050 -0.0824  0.3356
 3028SOL    HW120720   2.656   2.064   6.185 -0.5357 -0.4025  0.2734
 3028SOL    HW220721   2.542   2.097   6.273  0.1081  0.1957  1.3473
 3029SOL     OW20722   4.724   2.221   6.882 -0.3229  0.0744 -0.1458
 3029SOL    HW120723   0.002   2.262   6.967 -2.3874 -0.5256  0.5287
 3029SOL    HW220724   4.725   2.128   6.904 -0.2647  0.0755 -0.1439
 3030SOL     OW20725   4.659   2.263  11.628  0.6391 -0.1674 -0.1176
 3030SOL    HW120726   4.631   2.354  11.634 -1.0512 -0.8208  2.1443
 3030SOL    HW220727   0.008   2.266  11.589  1.0028 -0.5880  0.6458
 3031SOL     OW20728   1.095   1.952   8.660 -0.6129 -0.5288  0.3144
 3031SOL    HW120729   1.112   1.934   8.567  0.9270 -1.5340  0.7809
 3031SOL    HW220730   1.014   2.003   8.666 -1.4042 -1.5727 -1.4088
 3032SOL     OW20731   1.802   2.492   7.491 -0.6513  0.3682 -0.4792
 3032SOL    HW120732   1.806   2.581   7.526  2.7843 -0.1074  0.3742
 3032SOL    HW220733   1.829   2.438   7.566  1.4009 -0.2192 -1.6307
 3033SOL     OW20734   3.498   3.482   2.693  0.0582  0.5720  0.6114
 3033SOL    HW120735   3.476   3.558   2.639 -1.1487  0.1357  0.5034
 3033SOL    HW220736   3.424   3.467   2.752 -2.2955  1.7447 -2.0476
 3034SOL     OW20737   3.640   3.160   8.577 -0.5554 -0.2098  0.5648
 3034SOL    HW120738   3.576   3.224   8.545  1.1971  0.6320 -1.2848
 3034SOL    HW220739   3.705   3.176   8.508  0.3876 -0.2779  1.4428
 3035SOL     OW20740   4.014   2.512  17.442  1.1558  0.2865  0.1219
 3035SOL    HW120741   4.000   2.594  17.394  1.8157  0.4265  0.1687
 3035SOL    HW220742   3.970   2.445  17.390 -0.4825  1.8669 -0.5281
 3036SOL     OW20743   3.323   0.312  12.986  0.6203 -0.2515  0.7384
 3036SOL    HW120744   3.393   0.342  12.928 -1.2024  0.8345 -0.8864
 3036SOL    HW220745   3.298   0.384  13.045  0.0725  1.0909 -1.1533
 3037SOL     OW20746   0.676   2.804  13.352 -0.5371 -0.5174 -0.0854
 3037SOL    HW120747   0.635   2.760  13.426  1.8785  0.4063  1.8067
 3037SOL    HW220748   0.707   2.722  13.313  0.5442 -0.2045  0.1167
 3038SOL     OW20749   0.435   1.578   4.811 -0.6859 -0.1186  0.0094
 3038SOL    HW120750   0.363   1.533   4.766 -0.2168  1.0930 -1.9831
 3038SOL    HW220751   0.480   1.635   4.749 -1.0998  1.9559  1.6133
 3039SOL     OW20752   1.426   4.101   6.744 -0.6377 -0.2541  0.5910
 3039SOL    HW120753   1.453   4.095   6.652 -0.5453 -1.5396  0.7051
 3039SOL    HW220754   1.333   4.120   6.732 -0.5148 -0.2245 -0.3359
 3040SOL     OW20755   4.408   0.320   6.065 -0.0875 -0.1516  0.6447
 3040SOL    HW120756   4.494   0.321   6.107  0.5009 -2.7289 -0.5112
 3040SOL    HW220757   4.363   0.281   6.140  2.4535  0.5241  2.5277
 3041SOL     OW20758   1.142   4.054   9.019  0.0709  0.2904  0.1817
 3041SOL    HW120759   1.052   4.021   9.019 -0.5969  2.0954  0.5729
 3041SOL    HW220760   1.126   4.146   9.000 -1.6567  0.0625  0.5352
 3042SOL     OW20761   4.482   2.075   4.730 -0.4414  0.2316 -0.0320
 3042SOL    HW120762   4.392   2.061   4.699 -0.0124 -0.5004 -0.9479
 3042SOL    HW220763   4.502   2.160   4.689  2.8938  0.0464  1.2649
 3043SOL     OW20764   1.386   2.640   9.035 -0.2320  0.6972  0.2033
 3043SOL    HW120765   1.366   2.734   9.037  1.3532  1.0458 -0.6520
 3043SOL    HW220766   1.471   2.636   9.079 -0.8316 -1.1684  1.2016
 3044SOL     OW20767   1.407   0.026  13.556 -0.2913 -0.3116  0.0366
 3044SOL    HW120768   1.327   0.036  13.505 -1.3620 -0.4044  1.6756
 3044SOL    HW220769   1.475   0.027  13.489  0.8817  0.8631  1.2521
 3045SOL     OW20770   3.952   4.716   3.643 -0.8112 -0.8380 -0.2112
 3045SOL    HW120771   3.861   4.711   3.671 -0.7867  2.4596  0.4554
 3045SOL    HW220772   3.998   4.702   3.726 -1.3632 -1.7339 -0.0525
 3046SOL     OW20773   3.850   1.532   3.657 -0.2431  0.0477  0.2300
 3046SOL    HW120774   3.816   1.464   3.600 -0.2449 -1.1351  1.6438
 3046SOL    HW220775   3.838   1.609   3.601 -0.3468 -0.6447 -0.6850
 3047SOL     OW20776   3.860   3.263   4.950  0.3053  0.3468  0.3643
 3047SOL    HW120777   3.894   3.262   4.861 -1.9125  0.4872 -0.4769
 3047SOL    HW220778   3.775   3.304   4.939  1.0207  1.5728 -0.6470
 3048SOL     OW20779   0.979   3.851   1.318 -0.7920 -0.3989 -0.2276
 3048SOL    HW120780   0.986   3.883   1.408  0.0478 -0.6198 -0.2089
 3048SOL    HW220781   0.908   3.911   1.295 -0.1970  0.9292  1.3448
 3049SOL     OW20782   2.282   0.788   5.118 -0.2070  0.1433 -0.3048
 3049SOL    HW120783   2.225   0.822   5.187  1.8970  1.1866  0.9040
 3049SOL    HW220784   2.332   0.724   5.170 -0.7572  0.7685  0.9990
 3050SOL     OW20785   2.904   1.561   1.400  0.2357  0.0318  0.1907
 3050SOL    HW120786   2.844   1.619   1.445  3.7814  2.1835  2.1668
 3050SOL    HW220787   2.962   1.631   1.370 -0.1031  0.7967  1.3144
 3051SOL     OW20788   0.300   0.600   3.291  0.0838  0.2233  0.0958
 3051SOL    HW120789   0.223   0.637   3.248 -0.0552  1.9759  1.8523
 3051SOL    HW220790   0.265   0.558   3.370 -0.1129 -1.5500 -0.9339
 3052SOL     OW20791   1.762   0.881   7.836  0.0136  0.3129 -0.2422
 3052SOL    HW120792   1.680   0.838   7.859  0.4912 -1.3570 -1.5860
 3052SOL    HW220793   1.782   0.840   7.751  1.1372 -0.9507  0.6356
 3053SOL     OW20794   1.414   4.136   3.671  0.5670  0.4240 -0.1677
 3053SOL    HW120795   1.436   4.172   3.585 -1.7851 -0.8210 -1.2917
 3053SOL    HW220796   1.420   4.214   3.726 -0.1897 -0.1893  0.7883
 3054SOL     OW20797   4.552   2.441   9.430  0.2309  0.5178 -0.2352
 3054SOL    HW120798   4.614   2.377   9.464 -1.0601  0.2506  1.6273
 3054SOL    HW220799   4.503   2.388   9.366  1.9177  1.5762 -2.3959
 3055SOL     OW20800   3.352   3.192   7.831 -0.5616 -0.0557  0.4440
 3055SOL    HW120801   3.423   3.208   7.893  1.5299 -0.9792 -1.7277
 3055SOL    HW220802   3.355   3.098   7.844  1.0449  0.1793  1.8567
 3056SOL     OW20803   4.036   3.085   4.525  0.3927 -0.0606 -0.2165
 3056SOL    HW120804   4.047   3.176   4.554 -1.0928 -0.3725  1.3356
 3056SOL    HW220805   3.943   3.092   4.502  0.3113  1.8677  0.6726
 3057SOL     OW20806   2.234   0.646   2.053  0.4237 -0.4195 -0.5125
 3057SOL    HW120807   2.217   0.700   1.976 -2.0392 -0.5292 -0.0474
 3057SOL    HW220808   2.285   0.705   2.108  1.1144 -1.0884 -0.4282
 3058SOL     OW20809   3.150   2.043   4.428  0.0748  0.1287 -0.6562
 3058SOL    HW120810   3.155   2.026   4.334 -1.1205 -0.5759 -0.5930
 3058SOL    HW220811   3.060   2.069   4.449 -0.5328  0.3055 -3.4480
 3059SOL     OW20812   0.458   1.794   2.343  0.3584  0.3099 -0.2496
 3059SOL    HW120813   0.474   1.723   2.405 -1.3854 -0.4452 -0.6985
 3059SOL    HW220814   0.374   1.834   2.363  1.2628  2.2756 -0.3667
 3060SOL     OW20815   2.287   4.172   4.579 -0.1692  0.7954 -0.2728
 3060SOL    HW120816   2.316   4.118   4.506  1.6806  2.8948 -1.0991
 3060SOL    HW220817   2.207   4.216   4.550 -0.6058 -0.6306 -1.2031
 3061SOL     OW20818   0.452   4.535  17.668 -0.2058  0.2997  0.1097
 3061SOL    HW120819   0.498   4.612  17.702  0.3792 -0.0840  0.1982
 3061SOL    HW220820   0.369   4.568  17.633  0.0638 -0.1071 -0.9199
 3062SOL     OW20821   2.499   2.175   4.164  0.5806  0.4797 -0.6275
 3062SOL    HW120822   2.432   2.235   4.196 -0.7517 -1.5073  0.3654
 3062SOL    HW220823   2.455   2.174   4.079 -2.4994 -1.1409  0.9631
 3063SOL     OW20824   1.552   0.814   1.820  0.3938  0.5015  0.0473
 3063SOL    HW120825   1.617   0.770   1.875 -2.1134 -0.0483  2.5392
 3063SOL    HW220826   1.528   0.745   1.758 -0.6533 -0.1051  1.1318
 3064SOL     OW20827   1.957   3.185   6.086 -0.5713  0.3656 -0.7937
 3064SOL    HW120828   1.971   3.278   6.107 -0.5675  0.6081 -1.8883
 3064SOL    HW220829   2.045   3.166   6.056  1.2496  0.7188  4.3020
 3065SOL     OW20830   2.551   1.969   6.601  0.2356 -0.4421  0.4737
 3065SOL    HW120831   2.502   2.024   6.539  0.6990 -1.4208 -0.7628
 3065SOL    HW220832   2.481   1.904   6.612 -0.2660  0.0514  0.2343
 3066SOL     OW20833   3.227   2.636   9.470 -0.6307 -0.1691 -0.2503
 3066SOL    HW120834   3.142   2.612   9.507 -2.0011  3.8475 -0.8316
 3066SOL    HW220835   3.227   2.594   9.383  1.7738  0.0097 -0.3359
 3067SOL     OW20836   4.124   4.020   5.011  0.0676 -0.3390 -0.5455
 3067SOL    HW120837   4.098   3.973   4.931 -1.0444  0.7147 -0.7970
 3067SOL    HW220838   4.217   3.998   5.012  0.8990  3.0978 -1.8740
 3068SOL     OW20839   4.084   4.054  13.499 -0.1708 -0.0188 -0.0871
 3068SOL    HW120840   4.169   4.063  13.540 -1.2728  0.3987  2.0964
 3068SOL    HW220841   4.102   4.028  13.408  0.5493  2.2638 -0.5978
 3069SOL     OW20842   0.428   0.017   5.571  0.1715 -0.0740 -0.5060
 3069SOL    HW120843   0.442   0.106   5.604  1.1026 -1.2056  2.1397
 3069SOL    HW220844   0.518   4.724   5.562  0.2373 -0.1548  0.4675
 3070SOL     OW20845   0.290   1.429   4.180 -0.4559 -0.1777  0.0485
 3070SOL    HW120846   0.329   1.471   4.104 -0.1616 -2.5295 -1.1000
 3070SOL    HW220847   0.245   1.359   4.134 -2.5284  1.2267 -0.0618
 3071SOL     OW20848   4.623   1.613  16.895 -0.3365  0.4386 -0.4883
 3071SOL    HW120849   4.626   1.541  16.958  3.6532  2.1412  1.2426
 3071SOL    HW220850   4.532   1.609  16.865 -1.0987 -2.1271  2.1188
 3072SOL     OW20851   2.893   1.250  15.840 -0.1885  0.1088  0.0236
 3072SOL    HW120852   2.968   1.239  15.899  0.1149 -1.3317 -0.6318
 3072SOL    HW220853   2.947   1.217  15.769  0.3133 -1.9246  1.3568
 3073SOL     OW20854   2.361   3.070  16.699  0.4487 -0.2651 -0.1094
 3073SOL    HW120855   2.295   3.034  16.641 -0.0477 -4.0803  2.8416
 3073SOL    HW220856   2.314   3.056  16.781  0.3731  0.1332 -0.0826
 3074SOL     OW20857   0.362   3.629   7.154  0.2641 -0.5232 -0.1736
 3074SOL    HW120858   0.343   3.548   7.202  0.9467  0.5939  2.0000
 3074SOL    HW220859   0.290   3.632   7.092  0.6329 -0.2795 -0.5917
 3075SOL     OW20860   0.600   3.482   3.200  0.0186 -0.3498 -0.2094
 3075SOL    HW120861   0.671   3.436   3.155 -0.0042 -0.1448 -0.4536
 3075SOL    HW220862   0.634   3.492   3.288 -1.4396 -0.5215  0.3699
 3076SOL     OW20863   3.245   2.402   9.271  0.1926 -0.4207  0.4820
 3076SOL    HW120864   3.332   2.399   9.310  1.5014  0.7886 -2.3465
 3076SOL    HW220865   3.268   2.456   9.195 -2.8842  0.5939  0.2634
 3077SOL     OW20866   0.438   0.700   5.437  0.0408 -0.2366  0.2199
 3077SOL    HW120867   0.413   0.780   5.391 -1.1575 -0.5616  0.3032
 3077SOL    HW220868   0.349   0.680   5.466 -0.0482  1.5571  1.2116
 3078SOL     OW20869   3.112   2.216   4.047 -0.4945 -0.1822  0.1225
 3078SOL    HW120870   3.108   2.140   4.104  4.2617  0.4697  1.3430
 3078SOL    HW220871   3.160   2.174   3.975  1.1567  1.2257  0.3930
 3079SOL     OW20872   2.817   3.205   5.749 -0.1210 -0.0077 -0.1361
 3079SOL    HW120873   2.906   3.220   5.781 -0.4081  0.9877  0.2062
 3079SOL    HW220874   2.786   3.138   5.809 -2.1507  1.1215  0.0666
 3080SOL     OW20875   2.358   2.928  15.778  0.2003 -0.0189  0.1421
 3080SOL    HW120876   2.414   2.994  15.737 -1.0839  1.5819  0.9593
 3080SOL    HW220877   2.349   2.956  15.869 -1.6529 -1.5144  0.4222
 3081SOL     OW20878   1.004   0.964   3.222 -0.4106  0.2886  0.1067
 3081SOL    HW120879   1.067   0.891   3.225 -0.2587  0.4698  1.0420
 3081SOL    HW220880   0.993   0.969   3.127  0.1361 -0.1167  0.0186
 3082SOL     OW20881   4.698   1.111   0.321 -0.4549 -0.4005 -0.0697
 3082SOL    HW120882   0.033   1.120   0.260  0.4691  1.0788  1.2521
 3082SOL    HW220883   4.737   1.145   0.401 -0.1616 -0.6595 -0.1038
 3083SOL     OW20884   4.325   1.930   7.246  0.5626  0.4770  0.1825
 3083SOL    HW120885   4.329   1.921   7.150  1.1546  0.9810  0.1583
 3083SOL    HW220886   4.360   1.846   7.275  0.3608  0.7376  1.1834
 3084SOL     OW20887   2.100   1.820   2.524 -0.0858 -0.5394  0.1935
 3084SOL    HW120888   2.025   1.880   2.521  1.2892  1.0825 -0.9002
 3084SOL    HW220889   2.179   1.873   2.523  0.6896 -1.6824  1.0241
 3085SOL     OW20890   2.295   0.125   2.416  0.4089  0.3568  0.7217
 3085SOL    HW120891   2.313   0.207   2.463  2.0884  1.3077 -1.6132
 3085SOL    HW220892   2.381   0.085   2.408  0.2818 -0.1138  1.6905
 3086SOL     OW20893   1.841   0.853   3.408  0.2657  0.4104  0.0349
 3086SOL    HW120894   1.842   0.822   3.318 -0.5555  0.8182 -0.1166
 3086SOL    HW220895   1.777   0.785   3.432 -0.1443  1.3573  1.6670
 3087SOL     OW20896   0.629   2.942   8.176  0.4643 -0.0145 -0.9160
 3087SOL    HW120897   0.710   2.905   8.140  1.1208  0.7016 -0.1599
 3087SOL    HW220898   0.659   2.991   8.252 -0.7780  0.1395 -0.5288
 3088SOL     OW20899   4.236   2.696  15.454 -0.8153 -0.1819  0.1895
 3088SOL    HW120900   4.210   2.731  15.368 -1.4826  1.4469  1.0548
 3088SOL    HW220901   4.154   2.650  15.471 -1.3113  0.9258  0.7652
 3089SOL     OW20902   1.918   2.117   3.331  0.0706  0.4188  0.4952
 3089SOL    HW120903   1.977   2.192   3.332 -2.6106  2.5009  1.8084
 3089SOL    HW220904   1.862   2.156   3.264  0.7694 -0.9862 -0.9237
 3090SOL     OW20905   3.075   1.491   8.688 -0.1040 -0.2676 -0.2241
 3090SOL    HW120906   3.112   1.570   8.727 -1.2186 -0.7512  1.8188
 3090SOL    HW220907   3.140   1.422   8.703  0.4823  0.7651  1.8804
 3091SOL     OW20908   2.565   3.012   5.234  0.2585 -0.7781 -0.2060
 3091SOL    HW120909   2.544   3.099   5.268 -0.5515 -0.8444 -0.5450
 3091SOL    HW220910   2.615   3.039   5.157  0.8274 -0.0289  0.4335
 3092SOL     OW20911   2.386   0.707   8.332 -0.5970  0.1100  0.9914
 3092SOL    HW120912   2.321   0.777   8.335 -0.7436  0.0432 -0.6938
 3092SOL    HW220913   2.460   0.756   8.368  0.2710  0.9133 -1.8882
 3093SOL     OW20914   3.997   1.394  11.537  0.5901 -0.3995  0.2370
 3093SOL    HW120915   3.907   1.368  11.556  1.0294 -0.4275  2.3049
 3093SOL    HW220916   4.045   1.329  11.588 -1.7406 -2.5255 -0.3206
 3094SOL     OW20917   3.171   2.599   6.131 -0.3580  0.8885  0.2376
 3094SOL    HW120918   3.247   2.639   6.089  1.4898 -0.0846  2.6384
 3094SOL    HW220919   3.145   2.536   6.063  1.4150 -0.3173  0.6679
 3095SOL     OW20920   0.355   3.412   5.669  0.2228 -0.3126  0.2069
 3095SOL    HW120921   0.386   3.411   5.578  0.5510 -2.1527  0.3443
 3095SOL    HW220922   0.401   3.333   5.700  1.5976  1.6201  3.1692
 3096SOL     OW20923   0.277   3.558   5.891  0.6788  0.3381  0.5100
 3096SOL    HW120924   0.324   3.641   5.892  2.1147 -0.5008  1.6489
 3096SOL    HW220925   0.309   3.518   5.810 -0.1317 -0.5151  0.6070
 3097SOL     OW20926   1.191   3.143  11.406  0.4695 -0.2745  0.2883
 3097SOL    HW120927   1.222   3.055  11.384  1.3273  0.7868 -2.7638
 3097SOL    HW220928   1.183   3.145  11.501 -2.3552  0.3820  0.0265
 3098SOL     OW20929   4.418   3.559   6.376 -0.7594  0.7649  0.0116
 3098SOL    HW120930   4.484   3.599   6.433  1.3563 -2.4375 -0.1903
 3098SOL    HW220931   4.339   3.576   6.427 -0.4934 -0.2436  0.7765
 3099SOL     OW20932   4.648   3.955   5.027  0.2026 -0.3298 -0.2927
 3099SOL    HW120933   4.636   3.989   4.938 -0.5650  0.3482  0.0698
 3099SOL    HW220934   4.731   3.994   5.053 -0.7126  1.0621  0.6004
 3100SOL     OW20935   3.051   3.376   6.950 -0.0708  0.7131  0.2220
 3100SOL    HW120936   3.098   3.294   6.936  0.9298  1.9073 -3.4717
 3100SOL    HW220937   3.097   3.429   6.885  0.7407  1.6574  1.5720
 3101SOL     OW20938   1.632   2.036  12.543 -0.4169 -0.2036 -0.2858
 3101SOL    HW120939   1.569   2.059  12.611 -1.3848 -1.8773 -0.6258
 3101SOL    HW220940   1.652   1.947  12.571 -1.5295 -0.5619 -0.6079
 3102SOL     OW20941   0.345   2.862   5.340  0.0388 -0.6008  0.2736
 3102SOL    HW120942   0.374   2.775   5.313 -1.7722 -0.9296 -0.5949
 3102SOL    HW220943   0.290   2.883   5.265  0.7363 -1.4455 -0.4776
 3103SOL     OW20944   3.657   2.940   8.752 -0.5170 -0.1484 -0.0904
 3103SOL    HW120945   3.654   3.012   8.689  1.7035 -0.1285 -0.1936
 3103SOL    HW220946   3.572   2.901   8.733 -0.0160 -0.7478 -1.0880
 3104SOL     OW20947   1.454   0.800   6.198 -0.5138  0.2530  0.2038
 3104SOL    HW120948   1.436   0.742   6.272  1.4315 -0.3610  0.1964
 3104SOL    HW220949   1.382   0.791   6.136 -2.0852  1.6916  1.8101
 3105SOL     OW20950   4.545   2.582   2.410  0.7996  0.0368 -0.1104
 3105SOL    HW120951   4.635   2.614   2.420  0.9750 -0.3594 -0.4252
 3105SOL    HW220952   4.512   2.661   2.369  1.0965  1.2712  2.0229
 3106SOL     OW20953   1.030   2.953   2.128 -0.2912 -0.0223 -0.3160
 3106SOL    HW120954   0.946   2.981   2.164  0.5963  1.5770  0.5182
 3106SOL    HW220955   1.045   3.025   2.066  0.7749  0.1366  0.1123
 3107SOL     OW20956   1.149   3.827   5.300  0.3933 -0.2905  0.0129
 3107SOL    HW120957   1.080   3.767   5.274 -1.8191  1.7183  1.2793
 3107SOL    HW220958   1.125   3.903   5.247 -0.0247  0.9578  2.0184
 3108SOL     OW20959   0.079   3.112   4.816 -0.0768 -0.5130 -0.0323
 3108SOL    HW120960   0.142   3.088   4.883  0.7461 -1.6510 -1.2086
 3108SOL    HW220961   0.067   3.206   4.822  2.0335 -0.3480  1.4942
 3109SOL     OW20962   4.599   0.398  17.724  0.1700  0.1526  0.0363
 3109SOL    HW120963   4.508   0.397   0.004 -0.1091  0.1864 -0.8159
 3109SOL    HW220964   4.636   0.478   0.012  0.4735  0.0263  0.0136
 3110SOL     OW20965   3.022   0.433   4.987 -0.0489  0.2983 -0.1358
 3110SOL    HW120966   2.958   0.391   5.044 -1.1693  1.0704 -0.8296
 3110SOL    HW220967   3.021   0.380   4.907 -2.3924  1.6958 -1.0185
 3111SOL     OW20968   2.599   1.865   0.509 -0.1329 -0.3402  0.7017
 3111SOL    HW120969   2.629   1.905   0.428  0.3138 -0.3524  0.8586
 3111SOL    HW220970   2.677   1.813   0.528  0.2862  0.3683  0.9021
 3112SOL     OW20971   4.652   4.060   9.870 -0.0779 -0.1226  0.8362
 3112SOL    HW120972   4.636   4.032   9.960  0.5197 -1.5381  0.4968
 3112SOL    HW220973   4.616   3.987   9.821 -0.2974  1.0312 -0.7375
 3113SOL     OW20974   3.159   2.124   3.095  0.2625  0.3100  0.2482
 3113SOL    HW120975   3.238   2.098   3.049 -0.2769 -2.0773  0.6371
 3113SOL    HW220976   3.101   2.050   3.075  0.8072 -0.4522  1.4719
 3114SOL     OW20977   1.343   4.495  16.597  0.5323  0.0650  0.2215
 3114SOL    HW120978   1.306   4.409  16.619  0.5593  0.1629  0.6344
 3114SOL    HW220979   1.303   4.513  16.511  0.7543  0.3895  0.1863
 3115SOL     OW20980   2.046   4.239   0.334  0.6555 -0.9314  0.3084
 3115SOL    HW120981   2.135   4.274   0.341  0.0152  0.5821  0.8829
 3115SOL    HW220982   2.061   4.147   0.354  1.9406 -0.4131  1.7176
 3116SOL     OW20983   4.094   2.560  10.333  0.1704  0.3052  0.0448
 3116SOL    HW120984   4.175   2.521  10.302  0.7907  0.3470  1.6203
 3116SOL    HW220985   4.125   2.648  10.355 -1.8021  1.2475 -0.9275
 3117SOL     OW20986   1.346   4.091  11.099  0.5982 -0.2149  0.0325
 3117SOL    HW120987   1.300   4.160  11.051 -0.9450  0.0191  1.8497
 3117SOL    HW220988   1.271   4.049  11.141 -0.6783  3.1375  1.1142
 3118SOL     OW20989   1.047   2.344   7.575  0.1814 -0.2598 -0.6646
 3118SOL    HW120990   0.980   2.298   7.525 -0.6100 -1.2956  1.3380
 3118SOL    HW220991   1.004   2.428   7.590  0.4907 -0.3426  0.7350
 3119SOL     OW20992   3.807   4.716   6.322 -0.4066 -0.1750 -0.1900
 3119SOL    HW120993   3.820   4.632   6.365 -0.5490 -1.1081 -1.9886
 3119SOL    HW220994   3.753   4.685   6.249  0.5329 -0.8959 -0.5765
 3120SOL     OW20995   2.478   0.359   9.743  0.3918 -0.0724 -0.0506
 3120SOL    HW120996   2.450   0.423   9.678  0.6108 -0.1974 -0.2679
 3120SOL    HW220997   2.530   0.300   9.688 -0.8847 -0.7996 -0.4601
 3121SOL     OW20998   2.062   4.687   5.365  0.1188 -0.0653  0.3364
 3121SOL    HW120999   2.127   0.018   5.382 -1.0669  0.8282  1.2858
 3121SOL    HW221000   2.095   4.618   5.423  0.3289  1.1489  1.6747
 3122SOL     OW21001   0.460   3.533   7.847  0.2753 -0.0758  0.1279
 3122SOL    HW121002   0.411   3.450   7.848  1.1765 -0.5912  0.9248
 3122SOL    HW221003   0.446   3.578   7.930 -0.5028  0.8278 -0.4880
 3123SOL     OW21004   1.437   2.027   0.786  0.3820  0.1441  0.2677
 3123SOL    HW121005   1.465   1.970   0.857  2.2815 -0.5627 -1.0767
 3123SOL    HW221006   1.415   2.106   0.836 -1.3086  1.4588 -2.5397
 3124SOL     OW21007   2.619   0.551   6.567  0.7255  0.9442 -0.2768
 3124SOL    HW121008   2.584   0.493   6.500  1.4335  0.1113  0.0650
 3124SOL    HW221009   2.591   0.506   6.647  2.3868  0.7674  0.2233
 3125SOL     OW21010   3.193   0.176   2.777 -0.3245  0.1497 -0.4114
 3125SOL    HW121011   3.143   0.112   2.727 -1.3210 -1.0897  2.1940
 3125SOL    HW221012   3.206   0.241   2.707  1.4414 -1.1304 -1.2881
 3126SOL     OW21013   3.620   3.411   3.254  0.2912 -0.4194 -0.2505
 3126SOL    HW121014   3.691   3.472   3.274 -0.5335  0.3256  0.4583
 3126SOL    HW221015   3.661   3.333   3.217 -0.4930 -0.2106 -1.5579
 3127SOL     OW21016   1.609   4.228   0.507  0.9782  0.2703  0.4202
 3127SOL    HW121017   1.637   4.255   0.419  0.2730 -0.7453 -0.1087
 3127SOL    HW221018   1.549   4.296   0.538  3.6918  2.1933  1.5124
 3128SOL     OW21019   4.051   0.282   3.220 -0.5346  0.1427 -0.5076
 3128SOL    HW121020   4.006   0.353   3.265  1.5412  1.7014 -0.9085
 3128SOL    HW221021   4.067   0.314   3.132  0.2256 -0.0160 -0.4224
 3129SOL     OW21022   0.398   1.545   8.535  0.1703  0.2008  1.2136
 3129SOL    HW121023   0.381   1.638   8.543  2.3160  0.7851 -1.0603
 3129SOL    HW221024   0.312   1.504   8.548  0.9019 -1.6127  0.3369
 3130SOL     OW21025   0.212   0.838  11.875  0.4718 -0.7879 -0.5555
 3130SOL    HW121026   0.196   0.758  11.826  2.4445 -1.6570  0.2021
 3130SOL    HW221027   0.306   0.845  11.892 -0.0266 -1.0067  2.2699
 3131SOL     OW21028   0.710   1.301   9.405  0.0727  0.6917  0.5033
 3131SOL    HW121029   0.650   1.375   9.412  0.5184  1.3635 -2.7303
 3131SOL    HW221030   0.642   1.237   9.384 -0.4703  1.1780  0.7777
 3132SOL     OW21031   0.906   4.089   1.831 -0.0609  0.1685  0.2240
 3132SOL    HW121032   0.976   4.103   1.895 -0.2345  1.3454  0.1518
 3132SOL    HW221033   0.948   4.027   1.771 -2.1365 -1.3624  0.3712
 3133SOL     OW21034   2.338   2.500   2.133  0.1663 -0.1993 -0.0546
 3133SOL    HW121035   2.415   2.557   2.138 -0.4284  0.9430 -3.7084
 3133SOL    HW221036   2.293   2.553   2.066 -3.0810 -0.7703  1.6536
 3134SOL     OW21037   1.199   2.514  10.091  0.2673 -0.4514 -0.2926
 3134SOL    HW121038   1.257   2.566  10.146  1.2340 -1.9917  0.1436
 3134SOL    HW221039   1.229   2.424  10.104 -1.6323 -0.8922  1.0732
 3135SOL     OW21040   2.781   2.701  15.967  0.7583  0.4140 -0.2360
 3135SOL    HW121041   2.810   2.640  16.035 -1.5904 -0.6716 -0.2005
 3135SOL    HW221042   2.718   2.643  15.924 -0.0600 -0.0121  1.5428
 3136SOL     OW21043   3.960   2.134   9.273 -0.4914 -0.2323  0.2094
 3136SOL    HW121044   4.027   2.071   9.245 -0.8131  1.5147 -4.3763
 3136SOL    HW221045   4.007   2.204   9.319  0.7452 -0.5098 -0.6171
 3137SOL     OW21046   0.519   3.075   4.824  0.0536  0.5670  0.1251
 3137SOL    HW121047   0.557   3.158   4.796 -0.9072  0.0643 -2.6107
 3137SOL    HW221048   0.586   3.016   4.790 -1.2041 -0.4823 -0.5199
 3138SOL     OW21049   2.833   3.277   6.259 -0.5479  0.1512 -0.0784
 3138SOL    HW121050   2.833   3.182   6.273 -1.4913 -0.1700 -2.2610
 3138SOL    HW221051   2.783   3.309   6.333  1.1586  0.8676  0.7683
 3139SOL     OW21052   3.255   4.712  11.435 -0.6256  0.3540  0.0402
 3139SOL    HW121053   3.240   0.043  11.501 -2.3505 -0.4261  0.4703
 3139SOL    HW221054   3.257   0.029  11.357  0.7409 -2.1784 -1.6757
 3140SOL     OW21055   2.728   1.032   7.165 -0.0860  0.1749 -0.0597
 3140SOL    HW121056   2.672   0.960   7.135 -1.9259  1.2989  0.6654
 3140SOL    HW221057   2.774   1.059   7.086 -3.0808  0.7554 -1.5966
 3141SOL     OW21058   0.512   0.063   6.273  0.3768 -0.4687 -0.4728
 3141SOL    HW121059   0.510   0.053   6.369  1.5242  0.4638 -0.3518
 3141SOL    HW221060   0.575   4.733   6.248  3.0781  1.6383  0.5826
 3142SOL     OW21061   2.954   3.628   0.467 -0.0742  0.1780 -0.2427
 3142SOL    HW121062   3.041   3.595   0.443 -0.0616 -1.9503  2.6365
 3142SOL    HW221063   2.906   3.547   0.450  3.9450 -2.0851 -0.8256
 3143SOL     OW21064   2.351   2.694   9.234  0.2755  0.2748 -0.2238
 3143SOL    HW121065   2.395   2.631   9.177  0.6262  0.3714 -0.0584
 3143SOL    HW221066   2.365   2.773   9.183  1.2872  0.8047  0.8793
 3144SOL     OW21067   3.251   4.203   5.791  0.3184 -0.5061 -0.4328
 3144SOL    HW121068   3.280   4.120   5.753 -0.3189 -1.6856  1.6465
 3144SOL    HW221069   3.280   4.198   5.882 -0.0703  1.6544 -0.1942
 3145SOL     OW21070   2.994   2.161  10.767  0.3724 -0.1668 -0.1359
 3145SOL    HW121071   3.035   2.248  10.764  1.8547 -0.9117 -1.8144
 3145SOL    HW221072   2.980   2.170  10.861  1.2252  2.2692 -0.2374
 3146SOL     OW21073   1.366   4.526   5.519  0.1186 -0.5281 -0.6045
 3146SOL    HW121074   1.408   4.566   5.443 -0.2598 -1.3056 -1.2266
 3146SOL    HW221075   1.349   4.438   5.485  1.4874  0.3609 -3.6507
 3147SOL     OW21076   2.221   0.021   3.927  0.3137 -0.1866 -0.0562
 3147SOL    HW121077   2.263   0.062   4.002 -0.7287 -0.0603  0.4573
 3147SOL    HW221078   2.298   0.028   3.872  0.7779  1.1872  0.7707
 3148SOL     OW21079   1.388   4.251   8.525  0.3935 -0.4987 -0.3444
 3148SOL    HW121080   1.434   4.206   8.453 -0.3179 -0.1934 -0.9920
 3148SOL    HW221081   1.444   4.241   8.601  0.1208  1.3835  0.0982
 3149SOL     OW21082   2.012   3.496   6.676  0.1869  0.6061 -0.2371
 3149SOL    HW121083   1.970   3.471   6.594 -0.0892 -1.3853  0.5266
 3149SOL    HW221084   1.987   3.589   6.682  1.8130  1.0531 -0.3473
 3150SOL     OW21085   1.983   2.427   6.986  0.1916 -0.3226 -0.5586
 3150SOL    HW121086   2.074   2.412   6.962  0.9267  0.4919  1.7347
 3150SOL    HW221087   1.959   2.362   7.051  1.0713 -0.3131 -0.2285
 3151SOL     OW21088   0.639   2.481   6.765 -0.3653  0.3813 -0.4897
 3151SOL    HW121089   0.579   2.527   6.825  1.1871  0.5483  0.9219
 3151SOL    HW221090   0.696   2.554   6.741  1.7876 -0.8354  0.9854
 3152SOL     OW21091   3.990   4.699  11.503  0.1957 -0.1275 -0.1528
 3152SOL    HW121092   3.971   0.054  11.518 -0.0680 -0.3001  0.5813
 3152SOL    HW221093   3.908   4.658  11.532  1.3984 -0.2328  3.2005
 3153SOL     OW21094   1.073   3.137   7.123  0.4149 -0.0017 -0.6278
 3153SOL    HW121095   1.117   3.183   7.194 -1.5897 -1.1973  1.3708
 3153SOL    HW221096   0.986   3.174   7.111  0.3809  0.2659  0.5091
 3154SOL     OW21097   2.366   0.436  15.694 -0.1202  0.2766 -0.1302
 3154SOL    HW121098   2.351   0.344  15.715 -0.1461  0.7349  1.9193
 3154SOL    HW221099   2.281   0.470  15.667 -0.3063 -1.9840 -2.3769
 3155SOL     OW21100   2.613   3.178   9.447 -0.2217 -0.0825  0.6826
 3155SOL    HW121101   2.617   3.273   9.456  0.2116  0.2650 -2.9865
 3155SOL    HW221102   2.682   3.167   9.381  0.1899  1.4486  0.8700
 3156SOL     OW21103   4.117   2.141   0.650 -0.2715 -0.7974 -0.2589
 3156SOL    HW121104   4.091   2.193   0.574 -1.7493  0.5857  1.1862
 3156SOL    HW221105   4.090   2.205   0.716 -0.7969  0.3056 -1.5546
 3157SOL     OW21106   0.736   3.641   8.689  0.4022  0.1531  0.3734
 3157SOL    HW121107   0.726   3.702   8.616  0.0722 -0.3055  0.0400
 3157SOL    HW221108   0.785   3.700   8.747  1.0433 -0.1013  0.0964
 3158SOL     OW21109   2.657   0.928   1.073 -0.2162 -0.5921 -0.1828
 3158SOL    HW121110   2.737   0.881   1.100 -0.7350 -0.4913  1.5365
 3158SOL    HW221111   2.640   0.883   0.991  3.2901 -0.4870 -0.9992
 3159SOL     OW21112   1.582   2.864   8.554 -0.0707  0.1133  0.0478
 3159SOL    HW121113   1.487   2.854   8.561 -0.2791  0.3447 -2.6037
 3159SOL    HW221114   1.601   2.935   8.616  3.4307 -0.0483 -0.8097
 3160SOL     OW21115   2.345   0.350  13.821 -0.2469 -0.0423 -0.3261
 3160SOL    HW121116   2.303   0.288  13.761 -0.3023  1.5405 -1.9155
 3160SOL    HW221117   2.269   0.407  13.823  0.5929  1.2254 -3.5924
 3161SOL     OW21118   3.723   1.518   6.941 -0.2503  0.3018 -0.1003
 3161SOL    HW121119   3.696   1.463   7.015  2.5102 -3.8316 -2.1531
 3161SOL    HW221120   3.714   1.454   6.871  3.0764 -0.0665 -0.1773
 3162SOL     OW21121   2.864   2.743   2.072 -0.2474 -0.1675  1.0675
 3162SOL    HW121122   2.863   2.687   1.995  0.3045  0.5476  0.5405
 3162SOL    HW221123   2.955   2.771   2.075 -0.8826  2.0219 -0.3514
 3163SOL     OW21124   3.564   4.451   4.855  0.3448  0.4853 -0.4952
 3163SOL    HW121125   3.611   4.374   4.888  0.0295  0.1983 -0.7088
 3163SOL    HW221126   3.570   4.498   4.938 -0.0875 -1.9041  0.9166
 3164SOL     OW21127   1.495   1.603   0.229 -0.2085  0.2369 -0.2431
 3164SOL    HW121128   1.410   1.645   0.218 -0.3089  0.0414 -0.2116
 3164SOL    HW221129   1.544   1.668   0.280  1.7483 -1.8389  0.5354
 3165SOL     OW21130   1.735   4.006   3.380  0.3443  0.1909 -0.2467
 3165SOL    HW121131   1.703   3.960   3.303  0.3223 -0.1553 -0.0330
 3165SOL    HW221132   1.663   3.973   3.434 -0.3078  0.3211 -1.0484
 3166SOL     OW21133   4.132   2.385   3.368 -0.7212 -0.2820 -0.0473
 3166SOL    HW121134   4.079   2.311   3.338 -1.7146  1.1858 -1.9115
 3166SOL    HW221135   4.115   2.406   3.460  3.6610 -0.9930  0.8942
 3167SOL     OW21136   2.079   4.571   9.204  1.0993 -0.4832 -0.1215
 3167SOL    HW121137   2.040   4.487   9.226  0.0922  0.1160  0.3778
 3167SOL    HW221138   2.041   4.628   9.271 -1.3868 -0.5697 -1.4601
 3168SOL     OW21139   3.284   4.074   5.404  0.6309 -0.2440 -0.6777
 3168SOL    HW121140   3.252   3.988   5.377  1.4330 -0.7362 -0.0836
 3168SOL    HW221141   3.311   4.050   5.493  0.7779 -1.5614 -1.0793
 3169SOL     OW21142   0.713   2.603   6.048 -0.3265  0.2576 -0.2614
 3169SOL    HW121143   0.757   2.532   6.095 -0.4421 -0.3834 -1.1164
 3169SOL    HW221144   0.786   2.646   6.003 -0.3732 -0.2206 -0.8066
 3170SOL     OW21145   2.196   4.101   1.263  0.0726  0.3945  0.2274
 3170SOL    HW121146   2.283   4.128   1.234 -0.5107  1.5136 -0.4552
 3170SOL    HW221147   2.222   4.027   1.318  2.9321  0.0002 -1.6969
 3171SOL     OW21148   1.541   2.327  13.875  0.2643 -0.1125  0.2130
 3171SOL    HW121149   1.546   2.354  13.783 -1.9728 -2.5049 -0.6083
 3171SOL    HW221150   1.503   2.401  13.922  0.8754  0.7063 -0.5856
 3172SOL     OW21151   0.216   3.098   3.831 -0.4149  0.2356  0.0976
 3172SOL    HW121152   0.124   3.104   3.856 -0.4528 -0.1906  0.0691
 3172SOL    HW221153   0.213   3.158   3.756 -4.0284 -0.7374 -0.5429
 3173SOL     OW21154   3.287   3.808   1.005  0.6906  0.0043  0.0359
 3173SOL    HW121155   3.382   3.795   1.001  0.5706 -0.9852  0.5816
 3173SOL    HW221156   3.276   3.790   1.098  2.3422  0.0686  0.2542
 3174SOL     OW21157   1.836   0.191   0.175  0.8643  0.1384  0.0224
 3174SOL    HW121158   1.869   0.243   0.249  2.2650  1.0738 -1.2499
 3174SOL    HW221159   1.908   0.197   0.112 -0.3457  0.4670 -1.3244
 3175SOL     OW21160   2.335   1.002   0.624 -0.2537  0.2645 -0.5546
 3175SOL    HW121161   2.399   0.931   0.611  0.2168  0.7759 -1.0234
 3175SOL    HW221162   2.398   1.072   0.608  0.0138 -0.2365 -1.6891
 3176SOL     OW21163   2.589   2.229   3.403 -0.6396 -1.4656  0.1070
 3176SOL    HW121164   2.644   2.153   3.418 -0.2622 -0.8359  2.0336
 3176SOL    HW221165   2.601   2.243   3.309 -0.4091 -0.5380  0.2739
 3177SOL     OW21166   3.967   2.053   4.155 -0.2769 -0.2790 -0.4820
 3177SOL    HW121167   3.956   2.086   4.244 -1.2254 -1.1678 -0.2770
 3177SOL    HW221168   3.879   2.058   4.119  0.1467 -0.3475 -1.5240
 3178SOL     OW21169   0.219   3.890  11.961 -0.0783  0.6806  0.3659
 3178SOL    HW121170   0.144   3.888  12.020 -0.9716  1.0670 -0.7601
 3178SOL    HW221171   0.210   3.980  11.930  0.8533  0.5538 -0.2668
 3179SOL     OW21172   4.349   2.444  14.202 -0.1375  0.3536 -0.4819
 3179SOL    HW121173   4.339   2.526  14.251  1.4183  0.0444  0.3533
 3179SOL    HW221174   4.260   2.411  14.212  0.2120  0.0999  1.8116
 3180SOL     OW21175   1.621   3.709   9.670 -0.5066  0.2504  0.1193
 3180SOL    HW121176   1.687   3.680   9.607  0.8012 -1.8020  2.4691
 3180SOL    HW221177   1.626   3.653   9.748 -0.6229 -0.2674 -0.2394
 3181SOL     OW21178   1.331   3.610   7.881  0.1721  0.0407 -0.3002
 3181SOL    HW121179   1.243   3.603   7.918 -0.2387  1.3548 -1.0032
 3181SOL    HW221180   1.324   3.656   7.798  2.4781 -0.1846 -0.6026
 3182SOL     OW21181   4.239   1.381   7.775 -0.2033 -0.5949 -0.0919
 3182SOL    HW121182   4.168   1.368   7.712 -0.1729  0.2191 -0.2878
 3182SOL    HW221183   4.184   1.409   7.848  0.1879  1.5990 -0.6451
 3183SOL     OW21184   4.573   4.261   8.235 -0.0405 -0.1080 -0.5132
 3183SOL    HW121185   4.583   4.241   8.328 -0.3594  1.4577 -0.1492
 3183SOL    HW221186   4.538   4.179   8.201 -0.7439  1.4057 -3.4141
 3184SOL     OW21187   0.021   4.733   3.087  0.2337  0.3711  0.5656
 3184SOL    HW121188   4.717   0.080   3.075 -1.7227 -0.6427  0.2263
 3184SOL    HW221189   0.110   0.020   3.114  0.0736 -0.0960  1.5105
 3185SOL     OW21190   0.978   4.399  13.417  0.5208 -0.1965  0.0406
 3185SOL    HW121191   1.028   4.318  13.425 -0.5743 -0.6986  1.8323
 3185SOL    HW221192   0.947   4.415  13.506  1.6238 -0.8222  0.5398
 3186SOL     OW21193   0.424   0.754  10.198 -0.2236  0.5422 -0.2012
 3186SOL    HW121194   0.478   0.830  10.222  0.2447  0.4312 -0.9042
 3186SOL    HW221195   0.406   0.788  10.111  0.0521 -1.2569 -0.9578
 3187SOL     OW21196   3.975   4.147   2.629  0.4069  0.1381 -0.4726
 3187SOL    HW121197   4.030   4.155   2.707  0.5987 -3.6537 -0.2037
 3187SOL    HW221198   4.030   4.196   2.569  0.4590  1.9282  1.0188
 3188SOL     OW21199   2.314   2.838   9.905 -0.7120  0.1692  0.0538
 3188SOL    HW121200   2.265   2.902   9.853 -0.9145 -1.1652 -1.3950
 3188SOL    HW221201   2.369   2.892   9.961  0.6780  0.0787 -1.2200
 3189SOL     OW21202   0.004   3.466  11.354  0.3211  0.0562 -0.3056
 3189SOL    HW121203   4.679   3.504  11.292 -1.1036  0.5701  1.4551
 3189SOL    HW221204   4.678   3.411  11.400 -0.9064  1.8930  0.1602
 3190SOL     OW21205   0.550   0.395   7.780  0.3188  0.4428 -0.1823
 3190SOL    HW121206   0.539   0.338   7.704 -2.4141 -0.4516  0.9020
 3190SOL    HW221207   0.461   0.418   7.806  0.7499  1.2252  0.6123
 3191SOL     OW21208   2.315   1.218  14.337  0.0860 -0.5964  0.5286
 3191SOL    HW121209   2.369   1.139  14.330  1.3866  0.2525  1.0099
 3191SOL    HW221210   2.364   1.286  14.383  1.0533 -1.4843  0.8500
 3192SOL     OW21211   4.291   0.148   8.520  0.2695  0.8060 -0.0574
 3192SOL    HW121212   4.304   0.054   8.519 -2.8206  0.4076 -2.7800
 3192SOL    HW221213   4.281   0.161   8.426  0.9245 -0.9076 -0.3570
 3193SOL     OW21214   1.728   4.566   2.393 -0.0889 -0.6683  0.0426
 3193SOL    HW121215   1.814   4.535   2.365 -0.7160 -0.7078 -1.8240
 3193SOL    HW221216   1.749   4.657   2.414 -2.0856  0.4849 -2.8699
 3194SOL     OW21217   3.207   0.125   5.135 -0.0977 -0.0165 -0.8297
 3194SOL    HW121218   3.286   0.095   5.090 -0.4460  0.2821 -1.6330
 3194SOL    HW221219   3.223   0.219   5.135 -0.9814  0.1256  0.1179
 3195SOL     OW21220   0.961   3.924   7.992  0.5379 -0.0083 -0.1348
 3195SOL    HW121221   0.925   3.852   7.941 -0.2066 -2.2575  3.5740
 3195SOL    HW221222   0.891   3.932   8.057  1.3967 -0.1148  0.7967
 3196SOL     OW21223   1.204   0.001   5.005 -0.5624 -0.1072 -0.3091
 3196SOL    HW121224   1.269   4.691   5.057 -2.7135 -3.1243 -0.3756
 3196SOL    HW221225   1.264   0.049   4.947  2.5781 -1.8004  1.5381
 3197SOL     OW21226   3.881   1.586   6.003  0.6771  0.4528 -0.0109
 3197SOL    HW121227   3.866   1.500   5.963 -0.9958  0.6110  0.2594
 3197SOL    HW221228   3.948   1.569   6.069  1.1700  1.0662 -0.3591
 3198SOL     OW21229   1.192   0.356   5.411  0.2110 -0.5350  0.4612
 3198SOL    HW121230   1.216   0.379   5.501 -2.0431 -0.1526  0.9614
 3198SOL    HW221231   1.144   0.275   5.428 -0.9148 -0.2744 -1.4028
 3199SOL     OW21232   2.854   4.071  15.644  0.0442 -0.2218  0.1989
 3199SOL    HW121233   2.760   4.053  15.648 -0.4294  2.1370 -0.5366
 3199SOL    HW221234   2.860   4.150  15.591 -3.2754  0.6444  1.0792
 3200SOL     OW21235   2.593   4.216  17.020  0.5046  0.3051 -0.5085
 3200SOL    HW121236   2.621   4.245  16.933  1.5444  0.6393 -0.0594
 3200SOL    HW221237   2.539   4.286  17.058  0.3974  0.1451 -0.3630
 3201SOL     OW21238   3.327   1.227   5.371  0.3404 -0.2095 -0.3989
 3201SOL    HW121239   3.370   1.147   5.400 -0.2979 -0.0017  1.1340
 3201SOL    HW221240   3.275   1.181   5.305 -0.1684 -0.6946  0.3386
 3202SOL     OW21241   1.855   3.058   5.346 -0.0896  0.0788  0.3692
 3202SOL    HW121242   1.798   3.108   5.289 -0.1877  0.3731  0.7251
 3202SOL    HW221243   1.819   3.088   5.430 -1.4988  0.9897 -0.5826
 3203SOL     OW21244   2.587   0.037   6.990  1.2041 -0.0396  0.3407
 3203SOL    HW121245   2.656   0.048   6.926  0.6728  2.1806  0.1630
 3203SOL    HW221246   2.516   0.000   6.937  1.1996  0.2171  0.1698
 3204SOL     OW21247   0.458   3.932  10.680  0.1354 -0.2016  0.6523
 3204SOL    HW121248   0.369   3.941  10.645 -0.2701 -1.1338  1.4720
 3204SOL    HW221249   0.469   4.023  10.708 -0.1518 -0.2312  0.8648
 3205SOL     OW21250   2.554   2.315   9.533 -0.2654 -0.3673  0.4957
 3205SOL    HW121251   2.605   2.345   9.608  0.3242  1.9305 -0.8372
 3205SOL    HW221252   2.633   2.321   9.479 -1.4496  0.8155 -1.1003
 3206SOL     OW21253   0.288   3.220  17.087  0.2923  0.8252 -0.4194
 3206SOL    HW121254   0.214   3.241  17.145  0.4627  0.9639 -0.2509
 3206SOL    HW221255   0.305   3.130  17.113 -1.8718  0.0870 -1.4968
 3207SOL     OW21256   4.597   3.640  13.757  0.3144 -0.7758  0.4934
 3207SOL    HW121257   4.592   3.625  13.663 -0.7555  0.6950  0.3140
 3207SOL    HW221258   4.505   3.640  13.782 -0.0802  0.3736 -0.9959
 3208SOL     OW21259   1.239   2.411  11.148 -0.2687  0.2830 -0.1015
 3208SOL    HW121260   1.304   2.394  11.080 -1.3827 -1.2242 -0.7992
 3208SOL    HW221261   1.202   2.326  11.174 -1.7322  0.8416 -0.3577
 3209SOL     OW21262   2.752   2.668   5.156  0.4683  0.0514  0.1215
 3209SOL    HW121263   2.672   2.713   5.187  1.6846  1.1423  1.6730
 3209SOL    HW221264   2.748   2.699   5.066  0.7802  0.8202  0.3672
 3210SOL     OW21265   0.224   0.354  15.651 -0.0315 -0.2375 -0.4430
 3210SOL    HW121266   0.133   0.339  15.674 -0.2617 -1.2478 -2.0257
 3210SOL    HW221267   0.257   0.267  15.631 -3.0531 -1.0423 -1.8278
 3211SOL     OW21268   3.705   2.290   1.432  0.0754  0.0492  0.4502
 3211SOL    HW121269   3.686   2.252   1.517 -0.5039 -0.1024  0.2464
 3211SOL    HW221270   3.666   2.223   1.376 -0.8450  1.9659 -1.2122
 3212SOL     OW21271   1.075   1.962   2.236 -0.4129 -0.1685  0.5940
 3212SOL    HW121272   1.117   2.021   2.173 -1.5450 -1.6807 -1.5765
 3212SOL    HW221273   0.997   2.015   2.252  0.8794  1.8295  0.2835
 3213SOL     OW21274   3.898   0.566   4.441  0.0492  0.1337  0.1339
 3213SOL    HW121275   3.846   0.493   4.407  0.6347 -0.7160  1.0524
 3213SOL    HW221276   3.987   0.531   4.444  0.9747  2.6281  1.4680
 3214SOL     OW21277   0.384   3.648   4.059  0.0462 -0.3730 -0.3157
 3214SOL    HW121278   0.469   3.646   4.103  0.8906 -1.5381 -2.0185
 3214SOL    HW221279   0.393   3.736   4.021 -4.3589  1.2745  2.3996
 3215SOL     OW21280   0.639   3.890   2.273  0.1029  0.2667  0.2041
 3215SOL    HW121281   0.664   3.975   2.236 -1.7921 -0.2102 -2.2481
 3215SOL    HW221282   0.662   3.901   2.365  1.1952  1.0644 -0.1751
 3216SOL     OW21283   1.738   3.937  14.762 -0.0122  0.5164 -0.0545
 3216SOL    HW121284   1.749   3.850  14.724  0.6136  0.2595  0.7157
 3216SOL    HW221285   1.825   3.954  14.799  0.6310 -0.4801 -1.1117
 3217SOL     OW21286   2.428   3.376  10.365 -0.3102 -0.0858  0.4397
 3217SOL    HW121287   2.476   3.435  10.423  2.7938 -3.1026  0.9416
 3217SOL    HW221288   2.341   3.415  10.363 -1.4173 -2.5164  0.8456
 3218SOL     OW21289   3.678   2.291   6.940  0.3532  0.3940 -0.5905
 3218SOL    HW121290   3.690   2.196   6.940 -1.8464  0.1128 -0.5474
 3218SOL    HW221291   3.633   2.316   6.859 -0.0283 -1.2410 -0.8817
 3219SOL     OW21292   0.685   3.524  11.545 -0.1560 -0.3191 -0.7630
 3219SOL    HW121293   0.709   3.527  11.637 -1.0397 -1.7429 -0.4834
 3219SOL    HW221294   0.678   3.429  11.531 -2.7460 -0.4894  1.7478
 3220SOL     OW21295   2.900   4.243  13.096 -0.2283 -0.2113 -0.1756
 3220SOL    HW121296   2.893   4.267  13.189  1.5359  1.3113 -0.4379
 3220SOL    HW221297   2.981   4.291  13.079 -0.2188  0.4301  1.6111
 3221SOL     OW21298   3.973   1.169   6.212  0.6190  0.0662  0.3883
 3221SOL    HW121299   3.957   1.107   6.283  2.2933  0.4601  1.1127
 3221SOL    HW221300   3.881   1.189   6.198  0.9047 -1.3047 -3.2711
 3222SOL     OW21301   3.440   0.954   4.376  0.3591 -0.2581 -0.4124
 3222SOL    HW121302   3.392   0.880   4.339  2.6145 -2.4548  1.0753
 3222SOL    HW221303   3.497   0.916   4.443  0.4628  0.3394 -0.1647
 3223SOL     OW21304   4.381   1.144   1.970 -0.0169 -0.0066  0.3557
 3223SOL    HW121305   4.320   1.113   1.904  1.0237 -2.5045  0.5474
 3223SOL    HW221306   4.412   1.061   2.007 -1.9813  0.2193  2.4955
 3224SOL     OW21307   3.008   0.875   3.394  0.5107  0.0229 -0.1103
 3224SOL    HW121308   3.092   0.918   3.378 -0.5258  1.5612 -1.3769
 3224SOL    HW221309   3.000   0.824   3.313 -1.2406  1.9710 -1.1803
 3225SOL     OW21310   2.831   2.055  11.710  0.1451 -0.1286 -0.5653
 3225SOL    HW121311   2.756   2.028  11.763  1.0746 -1.1649  0.2038
 3225SOL    HW221312   2.848   2.140  11.751  0.0551 -0.4368  0.1096
 3226SOL     OW21313   2.699   2.985   7.740  0.7103  0.1265  0.0178
 3226SOL    HW121314   2.730   3.075   7.738 -0.1789  0.4412  0.3355
 3226SOL    HW221315   2.767   2.936   7.693 -0.9799 -1.2990 -0.9325
 3227SOL     OW21316   1.107   2.622  13.544  0.6505 -0.3711  0.1315
 3227SOL    HW121317   1.150   2.537  13.543 -0.0584 -0.7355  1.2832
 3227SOL    HW221318   1.140   2.666  13.465  0.2812 -0.0818  0.1367
 3228SOL     OW21319   2.224   0.293   7.607 -0.1281  0.4929 -0.1669
 3228SOL    HW121320   2.292   0.297   7.540 -0.8807  1.8824 -0.8354
 3228SOL    HW221321   2.219   0.200   7.627 -1.5259  0.6332  0.1264
 3229SOL     OW21322   0.962   3.043   0.714  0.4769 -0.7415  0.4028
 3229SOL    HW121323   0.946   3.012   0.803 -1.1583  1.7997  1.0029
 3229SOL    HW221324   1.043   3.091   0.730  1.4113 -2.1896 -0.0060
 3230SOL     OW21325   0.606   3.630   6.319 -0.2473  0.1908  0.0944
 3230SOL    HW121326   0.689   3.612   6.363  0.6531  0.9298 -1.3148
 3230SOL    HW221327   0.634   3.705   6.267 -1.0047  0.5795  0.2414
 3231SOL     OW21328   1.640   0.367  16.801 -0.6517  0.0560  0.0826
 3231SOL    HW121329   1.616   0.426  16.729  0.1987 -0.6463 -0.7808
 3231SOL    HW221330   1.677   0.295  16.749  1.1263  1.1999 -0.2428
 3232SOL     OW21331   3.944   2.114   2.931  0.4238 -0.6599  0.1748
 3232SOL    HW121332   3.989   2.030   2.937  0.2163 -0.6363  2.0213
 3232SOL    HW221333   4.013   2.178   2.947 -0.9010  0.7646  0.2656
 3233SOL     OW21334   1.382   1.886   8.129 -0.2749 -0.1036 -0.0000
 3233SOL    HW121335   1.294   1.913   8.103  0.8038  0.8046 -2.6904
 3233SOL    HW221336   1.430   1.913   8.050  0.7577 -0.2743  0.5602
 3234SOL     OW21337   4.278   4.386   7.034 -0.0550 -0.0077  0.1194
 3234SOL    HW121338   4.259   4.477   7.013 -0.4280  0.3267  1.9019
 3234SOL    HW221339   4.324   4.403   7.116  0.3863  2.1150 -0.5678
 3235SOL     OW21340   1.141   3.834   7.199 -0.3964  0.4399  0.0002
 3235SOL    HW121341   1.104   3.896   7.263  1.0854  0.3799  0.9143
 3235SOL    HW221342   1.067   3.782   7.167 -0.7742  1.3797 -0.6358
 3236SOL     OW21343   0.356   1.982  11.828  0.0796  0.0666  0.0182
 3236SOL    HW121344   0.329   2.061  11.875 -2.0125  0.1360 -1.3048
 3236SOL    HW221345   0.271   1.938  11.827 -0.1537  0.5026  0.3821
 3237SOL     OW21346   3.300   1.339   3.911 -0.1105  0.1262  0.2353
 3237SOL    HW121347   3.257   1.287   3.979  1.2426  0.4872  1.3677
 3237SOL    HW221348   3.388   1.338   3.948 -0.3871 -2.5579  0.7867
 3238SOL     OW21349   0.437   0.840   6.113  0.3124 -0.4346 -0.5701
 3238SOL    HW121350   0.388   0.812   6.035  0.5606  1.5972 -1.4642
 3238SOL    HW221351   0.468   0.760   6.153 -0.4579 -0.3348  0.2262
 3239SOL     OW21352   2.940   4.552   7.481  0.3443  0.4891 -0.5494
 3239SOL    HW121353   2.912   4.521   7.395 -0.7382  2.5722 -0.9568
 3239SOL    HW221354   2.961   4.644   7.464  1.1045  0.3578 -0.2759
 3240SOL     OW21355   3.108   2.055  11.703  0.3196 -0.1796 -0.0534
 3240SOL    HW121356   3.015   2.034  11.703  0.6481 -1.6651  1.2794
 3240SOL    HW221357   3.138   1.992  11.769 -2.5822 -1.3711  0.1283
 3241SOL     OW21358   3.117   4.399   6.588  0.3901  0.2450  0.5774
 3241SOL    HW121359   3.140   4.321   6.537 -0.9226  0.7628 -0.8178
 3241SOL    HW221360   3.047   4.430   6.531  1.1596 -0.7165 -0.9021
 3242SOL     OW21361   1.461   2.944   5.266  0.1480  0.0345  0.2052
 3242SOL    HW121362   1.411   2.870   5.301 -0.9739  0.1015 -1.2825
 3242SOL    HW221363   1.545   2.909   5.236  1.2138  1.1786  1.8269
 3243SOL     OW21364   3.415   0.408   9.698 -0.6894  0.6856  0.0832
 3243SOL    HW121365   3.447   0.322   9.724  0.0326  1.5071  1.9911
 3243SOL    HW221366   3.324   0.406   9.728 -1.2942  1.3296 -1.7016
 3244SOL     OW21367   1.684   0.914   2.907 -0.5715  0.5338  0.4616
 3244SOL    HW121368   1.592   0.930   2.924 -1.2217 -0.0684 -2.5323
 3244SOL    HW221369   1.671   0.850   2.837  2.4660  0.4687 -0.0831
 3245SOL     OW21370   3.433   3.609   3.961 -0.6493  0.3027  0.3689
 3245SOL    HW121371   3.451   3.703   3.954 -1.3042  0.3332 -0.9008
 3245SOL    HW221372   3.438   3.566   3.875 -0.4655  1.2341 -0.0813
 3246SOL     OW21373   2.938   3.526   0.739  0.1415  0.7493 -0.8042
 3246SOL    HW121374   2.943   3.610   0.786 -0.0520  0.4597 -0.2676
 3246SOL    HW221375   2.968   3.560   0.655  0.6549 -2.3565 -1.8820
 3247SOL     OW21376   0.023   2.076   0.133  1.0243  0.4506  0.1257
 3247SOL    HW121377   0.095   2.129   0.100  0.8185  0.8750  0.3641
 3247SOL    HW221378   0.010   2.006   0.068 -1.7185  1.8557 -0.8595
 3248SOL     OW21379   4.243   1.647   3.673  0.4918 -0.1053  0.0956
 3248SOL    HW121380   4.331   1.685   3.678  1.0496 -1.4608  0.5410
 3248SOL    HW221381   4.195   1.722   3.709  0.2256 -0.9612  1.5245
 3249SOL     OW21382   1.067   4.034   7.470 -0.1051 -0.6947  0.3805
 3249SOL    HW121383   1.124   4.106   7.495 -1.3698  0.5621 -0.3844
 3249SOL    HW221384   1.096   3.969   7.534 -0.0659 -1.5620 -0.5090
 3250SOL     OW21385   0.707   2.374   4.259  0.2796 -0.1515  0.3798
 3250SOL    HW121386   0.801   2.390   4.265  0.3448  0.3633 -2.0465
 3250SOL    HW221387   0.712   2.335   4.172  0.1069  1.6137 -0.4084
 3251SOL     OW21388   3.674   2.398   4.783  0.4213  0.4970 -0.7140
 3251SOL    HW121389   3.665   2.477   4.730  2.0172  0.8494 -0.4691
 3251SOL    HW221390   3.648   2.335   4.716 -1.1250  0.2333  0.1253
 3252SOL     OW21391   0.908   2.289   6.608 -0.0931 -0.0591 -0.3516
 3252SOL    HW121392   0.851   2.219   6.639  1.5788 -0.5400  1.6581
 3252SOL    HW221393   0.905   2.353   6.680  1.8199  0.8049 -1.0446
 3253SOL     OW21394   0.130   0.848   9.002 -0.6420  0.4485 -0.1117
 3253SOL    HW121395   0.037   0.838   9.022 -0.2727  1.4623  2.1655
 3253SOL    HW221396   0.164   0.764   9.032 -2.1821 -0.7103 -1.6818
 3254SOL     OW21397   3.721   0.935   2.771 -0.0568 -0.6875  0.3188
 3254SOL    HW121398   3.693   1.025   2.759 -1.7335 -1.4222 -1.2978
 3254SOL    HW221399   3.816   0.941   2.761  0.0305 -0.5765  1.2438
 3255SOL     OW21400   3.551   0.073   8.384 -0.5274  0.4890 -0.2603
 3255SOL    HW121401   3.638   0.090   8.348 -0.6387 -0.0276 -0.7773
 3255SOL    HW221402   3.503   0.080   8.301 -1.6048  0.9282  0.4036
 3256SOL     OW21403   1.015   4.603   9.393 -0.0265 -0.0802 -0.2031
 3256SOL    HW121404   0.922   4.620   9.379 -0.1657 -0.7397 -0.0913
 3256SOL    HW221405   1.031   4.675   9.454  1.2939 -1.8845  1.5855
 3257SOL     OW21406   4.053   2.584   5.820  0.0487 -0.7602 -0.4562
 3257SOL    HW121407   3.982   2.560   5.762 -1.2891 -2.6704  1.9566
 3257SOL    HW221408   4.054   2.680   5.811  0.2777 -0.3808  3.3889
 3258SOL     OW21409   3.630   3.995   8.820 -0.1646 -0.1820 -0.5330
 3258SOL    HW121410   3.636   4.089   8.835 -2.5784  0.1689 -1.8176
 3258SOL    HW221411   3.723   3.971   8.828  0.3414  1.5329 -1.4808
 3259SOL     OW21412   4.302   1.662   9.593  0.2479 -0.3070 -0.6472
 3259SOL    HW121413   4.208   1.644   9.595 -0.1152  1.5240 -1.3420
 3259SOL    HW221414   4.320   1.706   9.677 -2.1223 -2.5904  1.0590
 3260SOL     OW21415   0.064   3.105   8.360  0.1975 -0.0811  0.2200
 3260SOL    HW121416   4.723   3.122   8.308  1.1166  1.2321 -0.7611
 3260SOL    HW221417   0.042   3.027   8.410 -1.5334 -0.0061 -0.4254
 3261SOL     OW21418   2.656   3.501   1.476  0.0650 -0.8021 -0.0673
 3261SOL    HW121419   2.652   3.486   1.571  0.0919 -0.8769 -0.0784
 3261SOL    HW221420   2.724   3.569   1.483  0.5402 -1.1829 -1.0447
 3262SOL     OW21421   3.886   3.867   6.144  0.1153  0.3353  0.3198
 3262SOL    HW121422   3.945   3.820   6.202  1.8828  1.2776 -0.7120
 3262SOL    HW221423   3.942   3.884   6.068 -1.4000  2.1595 -0.4019
 3263SOL     OW21424   3.656   4.332   2.409  0.2892  0.1445  0.2287
 3263SOL    HW121425   3.675   4.280   2.487  1.1843 -0.8623 -0.6469
 3263SOL    HW221426   3.572   4.370   2.435 -0.7242 -1.4811 -0.6576
 3264SOL     OW21427   1.935   2.785   7.271  0.3997 -0.0947 -0.4129
 3264SOL    HW121428   1.865   2.797   7.335  0.2690 -0.6097 -0.4567
 3264SOL    HW221429   1.887   2.784   7.188  1.0496 -0.0602 -0.7920
 3265SOL     OW21430   2.587   2.542  17.069  0.1650  0.2364  0.3267
 3265SOL    HW121431   2.505   2.548  17.117  0.4604  1.8114  0.6446
 3265SOL    HW221432   2.546   2.540  16.983  0.0620 -3.0560  0.4642
 3266SOL     OW21433   1.915   3.741   2.307 -0.4714  0.3211 -0.0463
 3266SOL    HW121434   1.846   3.761   2.244  1.3613  2.5115 -1.3386
 3266SOL    HW221435   1.993   3.758   2.255  0.2633  0.2439  1.0201
 3267SOL     OW21436   0.749   2.220   3.332 -0.3460  0.2984 -0.3444
 3267SOL    HW121437   0.687   2.202   3.401 -0.6122 -0.0045 -0.6629
 3267SOL    HW221438   0.809   2.146   3.343 -0.6833  0.0558 -0.1424
 3268SOL     OW21439   3.435   0.195   6.979 -0.0185 -0.3588 -0.3110
 3268SOL    HW121440   3.461   0.184   7.071 -3.6082  1.8314  0.9458
 3268SOL    HW221441   3.353   0.240   7.000 -0.9715 -1.7014 -1.1615
 3269SOL     OW21442   4.025   0.471   8.516 -0.1691 -0.2611 -0.7226
 3269SOL    HW121443   3.938   0.491   8.550 -0.0221 -0.1906 -0.3775
 3269SOL    HW221444   4.008   0.442   8.427 -2.1480 -0.6089 -0.2188
 3270SOL     OW21445   3.384   2.144   4.784  0.4370 -0.1708  0.1869
 3270SOL    HW121446   3.370   2.086   4.709  1.1660 -0.8882  0.6133
 3270SOL    HW221447   3.460   2.092   4.809  0.7664  0.0483 -0.3766
 3271SOL     OW21448   1.880   2.833   6.990  0.1948 -0.1434 -0.2982
 3271SOL    HW121449   1.811   2.773   6.961  0.5663 -1.1176  0.8351
 3271SOL    HW221450   1.950   2.806   6.930  2.9465  0.8947  2.5100
 3272SOL     OW21451   4.447   2.391  11.428 -0.4546 -0.0991  0.2012
 3272SOL    HW121452   4.392   2.372  11.504  1.5903 -0.7587  1.5337
 3272SOL    HW221453   4.506   2.455  11.468  0.1096 -1.2098  1.1704
 3273SOL     OW21454   2.581   1.652   8.290  0.3574  0.3209 -0.0650
 3273SOL    HW121455   2.559   1.723   8.229 -0.8152 -0.2123 -0.2612
 3273SOL    HW221456   2.556   1.688   8.376  0.2330 -1.1344  0.4965
 3274SOL     OW21457   0.617   3.336   2.360  0.4172  0.3698 -0.4808
 3274SOL    HW121458   0.635   3.337   2.454  0.9641 -0.1662 -0.5730
 3274SOL    HW221459   0.582   3.247   2.365 -3.1975  1.9786  2.7785
 3275SOL     OW21460   4.261   3.044   9.306  0.5569 -0.2661  0.0646
 3275SOL    HW121461   4.166   3.057   9.309  0.5359 -0.4570  0.2462
 3275SOL    HW221462   4.265   2.953   9.276  2.5600  0.2072 -1.0975
 3276SOL     OW21463   3.674   3.023  16.043  0.0847 -0.1992  0.1057
 3276SOL    HW121464   3.741   2.970  16.086  0.5570  0.2617 -0.0673
 3276SOL    HW221465   3.713   3.108  16.026 -0.3184 -0.0461 -0.0699
 3277SOL     OW21466   0.151   2.199   4.901 -0.2531  0.3427 -1.0829
 3277SOL    HW121467   0.103   2.153   4.832 -2.2429  1.7287 -0.6284
 3277SOL    HW221468   0.124   2.148   4.978  0.9464 -0.5965 -1.2942
 3278SOL     OW21469   0.351   3.269   3.391 -0.5977 -0.5364 -0.6111
 3278SOL    HW121470   0.265   3.300   3.362 -0.8455  0.4955  1.2227
 3278SOL    HW221471   0.362   3.330   3.463 -1.4069 -1.3047  0.1619
 3279SOL     OW21472   2.910   4.715   5.443  0.0928  0.2019 -0.1748
 3279SOL    HW121473   3.005   4.725   5.447  0.0565  0.2896  0.4877
 3279SOL    HW221474   2.905   4.622   5.418 -0.3869  0.0780  0.4002
 3280SOL     OW21475   0.513   2.026   2.083 -0.7063 -0.5267 -0.1558
 3280SOL    HW121476   0.591   1.973   2.067  0.8560  1.8228 -0.2430
 3280SOL    HW221477   0.558   2.093   2.134  0.7664  0.1990 -2.3899
 3281SOL     OW21478   3.252   3.123   9.655 -0.4132  0.6392 -0.2912
 3281SOL    HW121479   3.265   3.056   9.588 -0.9745  0.1559  0.0833
 3281SOL    HW221480   3.330   3.122   9.711 -0.9337  1.3848  0.4498
 3282SOL     OW21481   0.369   4.534  15.064  0.1699 -0.7861 -0.2760
 3282SOL    HW121482   0.399   4.614  15.107 -0.9486 -0.2308 -0.5198
 3282SOL    HW221483   0.337   4.568  14.980 -1.6069  1.5902  1.3291
 3283SOL     OW21484   1.829   3.486   8.879 -0.0416  0.6922 -0.0865
 3283SOL    HW121485   1.828   3.452   8.968 -0.7764  0.3735 -0.2134
 3283SOL    HW221486   1.865   3.575   8.885  1.0475  0.2975 -0.9161
 3284SOL     OW21487   4.599   2.718   8.042  0.0096  0.4166 -0.2552
 3284SOL    HW121488   4.608   2.695   7.950  2.2486 -1.5626  0.4609
 3284SOL    HW221489   4.536   2.789   8.030  1.7564  2.1767  1.1221
 3285SOL     OW21490   1.989   3.369   7.257 -0.1322 -0.4314  0.3570
 3285SOL    HW121491   1.952   3.423   7.187  1.1974 -1.0537 -0.8343
 3285SOL    HW221492   1.913   3.345   7.310  0.2080 -0.8278  0.6635
 3286SOL     OW21493   4.370   0.427   2.936  0.9415 -0.3407  0.4852
 3286SOL    HW121494   4.369   0.421   3.031  1.4805  2.3008  0.6544
 3286SOL    HW221495   4.326   0.508   2.910  1.9559  0.4513  1.2250
 3287SOL     OW21496   0.741   3.102  13.367 -0.0435  0.5094 -0.0525
 3287SOL    HW121497   0.673   3.126  13.429 -0.0383 -1.0985  0.5706
 3287SOL    HW221498   0.714   3.011  13.354 -1.5583  0.9360  0.0882
 3288SOL     OW21499   1.827   3.119   4.758  0.3709  0.3716 -0.2229
 3288SOL    HW121500   1.779   3.066   4.822 -0.8173 -0.5552 -1.8783
 3288SOL    HW221501   1.889   3.054   4.726 -0.7343  0.0229 -1.6423
 3289SOL     OW21502   3.933   2.645   9.589 -0.0042 -0.5496  0.7639
 3289SOL    HW121503   3.953   2.703   9.663 -0.6561  1.2951 -0.5125
 3289SOL    HW221504   3.853   2.603   9.620 -0.1400 -0.7583  0.1351
 3290SOL     OW21505   2.333   4.186   2.003  0.4909  0.6569  0.0405
 3290SOL    HW121506   2.251   4.194   2.052 -1.5059  0.4629 -3.3341
 3290SOL    HW221507   2.369   4.110   2.050 -2.8715 -0.2293  1.1970
 3291SOL     OW21508   4.592   1.560   8.145  0.0981  0.0159  0.6099
 3291SOL    HW121509   4.665   1.607   8.185 -0.1416  0.4189  0.5677
 3291SOL    HW221510   4.628   1.553   8.057  0.3596 -0.3198  0.7434
 3292SOL     OW21511   4.036   0.744   6.267  0.8421 -0.7754  0.2886
 3292SOL    HW121512   3.990   0.682   6.210 -1.2877  2.7157 -1.7357
 3292SOL    HW221513   4.129   0.722   6.262  1.1781  0.7325 -0.1058
 3293SOL     OW21514   0.697   0.963   3.977  0.6798  0.0532 -0.1404
 3293SOL    HW121515   0.745   0.966   4.060  1.8432  0.5828 -0.8299
 3293SOL    HW221516   0.770   0.928   3.926  0.2597 -0.2024 -0.5691
 3294SOL     OW21517   3.064   1.187   7.785  0.1768  0.2034  0.6367
 3294SOL    HW121518   3.033   1.103   7.749  0.5718 -0.6702  2.3300
 3294SOL    HW221519   3.157   1.186   7.763  0.0228 -1.3969  0.0210
 3295SOL     OW21520   1.296   0.533   9.884 -0.1793  0.1741  0.4511
 3295SOL    HW121521   1.314   0.441   9.901  1.5119  0.5139  0.4800
 3295SOL    HW221522   1.201   0.537   9.869 -0.3857 -1.8517  1.2957
 3296SOL     OW21523   2.747   1.360   7.006  0.0336  0.5723 -0.3575
 3296SOL    HW121524   2.803   1.288   6.976  0.7600  1.9580 -2.3083
 3296SOL    HW221525   2.783   1.380   7.092  1.1630 -1.5924 -0.3273
 3297SOL     OW21526   0.126   1.863   3.152  0.0526  0.1497 -0.1211
 3297SOL    HW121527   0.151   1.911   3.231 -0.4367 -0.7265  0.5650
 3297SOL    HW221528   0.214   1.856   3.115 -0.7096  0.6560 -2.0258
 3298SOL     OW21529   2.118   0.711  12.730  0.1487  0.0396  0.1778
 3298SOL    HW121530   2.078   0.694  12.815 -0.8181 -0.5626 -0.4038
 3298SOL    HW221531   2.044   0.714  12.669  1.1421 -0.9030 -1.0955
 3299SOL     OW21532   0.992   2.089   7.715 -0.6326 -0.4506 -0.0581
 3299SOL    HW121533   0.951   2.007   7.742 -0.7729 -0.5340 -0.5237
 3299SOL    HW221534   0.944   2.091   7.632  1.5190  0.9460 -1.2871
 3300SOL     OW21535   2.759   4.380   6.223  0.4887  0.2875  0.2155
 3300SOL    HW121536   2.669   4.408   6.241 -0.3884 -2.6881  0.3909
 3300SOL    HW221537   2.803   4.427   6.294 -2.5952  2.8773  0.4483
 3301SOL     OW21538   2.352   1.962   5.897 -0.0063 -0.1377 -0.2623
 3301SOL    HW121539   2.389   1.971   5.985 -1.0306  1.8294 -0.0366
 3301SOL    HW221540   2.274   1.909   5.915  0.1409 -0.7020 -1.2488
 3302SOL     OW21541   3.248   0.126   9.691  0.4529  0.4268 -0.2637
 3302SOL    HW121542   3.279   0.140   9.781 -0.7376 -1.7439  0.4849
 3302SOL    HW221543   3.221   0.035   9.704 -1.2732  0.7417 -1.7095
 3303SOL     OW21544   4.318   1.474   3.022  0.1729  0.0488  0.0362
 3303SOL    HW121545   4.288   1.479   3.112 -0.2534 -2.6229  0.0445
 3303SOL    HW221546   4.400   1.424   3.030  0.8875  1.4838  1.7076
 3304SOL     OW21547   1.572   3.872   3.207  0.7625 -0.4940 -0.3946
 3304SOL    HW121548   1.538   3.907   3.125  2.6019  2.4851  0.1039
 3304SOL    HW221549   1.495   3.837   3.252 -0.5079 -0.5111 -2.5897
 3305SOL     OW21550   2.555   0.604   2.325 -0.0178 -0.4618 -0.0183
 3305SOL    HW121551   2.485   0.658   2.287 -1.7243 -2.6073  0.0570
 3305SOL    HW221552   2.527   0.516   2.300  1.8008 -1.5281  1.6595
 3306SOL     OW21553   2.007   4.470  10.352 -0.3643 -0.4382  0.0100
 3306SOL    HW121554   2.087   4.521  10.341 -0.7317  0.6498  2.3905
 3306SOL    HW221555   1.968   4.520  10.424 -0.2267  1.1572 -1.0418
 3307SOL     OW21556   3.097   4.390  12.345 -0.2088  0.4712  0.6732
 3307SOL    HW121557   3.101   4.358  12.435 -0.6077 -1.0398  0.1562
 3307SOL    HW221558   3.005   4.416  12.343 -1.0250 -2.4325 -0.3663
 3308SOL     OW21559   4.685   3.434   2.402  0.4776 -0.4610  0.4505
 3308SOL    HW121560   4.680   3.503   2.335 -2.0010 -1.6275 -0.5226
 3308SOL    HW221561   4.600   3.390   2.399  1.0450 -1.5583  0.4611
 3309SOL     OW21562   2.248   0.167   8.942  0.4541 -0.2224  0.0627
 3309SOL    HW121563   2.200   0.231   8.891  0.9159  2.6848  3.2860
 3309SOL    HW221564   2.264   0.218   9.021  0.6508 -2.3710  1.4121
 3310SOL     OW21565   2.197   2.254   4.481 -0.0123  0.7168  0.1531
 3310SOL    HW121566   2.253   2.192   4.527 -0.8500 -1.0166 -1.1368
 3310SOL    HW221567   2.166   2.311   4.551  0.0193  1.5709 -0.5220
 3311SOL     OW21568   2.103   4.010   3.752 -0.0799 -0.7213 -0.1743
 3311SOL    HW121569   2.043   3.989   3.824 -1.1030 -2.9666 -1.6788
 3311SOL    HW221570   2.056   3.971   3.678  0.0965  1.0098 -1.1805
 3312SOL     OW21571   3.475   2.756   0.331 -0.4088 -0.0193  0.4415
 3312SOL    HW121572   3.454   2.847   0.348 -2.0662 -0.2762 -0.2683
 3312SOL    HW221573   3.508   2.735   0.419 -2.2148 -2.5194  0.5269
 3313SOL     OW21574   3.300   2.000  16.212 -0.0325 -0.0743 -0.3419
 3313SOL    HW121575   3.264   2.066  16.153  0.7897 -0.4053 -1.2222
 3313SOL    HW221576   3.290   2.037  16.300  0.0067  2.1318 -1.2631
 3314SOL     OW21577   4.065   2.326  15.066  0.8443  0.2679  0.0831
 3314SOL    HW121578   4.015   2.406  15.084 -2.3629 -1.2284 -2.1895
 3314SOL    HW221579   4.079   2.330  14.972 -0.2810  0.0638 -0.0951
 3315SOL     OW21580   2.344   0.057  10.069  0.4618 -0.0010  0.0652
 3315SOL    HW121581   2.289   0.028   9.996  1.4451  1.6916 -1.3337
 3315SOL    HW221582   2.353   0.149  10.043 -0.4582  0.1807  0.3875
 3316SOL     OW21583   1.858   3.619   5.742 -0.0004  0.2037  0.2578
 3316SOL    HW121584   1.777   3.666   5.763  0.1629 -0.7065  3.0273
 3316SOL    HW221585   1.850   3.550   5.809  1.0909 -0.3575 -0.1969
 3317SOL     OW21586   2.505   1.695   3.089 -0.4553  0.0780 -0.3995
 3317SOL    HW121587   2.449   1.758   3.043 -1.1235  0.2880  0.6856
 3317SOL    HW221588   2.560   1.654   3.022 -0.0106  1.0116 -0.6058
 3318SOL     OW21589   0.854   1.942  12.594 -0.0945  0.1134  0.2589
 3318SOL    HW121590   0.913   1.929  12.669 -1.1182 -2.5512  0.5889
 3318SOL    HW221591   0.802   1.863  12.605  0.1554 -0.0737  0.0848
 3319SOL     OW21592   1.228   1.199   4.128  0.3113 -0.4627  0.1124
 3319SOL    HW121593   1.191   1.111   4.124 -0.2071 -0.1526 -1.5108
 3319SOL    HW221594   1.187   1.244   4.055  1.6019  0.0045 -0.3258
 3320SOL     OW21595   3.235   0.923   4.700 -0.5493 -0.1159 -0.3898
 3320SOL    HW121596   3.267   0.878   4.778  2.0982 -0.4416 -1.6720
 3320SOL    HW221597   3.291   0.896   4.627 -1.2762 -1.8530 -0.3245
 3321SOL     OW21598   3.255   0.940   3.275 -1.1603 -0.2833  0.0451
 3321SOL    HW121599   3.248   0.975   3.186 -1.8390 -0.8188 -0.1083
 3321SOL    HW221600   3.342   0.899   3.270 -1.3613 -0.8997  1.8023
 3322SOL     OW21601   4.539   0.102   2.823 -0.1172 -0.0859 -0.0135
 3322SOL    HW121602   4.524   0.176   2.765 -0.9475 -2.1052 -2.4053
 3322SOL    HW221603   4.605   0.139   2.881 -0.2097  0.3882 -0.2082
 3323SOL     OW21604   0.682   4.556   9.996  0.5577 -0.6260 -0.2733
 3323SOL    HW121605   0.737   4.598   9.929 -0.3383  1.6861  0.4234
 3323SOL    HW221606   0.597   4.560   9.953  0.1851 -1.9991  0.3563
 3324SOL     OW21607   1.454   4.133   7.386 -0.2733  0.6356  0.5976
 3324SOL    HW121608   1.508   4.110   7.461  0.8380  2.6531  0.4052
 3324SOL    HW221609   1.368   4.143   7.426 -0.9345 -0.9238 -0.4357
 3325SOL     OW21610   3.390   3.486   4.444 -0.2518 -0.3177  0.0748
 3325SOL    HW121611   3.405   3.413   4.384  0.5209  1.1826 -1.5756
 3325SOL    HW221612   3.294   3.482   4.449 -0.2630  0.1313  0.1827
 3326SOL     OW21613   0.838   0.233   7.085 -0.0686 -0.3230  0.1560
 3326SOL    HW121614   0.776   0.168   7.053  0.3045 -1.1505  1.1180
 3326SOL    HW221615   0.775   0.305   7.092  0.3612 -0.0797  1.5398
 3327SOL     OW21616   1.558   3.984   0.601  0.9193 -0.1174  0.0291
 3327SOL    HW121617   1.472   4.007   0.636  0.4678  0.0941 -1.2082
 3327SOL    HW221618   1.574   4.072   0.567  0.5026 -0.2011 -0.3915
 3328SOL     OW21619   3.572   1.998  13.911  0.3905 -0.2950  1.3327
 3328SOL    HW121620   3.597   2.034  13.996  1.1199 -0.1121  1.0519
 3328SOL    HW221621   3.492   2.049  13.896  0.8154  0.4626  1.6009
 3329SOL     OW21622   3.320   0.672  15.472 -0.6676 -0.0338  0.3348
 3329SOL    HW121623   3.391   0.679  15.408 -0.4049  1.9214  0.8348
 3329SOL    HW221624   3.252   0.731  15.437  0.6955  1.9343  0.9871
 3330SOL     OW21625   2.352   3.301  14.496 -0.0888  0.1669 -0.2122
 3330SOL    HW121626   2.323   3.284  14.406 -2.5675  1.1855  0.3987
 3330SOL    HW221627   2.396   3.221  14.524  3.4076  1.8042 -1.0755
 3331SOL     OW21628   2.628   2.184   5.796 -0.0964 -0.3334 -0.1687
 3331SOL    HW121629   2.608   2.261   5.850  0.6298 -0.7782  0.7327
 3331SOL    HW221630   2.598   2.125   5.865  1.9632 -0.0011  1.0228
 3332SOL     OW21631   4.467   0.835   3.778  0.2998 -0.1321 -0.4119
 3332SOL    HW121632   4.457   0.928   3.798 -1.5742 -0.4671  0.1726
 3332SOL    HW221633   4.481   0.835   3.683 -0.4847  0.6089 -0.5243
 3333SOL     OW21634   1.202   2.370  13.560  0.1741  0.1450  0.2989
 3333SOL    HW121635   1.178   2.316  13.484  0.7173 -2.6656  2.1401
 3333SOL    HW221636   1.198   2.307  13.632  2.5665 -0.8638 -0.4662
 3334SOL     OW21637   0.794   3.200   1.290  0.2990 -0.0430 -0.8742
 3334SOL    HW121638   0.740   3.122   1.276  0.5097  0.2380 -3.1158
 3334SOL    HW221639   0.880   3.174   1.257 -0.4931 -1.6023 -1.7195
 3335SOL     OW21640   0.983   4.251   4.775 -0.2060  0.4764  0.7927
 3335SOL    HW121641   0.955   4.342   4.785  2.2514  1.4344 -1.1256
 3335SOL    HW221642   1.074   4.260   4.803 -0.1470 -0.4331  0.8983
 3336SOL     OW21643   0.977   3.660   6.632 -0.3939 -0.1058 -0.0234
 3336SOL    HW121644   1.014   3.595   6.692  0.3919 -0.8279 -1.2933
 3336SOL    HW221645   0.904   3.696   6.683  1.5745  3.0167  0.5876
 3337SOL     OW21646   2.437   2.244   2.138  0.6514 -0.3248  0.5456
 3337SOL    HW121647   2.405   2.334   2.146 -1.0555 -0.7793 -1.1977
 3337SOL    HW221648   2.369   2.211   2.079  0.1311  2.5755 -0.4856
 3338SOL     OW21649   4.438   2.387   6.011 -0.3089  0.0303  0.2487
 3338SOL    HW121650   4.494   2.430   5.947 -0.9491  1.7485  0.8498
 3338SOL    HW221651   4.368   2.452   6.023 -0.0306  0.6685 -1.6144
 3339SOL     OW21652   3.196   1.988  11.452  0.2117  0.3224 -0.1817
 3339SOL    HW121653   3.111   1.976  11.411  0.9381  1.2209 -1.9395
 3339SOL    HW221654   3.166   2.004  11.542  1.3394  0.1857  0.2209
 3340SOL     OW21655   2.177   3.146   4.791  0.9914  0.0736  0.9103
 3340SOL    HW121656   2.115   3.073   4.788 -1.4415  2.1844 -0.7832
 3340SOL    HW221657   2.237   3.111   4.857  1.8700 -0.4494 -0.1765
 3341SOL     OW21658   0.801   2.653   3.454 -0.1568 -0.3769 -0.1805
 3341SOL    HW121659   0.894   2.675   3.444 -0.1572 -0.1379  0.3388
 3341SOL    HW221660   0.801   2.606   3.537  0.0419  0.7427  0.4538
 3342SOL     OW21661   1.203   4.583   2.037 -0.5267 -0.1887 -0.4012
 3342SOL    HW121662   1.137   4.614   1.975 -0.7652  0.7035  0.3074
 3342SOL    HW221663   1.192   4.488   2.031  1.2363 -0.4341  0.5385
 3343SOL     OW21664   3.460   0.621   3.119  0.1944  0.4443 -0.2680
 3343SOL    HW121665   3.497   0.683   3.182  1.2631  1.1416 -1.5745
 3343SOL    HW221666   3.456   0.674   3.039 -2.3861  0.9659  0.1934
 3344SOL     OW21667   2.987   4.617   4.055 -0.1139 -0.2035  0.4208
 3344SOL    HW121668   2.956   4.555   4.121 -3.4998  0.0807 -0.8985
 3344SOL    HW221669   3.069   4.659   4.081  0.0810 -0.5241  0.3244
 3345SOL     OW21670   4.122   2.649   8.549  0.1068  0.2960  0.5693
 3345SOL    HW121671   4.197   2.688   8.503  0.3423 -2.2802 -1.2151
 3345SOL    HW221672   4.051   2.688   8.499  0.1146  0.0505  0.3670
 3346SOL     OW21673   1.554   4.191   8.771  0.3412  0.6020  0.0257
 3346SOL    HW121674   1.539   4.192   8.866 -0.1630  0.0487 -0.0518
 3346SOL    HW221675   1.621   4.123   8.760 -2.8024 -2.8363  2.0551
 3347SOL     OW21676   2.902   0.779   4.408  0.2113 -0.0609 -0.0510
 3347SOL    HW121677   2.893   0.873   4.421  0.5972 -0.1544  0.8590
 3347SOL    HW221678   2.925   0.760   4.317  1.0949 -0.7284  0.3178
 3348SOL     OW21679   3.592   1.395  15.712  0.1026 -0.0452  0.5306
 3348SOL    HW121680   3.651   1.424  15.642 -0.8543  0.4163 -0.0784
 3348SOL    HW221681   3.627   1.310  15.740 -0.1212 -0.1389  0.5285
 3349SOL     OW21682   3.797   0.919   3.095 -0.2689  0.2402 -0.4101
 3349SOL    HW121683   3.801   0.840   3.040 -2.7746  0.2371 -0.5801
 3349SOL    HW221684   3.883   0.923   3.137  0.9054 -1.4915 -2.5895
 3350SOL     OW21685   4.223   2.051   4.685 -0.7487 -0.2387  0.5107
 3350SOL    HW121686   4.184   2.108   4.751 -1.9220  1.4290 -1.6278
 3350SOL    HW221687   4.146   2.009   4.645 -1.3358  2.0354 -0.7504
 3351SOL     OW21688   1.221   2.663   5.076  0.4646  0.0342  0.1221
 3351SOL    HW121689   1.160   2.730   5.046  0.6333 -0.9546 -2.4105
 3351SOL    HW221690   1.172   2.618   5.144  2.8857 -1.4080  0.9158
 3352SOL     OW21691   4.474   3.073   7.956  0.4402  0.5592 -0.6013
 3352SOL    HW121692   4.469   3.002   7.892 -0.6503  0.5360 -0.4930
 3352SOL    HW221693   4.445   3.148   7.904  1.7137  1.6652  0.2975
 3353SOL     OW21694   3.684   2.036   4.077 -0.0917 -0.3920 -0.6618
 3353SOL    HW121695   3.688   2.109   4.139 -0.9075 -0.3753 -0.6348
 3353SOL    HW221696   3.657   2.072   3.993 -2.0234  2.0285  0.9818
 3354SOL     OW21697   0.366   0.567  15.528 -0.7439 -0.2397  0.2183
 3354SOL    HW121698   0.430   0.505  15.493  0.9981 -0.1626  3.2220
 3354SOL    HW221699   0.301   0.510  15.570 -0.2697 -1.0926 -0.2046
 3355SOL     OW21700   1.483   1.119   4.181 -0.2051 -0.3144  0.4446
 3355SOL    HW121701   1.407   1.144   4.128  0.5508 -0.2599 -0.6215
 3355SOL    HW221702   1.456   1.056   4.248 -2.5559 -1.2672 -1.3923
 3356SOL     OW21703   0.844   1.453  17.080 -0.0501 -0.0693 -0.3215
 3356SOL    HW121704   0.857   1.377  17.136 -0.5263 -0.0182 -0.1437
 3356SOL    HW221705   0.865   1.415  16.994  0.6592 -0.1446 -0.1153
 3357SOL     OW21706   0.241   1.892   0.440 -0.1413 -0.2670  0.2040
 3357SOL    HW121707   0.216   1.939   0.520  0.8793 -0.5237  0.6735
 3357SOL    HW221708   0.162   1.837   0.438 -0.8284  0.6006  2.4910
 3358SOL     OW21709   4.249   1.003  13.464  0.4292 -0.1902  0.2573
 3358SOL    HW121710   4.324   0.964  13.420  0.1489 -2.0270  1.4164
 3358SOL    HW221711   4.256   0.958  13.549 -0.1851 -1.5576 -0.4152
 3359SOL     OW21712   3.100   2.660   7.654 -0.1011  0.4831  0.5319
 3359SOL    HW121713   3.093   2.645   7.748  0.3204  3.4001  1.0097
 3359SOL    HW221714   3.193   2.648   7.634 -0.7294 -3.0133 -0.3133
 3360SOL     OW21715   0.084   0.071  10.183 -0.5281  0.1239  0.1503
 3360SOL    HW121716   0.140   4.732  10.178  1.2276  1.3853  0.1831
 3360SOL    HW221717   0.107   0.092  10.274 -0.0570  0.6501 -0.0834
 3361SOL     OW21718   0.534   4.672  11.860  0.3106  0.0144  0.0770
 3361SOL    HW121719   0.521   4.578  11.843 -0.8558  0.0937  0.4734
 3361SOL    HW221720   0.595   4.698  11.792 -0.8924  1.8398 -0.2888
 3362SOL     OW21721   0.696   0.467  10.282  0.0692 -0.3191 -0.4043
 3362SOL    HW121722   0.637   0.411  10.232  0.0788 -1.3477  0.7194
 3362SOL    HW221723   0.631   0.484  10.350  0.8352  0.7758  0.0552
 3363SOL     OW21724   0.246   1.945  16.424 -0.0649 -0.5145  0.1008
 3363SOL    HW121725   0.293   1.989  16.495  2.3938  1.1290 -2.5065
 3363SOL    HW221726   0.309   1.953  16.352  1.3779  0.8021  1.5019
 3364SOL     OW21727   4.335   4.725   0.499  0.3701 -0.0224 -0.2639
 3364SOL    HW121728   4.381   4.686   0.425  0.1501  1.1720 -1.0354
 3364SOL    HW221729   4.307   0.073   0.468 -2.5181 -0.7742  0.3049
 3365SOL     OW21730   2.865   4.249   9.093 -0.7203  0.0945 -0.1240
 3365SOL    HW121731   2.878   4.318   9.158 -1.0772 -0.9867  1.0880
 3365SOL    HW221732   2.901   4.171   9.134 -2.3207 -0.1805  0.7574
 3366SOL     OW21733   2.338   3.750   3.896  0.2347 -0.7206 -0.5185
 3366SOL    HW121734   2.427   3.784   3.891 -0.3410  1.1942  2.2998
 3366SOL    HW221735   2.337   3.695   3.974 -0.9473 -0.3300 -0.2506
 3367SOL     OW21736   1.599   1.656   3.498  0.7105  0.0920  0.0641
 3367SOL    HW121737   1.604   1.641   3.404  0.4415  2.6727 -0.3536
 3367SOL    HW221738   1.632   1.574   3.534 -0.2664 -0.1592  0.4064
 3368SOL     OW21739   0.228   0.599   9.065  0.1563  0.3233 -0.6242
 3368SOL    HW121740   0.291   0.603   9.137  1.2019  0.8472 -1.5686
 3368SOL    HW221741   0.287   0.552   9.006  0.0770 -1.5769  0.7960
 3369SOL     OW21742   1.956   3.234  16.545  0.6571  0.2534  0.3862
 3369SOL    HW121743   1.968   3.149  16.501 -0.4114 -0.2773  1.1238
 3369SOL    HW221744   1.860   3.227  16.552  0.6931  0.2666  0.8602
 3370SOL     OW21745   1.708   2.566   9.088 -0.4389  0.2405  0.2211
 3370SOL    HW121746   1.759   2.642   9.062  2.6367 -1.4066  1.4629
 3370SOL    HW221747   1.677   2.600   9.172 -0.6342 -1.8622  1.0021
 3371SOL     OW21748   2.888   4.126   7.086 -0.0598 -0.0542 -0.5118
 3371SOL    HW121749   2.942   4.111   7.008  1.9554  1.4444  0.6193
 3371SOL    HW221750   2.918   4.046   7.129  0.3553 -0.3380 -1.3211
 3372SOL     OW21751   4.514   0.548  10.236 -0.4595 -0.0469  0.9233
 3372SOL    HW121752   4.539   0.563  10.144  0.0655  0.0362  1.0802
 3372SOL    HW221753   4.575   0.483  10.272 -0.4447 -1.0453 -0.8793
 3373SOL     OW21754   0.417   4.378   5.128  0.3447  0.1059 -0.2040
 3373SOL    HW121755   0.416   4.298   5.181 -3.9667 -0.6298 -1.3848
 3373SOL    HW221756   0.450   4.434   5.198 -0.2431 -1.5359  1.3823
 3374SOL     OW21757   0.872   2.632  13.633 -0.4697 -0.1874 -0.4296
 3374SOL    HW121758   0.952   2.622  13.582 -0.2301 -2.4280  0.3601
 3374SOL    HW221759   0.893   2.718  13.668 -1.3784 -1.2153  2.7222
 3375SOL     OW21760   3.520   1.716   5.029  0.1673 -0.0191  0.0938
 3375SOL    HW121761   3.549   1.711   4.937 -0.5357  1.0523 -0.1771
 3375SOL    HW221762   3.429   1.688   5.016  0.3855 -0.8471  0.3126
 3376SOL     OW21763   0.789   2.175   1.150 -0.3464 -0.5500  0.1832
 3376SOL    HW121764   0.770   2.253   1.202 -0.6575  0.1883 -1.0317
 3376SOL    HW221765   0.848   2.124   1.206 -0.7182 -0.7471  0.3960
 3377SOL     OW21766   1.750   2.748   2.633  0.6141  0.3810  0.2456
 3377SOL    HW121767   1.718   2.692   2.704 -1.3041  0.2216 -0.7512
 3377SOL    HW221768   1.818   2.699   2.588 -1.2675 -0.7694 -1.3716
 3378SOL     OW21769   1.074   2.234  11.275  0.2242  0.9875 -0.5148
 3378SOL    HW121770   1.017   2.285  11.218 -2.4375 -0.9517  0.3826
 3378SOL    HW221771   1.053   2.148  11.240 -1.5183  0.9860  0.5603
 3379SOL     OW21772   0.044   4.688  13.801  0.3534  0.1905 -0.4304
 3379SOL    HW121773   4.691   4.660  13.807 -0.2304  2.7133  2.5877
 3379SOL    HW221774   0.094   4.612  13.832  0.5162 -0.2815 -1.8482
 3380SOL     OW21775   4.044   1.495   5.648 -0.1823  0.2854  0.2966
 3380SOL    HW121776   3.964   1.540   5.619 -0.5581 -1.2597 -1.0642
 3380SOL    HW221777   4.018   1.405   5.665 -0.9628  0.8395  2.0254
 3381SOL     OW21778   2.858   4.319   2.117  0.3452 -0.1545  0.0517
 3381SOL    HW121779   2.767   4.293   2.110  0.6591 -1.5093  1.0152
 3381SOL    HW221780   2.871   4.309   2.212 -0.5858 -1.0093  0.0853
 3382SOL     OW21781   1.365   1.788   2.247  0.3749  0.5585 -0.0116
 3382SOL    HW121782   1.326   1.799   2.334  1.2895  0.4888  0.4050
 3382SOL    HW221783   1.384   1.694   2.248 -2.0176  0.0605 -0.8323
 3383SOL     OW21784   1.538   2.488   7.824  0.3187 -0.7265 -0.0272
 3383SOL    HW121785   1.471   2.548   7.793  0.4635 -1.0030 -0.8618
 3383SOL    HW221786   1.619   2.538   7.810  0.1407 -0.1666  0.9116
 3384SOL     OW21787   3.298   2.485   6.379  0.0576 -0.1582  0.1650
 3384SOL    HW121788   3.316   2.579   6.376  1.5928 -0.4250  1.1043
 3384SOL    HW221789   3.315   2.467   6.287 -2.5307 -0.9970 -0.1329
 3385SOL     OW21790   0.927   3.828   8.824 -0.5707  0.2843 -0.4160
 3385SOL    HW121791   0.983   3.761   8.861 -1.7879 -1.3023 -1.4340
 3385SOL    HW221792   0.910   3.884   8.900 -0.8982  0.6804 -0.7819
 3386SOL     OW21793   4.557   0.226   8.678  0.0848  0.3673 -0.0011
 3386SOL    HW121794   4.598   0.170   8.612 -2.3460 -0.7487 -0.5753
 3386SOL    HW221795   4.465   0.200   8.668 -0.2557  1.2063  0.9337
 3387SOL     OW21796   2.589   0.808   0.822 -0.3858  0.2140  0.2370
 3387SOL    HW121797   2.509   0.757   0.837 -0.6251  0.3619 -0.5572
 3387SOL    HW221798   2.615   0.780   0.735  0.5285 -1.1224  0.9378
 3388SOL     OW21799   3.488   3.791   4.878  0.2737 -0.2658 -0.2296
 3388SOL    HW121800   3.429   3.728   4.836 -2.6286  1.2996  1.4369
 3388SOL    HW221801   3.469   3.784   4.972  1.1206 -0.7588 -0.0984
 3389SOL     OW21802   0.641   1.448   8.039 -0.3584  0.5475 -0.1655
 3389SOL    HW121803   0.594   1.501   7.975 -1.8009  0.6453  0.9765
 3389SOL    HW221804   0.617   1.493   8.120  0.2939  0.1117  0.2725
 3390SOL     OW21805   1.282   3.408   0.071 -0.4043 -0.0961  0.3309
 3390SOL    HW121806   1.269   3.314   0.082 -1.3099  0.0654  0.6372
 3390SOL    HW221807   1.254   3.419  17.730 -0.6368 -1.5599  0.2182
 3391SOL     OW21808   1.852   0.888   5.168 -0.4987 -0.3104  0.3368
 3391SOL    HW121809   1.762   0.856   5.163 -0.1080 -1.1480 -1.4295
 3391SOL    HW221810   1.843   0.984   5.167 -0.8533 -0.3340  0.9500
 3392SOL     OW21811   2.501   3.901   4.874  0.2711 -0.1473 -0.4976
 3392SOL    HW121812   2.470   3.868   4.958  2.8710  1.7504  1.1963
 3392SOL    HW221813   2.427   3.877   4.818  1.0766  0.1641 -1.6975
 3393SOL     OW21814   2.116   3.281   4.549 -0.3845  0.1050 -0.6099
 3393SOL    HW121815   2.135   3.247   4.636 -0.9924 -0.9824 -0.9028
 3393SOL    HW221816   2.125   3.202   4.496 -1.1575 -1.0140  0.9286
 3394SOL     OW21817   2.310   0.410   4.546  0.1016 -0.3511 -0.2923
 3394SOL    HW121818   2.364   0.414   4.625 -0.0358  0.1504 -0.2236
 3394SOL    HW221819   2.367   0.384   4.474 -1.8584 -3.0114 -0.8961
 3395SOL     OW21820   1.318   2.634   7.357  0.0804 -0.4246 -0.2667
 3395SOL    HW121821   1.271   2.584   7.290 -1.7754 -0.8715  1.3505
 3395SOL    HW221822   1.399   2.675   7.327 -0.2328  0.5240  0.1737
 3396SOL     OW21823   2.246   2.031   8.064 -0.0871 -0.2851 -0.3987
 3396SOL    HW121824   2.251   2.007   8.156 -0.0331 -0.6737 -0.5012
 3396SOL    HW221825   2.327   2.082   8.056 -0.0176 -0.3577 -0.1665
 3397SOL     OW21826   3.405   0.305  16.920 -0.2145 -0.4030  0.1030
 3397SOL    HW121827   3.466   0.331  16.851  0.4860  0.9785  1.2297
 3397SOL    HW221828   3.383   0.215  16.898 -0.2234  0.2279 -2.4350
 3398SOL     OW21829   3.255   3.773   0.557 -0.4556  0.1867 -0.1527
 3398SOL    HW121830   3.246   3.692   0.506 -1.1676 -0.2552  0.6763
 3398SOL    HW221831   3.303   3.827   0.494  0.9123  0.7629  1.3812
 3399SOL     OW21832   3.586   4.601   5.086 -0.0708 -0.3881 -0.0598
 3399SOL    HW121833   3.540   4.604   5.170  0.7937  1.0029  0.3701
 3399SOL    HW221834   3.653   4.535   5.106  0.3289  0.2571  0.7274
 3400SOL     OW21835   1.090   0.606   5.340  0.2236  0.5019 -0.0944
 3400SOL    HW121836   1.133   0.524   5.363  0.9434 -0.1597 -3.7892
 3400SOL    HW221837   1.013   0.602   5.397  0.2297  0.3123 -0.0995
 3401SOL     OW21838   4.012   0.737   5.042 -0.0996  0.2341  0.3255
 3401SOL    HW121839   3.950   0.696   4.982  0.1248  0.9259 -0.3781
 3401SOL    HW221840   3.946   0.753   5.110 -3.1482 -0.5722 -2.4814
 3402SOL     OW21841   0.176   4.548   4.175 -0.6247 -0.1342  0.4600
 3402SOL    HW121842   0.234   4.554   4.251 -0.1088  0.2603  0.0382
 3402SOL    HW221843   0.201   4.629   4.131  1.2169 -0.8951  0.1022
 3403SOL     OW21844   2.984   2.936   0.799  0.0338 -0.1112  0.0210
 3403SOL    HW121845   2.984   2.973   0.887  2.0564 -0.9901  0.3826
 3403SOL    HW221846   2.892   2.908   0.799  0.6598 -2.2076  1.0708
 3404SOL     OW21847   4.390   4.712   3.933  0.0171 -0.1044  0.1604
 3404SOL    HW121848   4.376   0.030   3.856 -0.6879 -0.4124  0.0553
 3404SOL    HW221849   4.426   0.034   3.998 -0.1479 -2.6026  2.5531
 3405SOL     OW21850   2.273   0.961  13.458  0.0053 -0.5985 -0.3364
 3405SOL    HW121851   2.308   1.016  13.528  0.3068 -0.6479 -0.4480
 3405SOL    HW221852   2.189   1.003  13.442  0.8506  0.8148 -1.1065
 3406SOL     OW21853   4.073   3.111   5.101 -0.1452  0.3462  0.2183
 3406SOL    HW121854   3.989   3.118   5.057 -0.6698 -0.8732  1.0263
 3406SOL    HW221855   4.087   3.018   5.116  0.6579  0.4531  0.1617
 3407SOL     OW21856   1.543   1.269   4.461  0.3413  0.2638  0.0036
 3407SOL    HW121857   1.554   1.234   4.372  0.7997  0.7648 -0.1354
 3407SOL    HW221858   1.451   1.293   4.457  0.7201  1.1533 -2.7352
 3408SOL     OW21859   1.117   0.601   1.234  0.0348  0.2862 -0.0693
 3408SOL    HW121860   1.106   0.583   1.140 -0.1545  1.6753 -0.3164
 3408SOL    HW221861   1.109   0.516   1.278 -1.9418  1.4479  1.7837
 3409SOL     OW21862   2.763   1.001   0.749  0.3376 -0.0120  0.4574
 3409SOL    HW121863   2.703   0.932   0.776  1.3136 -1.6563 -1.5307
 3409SOL    HW221864   2.767   1.063   0.821 -1.4749  1.7959 -1.0152
 3410SOL     OW21865   3.805   0.359   2.651  0.4981 -0.5248  0.1092
 3410SOL    HW121866   3.860   0.285   2.625  1.3185 -0.5802  2.0269
 3410SOL    HW221867   3.809   0.414   2.573 -1.4685 -0.0840  0.3214
 3411SOL     OW21868   0.254   4.416   1.800  0.0201  0.5493  0.1772
 3411SOL    HW121869   0.331   4.468   1.777 -0.6503  0.8266 -1.4399
 3411SOL    HW221870   0.202   4.485   1.840 -1.0410 -0.2627  0.2159
 3412SOL     OW21871   1.255   2.260  15.323  0.5476  0.3285 -0.6705
 3412SOL    HW121872   1.175   2.209  15.335 -0.6731  2.5896  0.8373
 3412SOL    HW221873   1.322   2.192  15.319 -3.3026 -3.4758 -0.5964
 3413SOL     OW21874   4.434   0.467   4.842  0.3941  0.3058  0.5154
 3413SOL    HW121875   4.363   0.408   4.868 -0.5763  0.4267 -1.9091
 3413SOL    HW221876   4.508   0.416   4.875  0.6726  0.8424  0.7265
 3414SOL     OW21877   2.564   4.433   5.523  0.2711 -0.3613  0.4830
 3414SOL    HW121878   2.559   4.351   5.474 -0.0566  0.9120 -1.6155
 3414SOL    HW221879   2.502   4.493   5.481  0.9161  1.3451  1.9578
 3415SOL     OW21880   0.192   4.088   6.194 -0.4143 -0.3115 -0.3391
 3415SOL    HW121881   0.229   4.163   6.148 -1.9608  0.7890  0.2145
 3415SOL    HW221882   0.258   4.028   6.161  0.6309 -0.5363  2.1150
 3416SOL     OW21883   3.090   3.034   7.549 -0.2004 -0.2330 -0.1546
 3416SOL    HW121884   3.027   3.075   7.489 -1.1069 -0.2961  0.7392
 3416SOL    HW221885   3.034   2.963   7.579 -0.7089  0.6103  0.9451
 3417SOL     OW21886   0.974   1.111  14.980  0.1506 -0.3218 -0.0658
 3417SOL    HW121887   0.927   1.049  14.925  0.5303 -0.2209 -0.5001
 3417SOL    HW221888   0.952   1.079  15.067  1.1816 -3.4146 -0.9333
 3418SOL     OW21889   4.317   4.063   7.159  0.4388 -0.2889 -0.6556
 3418SOL    HW121890   4.387   4.108   7.206  1.0336 -2.5917  0.6324
 3418SOL    HW221891   4.358   4.027   7.080  2.5140 -0.3939  0.4670
 3419SOL     OW21892   2.707   0.228  13.998 -0.9182  0.2023 -0.0333
 3419SOL    HW121893   2.766   0.302  13.982 -0.4801 -0.2731 -0.5537
 3419SOL    HW221894   2.763   0.190  14.065 -1.5101 -0.9095 -0.1697
 3420SOL     OW21895   1.861   3.292   7.533 -0.9760  0.4348 -0.3638
 3420SOL    HW121896   1.778   3.246   7.521  0.0717 -1.7226  0.7175
 3420SOL    HW221897   1.840   3.362   7.595 -3.2390 -0.1665 -0.4720
 3421SOL     OW21898   1.643   3.428   6.860 -0.4693 -0.3124 -0.5903
 3421SOL    HW121899   1.657   3.351   6.805 -0.9732 -0.4848 -0.4794
 3421SOL    HW221900   1.644   3.496   6.792 -0.2826 -0.6531 -0.9278
 3422SOL     OW21901   3.479   1.780   7.441 -0.3428  0.1296 -0.0722
 3422SOL    HW121902   3.419   1.718   7.482  0.3393 -1.4476 -1.4611
 3422SOL    HW221903   3.523   1.812   7.520 -0.7244  1.5492 -0.4253
 3423SOL     OW21904   4.696   2.320   4.386 -0.2052 -0.0082 -0.3001
 3423SOL    HW121905   4.662   2.407   4.364  0.2597  0.2601  0.0484
 3423SOL    HW221906   4.732   2.290   4.302 -0.5076  0.6863 -0.6839
 3424SOL     OW21907   0.997   4.086   2.607  0.2917 -0.3716 -0.3528
 3424SOL    HW121908   1.083   4.122   2.631 -0.9553  2.0718  0.4296
 3424SOL    HW221909   0.947   4.167   2.605  1.1200  0.1618  0.6306
 3425SOL     OW21910   1.680   2.591  16.119  0.0675 -0.0057 -0.7883
 3425SOL    HW121911   1.683   2.648  16.043 -1.8108  1.9381  0.5871
 3425SOL    HW221912   1.663   2.660  16.184  3.0896  0.2188 -0.2380
 3426SOL     OW21913   4.709   2.154   2.275 -0.0675 -0.2207  0.2905
 3426SOL    HW121914   4.728   2.248   2.265 -1.2648  0.2403  2.2756
 3426SOL    HW221915   0.029   2.108   2.215 -0.8382 -0.9702  0.1178
 3427SOL     OW21916   0.803   1.000  16.205  0.3817  0.9976  0.3983
 3427SOL    HW121917   0.746   1.008  16.128 -0.1588 -0.5034  0.6460
 3427SOL    HW221918   0.887   1.026  16.167  0.8145 -0.6899  0.2035
 3428SOL     OW21919   2.857   3.868   3.937  0.0141 -0.0010 -0.1363
 3428SOL    HW121920   2.823   3.906   4.018  1.9845 -0.9695  1.1296
 3428SOL    HW221921   2.781   3.842   3.884 -1.1099  1.9459  0.4900
 3429SOL     OW21922   1.174   0.185   9.528 -0.4452 -0.0583 -0.3444
 3429SOL    HW121923   1.186   0.280   9.529  1.0314 -0.2475 -0.0366
 3429SOL    HW221924   1.084   0.181   9.560 -0.0446  1.2037  0.9843
 3430SOL     OW21925   2.479   0.928   2.041 -0.1307 -0.2068 -0.1419
 3430SOL    HW121926   2.559   0.882   2.067  0.7925  0.5296 -1.6785
 3430SOL    HW221927   2.495   0.959   1.952  2.2928  0.2166  0.4284
 3431SOL     OW21928   4.676   2.634  11.255 -0.4279 -0.7322  0.0184
 3431SOL    HW121929   4.725   2.708  11.219 -0.3545  0.2059  2.0371
 3431SOL    HW221930   0.014   2.583  11.284 -1.3367 -2.2034 -0.2086
 3432SOL     OW21931   3.962   2.367  12.801  0.1513 -0.5350  0.4419
 3432SOL    HW121932   4.023   2.349  12.729  1.4125  1.5305  0.9636
 3432SOL    HW221933   3.912   2.434  12.755  2.6147  1.0737  0.0604
 3433SOL     OW21934   4.670   2.323   7.897 -0.5482  0.5235  0.2870
 3433SOL    HW121935   4.695   2.407   7.860  0.1427  0.7426  1.2747
 3433SOL    HW221936   0.003   2.318   7.961  2.3225 -0.7181 -2.9995
 3434SOL     OW21937   1.167   1.723   6.143  0.4936  0.2585  0.4434
 3434SOL    HW121938   1.241   1.706   6.085  2.3543  1.6656  2.4431
 3434SOL    HW221939   1.214   1.736   6.225  2.6378  0.0025 -0.7492
 3435SOL     OW21940   2.064   0.842   9.105  0.5448 -0.2154 -0.0909
 3435SOL    HW121941   2.051   0.918   9.049  1.3914  0.0234  0.0329
 3435SOL    HW221942   1.999   0.865   9.171 -0.1714 -2.3697 -0.0526
 3436SOL     OW21943   1.317   2.694   8.053 -0.2944 -0.1289  0.2919
 3436SOL    HW121944   1.364   2.776   8.034  2.2023 -1.4182  0.8895
 3436SOL    HW221945   1.309   2.659   7.964 -0.4175  0.8346 -0.0766
 3437SOL     OW21946   3.839   3.652   9.776 -0.6706  0.4391  0.7608
 3437SOL    HW121947   3.826   3.564   9.812 -4.0113  1.5067  2.1607
 3437SOL    HW221948   3.867   3.696   9.857 -0.7644  1.3794  0.2771
 3438SOL     OW21949   4.090   2.366   8.640  0.1399  0.4320  0.5847
 3438SOL    HW121950   4.169   2.332   8.597  0.4215 -0.8856  2.1354
 3438SOL    HW221951   4.095   2.460   8.623  0.9602  0.4578  0.9590
 3439SOL     OW21952   3.104   3.233  17.102 -0.1752  0.8973 -0.1002
 3439SOL    HW121953   3.018   3.245  17.143  0.2970 -0.1929  1.1873
 3439SOL    HW221954   3.086   3.259  17.011 -0.8647 -0.0969 -0.2376
 3440SOL     OW21955   4.114   2.410   4.612  0.4850  0.4804 -0.1102
 3440SOL    HW121956   4.108   2.502   4.638 -0.7763  0.2171  0.5522
 3440SOL    HW221957   4.125   2.425   4.518  0.6136  2.6745  0.2685
 3441SOL     OW21958   2.653   4.377   3.783 -0.0334 -0.0106  0.0039
 3441SOL    HW121959   2.729   4.397   3.729  0.4872 -1.4938  0.1940
 3441SOL    HW221960   2.651   4.281   3.774 -0.3338  0.1003 -1.0987
 3442SOL     OW21961   2.149   2.200   6.054  0.0368 -0.2336  0.6162
 3442SOL    HW121962   2.136   2.289   6.023 -1.6739 -0.6979 -0.0092
 3442SOL    HW221963   2.115   2.197   6.144 -0.5047  0.6585  0.4374
 3443SOL     OW21964   3.828   2.907   4.272 -0.1817  0.4293 -0.2913
 3443SOL    HW121965   3.736   2.880   4.283  0.1161 -0.6155 -0.3844
 3443SOL    HW221966   3.831   2.979   4.335  1.0412  1.7042 -1.8250
 3444SOL     OW21967   4.197   1.126   5.047 -0.5227  0.0068  0.1413
 3444SOL    HW121968   4.151   1.105   4.966 -0.4210 -0.5724  0.2385
 3444SOL    HW221969   4.237   1.041   5.064  0.4314  0.5382  0.5753
 3445SOL     OW21970   2.334   0.633   3.924 -0.2227 -0.6014 -0.4647
 3445SOL    HW121971   2.256   0.687   3.936 -1.7141 -3.2718  1.7607
 3445SOL    HW221972   2.396   0.701   3.897 -0.7941 -0.5241 -1.5806
 3446SOL     OW21973   4.571   1.645  12.894  0.3036  0.4702 -0.0203
 3446SOL    HW121974   4.632   1.636  12.967 -0.7205 -0.5859  0.7141
 3446SOL    HW221975   4.591   1.566  12.843  1.1911  0.5486  0.2131
 3447SOL     OW21976   2.379   2.528   7.016  0.4755  0.1371  0.1412
 3447SOL    HW121977   2.392   2.562   7.105 -0.9153 -0.1893  0.4686
 3447SOL    HW221978   2.401   2.616   6.985 -0.7710 -0.0332 -1.2261
 3448SOL     OW21979   3.024   4.099   6.838 -0.4451 -0.5939  0.4839
 3448SOL    HW121980   2.966   4.023   6.834 -0.9504 -0.0991 -1.6515
 3448SOL    HW221981   3.090   4.066   6.777 -1.4374 -0.5120 -0.6200
 3449SOL     OW21982   0.190   3.379  12.642  0.4654 -0.4656  0.1228
 3449SOL    HW121983   0.171   3.302  12.588 -1.7627 -0.1422  0.4444
 3449SOL    HW221984   0.284   3.389  12.630  0.3692 -1.4990 -1.5760
 3450SOL     OW21985   2.314   2.337   9.103 -0.3882  0.6076  0.0977
 3450SOL    HW121986   2.338   2.381   9.185  1.0717 -1.3467  0.7057
 3450SOL    HW221987   2.321   2.244   9.121 -0.7420  0.1291 -2.2469
 3451SOL     OW21988   3.193   3.546   6.788 -0.1289  0.4156  0.1420
 3451SOL    HW121989   3.245   3.515   6.714 -0.1184 -2.0341  1.1789
 3451SOL    HW221990   3.241   3.622   6.820  0.1088  1.0238 -1.6351
 3452SOL     OW21991   4.600   2.461   0.177 -0.2009 -0.0739  0.4306
 3452SOL    HW121992   4.682   2.418   0.152 -0.4626  0.6453 -1.7245
 3452SOL    HW221993   4.554   2.443   0.095  1.8663 -1.1825 -0.4848
 3453SOL     OW21994   1.371   2.871   9.627 -0.3427 -0.0398 -0.0590
 3453SOL    HW121995   1.333   2.817   9.558  4.0839 -1.2114 -1.5921
 3453SOL    HW221996   1.305   2.940   9.614 -1.8771 -2.0460 -2.9671
 3454SOL     OW21997   2.724   0.324   8.862  0.1463  0.5468 -0.0169
 3454SOL    HW121998   2.795   0.341   8.801  0.6238  2.4765  1.0822
 3454SOL    HW221999   2.708   0.232   8.840  1.0232  0.5037 -0.4965
 3455SOL     OW22000   3.369   4.434   1.755 -0.4100 -1.0682 -0.4666
 3455SOL    HW122001   3.350   4.455   1.846  0.4104 -1.0166 -0.3095
 3455SOL    HW222002   3.343   4.515   1.710  0.4637 -2.0389 -2.7489
 3456SOL     OW22003   2.931   1.118   9.880 -0.1750 -0.0911  0.0052
 3456SOL    HW122004   2.885   1.090   9.959 -1.5943 -2.3472 -1.6144
 3456SOL    HW222005   2.862   1.108   9.814 -2.0181  0.0268  1.9015
 3457SOL     OW22006   3.918   2.047   4.915 -0.4508 -0.2711 -0.0940
 3457SOL    HW122007   3.978   2.005   4.976 -2.6409 -0.5551  1.8445
 3457SOL    HW222008   3.966   2.129   4.897  0.1334 -0.1722  1.8749
 3458SOL     OW22009   4.378   2.724   8.445 -0.2172  0.2895 -0.8598
 3458SOL    HW122010   4.429   2.672   8.508  0.1438 -1.0749 -2.2845
 3458SOL    HW222011   4.414   2.673   8.372 -2.2268  0.6865 -2.1140
 3459SOL     OW22012   2.835   2.521  13.439  0.1389 -0.1443  0.0769
 3459SOL    HW122013   2.850   2.454  13.506  0.5067 -0.3007 -0.1595
 3459SOL    HW222014   2.763   2.571  13.477 -1.7138 -1.2669 -1.9143
 3460SOL     OW22015   0.527   0.910  16.833  0.1150  0.2483  0.1058
 3460SOL    HW122016   0.455   0.971  16.847  0.1475  0.3959 -0.3519
 3460SOL    HW222017   0.581   0.939  16.759 -1.4352  0.5386 -0.9087
 3461SOL     OW22018   3.864   2.170   7.955 -0.1672  0.4468 -0.4063
 3461SOL    HW122019   3.773   2.200   7.953  0.3766  2.1278  0.0426
 3461SOL    HW222020   3.874   2.177   8.050  0.8148 -0.4071 -0.4524
 3462SOL     OW22021   3.778   3.253   5.850 -0.0548  0.0449  0.2776
 3462SOL    HW122022   3.829   3.267   5.770  0.1902  0.6368  0.5327
 3462SOL    HW222023   3.840   3.201   5.901  0.4919 -0.2596 -0.6831
 3463SOL     OW22024   1.598   3.501   3.254 -0.1181 -0.1490 -0.5631
 3463SOL    HW122025   1.684   3.541   3.246 -0.1649 -0.2927 -1.8457
 3463SOL    HW222026   1.585   3.516   3.348  0.5509 -1.5341 -0.2523
 3464SOL     OW22027   4.015   3.766   3.033  0.0690  0.3842 -0.0133
 3464SOL    HW122028   4.072   3.837   3.061 -1.9304  0.6515  3.3625
 3464SOL    HW222029   4.055   3.695   3.084  0.6284  0.0316 -0.9560
 3465SOL     OW22030   4.726   4.398   7.191  0.0309 -0.4776 -0.3441
 3465SOL    HW122031   4.714   4.351   7.109  0.6835  0.9809 -1.3005
 3465SOL    HW222032   4.712   4.487   7.159 -1.0898 -0.4914  0.1176
 3466SOL     OW22033   1.452   1.155   3.589  0.5276 -0.0320  0.3810
 3466SOL    HW122034   1.428   1.151   3.497 -0.0093  0.3452  0.5059
 3466SOL    HW222035   1.517   1.088   3.611  2.8801  2.4296  0.9411
 3467SOL     OW22036   1.183   4.281   7.783  0.7738  0.3193 -0.1191
 3467SOL    HW122037   1.107   4.260   7.837  0.7760  0.5524 -0.0275
 3467SOL    HW222038   1.178   4.376   7.777  0.6072  0.2462 -1.1323
 3468SOL     OW22039   4.609   4.244  11.656 -0.2311 -0.0606 -0.7286
 3468SOL    HW122040   4.644   4.158  11.629 -0.8452 -0.6161  0.2512
 3468SOL    HW222041   4.542   4.213  11.717 -0.3205  1.4039 -0.0895
 3469SOL     OW22042   2.894   0.677  16.206 -0.0960  0.0590 -0.0908
 3469SOL    HW122043   2.898   0.585  16.233  0.3276 -0.1318 -0.7719
 3469SOL    HW222044   2.855   0.666  16.119  0.4368  0.9878 -0.4432
 3470SOL     OW22045   0.615   0.950  10.310  0.1439  0.0318 -0.3942
 3470SOL    HW122046   0.663   0.878  10.268 -0.4268 -0.2333 -0.5848
 3470SOL    HW222047   0.593   1.004  10.234 -0.0618 -2.1191 -1.8452
 3471SOL     OW22048   2.084   3.235  17.669  0.0126  0.0904 -0.7157
 3471SOL    HW122049   2.176   3.263  17.670  0.9447 -2.8989 -1.7464
 3471SOL    HW222050   2.040   3.319  17.662 -1.7112 -0.7096  0.5157
 3472SOL     OW22051   0.727   0.502   0.539 -0.5920 -0.2080 -0.3725
 3472SOL    HW122052   0.702   0.436   0.475 -1.3005  0.3499 -0.6712
 3472SOL    HW222053   0.641   0.514   0.578 -1.2989 -0.8231 -1.7398
 3473SOL     OW22054   1.888   2.790   8.121  0.0468 -0.5483 -0.3193
 3473SOL    HW122055   1.944   2.767   8.196 -0.3518  1.9704  0.7356
 3473SOL    HW222056   1.821   2.826   8.178  1.6604  0.3499  1.0275
 3474SOL     OW22057   0.267   4.308   4.916 -0.1424  0.4074 -0.1045
 3474SOL    HW122058   0.313   4.229   4.888  0.1283  0.9075 -1.0703
 3474SOL    HW222059   0.316   4.341   4.992  0.9135 -0.8192 -0.2426
 3475SOL     OW22060   3.436   3.498  11.232 -0.2737 -0.0622  0.2913
 3475SOL    HW122061   3.522   3.507  11.273 -1.2478 -0.2841  2.3802
 3475SOL    HW222062   3.391   3.426  11.277  0.5336 -0.0139  1.1891
 3476SOL     OW22063   0.029   0.822   8.046 -0.0514 -0.0794  0.2489
 3476SOL    HW122064   0.108   0.864   8.079  0.0923  1.3828 -1.9055
 3476SOL    HW222065   0.059   0.794   7.959  1.4310  1.2502  0.3281
 3477SOL     OW22066   2.370   4.072   3.772  0.1845 -0.1958 -0.1104
 3477SOL    HW122067   2.383   4.064   3.866  0.7394 -0.1212 -0.1805
 3477SOL    HW222068   2.283   4.034   3.763  0.1730 -0.1895 -0.0275
 3478SOL     OW22069   0.370   3.827   6.342  0.2703 -0.1894 -0.5995
 3478SOL    HW122070   0.323   3.757   6.297  0.9043 -1.8034  1.2577
 3478SOL    HW222071   0.429   3.847   6.269  0.3015  0.5823 -0.3636
 3479SOL     OW22072   2.243   4.159   2.781  0.8053  0.4605  0.2519
 3479SOL    HW122073   2.311   4.092   2.788  2.6321  2.4399  1.6871
 3479SOL    HW222074   2.183   4.112   2.723 -0.5292  2.2162  0.1933
 3480SOL     OW22075   3.664   0.094  16.021 -0.0117  0.3156  0.2110
 3480SOL    HW122076   3.739   0.151  16.001 -0.9664  1.6235  0.3670
 3480SOL    HW222077   3.626   0.106  15.934  0.2845  0.3675  0.0887
 3481SOL     OW22078   4.697   1.058   3.004 -0.7847 -0.9369  0.4455
 3481SOL    HW122079   4.715   0.983   3.060  2.7004  1.5695  2.6979
 3481SOL    HW222080   0.037   1.074   2.950 -2.1705  4.2499 -0.0366
 3482SOL     OW22081   2.064   4.334   4.984 -0.1023 -0.4685  0.4355
 3482SOL    HW122082   2.060   4.429   4.991  2.5900 -0.4309  1.1892
 3482SOL    HW222083   2.102   4.325   4.897  0.4641  2.5884  0.3937
 3483SOL     OW22084   0.795   1.228  13.004  0.1252  0.1484 -0.3033
 3483SOL    HW122085   0.869   1.233  12.942  0.8050 -1.1115  0.3974
 3483SOL    HW222086   0.830   1.285  13.072  1.3736 -0.0267 -0.7915
 3484SOL     OW22087   4.609   0.536   7.815 -0.6546  0.1043 -0.5053
 3484SOL    HW122088   4.543   0.581   7.762  0.7877  1.3231 -1.2311
 3484SOL    HW222089   4.544   0.512   7.881  1.0012 -0.9756  0.7434
 3485SOL     OW22090   4.166   1.943   3.145 -0.3465  0.0802  0.3139
 3485SOL    HW122091   4.242   1.940   3.087  1.3629  0.9187  2.4920
 3485SOL    HW222092   4.219   1.939   3.225  1.1975 -0.1811 -0.7239
 3486SOL     OW22093   2.314   2.320  12.346  0.1186  0.3844  0.0700
 3486SOL    HW122094   2.248   2.337  12.279 -0.7936 -1.6751  0.4216
 3486SOL    HW222095   2.287   2.238  12.389 -3.2331  1.1396 -0.5594
 3487SOL     OW22096   0.862   3.899   3.987 -0.3970 -0.0991  0.5257
 3487SOL    HW122097   0.899   3.861   4.066 -0.9911  1.0710  1.3612
 3487SOL    HW222098   0.878   3.993   3.995  3.3043 -0.6305 -0.3921
 3488SOL     OW22099   3.944   2.678   3.716 -0.0408  0.1898  0.1759
 3488SOL    HW122100   3.875   2.689   3.781 -1.1879  2.2641 -1.3933
 3488SOL    HW222101   3.942   2.767   3.681  0.5885  0.7419  1.5299
 3489SOL     OW22102   4.209   2.803   8.954  0.2843  0.8044  0.5570
 3489SOL    HW122103   4.160   2.812   9.036  1.6597  1.0022  1.3660
 3489SOL    HW222104   4.277   2.871   8.959  1.0358  0.1103 -0.2180
 3490SOL     OW22105   2.861   0.356   3.643  0.7217  0.6840 -0.0041
 3490SOL    HW122106   2.872   0.273   3.597  0.3941  2.2065 -2.8360
 3490SOL    HW222107   2.804   0.405   3.584  0.8282 -0.7329 -1.2866
 3491SOL     OW22108   4.416   4.592   2.557  0.0400  0.1978  0.2411
 3491SOL    HW122109   4.493   4.630   2.515 -0.7500 -0.8544 -2.1482
 3491SOL    HW222110   4.379   4.562   2.474 -1.5300 -0.8572  1.3080
 3492SOL     OW22111   0.369   1.782   0.771 -0.3733  0.3954 -0.3443
 3492SOL    HW122112   0.299   1.804   0.833  0.7607 -1.8710  1.7072
 3492SOL    HW222113   0.414   1.866   0.769 -0.5589  0.5965  3.1576
 3493SOL     OW22114   0.586   3.145  16.725  0.2432 -0.2106 -0.0242
 3493SOL    HW122115   0.653   3.173  16.787 -1.1620 -1.4362  2.0625
 3493SOL    HW222116   0.541   3.086  16.785  0.1127 -1.9816 -1.8451
 3494SOL     OW22117   4.108   2.941   1.384 -0.2442  0.1342  0.0552
 3494SOL    HW122118   4.077   2.886   1.455 -0.9828  0.9993  0.3979
 3494SOL    HW222119   4.180   2.978   1.436  2.9364 -3.9752 -1.3817
 3495SOL     OW22120   2.111   4.535   9.541 -0.2873 -0.4882 -0.3035
 3495SOL    HW122121   2.067   4.612   9.506  1.1811  1.4804  2.1656
 3495SOL    HW222122   2.138   4.563   9.629  1.7629 -0.3591 -0.9770
 3496SOL     OW22123   3.378   4.160   4.202 -0.2779  0.1319  0.0582
 3496SOL    HW122124   3.303   4.110   4.235 -0.2370 -2.1345 -3.2851
 3496SOL    HW222125   3.380   4.226   4.272  2.0493 -1.9880  1.9748
 3497SOL     OW22126   0.557   2.154   5.685  0.4070 -0.6418 -0.3579
 3497SOL    HW122127   0.596   2.239   5.664  0.9120 -0.6051  0.6741
 3497SOL    HW222128   0.558   2.103   5.604 -1.4227  2.0876 -2.0678
 3498SOL     OW22129   2.676   1.129   6.668 -0.0158  0.2681  0.4078
 3498SOL    HW122130   2.694   1.081   6.587  0.6938  0.7350  0.2924
 3498SOL    HW222131   2.583   1.106   6.669  0.4694 -1.6920 -0.4877
 3499SOL     OW22132   0.534   1.597  15.562  0.0644 -0.0271 -0.3534
 3499SOL    HW122133   0.476   1.536  15.608  0.3716 -1.0269 -1.3256
 3499SOL    HW222134   0.484   1.618  15.483 -1.5577 -0.2469  0.5966
 3500SOL     OW22135   0.983   2.567   2.904 -0.0737  0.0548  0.1788
 3500SOL    HW122136   1.024   2.647   2.872  0.0762 -0.4457 -0.8787
 3500SOL    HW222137   1.004   2.561   2.997  0.4907 -0.0534  0.0420
 3501SOL     OW22138   3.101   2.602   7.942  0.4317 -1.3346 -0.4132
 3501SOL    HW122139   3.046   2.681   7.945  0.5047 -1.3316  0.8401
 3501SOL    HW222140   3.136   2.590   8.030  1.5207  1.3233 -0.4882
 3502SOL     OW22141   1.474   0.255  16.978 -0.3575 -0.6538 -0.2049
 3502SOL    HW122142   1.526   0.302  16.913  2.3776 -0.5813  2.0274
 3502SOL    HW222143   1.522   0.175  17.000 -0.2561 -0.4967  0.1491
 3503SOL     OW22144   2.886   3.106   1.984  0.1615 -0.0373  0.3111
 3503SOL    HW122145   2.909   3.026   1.937 -0.7173 -0.0860 -0.0382
 3503SOL    HW222146   2.895   3.178   1.922 -1.4717 -1.0843 -1.1259
 3504SOL     OW22147   1.390   1.418  10.425  0.2050 -0.7328  0.7471
 3504SOL    HW122148   1.297   1.399  10.439 -0.0238 -0.1853 -0.0647
 3504SOL    HW222149   1.401   1.513  10.434  2.5227 -1.0101  0.8101
 3505SOL     OW22150   0.177   4.309   7.849  0.4089  0.2281 -0.0050
 3505SOL    HW122151   0.169   4.225   7.802 -2.5899 -0.4816  1.7695
 3505SOL    HW222152   0.089   4.322   7.883  0.8757  1.3664  0.7621
 3506SOL     OW22153   1.090   2.655   7.506 -0.0580  0.8738 -0.1924
 3506SOL    HW122154   1.170   2.657   7.453  0.4132  1.4199  0.5267
 3506SOL    HW222155   1.017   2.630   7.450 -0.4029 -0.8276  0.9994
 3507SOL     OW22156   1.420   3.930  15.095  0.0786 -0.1760  0.0448
 3507SOL    HW122157   1.368   4.010  15.096  0.1141 -0.1553  0.4036
 3507SOL    HW222158   1.503   3.961  15.130 -0.4083  0.2477  0.8287
 3508SOL     OW22159   2.078   2.472   2.270  0.5240  0.1269 -0.0078
 3508SOL    HW122160   2.148   2.488   2.207  1.0495 -0.0700  0.5260
 3508SOL    HW222161   2.110   2.393   2.314 -1.5134 -0.8488 -0.2424
 3509SOL     OW22162   3.900   2.420  12.522 -0.2747  0.1606  0.1260
 3509SOL    HW122163   3.970   2.456  12.466 -1.3968  2.2960  0.1214
 3509SOL    HW222164   3.910   2.325  12.513 -0.3145  0.0079  1.7770
 3510SOL     OW22165   2.790   1.274  15.032  0.0673 -0.7973 -0.6724
 3510SOL    HW122166   2.716   1.248  15.085  0.8578 -0.5656  0.5358
 3510SOL    HW222167   2.851   1.327  15.084 -1.6510 -0.4712  0.9942
 3511SOL     OW22168   2.710   2.785   3.257  0.0720 -0.0972 -0.1480
 3511SOL    HW122169   2.698   2.715   3.192  1.1128 -0.4964  0.0801
 3511SOL    HW222170   2.780   2.835   3.216  0.2186 -0.1595  0.0254
 3512SOL     OW22171   2.601   1.848   2.048 -0.2471  0.0345  1.0402
 3512SOL    HW122172   2.558   1.763   2.049  0.8461 -0.5481 -0.9015
 3512SOL    HW222173   2.563   1.902   1.979 -1.1476  2.2255  3.2638
 3513SOL     OW22174   0.449   0.391   4.710  0.0468 -0.0490 -0.1701
 3513SOL    HW122175   0.535   0.370   4.747  0.4330 -0.0712 -1.0813
 3513SOL    HW222176   0.475   0.424   4.624 -0.3813 -1.3948 -0.8076
 3514SOL     OW22177   2.906   4.319  13.621 -0.0188  0.1517 -0.0369
 3514SOL    HW122178   2.868   4.272  13.695 -1.0803  1.3366  0.1536
 3514SOL    HW222179   2.901   4.406  13.659  1.4761  0.0628  0.3676
 3515SOL     OW22180   0.176   1.672  14.720 -0.4514 -0.1035  0.0691
 3515SOL    HW122181   0.215   1.759  14.731 -0.1487 -0.7283  3.9009
 3515SOL    HW222182   0.213   1.644  14.637  0.3910  1.5747 -0.1372
 3516SOL     OW22183   3.047   4.319   7.732 -0.2231  0.5657  0.1262
 3516SOL    HW122184   3.060   4.224   7.742  2.1340  1.0020  1.1972
 3516SOL    HW222185   2.962   4.327   7.774  0.5514 -0.6761  1.9601
 3517SOL     OW22186   1.275   4.172  11.675  0.5060  0.5842  0.1342
 3517SOL    HW122187   1.263   4.182  11.581  0.2162 -0.7258  0.0404
 3517SOL    HW222188   1.365   4.140  11.684 -0.0632 -0.0813  3.5220
 3518SOL     OW22189   2.536   3.768   6.991 -0.0527 -0.6367 -0.2322
 3518SOL    HW122190   2.580   3.840   7.036 -1.5400  0.6065 -0.7613
 3518SOL    HW222191   2.445   3.796   6.998 -0.3684 -1.2459 -1.9276
 3519SOL     OW22192   0.076   3.388   3.391 -0.2061  0.3511 -0.3187
 3519SOL    HW122193   0.007   3.373   3.326 -1.3041  0.2788  0.8866
 3519SOL    HW222194   0.121   3.455   3.340 -0.9764  1.2838  0.2493
 3520SOL     OW22195   0.087   1.411   2.962  0.5437 -0.7341  0.3620
 3520SOL    HW122196   0.005   1.458   2.977  2.2167  2.2513  0.2472
 3520SOL    HW222197   0.129   1.415   3.048  1.5289  0.4325 -0.1624
 3521SOL     OW22198   0.397   1.096   1.705  0.3335 -0.4190 -0.4141
 3521SOL    HW122199   0.363   1.154   1.774  0.9522 -0.6778  0.1095
 3521SOL    HW222200   0.425   1.161   1.641 -0.6383  0.0346 -0.3790
 3522SOL     OW22201   2.641   4.442   0.404  0.1225  0.2536  0.4854
 3522SOL    HW122202   2.707   4.502   0.439 -1.0641  1.6135  0.4136
 3522SOL    HW222203   2.641   4.477   0.314 -0.6986  0.0077  0.3877
 3523SOL     OW22204   1.898   3.739  10.330 -0.7341 -0.1585  0.4632
 3523SOL    HW122205   1.939   3.817  10.291  0.7152 -0.7886  0.7168
 3523SOL    HW222206   1.976   3.685  10.341  0.0230  0.7790 -0.2615
 3524SOL     OW22207   4.458   3.389   4.376  0.2940 -0.1485 -0.0537
 3524SOL    HW122208   4.426   3.299   4.382  0.1804 -0.2288 -1.9615
 3524SOL    HW222209   4.428   3.399   4.286  0.5840  1.5593  0.0378
 3525SOL     OW22210   4.417   2.774   3.396 -0.1416 -0.0101 -0.1938
 3525SOL    HW122211   4.398   2.804   3.485 -2.7463 -1.1901 -0.3478
 3525SOL    HW222212   4.343   2.712   3.398  0.0559 -0.0906  3.8779
 3526SOL     OW22213   1.073   3.210   5.836 -0.2901  0.5164 -0.4182
 3526SOL    HW122214   1.145   3.255   5.880 -1.4578  0.4027  1.5674
 3526SOL    HW222215   1.051   3.140   5.896 -0.0399 -1.4243 -2.5729
 3527SOL     OW22216   4.622   0.684  14.558 -0.0053 -0.3059  0.1209
 3527SOL    HW122217   4.615   0.670  14.652  0.6711  1.6430  0.4651
 3527SOL    HW222218   4.689   0.624  14.528  1.1128  0.8152  0.3687
 3528SOL     OW22219   3.611   3.221  16.356 -0.6126  0.5951  0.0553
 3528SOL    HW122220   3.620   3.137  16.312 -0.1201 -0.2615  1.7886
 3528SOL    HW222221   3.626   3.280  16.282  1.5819 -0.1039 -0.0330
 3529SOL     OW22222   2.582   2.192   8.949 -0.3295  1.0000 -0.0337
 3529SOL    HW122223   2.629   2.268   8.985 -2.1242  1.2206  1.8478
 3529SOL    HW222224   2.527   2.161   9.021  0.1061 -1.4842 -0.7830
 3530SOL     OW22225   2.447   4.718   8.905  0.1065  0.1453  0.4411
 3530SOL    HW122226   2.361   0.022   8.898  0.8011  1.5116  0.1136
 3530SOL    HW222227   2.423   4.640   8.956  1.2309 -0.0484  0.6810
 3531SOL     OW22228   2.117   2.473  15.627 -0.1161  0.2447 -0.2060
 3531SOL    HW122229   2.098   2.557  15.667  2.1935  0.6782 -0.0567
 3531SOL    HW222230   2.110   2.416  15.704 -1.9200  1.5560  0.5823
 3532SOL     OW22231   1.667   2.511   6.708 -0.2036 -0.2684  0.6058
 3532SOL    HW122232   1.618   2.587   6.741  2.5039  0.9466  1.7983
 3532SOL    HW222233   1.633   2.499   6.619  1.5971  1.0168 -0.2510
 3533SOL     OW22234   0.809   0.655  17.573 -0.2494  0.4528 -0.4808
 3533SOL    HW122235   0.749   0.727  17.556  1.4248  2.3663  1.6781
 3533SOL    HW222236   0.773   0.578  17.529  0.3323 -1.4726  2.3592
 3534SOL     OW22237   1.746   0.723   6.189  0.0230  0.5691 -0.6256
 3534SOL    HW122238   1.789   0.750   6.270  1.0160  0.8493 -1.2522
 3534SOL    HW222239   1.663   0.770   6.197  0.4004  1.3712 -1.2938
 3535SOL     OW22240   0.884   1.597   7.698  0.2688  0.4617 -0.0905
 3535SOL    HW122241   0.879   1.520   7.754 -2.1275  0.7860  0.1414
 3535SOL    HW222242   0.832   1.564   7.625  0.3236 -1.3898  0.7050
 3536SOL     OW22243   2.601   0.976   5.713  0.1807  0.0509  0.0541
 3536SOL    HW122244   2.644   0.917   5.651  2.1403  2.0836 -0.5156
 3536SOL    HW222245   2.588   1.053   5.659  1.2103  0.6848  0.7038
 3537SOL     OW22246   4.227   3.648   5.659  0.0672  0.2219 -0.0413
 3537SOL    HW122247   4.137   3.642   5.692 -0.4885 -3.4561 -2.2100
 3537SOL    HW222248   4.254   3.732   5.695 -0.1173 -0.2221  1.1489
 3538SOL     OW22249   0.598   2.911   2.873 -0.4267 -0.6634 -0.0634
 3538SOL    HW122250   0.682   2.887   2.912  0.8818  2.5139 -0.9154
 3538SOL    HW222251   0.601   2.861   2.792 -0.5262 -0.2391 -0.3311
 3539SOL     OW22252   0.415   3.398  14.616 -0.1107  0.1211 -0.0377
 3539SOL    HW122253   0.508   3.421  14.619 -0.1388  0.4172 -1.2816
 3539SOL    HW222254   0.417   3.388  14.521  0.1077 -1.1082  0.1060
 3540SOL     OW22255   3.383   1.785  16.423  0.1021 -0.0960  0.5784
 3540SOL    HW122256   3.304   1.731  16.416  0.3156 -0.5258  1.4791
 3540SOL    HW222257   3.364   1.841  16.348 -3.1493 -2.5231 -0.4207
 3541SOL     OW22258   1.836   2.153  15.684  0.7650  0.2512  0.0310
 3541SOL    HW122259   1.817   2.060  15.695  0.1000  0.5542  1.4126
 3541SOL    HW222260   1.866   2.153  15.593 -1.6405 -0.4882 -0.7599
 3542SOL     OW22261   0.052   2.447  17.128  0.4057  0.0878 -0.4823
 3542SOL    HW122262   4.724   2.380  17.148  0.1879  1.1074  2.2081
 3542SOL    HW222263   4.732   2.522  17.138 -0.3999 -0.5555 -0.2710
 3543SOL     OW22264   2.083   3.581   6.311 -0.5938 -0.0872  0.5404
 3543SOL    HW122265   2.031   3.516   6.358  0.8933 -0.5063  1.5744
 3543SOL    HW222266   2.087   3.537   6.226 -0.0816  1.7972 -0.4225
 3544SOL     OW22267   1.407   3.338   9.754 -0.0374  0.5501  0.1445
 3544SOL    HW122268   1.434   3.255   9.792  2.1000  0.5277 -1.4213
 3544SOL    HW222269   1.312   3.329   9.753 -0.1768  1.9129 -0.0368
 3545SOL     OW22270   3.834   0.898  10.542  0.0435  0.0294  0.3274
 3545SOL    HW122271   3.893   0.860  10.607 -1.3843 -1.2068  0.9133
 3545SOL    HW222272   3.808   0.819  10.495 -3.2220  0.3847  1.5354
 3546SOL     OW22273   1.206   0.185   2.983 -0.2378 -0.6856 -0.6339
 3546SOL    HW122274   1.137   0.190   3.049 -0.6033  0.7841 -1.1176
 3546SOL    HW222275   1.191   0.100   2.943 -4.0936  0.1038 -0.8032
 3547SOL     OW22276   3.305   1.901   7.829  0.0767  0.3414  0.1589
 3547SOL    HW122277   3.371   1.855   7.881  0.6672  0.9589 -0.0348
 3547SOL    HW222278   3.332   1.992   7.843 -3.3436  1.4187 -0.2972
 3548SOL     OW22279   2.067   2.325   3.390 -0.1835  0.2814  0.5121
 3548SOL    HW122280   2.086   2.319   3.483 -1.7685  2.3685  0.9685
 3548SOL    HW222281   2.090   2.415   3.370  0.9203  0.1359  1.1214
 3549SOL     OW22282   1.233   2.274   1.058  0.5229 -0.1450 -0.0639
 3549SOL    HW122283   1.220   2.181   1.076  2.1444 -0.4654 -0.5561
 3549SOL    HW222284   1.295   2.270   0.985 -0.3918  0.6913 -0.8803
 3550SOL     OW22285   3.871   3.757   2.794 -0.3433  0.2727 -0.2623
 3550SOL    HW122286   3.934   3.780   2.863 -1.4049 -1.8406  1.3910
 3550SOL    HW222287   3.809   3.830   2.800 -0.6077  0.0122  0.1928
 3551SOL     OW22288   0.753   2.258   6.369 -0.5183  0.4507 -0.9217
 3551SOL    HW122289   0.714   2.185   6.321 -1.4995  0.1460  0.3597
 3551SOL    HW222290   0.768   2.222   6.456  1.2832 -0.2796 -1.5444
 3552SOL     OW22291   3.983   1.126   8.682  0.3448 -0.0004 -0.1969
 3552SOL    HW122292   4.053   1.186   8.709  1.2059 -0.7138 -0.8465
 3552SOL    HW222293   4.037   1.078   8.618 -0.1104 -2.0166  0.9570
 3553SOL     OW22294   2.081   0.747   3.940 -0.8951  0.1909  0.7060
 3553SOL    HW122295   2.090   0.842   3.948  1.2001  0.3142 -2.8514
 3553SOL    HW222296   2.000   0.718   3.981 -2.1372  1.6314 -0.6918
 3554SOL     OW22297   2.269   3.699   6.612 -0.0380  0.1452  0.1165
 3554SOL    HW122298   2.324   3.632   6.652 -0.2612  1.3929  2.4907
 3554SOL    HW222299   2.325   3.722   6.537 -0.4761  2.4427  0.4850
 3555SOL     OW22300   4.086   0.767  14.261 -0.2580 -0.1905  0.7412
 3555SOL    HW122301   4.137   0.822  14.202 -0.6933  0.3023  0.8225
 3555SOL    HW222302   4.090   0.795  14.352 -0.8292  2.3076 -0.0036
 3556SOL     OW22303   3.363   0.144   5.898 -0.0337  0.1021 -0.0773
 3556SOL    HW122304   3.442   0.185   5.934  0.3017 -1.5041  1.0411
 3556SOL    HW222305   3.397   0.083   5.833 -0.8955  0.4786 -0.8850
 3557SOL     OW22306   1.105   1.574  17.149 -0.2164 -0.2632 -0.1121
 3557SOL    HW122307   1.026   1.521  17.138 -0.0777 -0.6813  0.8238
 3557SOL    HW222308   1.169   1.503  17.141  0.6320  0.5952 -0.9453
 3558SOL     OW22309   0.926   2.058   4.923 -0.1327 -0.0090 -0.3273
 3558SOL    HW122310   0.931   2.124   4.854 -1.3879  0.2142 -0.2063
 3558SOL    HW222311   0.854   2.005   4.887  1.4582 -0.5618 -2.6551
 3559SOL     OW22312   1.800   4.543   2.918 -0.2492  0.0247  0.1168
 3559SOL    HW122313   1.724   4.493   2.886 -0.3441  0.1129  0.2059
 3559SOL    HW222314   1.837   4.500   2.995  0.0867 -0.8819 -0.5479
 3560SOL     OW22315   3.314   3.983   9.824 -0.2190 -0.2139 -0.1805
 3560SOL    HW122316   3.308   3.990   9.729 -0.3531 -0.2823 -0.1767
 3560SOL    HW222317   3.222   4.006   9.839  0.8497  2.1020  3.0022
 3561SOL     OW22318   2.142   3.594   4.685  0.1018  0.0563  0.1741
 3561SOL    HW122319   2.132   3.536   4.760  2.5368 -2.8117 -1.7023
 3561SOL    HW222320   2.052   3.606   4.654 -0.1627 -1.0092  0.5240
 3562SOL     OW22321   0.303   0.089   1.838 -0.2307  0.3104 -0.0693
 3562SOL    HW122322   0.347   0.030   1.777 -1.7961  0.8273 -1.6806
 3562SOL    HW222323   0.279   0.034   1.913 -1.7938  0.5417 -0.3999
 3563SOL     OW22324   1.486   0.891   9.210 -0.3974 -0.2891 -0.2225
 3563SOL    HW122325   1.466   0.943   9.287 -1.0939 -2.3668  0.9869
 3563SOL    HW222326   1.423   0.935   9.152 -0.4103  0.2708  0.2156
 3564SOL     OW22327   2.536   4.638  10.216  0.0834  0.2513 -0.0916
 3564SOL    HW122328   2.496   4.708  10.165  1.3377  0.5739 -0.6412
 3564SOL    HW222329   2.604   4.607  10.156 -0.5846 -0.7182 -0.3510
 3565SOL     OW22330   4.083   2.045   8.485  0.4757  0.2407 -0.0814
 3565SOL    HW122331   4.113   2.081   8.568 -0.0740 -1.6526  0.9332
 3565SOL    HW222332   4.052   2.123   8.438 -0.4603 -0.6337 -0.9170
 3566SOL     OW22333   4.541   1.816   7.889  0.8000 -0.0820  0.4222
 3566SOL    HW122334   4.496   1.732   7.874  1.2095 -0.2742  0.2727
 3566SOL    HW222335   4.535   1.821   7.984 -1.1585 -0.2948  0.3124
 3567SOL     OW22336   0.997   0.005   4.270  0.0515 -0.2262  0.0559
 3567SOL    HW122337   1.078   0.056   4.267  1.1469 -1.8948  1.2044
 3567SOL    HW222338   0.994   4.723   4.176  1.1639 -1.2160  0.2285
 3568SOL     OW22339   0.630   4.387   8.177 -0.3789 -0.0140 -0.5805
 3568SOL    HW122340   0.561   4.400   8.241  1.0875  0.0574  0.9677
 3568SOL    HW222341   0.709   4.391   8.230 -0.5671 -1.2287 -0.2087
 3569SOL     OW22342   4.392   2.424   4.200  0.3862  0.4284 -0.4302
 3569SOL    HW122343   4.464   2.469   4.245 -0.4523  1.8320 -0.4832
 3569SOL    HW222344   4.448   2.366   4.149 -1.8659 -1.3224 -0.9076
 3570SOL     OW22345   0.302   3.957   6.559  0.1243 -0.2412 -0.2060
 3570SOL    HW122346   0.310   3.891   6.490 -1.8528 -1.2580  0.5582
 3570SOL    HW222347   0.210   3.982   6.556  0.4224  0.9887  0.9396
 3571SOL     OW22348   3.342   2.977   6.542 -0.0843  0.1856 -0.8944
 3571SOL    HW122349   3.409   2.910   6.523 -0.7090 -0.2938 -1.4398
 3571SOL    HW222350   3.366   2.988   6.634  0.4952  2.0217 -1.2622
 3572SOL     OW22351   2.664   4.084   8.310  0.4383 -0.2619  0.6636
 3572SOL    HW122352   2.631   4.131   8.233  1.5554 -1.8117 -0.7826
 3572SOL    HW222353   2.662   3.993   8.280 -0.8073  0.2831 -0.9142
 3573SOL     OW22354   2.664   1.665   4.331  0.6168 -0.4987  0.7154
 3573SOL    HW122355   2.732   1.611   4.371 -1.0465 -2.3975  0.9366
 3573SOL    HW222356   2.650   1.618   4.249 -0.6506  0.7202  0.2461
 3574SOL     OW22357   0.929   3.121   4.783  0.0410  0.0952 -0.0555
 3574SOL    HW122358   0.881   3.043   4.753  0.0592 -0.2361  0.7772
 3574SOL    HW222359   1.019   3.089   4.775 -0.3964 -1.0120 -0.5931
 3575SOL     OW22360   1.428   1.192  10.790  0.2642  0.4843  0.3672
 3575SOL    HW122361   1.462   1.277  10.819  0.9562  0.5063 -0.5282
 3575SOL    HW222362   1.469   1.179  10.704 -2.8051 -0.1261 -0.9927
 3576SOL     OW22363   2.169   3.460   3.398  0.1191 -0.5721 -0.3608
 3576SOL    HW122364   2.129   3.482   3.482 -0.6418 -0.2771 -0.8005
 3576SOL    HW222365   2.233   3.394   3.425  0.4829 -0.8245 -1.8467
 3577SOL     OW22366   4.077   1.428  12.427 -0.1446  1.2056 -0.1241
 3577SOL    HW122367   4.035   1.514  12.414  0.3248  1.1609 -1.9157
 3577SOL    HW222368   4.048   1.400  12.514 -0.5486 -1.8818 -1.2780
 3578SOL     OW22369   2.433   0.022   7.638  0.6541  0.3251  0.0847
 3578SOL    HW122370   2.484   0.011   7.718 -1.8962 -0.8778  1.5617
 3578SOL    HW222371   2.465   4.689   7.582 -2.7019 -1.0933 -0.0482
 3579SOL     OW22372   0.549   1.601   0.907 -0.1194  0.2909 -0.0437
 3579SOL    HW122373   0.553   1.505   0.905 -1.0926  0.2537 -0.6444
 3579SOL    HW222374   0.486   1.615   0.836 -2.2092  1.8602  2.1130
 3580SOL     OW22375   0.736   3.624   8.103  0.1953  1.0402  0.0573
 3580SOL    HW122376   0.641   3.621   8.115  0.2024  2.5171  0.4101
 3580SOL    HW222377   0.734   3.664   8.016 -0.6477  0.0049 -0.4032
 3581SOL     OW22378   2.604   2.645   3.995 -0.0282  0.5488  0.4528
 3581SOL    HW122379   2.632   2.730   3.963  0.3592  0.4493  0.5234
 3581SOL    HW222380   2.618   2.585   3.922 -1.4775  0.4980  0.2130
 3582SOL     OW22381   3.550   1.317   7.924 -0.4982  0.2640  0.0870
 3582SOL    HW122382   3.588   1.317   7.837 -0.8883 -0.3252 -0.0851
 3582SOL    HW222383   3.455   1.309   7.914 -0.3632 -1.0553 -0.2301
 3583SOL     OW22384   4.130   0.017   7.801  0.2422  0.0188  0.0667
 3583SOL    HW122385   4.170   4.674   7.835  2.5728  2.2723  2.7487
 3583SOL    HW222386   4.119   0.056   7.888  1.1691 -0.4452  0.3991
 3584SOL     OW22387   2.541   2.592   7.740  0.6392  0.5289  0.6007
 3584SOL    HW122388   2.503   2.584   7.652  0.2659  1.1965  0.7013
 3584SOL    HW222389   2.480   2.535   7.788 -0.6707  0.2516 -1.3962
 3585SOL     OW22390   2.844   0.651   2.363 -0.2193 -0.6172 -0.2588
 3585SOL    HW122391   2.750   0.656   2.346 -0.2852  2.3632  0.9497
 3585SOL    HW222392   2.847   0.576   2.423 -2.5457 -1.3493 -1.0532
 3586SOL     OW22393   1.592   2.535   6.230 -0.3190  0.4455 -0.1416
 3586SOL    HW122394   1.629   2.449   6.212 -0.0017  0.2298  1.5139
 3586SOL    HW222395   1.669   2.591   6.241 -1.4265  2.0018 -0.1807
 3587SOL     OW22396   1.700   3.214  13.349 -0.0935  0.4139 -0.5180
 3587SOL    HW122397   1.680   3.291  13.297 -0.6781 -0.3325 -1.3897
 3587SOL    HW222398   1.740   3.159  13.282  0.4547  0.2839 -0.0912
 3588SOL     OW22399   0.177   1.741   8.273  0.4609 -0.3639  0.5210
 3588SOL    HW122400   0.130   1.785   8.202  0.4567  1.3432  1.5760
 3588SOL    HW222401   0.205   1.660   8.230 -0.1338  0.6933 -1.8571
 3589SOL     OW22402   0.231   4.161   5.765 -0.2548 -0.2796  0.3663
 3589SOL    HW122403   0.237   4.076   5.808  0.2702 -0.5643 -0.2619
 3589SOL    HW222404   0.325   4.175   5.755 -0.1198 -1.5432 -0.1032
 3590SOL     OW22405   3.092   2.693   6.749 -0.6253  0.2494  0.2107
 3590SOL    HW122406   3.137   2.694   6.834  0.6607  0.4151 -0.4603
 3590SOL    HW222407   3.098   2.598   6.737 -0.6666  0.2504  0.1823
 3591SOL     OW22408   0.590   3.872   1.533 -0.4023  0.1305 -0.1822
 3591SOL    HW122409   0.583   3.848   1.441 -0.3395  0.2828 -0.2261
 3591SOL    HW222410   0.682   3.896   1.545 -0.4884  1.0407 -1.3623
 3592SOL     OW22411   1.863   2.353   9.104 -0.4094  0.4508  0.0912
 3592SOL    HW122412   1.799   2.424   9.105 -0.8858 -0.0119  2.1339
 3592SOL    HW222413   1.793   2.288   9.095 -2.0634  2.2264  0.1294
 3593SOL     OW22414   1.828   4.363   8.999 -0.1040  0.6108 -0.3690
 3593SOL    HW122415   1.807   4.423   8.928 -1.5356 -1.8838 -2.0552
 3593SOL    HW222416   1.802   4.409   9.080  2.5171  1.7939 -0.1990
 3594SOL     OW22417   3.637   2.289  11.260 -0.3652 -0.2104  0.0420
 3594SOL    HW122418   3.575   2.245  11.318 -0.8275  0.7107  0.2369
 3594SOL    HW222419   3.592   2.269  11.177  2.3607  0.0579 -1.5078
 3595SOL     OW22420   2.723   2.633   2.736 -0.5927  0.8829  0.6107
 3595SOL    HW122421   2.763   2.563   2.787 -1.6868  0.3879  0.7882
 3595SOL    HW222422   2.767   2.624   2.651 -0.5545  1.1811  0.5998
 3596SOL     OW22423   3.806   0.151   6.764  0.0630 -0.0427  0.1534
 3596SOL    HW122424   3.807   0.244   6.740 -1.2346  0.7064  2.9096
 3596SOL    HW222425   3.875   0.126   6.704  1.5546  3.4396  0.4004
 3597SOL     OW22426   0.383   2.770   8.185 -0.0048 -0.0559 -0.0008
 3597SOL    HW122427   0.358   2.746   8.274 -0.7555  0.7575  0.0065
 3597SOL    HW222428   0.457   2.829   8.199 -1.2706  1.0158  2.2879
 3598SOL     OW22429   3.136   2.400  10.699  0.4296  0.8952 -0.3699
 3598SOL    HW122430   3.181   2.356  10.627 -1.7013 -0.3826 -0.9019
 3598SOL    HW222431   3.180   2.486  10.695 -0.1494  1.0430 -3.5914
 3599SOL     OW22432   1.244   3.493   5.781 -0.5717  0.1654  0.6320
 3599SOL    HW122433   1.286   3.569   5.823  1.3097 -0.6933  0.2990
 3599SOL    HW222434   1.249   3.422   5.846 -1.3528 -2.2603 -1.9851
 3600SOL     OW22435   1.078   4.290   8.185  0.3430  0.2428  0.2221
 3600SOL    HW122436   1.062   4.258   8.096  0.3658  2.2105 -0.4895
 3600SOL    HW222437   1.005   4.249   8.232  0.8698  1.2717  1.9501
 3601SOL     OW22438   0.767   1.732  13.150  0.3459  0.7877  0.2305
 3601SOL    HW122439   0.680   1.728  13.189  0.5620 -1.0350  0.5270
 3601SOL    HW222440   0.815   1.761  13.227 -1.9689  0.1939  1.8956
 3602SOL     OW22441   3.396   2.484   2.719 -0.0185  0.3312 -0.4309
 3602SOL    HW122442   3.355   2.536   2.789 -0.1170 -1.3046  0.7181
 3602SOL    HW222443   3.416   2.558   2.661  0.6276  1.3967  1.1453
 3603SOL     OW22444   3.175   2.963   1.335 -0.1256 -0.1842 -0.0197
 3603SOL    HW122445   3.180   2.873   1.306  1.3900 -0.5106  1.2323
 3603SOL    HW222446   3.249   2.975   1.394 -0.0939  0.6263 -0.2176
 3604SOL     OW22447   0.326   4.363   3.135  0.6379  0.6651  0.3028
 3604SOL    HW122448   0.267   4.386   3.207 -1.3012  1.9808 -1.7165
 3604SOL    HW222449   0.261   4.348   3.067  0.2746  0.2970  0.7383
 3605SOL     OW22450   4.597   0.481   0.590  0.2376 -0.3712 -0.2516
 3605SOL    HW122451   4.678   0.512   0.549  0.2090  0.2633  0.1692
 3605SOL    HW222452   4.578   0.547   0.657  1.0222 -0.4461  0.0440
 3606SOL     OW22453   1.757   2.928   2.433 -0.2175  0.4354 -0.1350
 3606SOL    HW122454   1.758   2.882   2.517 -2.1977  0.3318 -0.1801
 3606SOL    HW222455   1.718   2.853   2.388  0.7839 -0.4365  0.4143
 3607SOL     OW22456   2.690   4.396   7.934  0.7539  0.2716  0.3214
 3607SOL    HW122457   2.686   4.322   7.995  2.4383 -0.0673  0.0267
 3607SOL    HW222458   2.599   4.427   7.934  0.9227  0.7570 -2.3334
 3608SOL     OW22459   4.579   3.296   7.585 -0.2925 -0.2724 -0.2511
 3608SOL    HW122460   4.537   3.241   7.651  1.0557 -1.5697 -0.4786
 3608SOL    HW222461   4.659   3.312   7.634 -0.8294  1.2141  0.1529
 3609SOL     OW22462   1.271   3.371   3.907  0.0679 -0.3495 -0.1254
 3609SOL    HW122463   1.239   3.458   3.929 -0.3872 -0.8753  1.2716
 3609SOL    HW222464   1.361   3.399   3.890  0.0164 -0.5832 -0.8041
 3610SOL     OW22465   3.687   1.322   6.767  0.3696  0.0861 -0.5607
 3610SOL    HW122466   3.597   1.338   6.738 -0.5600 -1.1059  1.7501
 3610SOL    HW222467   3.689   1.227   6.777 -0.4243 -0.0615 -1.8150
 3611SOL     OW22468   3.534   4.133   7.265 -0.0571  0.0486 -0.4315
 3611SOL    HW122469   3.610   4.116   7.209  0.9333  0.3278  0.8383
 3611SOL    HW222470   3.482   4.053   7.255  0.2379 -0.2475  0.3726
 3612SOL     OW22471   1.327   3.915   8.858 -0.9749  0.0911  0.1975
 3612SOL    HW122472   1.367   3.864   8.928 -2.1927 -1.2542 -0.0718
 3612SOL    HW222473   1.271   3.967   8.915 -1.1902 -1.2338  1.1964
 3613SOL     OW22474   0.153   3.025   7.780  0.2750  0.2940 -0.4246
 3613SOL    HW122475   0.082   2.975   7.740  0.4169  0.7062 -1.1825
 3613SOL    HW222476   0.175   2.977   7.860 -0.3900 -1.1549 -1.1136
 3614SOL     OW22477   4.500   3.253   6.742  0.3380 -0.2127 -0.2140
 3614SOL    HW122478   4.594   3.241   6.757 -0.1976 -1.4366  2.1152
 3614SOL    HW222479   4.485   3.253   6.647  1.9343 -0.3403 -0.4723
 3615SOL     OW22480   3.107   1.834   2.610  0.1613 -0.1270 -0.2506
 3615SOL    HW122481   3.017   1.832   2.577 -0.9795  1.7672  2.7981
 3615SOL    HW222482   3.124   1.924   2.636 -1.6946  0.4797 -1.1863
 3616SOL     OW22483   1.984   3.539   2.654  0.3245  0.0761  0.2428
 3616SOL    HW122484   1.922   3.466   2.661 -0.1555  0.2039 -2.5458
 3616SOL    HW222485   1.947   3.597   2.720  0.2924 -1.3064  1.4490
 3617SOL     OW22486   1.169   2.269   0.102  0.2287  0.7856  0.3604
 3617SOL    HW122487   1.157   2.334   0.033 -3.9894 -1.5582 -1.1070
 3617SOL    HW222488   1.222   2.203   0.057 -1.8699 -1.1446  0.7120
 3618SOL     OW22489   4.027   0.342  15.481  0.1927 -0.2218  0.0577
 3618SOL    HW122490   4.056   0.410  15.419  4.3209 -2.6498 -0.6416
 3618SOL    HW222491   4.078   0.267  15.451 -1.4447 -1.3085 -0.0407
 3619SOL     OW22492   3.435   2.248   0.340  0.5149  0.6003  0.4871
 3619SOL    HW122493   3.420   2.278   0.250 -0.8608 -1.6855 -0.0417
 3619SOL    HW222494   3.531   2.244   0.347  0.5977  3.0448  0.5782
 3620SOL     OW22495   2.899   3.008   6.296 -0.2192 -0.4687 -0.2183
 3620SOL    HW122496   2.973   2.952   6.320 -0.5510 -1.4099 -1.3653
 3620SOL    HW222497   2.845   2.978   6.369 -0.8097  0.1899 -0.3845
 3621SOL     OW22498   2.644   4.508   2.982 -0.2468  0.5650 -0.0684
 3621SOL    HW122499   2.666   4.430   3.033 -0.1022 -0.5939 -1.8871
 3621SOL    HW222500   2.575   4.541   3.040  0.4056  0.8674  0.5194
 3622SOL     OW22501   2.312   2.975   3.434  0.2997 -0.1222  0.4829
 3622SOL    HW122502   2.405   2.998   3.427  0.6756 -2.2612 -1.7697
 3622SOL    HW222503   2.325   2.883   3.458 -0.7972  0.2234  2.4101
 3623SOL     OW22504   3.042   1.841  11.246 -0.2878  0.4004 -0.1983
 3623SOL    HW122505   3.133   1.852  11.219  0.3059 -0.6494  1.3117
 3623SOL    HW222506   3.009   1.930  11.237 -1.0164  0.3618  1.8885
 3624SOL     OW22507   1.935   1.068   6.662  0.1054  0.4875  0.0694
 3624SOL    HW122508   1.896   0.983   6.679  0.3984  0.9427  2.9352
 3624SOL    HW222509   2.009   1.036   6.610 -2.1358 -2.1315 -1.5236
 3625SOL     OW22510   3.252   2.495   5.183 -0.1495 -0.3339  0.2857
 3625SOL    HW122511   3.170   2.535   5.212  1.0604  1.9729  0.5107
 3625SOL    HW222512   3.313   2.527   5.249  0.8991 -0.0297 -0.8337
 3626SOL     OW22513   4.305   0.098   3.176 -0.1161 -0.0151 -0.0359
 3626SOL    HW122514   4.249   0.117   3.251 -1.9662 -1.1074 -1.1254
 3626SOL    HW222515   4.315   0.003   3.186 -1.7833 -0.1040  0.8004
 3627SOL     OW22516   4.098   2.688   3.415  0.1472  0.5480 -0.6592
 3627SOL    HW122517   4.045   2.711   3.338 -1.4046  1.6107  0.7333
 3627SOL    HW222518   4.098   2.593   3.428 -1.7933  0.4026 -1.6732
 3628SOL     OW22519   0.043   2.788  11.502  0.2620  0.6322  0.1868
 3628SOL    HW122520   0.115   2.756  11.447  1.1250  0.3455  1.4739
 3628SOL    HW222521   0.051   2.761  11.593  1.3242  0.0891 -0.0566
 3629SOL     OW22522   1.945   4.535   6.985  0.9723  0.0773 -0.1709
 3629SOL    HW122523   1.873   4.541   6.923  0.4447  1.7402  0.6054
 3629SOL    HW222524   1.900   4.481   7.051 -0.2610 -0.4855 -1.4852
 3630SOL     OW22525   2.989   3.218  15.284  0.0827 -0.4629  0.2485
 3630SOL    HW122526   2.961   3.205  15.375  2.4182 -0.9547  0.8869
 3630SOL    HW222527   2.900   3.216  15.248  0.0110  1.1135  0.3200
 3631SOL     OW22528   0.482   1.016   6.364 -0.3290  0.6730 -0.2870
 3631SOL    HW122529   0.563   1.056   6.398  0.7916 -0.9029 -1.0998
 3631SOL    HW222530   0.504   1.016   6.271  0.8381  1.7418 -0.0274
 3632SOL     OW22531   2.632   4.036   6.112 -0.0772  0.5168  0.1750
 3632SOL    HW122532   2.657   4.051   6.203  1.4118  0.0946 -0.1613
 3632SOL    HW222533   2.601   4.121   6.081  0.0172  1.8412  3.7609
 3633SOL     OW22534   1.171   1.324   2.359  0.1000  0.3745  0.1354
 3633SOL    HW122535   1.086   1.280   2.368  0.3876  0.0377  1.1534
 3633SOL    HW222536   1.162   1.356   2.269  0.4611  1.7213  0.5768
 3634SOL     OW22537   0.498   0.471   3.598  0.9265  0.6997 -0.6128
 3634SOL    HW122538   0.568   0.536   3.606  0.6431  1.1023 -1.3295
 3634SOL    HW222539   0.420   0.522   3.575  0.9049  0.5073 -0.9708
 3635SOL     OW22540   2.016   4.063   6.698  0.2598  0.5240  0.1986
 3635SOL    HW122541   2.093   4.107   6.662  1.0259 -0.0830  1.0813
 3635SOL    HW222542   1.998   4.108   6.780 -0.4935  1.8470 -0.7021
 3636SOL     OW22543   3.367   0.098   3.247 -0.3523  0.0508  0.2814
 3636SOL    HW122544   3.331   0.184   3.268 -0.6522 -0.4924  2.0210
 3636SOL    HW222545   3.318   0.069   3.170  0.8286  1.0589 -0.8463
 3637SOL     OW22546   0.870   0.301   5.448 -0.1974  0.4652  0.2761
 3637SOL    HW122547   0.917   0.265   5.524  0.2578  1.9101  0.6709
 3637SOL    HW222548   0.875   0.395   5.465  0.7669  0.5513 -0.4792
 3638SOL     OW22549   0.596   4.162   1.449  0.1659  0.0082 -0.0031
 3638SOL    HW122550   0.531   4.152   1.519  0.1265  1.5613  0.1800
 3638SOL    HW222551   0.665   4.100   1.469 -1.7543 -1.6360  1.5070
 3639SOL     OW22552   1.770   0.180   6.421 -0.4157  0.8589 -0.1650
 3639SOL    HW122553   1.826   0.108   6.449 -0.3539  0.9878  0.0414
 3639SOL    HW222554   1.692   0.133   6.452  1.0096 -0.9718  0.6412
 3640SOL     OW22555   1.809   3.310  15.422  0.0139 -0.0362  0.1540
 3640SOL    HW122556   1.782   3.327  15.332  0.8333  2.2827  0.3433
 3640SOL    HW222557   1.893   3.265  15.411  0.6564  1.4200 -0.8747
 3641SOL     OW22558   2.479   1.659   3.359  0.5670  0.7644  0.1325
 3641SOL    HW122559   2.489   1.669   3.264 -0.5839  2.3042  0.1813
 3641SOL    HW222560   2.423   1.734   3.379 -0.7452  0.0715 -0.9059
 3642SOL     OW22561   0.088   4.519   5.327  0.0340 -0.0937  0.3601
 3642SOL    HW122562   0.060   4.431   5.302  0.1196 -0.5839  2.0332
 3642SOL    HW222563   0.174   4.501   5.365 -0.8237 -0.3463  2.1677
 3643SOL     OW22564   2.933   3.258   4.291 -0.5733 -0.6669 -0.2162
 3643SOL    HW122565   3.005   3.201   4.317 -0.4843 -1.0201 -1.2569
 3643SOL    HW222566   2.918   3.237   4.199 -1.9301 -2.7238  0.4695
 3644SOL     OW22567   4.354   3.099   2.151 -0.1979 -0.1102 -0.0807
 3644SOL    HW122568   4.417   3.036   2.116  0.1938 -1.2895  2.8094
 3644SOL    HW222569   4.370   3.171   2.090 -1.6188  0.8233  0.6353
 3645SOL     OW22570   2.394   3.293   3.409 -0.2268  0.1465  0.0324
 3645SOL    HW122571   2.455   3.246   3.353 -0.7731  0.5131 -0.8749
 3645SOL    HW222572   2.442   3.373   3.428 -0.5139  0.3264  0.0053
 3646SOL     OW22573   2.989   2.654  16.775  0.1715 -0.5499 -0.1646
 3646SOL    HW122574   2.992   2.666  16.870 -2.2446  0.5109 -0.2048
 3646SOL    HW222575   2.968   2.742  16.744  3.2360  0.7095  1.3987
 3647SOL     OW22576   3.847   2.949  16.424 -0.3927 -0.2751  0.5675
 3647SOL    HW122577   3.856   2.865  16.469  2.7632  0.0389  0.5533
 3647SOL    HW222578   3.848   3.010  16.498 -0.2465  0.1238  0.2328
 3648SOL     OW22579   4.582   2.739   7.481 -0.5782  0.4809 -0.3888
 3648SOL    HW122580   4.503   2.715   7.433 -1.0441 -0.2639  0.7653
 3648SOL    HW222581   4.546   2.707   7.563  0.8138 -0.8951 -0.3155
 3649SOL     OW22582   1.753   3.579   7.420  0.3899  0.0641 -0.2382
 3649SOL    HW122583   1.688   3.649   7.419 -0.7380 -1.0125 -1.7752
 3649SOL    HW222584   1.784   3.593   7.509  2.9366 -3.3087 -0.5928
 3650SOL     OW22585   0.048   3.693   7.625  0.1423 -0.6789  0.3904
 3650SOL    HW122586   0.061   3.618   7.566 -2.4904 -2.4961  2.1304
 3650SOL    HW222587   4.697   3.721   7.603  0.7311  1.2542  0.4801
 3651SOL     OW22588   0.960   0.464   8.387  0.2736  0.8238 -0.0559
 3651SOL    HW122589   0.905   0.385   8.384 -0.0117  1.0514 -0.6258
 3651SOL    HW222590   0.904   0.516   8.445  1.3717 -1.5362  3.1499
 3652SOL     OW22591   1.201   4.446   4.768  0.4588  0.2756 -0.0604
 3652SOL    HW122592   1.277   4.500   4.746  0.7533 -0.5172 -0.9841
 3652SOL    HW222593   1.132   4.470   4.706 -0.3498  1.0242  1.1267
 3653SOL     OW22594   0.709   0.586   7.613  0.1413  0.2299  0.5965
 3653SOL    HW122595   0.659   0.532   7.674  2.5731 -1.9317  0.6631
 3653SOL    HW222596   0.798   0.556   7.632  0.2746 -0.0188 -0.3955
 3654SOL     OW22597   1.758   3.361   7.797 -0.4560  0.3756 -0.1283
 3654SOL    HW122598   1.666   3.357   7.770  0.1813 -2.2098 -1.9673
 3654SOL    HW222599   1.782   3.271   7.817 -0.3651  0.8083  1.7409
 3655SOL     OW22600   4.244   4.529   7.916 -0.2174 -0.6216 -0.3727
 3655SOL    HW122601   4.305   4.466   7.877  0.0968 -0.7912  0.3957
 3655SOL    HW222602   4.185   4.473   7.967 -0.0165  0.5635  1.1673
 3656SOL     OW22603   4.484   1.510   9.724  0.1677  0.4359  0.8382
 3656SOL    HW122604   4.528   1.507   9.639 -1.3092  1.5116  0.0276
 3656SOL    HW222605   4.412   1.572   9.710  1.1558  0.9102 -2.0532
 3657SOL     OW22606   1.879   3.976   3.961  0.0262  0.9512 -0.4537
 3657SOL    HW122607   1.804   4.035   3.954  1.8126  3.3908  0.7475
 3657SOL    HW222608   1.833   3.901   3.924  1.2291 -0.3689  0.7553
 3658SOL     OW22609   4.161   0.846   6.861 -0.2274  0.0120 -0.2550
 3658SOL    HW122610   4.153   0.772   6.921  0.5376 -1.5066 -2.0311
 3658SOL    HW222611   4.206   0.912   6.914  0.4029  1.1028 -2.1662
 3659SOL     OW22612   0.905   2.295   4.706  0.8750  0.4277 -0.6693
 3659SOL    HW122613   0.991   2.311   4.667 -0.0491 -0.6785 -3.1271
 3659SOL    HW222614   0.844   2.341   4.648  0.1784  3.2116  2.2989
 3660SOL     OW22615   4.599   1.304   6.045 -0.2946 -0.7742 -0.7897
 3660SOL    HW122616   4.576   1.360   5.971  1.6365 -0.1126 -0.8984
 3660SOL    HW222617   4.532   1.327   6.108  1.2652  0.3053  0.4668
 3661SOL     OW22618   3.115   3.059   1.084 -0.0861  0.2159  0.6648
 3661SOL    HW122619   3.024   3.088   1.094 -0.1848  0.0563  0.2157
 3661SOL    HW222620   3.130   3.048   1.178  0.5465  1.7053  0.7432
 3662SOL     OW22621   4.065   4.550   8.250 -0.0365  0.6402  0.3283
 3662SOL    HW122622   3.982   4.504   8.266 -0.6292  1.5721 -0.0650
 3662SOL    HW222623   4.122   4.486   8.293  0.1386  2.2459  2.4698
 3663SOL     OW22624   0.759   3.185  15.571  0.3907  0.1324 -0.2295
 3663SOL    HW122625   0.836   3.209  15.520 -0.5922  0.4627 -1.5758
 3663SOL    HW222626   0.696   3.253  15.544 -0.3039 -0.3226  0.2456
 3664SOL     OW22627   2.467   3.062  14.563  0.2115  0.7797 -0.3185
 3664SOL    HW122628   2.439   2.999  14.629  2.9152  1.9132  1.8942
 3664SOL    HW222629   2.521   3.009  14.505 -1.1903  0.9512 -1.7858
 3665SOL     OW22630   4.340   1.636   2.569 -0.2014 -0.3370 -0.0150
 3665SOL    HW122631   4.398   1.653   2.495 -1.1219  2.3858 -0.1111
 3665SOL    HW222632   4.321   1.545   2.544  0.4334 -1.4499  3.5495
 3666SOL     OW22633   1.510   3.844   7.811  0.5890 -0.2192 -0.3190
 3666SOL    HW122634   1.450   3.770   7.809  1.3319 -0.7638 -2.0191
 3666SOL    HW222635   1.482   3.888   7.891  1.5044 -0.9295  0.3841
 3667SOL     OW22636   0.675   3.790   9.883 -0.0657  0.4581  0.1103
 3667SOL    HW122637   0.592   3.837   9.885 -0.9379 -1.1955  2.3508
 3667SOL    HW222638   0.694   3.795   9.977 -1.8774  2.5777  0.3743
 3668SOL     OW22639   2.504   2.150   7.223  0.0430 -0.6598 -0.1361
 3668SOL    HW122640   2.546   2.066   7.204 -2.0086 -0.9861 -3.2921
 3668SOL    HW222641   2.568   2.200   7.173 -0.2215  0.9390  1.1179
 3669SOL     OW22642   3.706   2.426   2.383  0.0580 -0.3488  0.0929
 3669SOL    HW122643   3.741   2.405   2.469 -1.6238  0.2355  0.9277
 3669SOL    HW222644   3.702   2.522   2.387  0.0407 -0.2327 -2.6211
 3670SOL     OW22645   0.664   3.652   2.490  0.9145 -0.5241 -0.8326
 3670SOL    HW122646   0.710   3.659   2.574  1.2954 -1.2789 -0.9728
 3670SOL    HW222647   0.731   3.631   2.425 -0.2357 -0.9879 -1.8564
 3671SOL     OW22648   4.161   4.197   6.369  0.2054 -0.0413  0.2587
 3671SOL    HW122649   4.089   4.135   6.357 -1.9820  3.0467 -2.4228
 3671SOL    HW222650   4.125   4.278   6.334 -2.1539 -1.3437 -0.3305
 3672SOL     OW22651   3.034   4.384   6.877 -0.1304  0.0247 -0.4051
 3672SOL    HW122652   3.031   4.295   6.841  0.7402 -0.1049 -0.1760
 3672SOL    HW222653   3.081   4.432   6.808 -0.1371  0.2697 -0.2377
 3673SOL     OW22654   2.380   3.039   7.695 -0.1955 -0.6322  0.4992
 3673SOL    HW122655   2.331   2.957   7.694  2.4632 -2.2018  0.0737
 3673SOL    HW222656   2.310   3.089   7.652  1.0360 -1.2710 -2.2139
 3674SOL     OW22657   3.826   1.817   7.335 -0.1547 -0.1189 -0.0845
 3674SOL    HW122658   3.776   1.848   7.410 -0.5835 -0.5538 -0.1945
 3674SOL    HW222659   3.874   1.898   7.319  0.3333 -0.2222  0.8664
 3675SOL     OW22660   4.130   0.258   0.281 -0.2259 -0.3161  0.2069
 3675SOL    HW122661   4.153   0.262   0.374  0.3519 -2.4791  0.1531
 3675SOL    HW222662   4.221   0.276   0.257  0.0031 -1.2927  0.3491
 3676SOL     OW22663   1.147   1.362   5.465  0.2866 -0.5463 -0.1863
 3676SOL    HW122664   1.163   1.444   5.419  0.9477 -0.1387  0.7664
 3676SOL    HW222665   1.067   1.378   5.515  1.6164  0.7709  1.5313
 3677SOL     OW22666   3.471   4.511   3.903  0.9259  0.9679  0.1552
 3677SOL    HW122667   3.406   4.447   3.875  0.9264  1.1363 -0.2304
 3677SOL    HW222668   3.536   4.496   3.834  0.4954  0.0830 -0.0524
 3678SOL     OW22669   2.195   1.238  10.673 -0.1527 -0.3243  0.2673
 3678SOL    HW122670   2.281   1.198  10.684  0.0699  0.1956  0.4124
 3678SOL    HW222671   2.136   1.174  10.713 -0.0216  0.3250  1.4882
 3679SOL     OW22672   4.176   2.823  10.505  0.9630  0.1706  0.4588
 3679SOL    HW122673   4.131   2.761  10.562  1.7074 -1.4065 -0.6853
 3679SOL    HW222674   4.256   2.772  10.490  1.1458 -0.4258  3.4586
 3680SOL     OW22675   1.898   3.085   8.212  0.2038 -0.1953 -0.3974
 3680SOL    HW122676   1.943   3.011   8.252 -0.3491 -0.6864 -0.6805
 3680SOL    HW222677   1.851   3.106   8.292 -0.4567 -2.1372 -0.2723
 3681SOL     OW22678   3.547   0.311   4.173  0.1632 -0.7093 -0.0455
 3681SOL    HW122679   3.460   0.351   4.169  0.8444  0.9179  1.2646
 3681SOL    HW222680   3.545   0.260   4.092  3.0005  0.3522 -0.8059
 3682SOL     OW22681   0.829   2.475   7.093 -0.6543  0.3371 -0.3804
 3682SOL    HW122682   0.885   2.400   7.114  2.2460  2.8503  0.9458
 3682SOL    HW222683   0.871   2.491   7.008 -0.7789 -1.0027 -0.7047
 3683SOL     OW22684   3.833   4.558   9.702 -0.1124 -0.1024  0.5975
 3683SOL    HW122685   3.810   4.505   9.626 -0.1981  2.7454 -1.3640
 3683SOL    HW222686   3.911   4.603   9.670  0.0665 -0.4338  0.5638
 3684SOL     OW22687   2.715   4.250   9.774  0.4641 -0.5937  0.9850
 3684SOL    HW122688   2.788   4.297   9.736  1.0056  0.4245  3.2505
 3684SOL    HW222689   2.712   4.304   9.853  1.2007 -0.4836  0.9320
 3685SOL     OW22690   0.563   3.761   7.705  0.3073 -0.6650 -0.0077
 3685SOL    HW122691   0.522   3.686   7.747  0.6728 -1.6389 -1.3946
 3685SOL    HW222692   0.585   3.739   7.614 -0.5686 -0.0283 -0.3724
 3686SOL     OW22693   1.308   3.892   5.712  0.0612  0.2500  0.4291
 3686SOL    HW122694   1.318   3.947   5.790 -1.0335  0.9567  0.0665
 3686SOL    HW222695   1.294   3.812   5.764  0.2239 -0.6580 -0.9314
 3687SOL     OW22696   0.998   0.181   3.200  0.8831  0.1106  0.0357
 3687SOL    HW122697   0.950   0.170   3.118  2.2597 -2.6592 -0.4010
 3687SOL    HW222698   0.988   0.101   3.252  2.0022  0.7208  1.1862
 3688SOL     OW22699   2.968   2.082  16.249  0.1248  0.0403 -0.0389
 3688SOL    HW122700   3.015   2.130  16.181  0.8793  1.6320  1.6097
 3688SOL    HW222701   3.034   2.091  16.318  0.4178 -0.8317 -0.1935
 3689SOL     OW22702   1.498   2.647   4.100 -0.6290  0.2944 -0.0493
 3689SOL    HW122703   1.573   2.648   4.041 -0.0659 -0.6747  0.6601
 3689SOL    HW222704   1.428   2.670   4.038 -0.3904  3.0258  0.7086
 3690SOL     OW22705   3.255   2.292   5.984 -0.1326 -0.1053 -1.0503
 3690SOL    HW122706   3.234   2.247   5.902 -2.0103  0.4296 -0.8648
 3690SOL    HW222707   3.344   2.325   5.973  1.1646 -2.8346  1.0834
 3691SOL     OW22708   3.734   3.653   8.859  0.0474 -0.0800 -0.3296
 3691SOL    HW122709   3.708   3.561   8.866  0.5476 -0.2628 -0.8059
 3691SOL    HW222710   3.656   3.686   8.815 -2.7132 -0.5325  4.1856
 3692SOL     OW22711   0.262   1.323   8.309  0.1136 -0.0275  0.2844
 3692SOL    HW122712   0.280   1.417   8.304 -0.4826  0.0346 -0.6107
 3692SOL    HW222713   0.167   1.334   8.312  0.0395 -1.0398  1.2789
 3693SOL     OW22714   1.644   3.048   8.751 -0.3928  0.2544  0.1915
 3693SOL    HW122715   1.731   3.065   8.787 -0.6591 -1.8099  1.8045
 3693SOL    HW222716   1.632   3.135   8.712 -0.5764 -0.3120 -0.9949
 3694SOL     OW22717   1.524   4.234   3.205 -0.0048  0.6690  0.0051
 3694SOL    HW122718   1.557   4.220   3.294  1.5938  1.6832 -0.4305
 3694SOL    HW222719   1.437   4.195   3.207 -0.7172  2.2859  1.2378
 3695SOL     OW22720   1.492   0.893   0.166 -0.0125  0.1802  0.4420
 3695SOL    HW122721   1.455   0.981   0.178 -1.4750 -0.4152  0.2809
 3695SOL    HW222722   1.473   0.861   0.254 -2.5846  1.3499  0.3147
 3696SOL     OW22723   1.450   0.305   0.808  0.0470 -0.2595  0.4501
 3696SOL    HW122724   1.453   0.393   0.844  1.5863  0.5053 -1.5435
 3696SOL    HW222725   1.364   0.307   0.765  0.3447 -0.8315 -0.1856
 3697SOL     OW22726   2.965   2.889   1.816  0.3232 -0.1031  0.1209
 3697SOL    HW122727   2.918   2.817   1.773  0.8555 -1.5153  1.8931
 3697SOL    HW222728   3.011   2.916   1.737 -1.6650 -2.6088 -1.8927
 3698SOL     OW22729   2.662   0.266   7.492  0.1703  0.0550  0.1193
 3698SOL    HW122730   2.594   0.331   7.475  0.8454  0.9749  0.9075
 3698SOL    HW222731   2.648   0.243   7.583  1.0336  1.9794  0.7352
 3699SOL     OW22732   4.666   0.747   3.063  0.1406  0.4788  0.1254
 3699SOL    HW122733   4.574   0.743   3.088  0.3098 -1.3018  0.4240
 3699SOL    HW222734   4.702   0.722   3.148 -1.6390 -1.3328  0.3274
 3700SOL     OW22735   3.579   1.440   5.598  0.4894  0.2281 -0.2505
 3700SOL    HW122736   3.595   1.379   5.525  0.4286  0.6645 -0.6273
 3700SOL    HW222737   3.485   1.457   5.592  0.2455 -0.6590  0.9884
 3701SOL     OW22738   4.165   1.386   3.688 -0.0937 -0.1718  0.1694
 3701SOL    HW122739   4.080   1.393   3.645 -0.5434  1.2975  1.2993
 3701SOL    HW222740   4.206   1.467   3.659 -0.3149  0.4224  1.5334
 3702SOL     OW22741   0.544   3.938   0.267  0.5703 -0.0557  0.1425
 3702SOL    HW122742   0.600   3.915   0.341 -0.1749 -0.5559  0.5514
 3702SOL    HW222743   0.460   3.910   0.306 -0.0845  0.7201 -0.7151
 3703SOL     OW22744   0.477   2.566   0.669 -0.4739 -0.3815  0.4597
 3703SOL    HW122745   0.391   2.604   0.689  0.0152  0.4036  1.0598
 3703SOL    HW222746   0.536   2.640   0.683 -3.2915  1.9144  0.2026
 3704SOL     OW22747   1.087   0.489   4.110  0.3218  0.0150  0.0283
 3704SOL    HW122748   1.168   0.494   4.060 -0.8075 -1.4459 -1.9142
 3704SOL    HW222749   1.130   0.455   4.188  1.5308 -2.0671 -1.5465
 3705SOL     OW22750   0.148   2.502  11.372 -0.1069  0.7316 -0.9238
 3705SOL    HW122751   0.130   2.442  11.445 -0.7058 -0.1823 -1.8375
 3705SOL    HW222752   0.221   2.551  11.411  0.1443  0.1839 -0.6929
 3706SOL     OW22753   3.449   2.216   9.155 -0.2673  0.1047 -0.3995
 3706SOL    HW122754   3.489   2.266   9.227 -3.8119  3.2635 -0.6803
 3706SOL    HW222755   3.356   2.234   9.167 -0.3925 -0.8161  0.0266
 3707SOL     OW22756   2.070   4.705   2.468  0.5612 -0.0658  0.3658
 3707SOL    HW122757   2.070   4.649   2.390 -2.3588  1.2580 -0.5845
 3707SOL    HW222758   2.150   0.014   2.446 -0.4344  1.5685  0.1611
 3708SOL     OW22759   2.746   1.461  14.695 -0.1479  0.5858 -0.3692
 3708SOL    HW122760   2.826   1.421  14.660 -0.2513  0.6273 -0.6581
 3708SOL    HW222761   2.725   1.528  14.630 -1.6804  0.8400  0.3945
 3709SOL     OW22762   3.485   2.760   6.403 -0.4496 -0.4353  0.1789
 3709SOL    HW122763   3.538   2.685   6.427  2.6587  1.8392  0.3258
 3709SOL    HW222764   3.556   2.813   6.366 -1.3951  1.4124  0.9837
 3710SOL     OW22765   0.619   0.651  15.052  0.2159  0.6270  0.2753
 3710SOL    HW122766   0.561   0.595  15.001  0.9549  0.7219 -0.6652
 3710SOL    HW222767   0.586   0.639  15.141  3.4014  1.4134  1.5708
 3711SOL     OW22768   2.889   1.062   2.482  0.3409 -0.0600  0.3496
 3711SOL    HW122769   2.801   1.024   2.483  0.8490 -1.2780 -2.4724
 3711SOL    HW222770   2.946   0.985   2.483 -1.6221 -1.5122  0.8848
 3712SOL     OW22771   0.946   2.034  10.957  0.4249 -0.0550  0.5721
 3712SOL    HW122772   0.980   2.104  10.902 -1.6270  1.0134  0.6562
 3712SOL    HW222773   0.892   2.086  11.017  1.1807  0.4416  0.8175
 3713SOL     OW22774   2.030   1.410   6.138 -0.1382  0.0361  0.2129
 3713SOL    HW122775   2.018   1.430   6.231 -0.1729 -4.0129  1.0798
 3713SOL    HW222776   1.950   1.450   6.103  0.4336 -0.7710 -1.9941
 3714SOL     OW22777   4.567   0.252   6.257 -0.2026 -1.1615  0.1020
 3714SOL    HW122778   4.579   0.273   6.350  0.9452 -1.5983  0.0463
 3714SOL    HW222779   4.628   0.181   6.240  2.3982  0.6260  1.8605
 3715SOL     OW22780   0.643   3.449  15.531 -0.1260 -0.1312 -0.1820
 3715SOL    HW122781   0.719   3.418  15.483 -0.6298 -1.6209 -0.0128
 3715SOL    HW222782   0.588   3.463  15.453  1.0785  1.6787 -0.7053
 3716SOL     OW22783   4.448   2.281  16.657 -0.1539 -0.2666 -0.6308
 3716SOL    HW122784   4.528   2.299  16.607  0.7729  0.8633  1.2733
 3716SOL    HW222785   4.385   2.315  16.594 -1.8424  0.3733  1.4351
 3717SOL     OW22786   0.244   0.103   4.304 -0.6552  0.3788 -0.6541
 3717SOL    HW122787   0.155   0.088   4.336  0.6052  2.2910  3.7572
 3717SOL    HW222788   0.239   0.187   4.257 -2.1401 -0.4998 -2.0902
 3718SOL     OW22789   1.497   0.506  17.545 -0.1462 -0.1131  0.4899
 3718SOL    HW122790   1.492   0.580  17.606 -1.0784  0.9580 -0.8797
 3718SOL    HW222791   1.588   0.478  17.554  0.4110  1.2695 -0.8546
 3719SOL     OW22792   4.136   4.165   3.267 -0.3151 -0.2456  0.8536
 3719SOL    HW122793   4.202   4.218   3.224 -1.1571 -0.1707 -0.3572
 3719SOL    HW222794   4.180   4.081   3.274 -0.7175 -0.5133  0.1404
 3720SOL     OW22795   1.533   0.793   8.599  0.7846 -0.1785 -0.6521
 3720SOL    HW122796   1.536   0.807   8.693  1.4296 -0.7016 -0.5908
 3720SOL    HW222797   1.492   0.874   8.569 -0.3282 -0.7398 -0.6654
 3721SOL     OW22798   3.011   0.269  10.205  0.1609 -0.8248  0.6469
 3721SOL    HW122799   3.075   0.317  10.257 -1.7704  0.7045  1.6024
 3721SOL    HW222800   2.922   0.289  10.236  0.0643 -2.4729  1.4603
 3722SOL     OW22801   0.476   2.581   8.803  0.0551 -0.1385 -0.2655
 3722SOL    HW122802   0.514   2.511   8.855 -0.4115  0.4324  0.8288
 3722SOL    HW222803   0.527   2.662   8.812 -2.1879  1.3338 -0.9765
 3723SOL     OW22804   3.269   0.174   6.180  0.0351 -0.1283 -0.2358
 3723SOL    HW122805   3.212   0.097   6.173  0.7149 -0.7864  1.4024
 3723SOL    HW222806   3.313   0.152   6.098 -0.8398  0.2446 -0.8105
 3724SOL     OW22807   2.722   1.460   9.194 -0.2457 -0.4495  0.2859
 3724SOL    HW122808   2.637   1.489   9.162  0.9123 -0.2182 -2.6505
 3724SOL    HW222809   2.754   1.535   9.245  1.3321 -2.2352  1.8856
 3725SOL     OW22810   4.642   4.637   6.172  0.3671  0.5195  0.5002
 3725SOL    HW122811   4.708   4.569   6.187  1.8889  2.0140  0.5752
 3725SOL    HW222812   4.672   4.675   6.090  2.1491  0.2914  1.0363
 3726SOL     OW22813   4.656   1.758   5.605  0.1000 -0.6339  0.2667
 3726SOL    HW122814   4.708   1.820   5.656  0.4588 -2.2140  1.8067
 3726SOL    HW222815   4.579   1.743   5.660 -0.8721  1.0673 -0.6214
 3727SOL     OW22816   1.310   2.447  15.153 -0.0946  0.1738 -0.3311
 3727SOL    HW122817   1.311   2.379  15.219 -0.0547 -1.5756 -2.1373
 3727SOL    HW222818   1.329   2.388  15.080 -2.2207 -0.4799 -0.3332
 3728SOL     OW22819   4.629   1.978  13.920 -0.5639  0.6313  0.0912
 3728SOL    HW122820   4.538   1.952  13.908  0.5731 -1.6783 -3.9273
 3728SOL    HW222821   4.622   2.064  13.961  0.9379 -0.6242  2.9315
 3729SOL     OW22822   0.605   4.315   3.117 -0.1100  0.3457 -1.1891
 3729SOL    HW122823   0.510   4.317   3.111 -0.2332 -0.1367  0.4252
 3729SOL    HW222824   0.620   4.242   3.056  0.4908 -0.0254 -0.6070
 3730SOL     OW22825   3.448   4.634  11.825 -0.2707  0.3566 -0.1506
 3730SOL    HW122826   3.466   4.550  11.782  0.1504  0.5382 -0.3264
 3730SOL    HW222827   3.356   4.624  11.852 -0.6642  0.9701 -1.2487
 3731SOL     OW22828   2.167   2.137   3.902  0.0955 -0.4483  0.0156
 3731SOL    HW122829   2.145   2.050   3.933 -1.7084 -0.2087 -0.5638
 3731SOL    HW222830   2.124   2.190   3.970 -0.4181  0.6647 -1.1594
 3732SOL     OW22831   0.193   0.851  17.338  0.0335  0.0799 -0.5813
 3732SOL    HW122832   0.235   0.934  17.357  0.3546 -0.7906  2.5901
 3732SOL    HW222833   0.188   0.849  17.243  0.0286  1.0972 -0.6023
 3733SOL     OW22834   0.801   0.893   2.287  0.4280  0.1771  0.0194
 3733SOL    HW122835   0.851   0.881   2.206 -0.2432 -0.2755 -0.3257
 3733SOL    HW222836   0.856   0.842   2.346  1.9961  0.3979 -1.2609
 3734SOL     OW22837   0.920   4.211   7.641  0.1741 -0.2243  0.0091
 3734SOL    HW122838   0.963   4.158   7.573 -0.5882  1.0384 -1.4489
 3734SOL    HW222839   0.964   4.188   7.723 -1.2063 -0.8801  0.5723
 3735SOL     OW22840   2.842   3.088   2.640 -0.1840  0.1503 -0.6688
 3735SOL    HW122841   2.844   3.151   2.712  0.7138  0.1258 -0.6722
 3735SOL    HW222842   2.795   3.138   2.574 -0.7727 -0.4640 -0.7105
 3736SOL     OW22843   0.630   3.739  13.739 -0.1738  0.6602  0.2056
 3736SOL    HW122844   0.670   3.700  13.661 -1.7029 -0.6376  0.0662
 3736SOL    HW222845   0.539   3.759  13.715  0.4169  1.1418 -1.6017
 3737SOL     OW22846   1.349   0.457   7.718 -0.4615 -0.8994 -0.1931
 3737SOL    HW122847   1.444   0.457   7.701 -0.6050  0.2227 -0.9263
 3737SOL    HW222848   1.354   0.414   7.804 -2.9754 -0.6644  0.0489
 3738SOL     OW22849   2.410   4.320   2.922  0.3694  0.8829 -0.1965
 3738SOL    HW122850   2.336   4.270   2.887 -0.2329  0.7689  1.2429
 3738SOL    HW222851   2.488   4.266   2.905  0.2684  0.6929 -0.0522
 3739SOL     OW22852   0.733   0.246  15.482  0.3376 -0.0402 -0.6151
 3739SOL    HW122853   0.792   0.173  15.460 -1.0551 -1.1516 -0.6968
 3739SOL    HW222854   0.788   0.316  15.515 -0.2707 -0.5076  1.3787
 3740SOL     OW22855   3.401   0.382  11.947  0.1712 -0.2135 -0.5415
 3740SOL    HW122856   3.463   0.317  11.980 -0.7378 -1.3119 -1.0101
 3740SOL    HW222857   3.319   0.336  11.962  2.0805 -3.0467  1.1499
 3741SOL     OW22858   2.085   3.041   3.571 -0.4522 -0.2929 -0.1641
 3741SOL    HW122859   2.164   3.046   3.517 -0.1851 -3.3118 -0.0820
 3741SOL    HW222860   2.104   3.097   3.647 -1.0885 -0.7291  0.3183
 3742SOL     OW22861   3.723   4.677  11.168  0.1248  0.3422  0.5959
 3742SOL    HW122862   3.790   4.624  11.210 -1.9613 -2.1136  0.8021
 3742SOL    HW222863   3.648   4.624  11.197  0.3748  0.2658  1.0915
 3743SOL     OW22864   4.471   4.457   4.577 -0.4574 -0.8499 -0.3329
 3743SOL    HW122865   4.504   4.399   4.508  2.2317  0.9340 -0.5640
 3743SOL    HW222866   4.553   4.475   4.624 -2.5777  1.8889  2.2847
 3744SOL     OW22867   4.576   4.499   8.616  0.5482 -0.1531 -0.2960
 3744SOL    HW122868   4.503   4.444   8.586  1.9353 -2.7365  1.0266
 3744SOL    HW222869   4.634   4.488   8.541  0.9814 -0.0647  0.0235
 3745SOL     OW22870   2.673   4.320  10.504  0.0814 -0.0535 -0.4684
 3745SOL    HW122871   2.602   4.331  10.442 -0.1098  0.1532 -0.2127
 3745SOL    HW222872   2.706   4.410  10.505  0.4783 -0.2035 -0.1878
 3746SOL     OW22873   1.294   3.026   2.802 -0.2619  0.0168  0.1683
 3746SOL    HW122874   1.279   3.120   2.813  0.9858  0.0004  2.0549
 3746SOL    HW222875   1.278   3.017   2.708  0.6097  1.6509 -0.1442
 3747SOL     OW22876   2.265   3.995   9.347 -0.5672  0.5624  0.3896
 3747SOL    HW122877   2.350   4.033   9.369  0.6235 -2.4385  0.9409
 3747SOL    HW222878   2.228   4.053   9.281 -1.4914 -2.0269 -1.3639
 3748SOL     OW22879   0.029   1.951   5.738  0.3924 -0.0575 -0.5464
 3748SOL    HW122880   0.041   2.036   5.694 -0.9870  1.4871  2.0915
 3748SOL    HW222881   0.015   1.982   5.827  0.7538  1.0842 -0.8826
 3749SOL     OW22882   1.270   1.923   8.875 -0.3343  0.3148 -0.1594
 3749SOL    HW122883   1.215   1.947   8.800  0.1784  0.5582 -0.4580
 3749SOL    HW222884   1.277   1.828   8.869  1.8091  0.4220  0.5889
 3750SOL     OW22885   3.238   4.589   7.563  0.4408 -0.3086 -0.1152
 3750SOL    HW122886   3.143   4.596   7.552  0.1581 -2.2582  1.0188
 3750SOL    HW222887   3.271   4.657   7.504  2.4677 -0.1641  1.1871
 3751SOL     OW22888   3.251   0.041   2.371  0.1783  0.0547  0.0149
 3751SOL    HW122889   3.235   0.130   2.338  1.2552  0.6244  1.0189
 3751SOL    HW222890   3.176   4.734   2.331  0.6101 -1.0356  0.4464
 3752SOL     OW22891   1.948   1.615  12.605  0.0111  0.6564 -0.9192
 3752SOL    HW122892   1.967   1.562  12.528 -0.2993  0.7767 -1.0800
 3752SOL    HW222893   1.866   1.570  12.627  1.8502 -1.6420  1.3201
 3753SOL     OW22894   1.104   1.976  12.105 -0.4316  0.4375  0.0874
 3753SOL    HW122895   1.076   2.065  12.084 -2.3599 -0.4029 -0.9163
 3753SOL    HW222896   1.199   1.989  12.114 -0.8156  2.0003  1.7127
 3754SOL     OW22897   2.106   2.554  12.301 -0.4530 -0.1986  0.2024
 3754SOL    HW122898   2.082   2.477  12.250 -1.2673  0.5636 -0.5446
 3754SOL    HW222899   2.094   2.526  12.392  1.5149  0.0238  0.5434
 3755SOL     OW22900   2.844   3.657  10.419 -0.3738 -0.7987 -0.0905
 3755SOL    HW122901   2.874   3.748  10.410 -1.6815 -0.2473  1.0366
 3755SOL    HW222902   2.929   3.617  10.437  0.1603  0.1269 -0.5828
 3756SOL     OW22903   3.142   3.147  12.385 -0.9346 -0.3069 -0.4166
 3756SOL    HW122904   3.132   3.166  12.479 -1.4743 -1.6447 -0.2108
 3756SOL    HW222905   3.053   3.135  12.352 -1.6089  1.1683  0.8366
 3757SOL     OW22906   4.422   2.055   7.823  0.4503  0.2328  0.1209
 3757SOL    HW122907   4.456   1.973   7.858 -0.5494  0.1527  0.9142
 3757SOL    HW222908   4.398   2.105   7.901  1.3712  3.1385 -1.4418
 3758SOL     OW22909   0.894   0.762   3.942 -0.4639 -0.0462  0.6532
 3758SOL    HW122910   0.854   0.691   3.993 -1.6892  0.0843 -0.1534
 3758SOL    HW222911   0.985   0.731   3.939 -1.1657 -2.1928  1.8561
 3759SOL     OW22912   4.498   3.778   7.595  0.0267  0.0119 -0.2853
 3759SOL    HW122913   4.508   3.835   7.519  0.5163 -1.6339 -1.4665
 3759SOL    HW222914   4.412   3.803   7.629 -0.4204 -0.1285 -1.3325
 3760SOL     OW22915   3.291   1.612   9.719 -0.1526  0.1251 -0.0586
 3760SOL    HW122916   3.383   1.596   9.740  0.7408  3.8033 -1.2441
 3760SOL    HW222917   3.260   1.523   9.701 -1.7065  0.5862  0.3107
 3761SOL     OW22918   1.147   0.943  11.142 -0.3008 -0.1686  0.3633
 3761SOL    HW122919   1.194   0.990  11.073 -0.8798 -0.1940 -0.0449
 3761SOL    HW222920   1.091   0.884  11.092 -0.2305  1.3408 -1.4727
 3762SOL     OW22921   0.292   3.128   5.487 -0.4696  0.0576  0.3757
 3762SOL    HW122922   0.302   3.087   5.400  0.3261 -0.1347  0.5522
 3762SOL    HW222923   0.355   3.199   5.474  1.8536 -1.7799  1.5588
 3763SOL     OW22924   2.571   3.551   3.824  0.4011 -0.3079  0.0639
 3763SOL    HW122925   2.619   3.481   3.866 -1.9766 -2.2752 -0.4980
 3763SOL    HW222926   2.520   3.502   3.759  1.8945  0.6219 -1.7840
 3764SOL     OW22927   0.633   3.479  16.534 -0.0857  0.0048  0.5114
 3764SOL    HW122928   0.652   3.520  16.618  0.4433 -1.6793  1.2060
 3764SOL    HW222929   0.712   3.501  16.484 -2.0201  0.5660 -2.3160
 3765SOL     OW22930   2.191   1.419  12.645  0.5261  0.3478  0.2780
 3765SOL    HW122931   2.209   1.385  12.557  0.1345  0.4766  0.1500
 3765SOL    HW222932   2.098   1.414  12.663  0.7603  1.8749  1.8978
 3766SOL     OW22933   1.991   1.788   6.297  0.2905  0.0060 -0.1620
 3766SOL    HW122934   1.973   1.694   6.290 -0.6936 -0.0023  2.4774
 3766SOL    HW222935   1.931   1.802   6.224 -0.9849  1.9677  1.2614
 3767SOL     OW22936   3.313   3.330   0.602  0.5153 -0.0559  0.0592
 3767SOL    HW122937   3.402   3.294   0.595  0.4169 -0.4704  0.9681
 3767SOL    HW222938   3.278   3.280   0.675  2.9235 -1.0272  0.5338
 3768SOL     OW22939   0.496   2.691  14.165  0.5417 -0.1038  0.5768
 3768SOL    HW122940   0.513   2.718  14.255  0.2143  2.8438 -0.2600
 3768SOL    HW222941   0.545   2.763  14.125 -1.0114  0.0663 -1.0142
 3769SOL     OW22942   2.360   3.977   5.992 -0.1187 -0.2831  0.0835
 3769SOL    HW122943   2.355   3.887   6.024  1.7571 -0.6175 -0.5372
 3769SOL    HW222944   2.437   4.014   6.036 -0.0325  0.7699 -0.9652
 3770SOL     OW22945   1.371   1.847  12.639  0.0756  0.0901 -0.0742
 3770SOL    HW122946   1.377   1.879  12.549  0.5401 -1.0139 -0.4257
 3770SOL    HW222947   1.289   1.886  12.669  0.3368  0.8579 -0.3409
 3771SOL     OW22948   2.773   0.493   4.228  0.3617  0.3356 -0.3767
 3771SOL    HW122949   2.820   0.553   4.170 -2.2277  2.1601 -0.6226
 3771SOL    HW222950   2.742   0.430   4.163 -1.2200 -1.0131  1.7067
 3772SOL     OW22951   1.292   2.331   8.052 -0.0649 -0.4737  1.0554
 3772SOL    HW122952   1.305   2.422   8.025 -3.6493 -1.1991 -3.0900
 3772SOL    HW222953   1.384   2.305   8.053  1.2575  4.4687  3.2949
 3773SOL     OW22954   4.334   4.187   5.214 -0.0503 -0.2663 -0.8108
 3773SOL    HW122955   4.327   4.267   5.162 -3.8443  0.5396  0.9565
 3773SOL    HW222956   4.371   4.228   5.292 -0.7576 -1.9773  0.4189
 3774SOL     OW22957   1.641   0.980   0.848 -0.1919 -0.8094  0.0666
 3774SOL    HW122958   1.589   0.913   0.803 -0.1061 -2.6042  2.6693
 3774SOL    HW222959   1.703   1.018   0.786 -0.5794  2.8797  1.9101
 3775SOL     OW22960   3.788   0.757   5.177  0.2742 -0.6777  0.2985
 3775SOL    HW122961   3.732   0.679   5.172  2.5140 -2.3380  1.3312
 3775SOL    HW222962   3.720   0.822   5.195  0.1170 -0.6546 -0.3774
 3776SOL     OW22963   4.439   2.412  17.720  0.5842  0.5197 -0.1583
 3776SOL    HW122964   4.421   2.470  17.646 -1.2723 -1.3581 -1.1911
 3776SOL    HW222965   4.348   2.397  17.747  0.9675  0.7432  1.2784
 3777SOL     OW22966   0.977   0.610   6.121 -0.1557  0.1108  0.7835
 3777SOL    HW122967   0.891   0.579   6.093 -0.4365  0.0097  1.7834
 3777SOL    HW222968   0.943   0.677   6.180 -2.5047  0.1189 -0.5886
 3778SOL     OW22969   0.236   1.949   7.853 -0.2923 -0.0925 -0.3064
 3778SOL    HW122970   0.186   2.014   7.805  1.1463  1.3703  0.1649
 3778SOL    HW222971   0.312   1.995   7.891  0.4487 -1.3725 -0.2175
 3779SOL     OW22972   3.651   1.270   5.363 -0.4586  0.4176  0.1266
 3779SOL    HW122973   3.703   1.192   5.342 -1.5379 -0.1439 -0.4264
 3779SOL    HW222974   3.569   1.226   5.386 -0.1919  0.3645  0.9960
 3780SOL     OW22975   1.434   1.554   6.311 -0.3069 -0.7858  0.1615
 3780SOL    HW122976   1.390   1.519   6.234  1.0775 -2.2455  0.0237
 3780SOL    HW222977   1.367   1.536   6.376  0.7711 -0.6783  1.3001
 3781SOL     OW22978   3.912   2.976   8.678  0.2044  0.6186 -0.2243
 3781SOL    HW122979   3.837   2.934   8.720  0.2509  1.2904  0.5301
 3781SOL    HW222980   3.865   3.015   8.604  1.0011  0.1989 -0.9603
 3782SOL     OW22981   1.485   3.725  10.589 -0.2382  0.0617  0.8691
 3782SOL    HW122982   1.469   3.696  10.679  0.4463  1.6982  1.5221
 3782SOL    HW222983   1.577   3.753  10.590 -0.1123 -0.2802 -1.6098
 3783SOL     OW22984   4.383   1.622   7.772 -0.1230  0.6504  0.1106
 3783SOL    HW122985   4.436   1.567   7.714 -0.1428  0.0155  0.6836
 3783SOL    HW222986   4.331   1.555   7.816  0.9695  1.1122  2.1293
 3784SOL     OW22987   0.694   1.742   8.319  0.5445  0.3458 -0.1390
 3784SOL    HW122988   0.649   1.664   8.289  1.3428  1.1072 -3.3433
 3784SOL    HW222989   0.626   1.810   8.318  0.1342 -0.0350  2.5731
 3785SOL     OW22990   1.489   4.310  15.195  0.0902  0.2467  0.3057
 3785SOL    HW122991   1.405   4.263  15.197 -0.6147  1.4875  0.3429
 3785SOL    HW222992   1.498   4.322  15.101 -2.0420  1.2002  0.2169
 3786SOL     OW22993   4.735   2.295   7.161  0.1234  0.5113  0.0665
 3786SOL    HW122994   4.693   2.245   7.231 -0.0663 -0.3830 -0.6895
 3786SOL    HW222995   4.733   2.382   7.201  0.0388  1.0037 -1.0019
 3787SOL     OW22996   1.276   0.926   7.248  0.6057  0.6996  0.2187
 3787SOL    HW122997   1.356   0.955   7.290  0.8229 -0.7098  0.7810
 3787SOL    HW222998   1.247   0.851   7.300 -1.7569  0.5716 -1.2479
 3788SOL     OW22999   1.570   4.584  17.146 -0.4013 -0.3383 -0.2474
 3788SOL    HW123000   1.581   4.662  17.201 -0.8284 -0.2818 -0.2459
 3788SOL    HW223001   1.478   4.560  17.157 -0.0318 -1.1417  1.1017
 3789SOL     OW23002   2.117   2.682   3.569 -0.1372  0.7169  0.2309
 3789SOL    HW123003   2.212   2.690   3.554  0.0060 -0.6776  0.4798
 3789SOL    HW223004   2.095   2.648   3.483 -0.1830  1.5905 -0.1031
 3790SOL     OW23005   2.736   2.582   6.013  0.2961  0.2093  0.4440
 3790SOL    HW123006   2.780   2.510   5.968  0.2075 -0.5479  1.5594
 3790SOL    HW223007   2.797   2.601   6.084 -0.2712  1.1090  0.6840
 3791SOL     OW23008   2.123   3.388   4.889  0.0555 -0.0135 -0.3561
 3791SOL    HW123009   2.137   3.309   4.837  0.0340 -0.3068  0.0816
 3791SOL    HW223010   2.040   3.371   4.935 -0.8766  2.5153 -1.1045
 3792SOL     OW23011   4.593   0.971   5.628 -0.0595  0.1489 -0.0297
 3792SOL    HW123012   4.551   1.010   5.552  1.7833  3.2677  0.5261
 3792SOL    HW223013   4.549   0.887   5.641  2.0253 -1.3224 -2.6231
 3793SOL     OW23014   2.082   0.945  10.880  0.0585  0.5443 -0.1963
 3793SOL    HW123015   2.062   0.853  10.863  1.3241  0.5722 -1.7838
 3793SOL    HW223016   2.009   0.987  10.833  0.5570  1.0560 -0.5100
 3794SOL     OW23017   3.112   4.477   7.100 -0.2824  0.1164 -0.0175
 3794SOL    HW123018   3.087   4.440   7.015  0.3356 -0.1613 -0.0787
 3794SOL    HW223019   3.202   4.446   7.108 -0.8006 -1.3035  0.3760
 3795SOL     OW23020   0.754   1.617   9.306 -0.4619  0.0459 -0.1007
 3795SOL    HW123021   0.692   1.623   9.378 -0.5606  0.7298 -0.2411
 3795SOL    HW223022   0.721   1.541   9.258  0.6076 -0.0647 -0.6704
 3796SOL     OW23023   1.536   4.502   4.952 -0.6260  0.6641  0.3445
 3796SOL    HW123024   1.488   4.494   4.870 -0.8232  0.6890  0.4573
 3796SOL    HW223025   1.608   4.441   4.937 -2.0179 -0.5301 -1.4610
 3797SOL     OW23026   4.604   2.539  11.621  0.3192 -0.1691  0.4525
 3797SOL    HW123027   4.678   2.577  11.668 -0.0346 -0.0915  0.9423
 3797SOL    HW223028   4.574   2.605  11.559  2.7569  1.2218  0.7574
 3798SOL     OW23029   1.691   3.818   3.783  0.0205  0.1515 -0.2830
 3798SOL    HW123030   1.613   3.769   3.755  0.2928  0.1487 -1.0264
 3798SOL    HW223031   1.722   3.770   3.860 -1.1498  2.3265  1.5570
 3799SOL     OW23032   0.742   3.196   7.503  0.4629 -0.6366 -0.0295
 3799SOL    HW123033   0.667   3.182   7.561  2.0776  0.8569  2.4729
 3799SOL    HW223034   0.803   3.159   7.568  0.6126 -1.4101 -0.6125
 3800SOL     OW23035   4.492   4.584   9.132 -0.2180 -0.3486  0.1633
 3800SOL    HW123036   4.497   4.666   9.084  0.2634  0.2364  1.2091
 3800SOL    HW223037   4.400   4.585   9.159 -0.6926  0.2992 -1.4825
 3801SOL     OW23038   1.000   2.681   2.156 -0.3757 -0.0258  0.9539
 3801SOL    HW123039   0.905   2.683   2.142 -0.1360  0.9436 -0.5281
 3801SOL    HW223040   1.011   2.776   2.157 -1.2366  0.0685  1.7187
 3802SOL     OW23041   0.873   4.220   5.108 -0.3795  0.0602 -0.8010
 3802SOL    HW123042   0.901   4.302   5.067  0.0581 -0.3046 -1.2233
 3802SOL    HW223043   0.889   4.245   5.199 -2.6134 -0.4008 -0.2754
 3803SOL     OW23044   3.577   3.365   8.384  0.1811  0.9591  0.4054
 3803SOL    HW123045   3.554   3.441   8.438 -1.0259  1.2438 -0.5039
 3803SOL    HW223046   3.492   3.338   8.350  0.4123  0.6091  0.1083
 3804SOL     OW23047   0.307   1.186   9.517 -0.6956 -0.0409  0.1273
 3804SOL    HW123048   0.234   1.238   9.485  2.0254  2.8326 -1.3973
 3804SOL    HW223049   0.266   1.160   9.600 -2.0003 -1.8776 -1.0937
 3805SOL     OW23050   3.309   4.199  13.023  0.6003  0.0570 -0.4671
 3805SOL    HW123051   3.256   4.137  13.075 -1.7048  0.7927 -1.9580
 3805SOL    HW223052   3.398   4.188  13.056  0.1657 -2.0527  0.0115
 3806SOL     OW23053   0.019   4.366   6.887  0.0459  0.0917  0.3318
 3806SOL    HW123054   4.679   4.310   6.881  0.5446 -0.6322  0.4999
 3806SOL    HW223055   0.082   4.327   6.826 -0.1579  2.7703 -1.5606
 3807SOL     OW23056   2.692   3.700  10.175  0.5885 -0.1501  0.0852
 3807SOL    HW123057   2.598   3.706  10.196  0.6776 -1.3692  0.8165
 3807SOL    HW223058   2.725   3.681  10.262  0.7031 -1.2315 -0.1967
 3808SOL     OW23059   4.495   1.732   3.732 -0.0405  0.0712  0.1586
 3808SOL    HW123060   4.458   1.734   3.820 -1.9828 -1.0600 -0.6492
 3808SOL    HW223061   4.590   1.737   3.747 -0.0439 -0.9230  0.4594
 3809SOL     OW23062   0.783   0.770   0.451 -0.8474 -0.7516  0.2418
 3809SOL    HW123063   0.751   0.682   0.472 -0.1944 -1.0336  0.0662
 3809SOL    HW223064   0.810   0.763   0.359 -1.3181 -0.0034  0.0483
 3810SOL     OW23065   1.893   0.573   4.915  0.0266  0.2850  0.1303
 3810SOL    HW123066   1.885   0.484   4.948 -0.4547  1.2791  2.7490
 3810SOL    HW223067   1.899   0.557   4.821 -2.6185 -1.2744  0.2069
 3811SOL     OW23068   1.214   3.518   8.702 -0.8265  0.1918 -0.2366
 3811SOL    HW123069   1.208   3.610   8.675  1.1378  0.6411  0.8029
 3811SOL    HW223070   1.305   3.514   8.733 -0.7667  0.6939 -0.3447
 3812SOL     OW23071   3.967   1.115   8.981  0.3151 -0.0268 -0.0461
 3812SOL    HW123072   3.958   1.023   9.007  0.8455  0.0182  0.2873
 3812SOL    HW223073   3.951   1.103   8.887  4.1301 -0.8662 -0.5964
 3813SOL     OW23074   1.353   1.152   0.170  0.3321  0.3892  0.0393
 3813SOL    HW123075   1.277   1.114   0.213 -0.2597  1.1231 -0.3686
 3813SOL    HW223076   1.354   1.230   0.226  1.0111 -1.6842  2.9068
 3814SOL     OW23077   1.430   1.040   9.471  0.2810  0.2357 -0.0947
 3814SOL    HW123078   1.421   1.136   9.474  2.4399  0.3918  1.1220
 3814SOL    HW223079   1.354   1.014   9.524  0.9415 -1.9281 -0.2197
 3815SOL     OW23080   0.704   3.729  15.263  0.3407 -0.0069  0.3188
 3815SOL    HW123081   0.706   3.776  15.179  3.4153  1.0075  0.9578
 3815SOL    HW223082   0.771   3.661  15.257  1.8423  1.5800 -1.0172
 3816SOL     OW23083   4.254   3.897   7.746  0.3458  0.2701  0.3167
 3816SOL    HW123084   4.220   3.986   7.731  0.1201  0.0402 -0.5176
 3816SOL    HW223085   4.278   3.903   7.839 -0.8235  0.9375  0.5814
 3817SOL     OW23086   4.027   3.399   3.543 -0.6375 -0.3037 -0.2501
 3817SOL    HW123087   4.088   3.416   3.614  1.2002 -0.1292 -1.8748
 3817SOL    HW223088   4.037   3.484   3.501 -3.3061 -0.1273 -0.5241
 3818SOL     OW23089   1.319   3.973   6.992  0.2581  0.1910  0.1558
 3818SOL    HW123090   1.264   3.902   7.024  0.8231 -0.5337 -0.4748
 3818SOL    HW223091   1.347   3.941   6.906  0.5359 -1.2321  0.7843
 3819SOL     OW23092   0.902   2.968   0.471  0.0667 -0.4980  0.4850
 3819SOL    HW123093   0.927   2.991   0.561  3.1096 -0.5270 -0.3682
 3819SOL    HW223094   0.983   2.923   0.449  0.4739  0.2763  0.3798
 3820SOL     OW23095   3.455   3.081   0.884 -0.4847 -0.0030  0.1456
 3820SOL    HW123096   3.530   3.070   0.943 -0.9823 -0.7089  0.6456
 3820SOL    HW223097   3.398   3.013   0.920  0.9983 -0.8945  0.8348
 3821SOL     OW23098   0.265   2.151   2.237  0.3203  0.1778  1.0556
 3821SOL    HW123099   0.308   2.083   2.186 -1.2529  1.3986 -1.8851
 3821SOL    HW223100   0.255   2.224   2.175  0.4769 -1.6303 -1.1060
 3822SOL     OW23101   4.259   1.277   0.690 -0.4529 -0.1641 -0.9199
 3822SOL    HW123102   4.176   1.313   0.660  0.9181  2.1806 -1.9448
 3822SOL    HW223103   4.317   1.334   0.640  0.4795  1.0692  1.5839
 3823SOL     OW23104   1.324   4.523   9.483  0.3781 -0.2875  0.0899
 3823SOL    HW123105   1.346   4.478   9.401  1.1340 -1.9600  1.2115
 3823SOL    HW223106   1.315   4.452   9.546 -0.8957  0.4667  0.7599
 3824SOL     OW23107   3.593   2.295  17.217  0.2052  0.6482 -0.1222
 3824SOL    HW123108   3.546   2.377  17.234 -1.0627  0.5715 -3.3317
 3824SOL    HW223109   3.522   2.259  17.164  1.6364  0.5300 -1.9435
 3825SOL     OW23110   4.098   3.089   1.141  0.5370  0.1144 -0.6041
 3825SOL    HW123111   4.071   3.034   1.215  1.5815 -0.0155 -0.3170
 3825SOL    HW223112   4.011   3.125   1.122  0.4354  0.1815 -0.0101
 3826SOL     OW23113   2.191   0.262   2.208 -0.0527  0.2015 -0.6680
 3826SOL    HW123114   2.228   0.213   2.281 -0.1652  0.6559 -0.3018
 3826SOL    HW223115   2.131   0.326   2.247 -0.2892 -0.2940 -0.2316
 3827SOL     OW23116   1.048   1.412   4.766 -0.5554 -0.1967  0.0553
 3827SOL    HW123117   0.995   1.490   4.749 -1.3135 -0.7966 -0.2901
 3827SOL    HW223118   1.088   1.404   4.679 -1.0066 -2.4380  0.0516
 3828SOL     OW23119   3.389   3.515   5.233 -0.1306  0.1345  0.1539
 3828SOL    HW123120   3.294   3.509   5.232 -0.0329 -1.3325 -0.3658
 3828SOL    HW223121   3.408   3.502   5.326 -1.2698  1.1275  0.5215
 3829SOL     OW23122   0.571   1.179   3.849 -0.4793 -0.2189  0.4547
 3829SOL    HW123123   0.608   1.097   3.881  1.1147  0.4903  0.4301
 3829SOL    HW223124   0.562   1.161   3.755 -3.4263 -0.1589  0.7479
 3830SOL     OW23125   1.823   3.100   7.920 -0.3104  0.2888  0.0976
 3830SOL    HW123126   1.821   3.170   7.985 -1.0485 -0.6648  1.1131
 3830SOL    HW223127   1.894   3.041   7.946 -0.9615 -0.7358 -0.4067
 3831SOL     OW23128   3.867   3.621  15.365  0.9896 -0.7802  0.2765
 3831SOL    HW123129   3.893   3.705  15.404 -0.1219 -0.0519 -0.5632
 3831SOL    HW223130   3.869   3.648  15.273  2.2732 -0.7231  0.3145
 3832SOL     OW23131   0.476   3.705   2.144  0.1861 -0.0236  0.2636
 3832SOL    HW123132   0.521   3.776   2.189  1.0277  0.8548 -1.9521
 3832SOL    HW223133   0.552   3.649   2.127 -1.0012 -1.2070 -1.1283
 3833SOL     OW23134   0.575   0.660   3.155 -0.1076  0.3495 -0.3916
 3833SOL    HW123135   0.536   0.623   3.235 -0.4441 -0.2673 -0.8443
 3833SOL    HW223136   0.661   0.693   3.181  0.3385 -1.3200  0.2732
 3834SOL     OW23137   0.810   0.311  17.571 -0.0650 -0.0691 -0.2877
 3834SOL    HW123138   0.777   0.342  17.487 -1.5109 -1.0719 -0.0960
 3834SOL    HW223139   0.796   0.218  17.552 -1.3226  0.2520 -0.9311
 3835SOL     OW23140   2.117   2.603   3.284  0.1937  0.2832 -0.2834
 3835SOL    HW123141   2.168   2.607   3.202 -0.1272 -1.0514 -0.5390
 3835SOL    HW223142   2.080   2.691   3.289 -0.8376 -0.1443 -0.3137
 3836SOL     OW23143   0.584   0.620   8.240  0.4102 -0.0301  0.3964
 3836SOL    HW123144   0.668   0.663   8.253  0.6124 -0.2808 -0.0777
 3836SOL    HW223145   0.529   0.698   8.252 -1.8326 -1.6188  0.2416
 3837SOL     OW23146   1.260   3.039   3.368 -0.3781  0.0896  0.3411
 3837SOL    HW123147   1.243   3.120   3.318 -1.1910 -1.8037 -2.4480
 3837SOL    HW223148   1.333   3.067   3.423 -1.9529  0.7267  2.0785
 3838SOL     OW23149   4.038   0.984   3.228 -0.3784 -0.4905  0.6756
 3838SOL    HW123150   4.082   1.028   3.300  0.0470 -0.6824  0.5333
 3838SOL    HW223151   4.020   1.061   3.174 -0.1299 -0.2120  0.9905
 3839SOL     OW23152   4.137   3.472   5.025  0.4310  0.3969  0.6226
 3839SOL    HW123153   4.150   3.390   4.977 -0.3173  1.9625 -2.2412
 3839SOL    HW223154   4.204   3.479   5.094  0.0195 -0.4881  1.1057
 3840SOL     OW23155   0.003   0.799   4.341  0.1115 -0.3441 -0.7215
 3840SOL    HW123156   0.034   0.719   4.383 -0.7474 -0.6445 -0.6672
 3840SOL    HW223157   0.017   0.781   4.248 -1.7085 -1.3587 -0.7893
 3841SOL     OW23158   4.372   2.821   3.641  0.0890 -0.3366  0.3150
 3841SOL    HW123159   4.325   2.790   3.718  2.5243 -0.7306  1.6581
 3841SOL    HW223160   4.336   2.910   3.637 -2.6400 -1.5833 -2.9326
 3842SOL     OW23161   2.228   3.576  10.165  0.3510  0.1941  0.5155
 3842SOL    HW123162   2.172   3.515  10.117  2.2360 -1.3631  0.3002
 3842SOL    HW223163   2.182   3.578  10.249 -1.8194  1.5545 -0.7015
 3843SOL     OW23164   3.329   3.016   0.375  0.2752 -0.4298  0.5906
 3843SOL    HW123165   3.387   3.084   0.340  0.5266 -0.8571  0.1952
 3843SOL    HW223166   3.338   3.035   0.468 -4.2270  2.6211  0.4265
 3844SOL     OW23167   3.373   0.158   0.499 -0.1670  0.4583  0.3156
 3844SOL    HW123168   3.436   0.222   0.466 -0.9600 -0.0966 -2.2396
 3844SOL    HW223169   3.308   0.219   0.534  1.0331  1.1860  1.2615
 3845SOL     OW23170   4.131   3.587  15.056  0.0837 -0.3580 -0.0403
 3845SOL    HW123171   4.050   3.537  15.063 -1.3718  2.1420  1.0871
 3845SOL    HW223172   4.190   3.512  15.061 -1.6088 -1.7445 -0.8277
 3846SOL     OW23173   0.809   3.943   4.785 -0.1693  0.0558  0.6233
 3846SOL    HW123174   0.785   3.997   4.860 -0.6216 -0.0351  0.5429
 3846SOL    HW223175   0.741   3.876   4.789 -0.8230  0.7841  1.6101
 3847SOL     OW23176   3.164   2.196   3.363  0.1704 -0.5768  0.3834
 3847SOL    HW123177   3.070   2.196   3.350  0.3269 -0.9969 -0.7398
 3847SOL    HW223178   3.185   2.180   3.271 -0.3206  1.4303 -0.0762
 3848SOL     OW23179   2.021   1.806   9.756 -0.4190 -0.4452 -0.1622
 3848SOL    HW123180   2.072   1.728   9.781  1.6905  0.5407 -1.3706
 3848SOL    HW223181   2.069   1.875   9.802 -0.3437 -1.6327  1.5550
 3849SOL     OW23182   0.989   1.496  16.607  0.6810 -0.1313  0.0497
 3849SOL    HW123183   1.074   1.499  16.564  1.1404  0.7852  1.0342
 3849SOL    HW223184   0.977   1.590  16.623 -0.1077  0.3417 -3.2943
 3850SOL     OW23185   4.465   0.695   4.430  0.2983 -0.1150  0.0347
 3850SOL    HW123186   4.501   0.667   4.345  1.4972 -2.2913  1.2577
 3850SOL    HW223187   4.393   0.753   4.406 -0.7043 -0.2338  2.8301
 3851SOL     OW23188   0.075   1.691   0.461 -0.1327  0.6767  0.3916
 3851SOL    HW123189   0.033   1.701   0.547  0.6850  0.5508  0.8109
 3851SOL    HW223190   0.030   1.624   0.409 -2.0116  0.8180  1.8274
 3852SOL     OW23191   3.996   4.572   6.744 -0.3519 -0.2573 -0.3509
 3852SOL    HW123192   3.916   4.528   6.772 -0.5862  1.1476  1.1828
 3852SOL    HW223193   3.956   4.613   6.667 -1.1491 -1.9979 -0.8449
 3853SOL     OW23194   0.861   1.006   0.585  0.8699 -0.0021 -0.2691
 3853SOL    HW123195   0.814   0.934   0.543  1.9319 -1.3697  0.8939
 3853SOL    HW223196   0.849   0.991   0.678 -1.6705  0.9873 -0.4459
 3854SOL     OW23197   1.622   1.328  10.311 -0.3880  0.1756  0.1806
 3854SOL    HW123198   1.534   1.334  10.349 -1.0047 -0.8145 -1.0890
 3854SOL    HW223199   1.610   1.357  10.221 -1.5519  1.1365  0.6397
 3855SOL     OW23200   2.707   1.481   5.744  0.8066  0.2194 -0.3642
 3855SOL    HW123201   2.633   1.500   5.802  2.8790  1.5038  1.8524
 3855SOL    HW223202   2.740   1.400   5.785 -1.0892 -0.8366 -0.9144
 3856SOL     OW23203   2.562   2.201  11.810 -0.3384  0.2107  0.5317
 3856SOL    HW123204   2.497   2.133  11.826  0.4239 -0.4771  0.7268
 3856SOL    HW223205   2.582   2.224  11.901 -1.3492  0.9533  0.5684
 3857SOL     OW23206   0.646   2.803   8.803 -0.2198 -0.6825  0.3349
 3857SOL    HW123207   0.724   2.796   8.858 -0.3095  0.2081  0.5699
 3857SOL    HW223208   0.623   2.895   8.805 -1.0885 -0.8991  0.5117
 3858SOL     OW23209   1.745   2.073   8.128 -0.0433  0.3083  0.1607
 3858SOL    HW123210   1.770   2.034   8.044 -0.0848 -1.4516  0.9607
 3858SOL    HW223211   1.660   2.113   8.112  0.1758  1.1051  1.0317
 3859SOL     OW23212   1.030   2.017  12.397  0.2557  0.3197  0.7361
 3859SOL    HW123213   0.982   2.001  12.479 -1.6899 -0.0158 -0.4517
 3859SOL    HW223214   0.959   1.990  12.338  0.5139 -0.0491  0.6003
 3860SOL     OW23215   2.959   3.852   0.592  0.0888 -0.0871 -0.5011
 3860SOL    HW123216   2.955   3.766   0.551  0.2345 -0.8943  1.1879
 3860SOL    HW223217   3.049   3.857   0.624 -0.2960  1.0132  0.4363
 3861SOL     OW23218   3.524   0.265   6.755  0.6017 -0.0135  0.1619
 3861SOL    HW123219   3.549   0.191   6.701 -1.3296 -0.6577  0.1473
 3861SOL    HW223220   3.503   0.234   6.843  0.0995  0.9924  0.4048
 3862SOL     OW23221   3.066   1.184   0.723 -0.3602  0.2894  0.1507
 3862SOL    HW123222   3.039   1.115   0.784 -1.4423 -0.8845 -1.6635
 3862SOL    HW223223   3.011   1.257   0.753 -0.7058  0.0547  0.0956
 3863SOL     OW23224   3.343   0.326   4.507 -0.0010 -0.1041 -0.1430
 3863SOL    HW123225   3.287   0.250   4.518  1.1381 -1.1013 -1.2109
 3863SOL    HW223226   3.423   0.294   4.548  0.5509 -2.2064 -2.8036
 3864SOL     OW23227   0.355   0.158   0.599  0.8021 -0.0172 -0.0247
 3864SOL    HW123228   0.322   0.076   0.637  0.9929 -0.3540 -0.5869
 3864SOL    HW223229   0.397   0.185   0.681 -1.3965  1.5461  0.6176
 3865SOL     OW23230   3.036   3.828   8.718 -0.0432  0.3229  0.1283
 3865SOL    HW123231   3.064   3.737   8.718 -0.7244  0.1180 -0.6695
 3865SOL    HW223232   3.094   3.858   8.648 -2.4012  1.9877 -1.0940
 3866SOL     OW23233   1.994   1.348   6.625 -0.1959 -0.4252  0.4852
 3866SOL    HW123234   2.010   1.383   6.712 -0.6208 -1.3104  0.9155
 3866SOL    HW223235   1.969   1.259   6.649 -0.3656 -0.0744  1.5938
 3867SOL     OW23236   2.252   0.748   6.700  0.3999 -0.1022 -0.0258
 3867SOL    HW123237   2.334   0.743   6.750  0.8450 -0.7622 -0.8282
 3867SOL    HW223238   2.257   0.683   6.630 -0.5785 -0.3875  0.1649
 3868SOL     OW23239   2.722   1.265   4.271 -0.5494  0.5531 -0.2891
 3868SOL    HW123240   2.631   1.296   4.267 -0.1401  1.9826  1.4494
 3868SOL    HW223241   2.760   1.289   4.186  1.9732 -1.7008  0.2098
 3869SOL     OW23242   0.210   2.313   6.447 -0.2135  0.4313 -0.3633
 3869SOL    HW123243   0.138   2.304   6.509 -0.8171  3.5887 -0.5992
 3869SOL    HW223244   0.256   2.230   6.460 -0.8586 -0.3524 -2.9097
 3870SOL     OW23245   3.569   0.766   7.654  0.0575 -0.2924  0.2784
 3870SOL    HW123246   3.478   0.751   7.631 -0.1071 -2.5821  2.5406
 3870SOL    HW223247   3.610   0.690   7.613  1.0856  1.3238 -1.7362
 3871SOL     OW23248   4.049   1.887   5.362  0.2591  0.9413  0.4933
 3871SOL    HW123249   3.957   1.908   5.343 -0.3745 -1.8560  0.4613
 3871SOL    HW223250   4.054   1.805   5.313  1.0878  0.0959  2.0371
 3872SOL     OW23251   0.724   3.214   3.706  0.9854  0.4970 -0.2849
 3872SOL    HW123252   0.799   3.171   3.666 -0.0318 -2.0699  0.5675
 3872SOL    HW223253   0.674   3.230   3.626  1.2146 -0.1229 -0.5509
 3873SOL     OW23254   0.493   2.814   1.773 -0.0800  0.3357 -0.6589
 3873SOL    HW123255   0.479   2.909   1.773  1.1268  0.5170 -0.4758
 3873SOL    HW223256   0.587   2.808   1.755  0.1011  1.7692 -0.1964
 3874SOL     OW23257   1.276   3.015   6.946 -0.3166  0.1986  0.1490
 3874SOL    HW123258   1.220   3.086   6.977 -0.7116  0.0033 -0.1277
 3874SOL    HW223259   1.316   3.060   6.872 -1.4007  0.8374 -0.0338
 3875SOL     OW23260   2.593   2.666  11.052  0.2667  0.1682  0.1815
 3875SOL    HW123261   2.570   2.603  10.984  3.3403  0.1229 -0.8065
 3875SOL    HW223262   2.679   2.633  11.077  0.3158  0.9139  1.0015
 3876SOL     OW23263   2.283   2.509  12.791  0.2583 -0.1832  0.4567
 3876SOL    HW123264   2.199   2.548  12.813 -0.0232 -0.3668 -0.3172
 3876SOL    HW223265   2.256   2.419  12.809  1.0860 -0.2045  1.5946
 3877SOL     OW23266   2.374   1.845   3.786  0.2477 -0.2331 -0.1321
 3877SOL    HW123267   2.333   1.858   3.871 -2.8527 -3.1411 -1.1666
 3877SOL    HW223268   2.290   1.836   3.741  0.8965  1.1925 -1.6437
 3878SOL     OW23269   2.085   4.263   6.486 -0.2141 -0.0081 -0.0893
 3878SOL    HW123270   2.116   4.265   6.396 -0.2011  0.5473 -0.0689
 3878SOL    HW223271   2.151   4.323   6.521 -0.9199 -0.1916  1.5819
 3879SOL     OW23272   2.351   3.772  10.973  0.0715  0.4077 -0.3187
 3879SOL    HW123273   2.327   3.865  10.969 -2.8310 -0.2425  1.4106
 3879SOL    HW223274   2.344   3.737  11.062 -0.5675 -0.6877 -0.8126
 3880SOL     OW23275   3.612   3.444  10.057  0.9560 -0.0902  0.6463
 3880SOL    HW123276   3.577   3.526  10.091 -1.2091 -1.3580  1.5057
 3880SOL    HW223277   3.674   3.417  10.125  0.5367 -1.9956  0.2685
 3881SOL     OW23278   3.110   0.466   9.741  0.3018 -0.5255 -0.1369
 3881SOL    HW123279   3.084   0.395   9.799  1.3083 -0.1247  0.8056
 3881SOL    HW223280   3.039   0.477   9.677  0.4072  2.4922  0.2404
 3882SOL     OW23281   2.320   4.339   8.663 -0.0815  0.3205  0.3208
 3882SOL    HW123282   2.377   4.382   8.599  0.1454 -2.5338 -1.3712
 3882SOL    HW223283   2.300   4.403   8.732  3.8388  2.3622 -0.4165
 3883SOL     OW23284   0.319   2.901  17.440  0.2135  0.0032 -0.1680
 3883SOL    HW123285   0.282   2.960  17.506  1.4179 -1.1452  1.5485
 3883SOL    HW223286   0.401   2.867  17.477  0.0370 -0.5356 -0.2634
 3884SOL     OW23287   2.120   4.341  11.318 -0.1933 -0.0633 -0.3196
 3884SOL    HW123288   2.158   4.266  11.365 -0.4618 -0.9055 -1.4628
 3884SOL    HW223289   2.092   4.294  11.240 -0.6347  1.1637 -0.8999
 3885SOL     OW23290   3.545   2.853   7.355 -0.6213  0.3250  0.6579
 3885SOL    HW123291   3.478   2.869   7.423 -0.8115  1.5114  0.2023
 3885SOL    HW223292   3.588   2.935   7.382  1.4343 -0.7188  0.4832
 3886SOL     OW23293   2.725   2.562   7.128 -0.0827  0.0381  0.4141
 3886SOL    HW123294   2.774   2.541   7.048 -1.4490 -0.5059 -0.2708
 3886SOL    HW223295   2.781   2.631   7.165  0.7791 -0.0863 -0.6435
 3887SOL     OW23296   2.699   0.303   4.485 -0.2882  0.0640 -0.7694
 3887SOL    HW123297   2.657   0.325   4.401  0.3050 -1.4614 -1.4753
 3887SOL    HW223298   2.700   0.392   4.518  0.5528  0.0569 -0.7897
 3888SOL     OW23299   1.005   1.933   5.570  0.0060  0.2252  0.0788
 3888SOL    HW123300   1.040   1.881   5.498 -1.1204  0.5876 -0.7357
 3888SOL    HW223301   0.960   1.860   5.611  0.2032 -0.5570 -1.0938
 3889SOL     OW23302   4.198   3.225   7.477  0.2850 -0.5251  0.0813
 3889SOL    HW123303   4.213   3.309   7.434 -2.8174  0.8063  1.6112
 3889SOL    HW223304   4.271   3.177   7.436 -0.1310 -1.1965  0.1186
 3890SOL     OW23305   2.773   3.808   6.539 -0.5185 -0.8422 -0.5460
 3890SOL    HW123306   2.839   3.798   6.470 -0.4432 -0.4552 -0.5282
 3890SOL    HW223307   2.816   3.757   6.608 -0.8925  0.6051  0.7523
 3891SOL     OW23308   1.089   1.108   0.994  0.3529 -0.3207 -0.1363
 3891SOL    HW123309   1.125   1.133   1.080 -1.2053 -1.6293  0.8948
 3891SOL    HW223310   0.999   1.134   1.015  0.8850  0.2724  1.4203
 3892SOL     OW23311   1.847   2.718   0.775 -0.4569  0.0481 -0.5302
 3892SOL    HW123312   1.799   2.788   0.730 -1.5455 -0.0287  0.4938
 3892SOL    HW223313   1.904   2.774   0.827  1.0717 -2.1889  0.2345
 3893SOL     OW23314   2.341   3.848   9.836  1.0793 -0.6650 -0.2591
 3893SOL    HW123315   2.263   3.904   9.836  2.7765  1.6814 -0.5142
 3893SOL    HW223316   2.391   3.872   9.758 -1.0599 -0.3673 -1.5580
 3894SOL     OW23317   1.775   2.705   3.144  0.3072  0.4816 -0.4830
 3894SOL    HW123318   1.730   2.790   3.148 -2.5735 -0.9548 -2.8401
 3894SOL    HW223319   1.843   2.715   3.211  1.4047  0.8723 -1.6397
 3895SOL     OW23320   2.783   0.625   5.368  0.1932  0.1867  0.2329
 3895SOL    HW123321   2.752   0.704   5.323 -1.0432  0.0938  0.9245
 3895SOL    HW223322   2.870   0.606   5.332 -1.0386 -0.0043 -2.6484
 3896SOL     OW23323   1.436   4.717   3.933  0.3048 -0.3766 -0.6319
 3896SOL    HW123324   1.420   0.026   3.851  1.9431 -0.6971 -1.1144
 3896SOL    HW223325   1.531   4.724   3.940  0.3649 -1.7893 -0.1202
 3897SOL     OW23326   2.680   1.676   5.055 -0.1966  0.4118  0.3106
 3897SOL    HW123327   2.674   1.744   5.122  2.2029  0.9595 -0.0310
 3897SOL    HW223328   2.775   1.662   5.056 -0.4741 -1.3525  0.1243
 3898SOL     OW23329   4.271   2.686   4.137 -0.3588 -0.4678  0.4277
 3898SOL    HW123330   4.237   2.668   4.225 -1.1473 -0.4825  0.1224
 3898SOL    HW223331   4.335   2.616   4.133 -2.2066 -2.1726  0.7636
 3899SOL     OW23332   0.685   2.901   4.445  0.7678 -0.1616 -0.1489
 3899SOL    HW123333   0.716   2.980   4.401  3.0492 -1.4416 -0.8347
 3899SOL    HW223334   0.647   2.857   4.368  1.9270 -0.2170 -0.6920
 3900SOL     OW23335   0.220   4.302   7.339  0.3692 -0.7455 -0.3166
 3900SOL    HW123336   0.149   4.331   7.282 -0.5736  2.3086  2.3743
 3900SOL    HW223337   0.187   4.337   7.422  0.3580 -0.6772 -0.3499
 3901SOL     OW23338   2.897   2.770  16.459  0.3330 -0.1105  0.0952
 3901SOL    HW123339   2.916   2.864  16.463 -0.5860 -0.0504  3.1160
 3901SOL    HW223340   2.921   2.749  16.369 -0.9833 -4.8438  0.8411
 3902SOL     OW23341   3.542   2.191   5.579 -0.1559 -0.0906  0.0055
 3902SOL    HW123342   3.607   2.179   5.510  1.6878  3.0187  1.1772
 3902SOL    HW223343   3.509   2.101   5.579  0.3882 -0.2837 -0.6440
 3903SOL     OW23344   2.623   0.012   0.589 -0.4263 -0.3767 -0.5509
 3903SOL    HW123345   2.693   4.695   0.555  0.9344  1.2641 -0.4077
 3903SOL    HW223346   2.670   0.083   0.633  2.2432 -1.7281 -1.2001
 3904SOL     OW23347   2.049   1.209   5.220  0.0873 -0.0834  0.0708
 3904SOL    HW123348   1.966   1.245   5.188  0.1035 -0.1319 -0.0243
 3904SOL    HW223349   2.015   1.205   5.310  1.5080 -1.5536  0.5408
 3905SOL     OW23350   1.337   4.038   2.440  0.3036 -0.3770 -0.3875
 3905SOL    HW123351   1.372   3.961   2.484  1.8246  1.1702  1.1146
 3905SOL    HW223352   1.294   4.078   2.516  2.2036  0.7235  0.1120
 3906SOL     OW23353   1.801   1.624   6.649  0.2789 -0.6441 -0.4483
 3906SOL    HW123354   1.859   1.585   6.583  0.8357 -0.7920  0.1327
 3906SOL    HW223355   1.733   1.652   6.588  0.9313  2.3003  0.1627
 3907SOL     OW23356   3.657   1.382   9.902 -0.1030  0.4045  0.3046
 3907SOL    HW123357   3.564   1.371   9.921 -0.6056  3.6660 -0.2990
 3907SOL    HW223358   3.680   1.389   9.995  0.2119  1.0239  0.1762
 3908SOL     OW23359   2.887   2.365   5.300 -0.0561 -0.1936  0.3745
 3908SOL    HW123360   2.795   2.383   5.280  0.0426 -0.9669 -0.7850
 3908SOL    HW223361   2.927   2.429   5.241  2.1217 -2.8967 -1.1182
 3909SOL     OW23362   3.761   0.497  11.985 -0.2177  0.2140  0.0134
 3909SOL    HW123363   3.732   0.586  11.966 -0.1592  0.8067  2.7096
 3909SOL    HW223364   3.854   0.520  11.988  0.1591 -1.4791  1.4339
 3910SOL     OW23365   1.754   3.901   9.170 -0.2021 -0.4902 -0.1543
 3910SOL    HW123366   1.830   3.934   9.122  1.2687 -0.4715  2.1876
 3910SOL    HW223367   1.794   3.870   9.252 -2.4880 -1.3176  0.6294
 3911SOL     OW23368   0.489   0.113   8.011 -0.1995  0.5248 -0.1342
 3911SOL    HW123369   0.500   0.098   8.105 -1.3993  0.9986  0.0827
 3911SOL    HW223370   0.393   0.119   8.004 -0.3420 -1.4006  0.3565
 3912SOL     OW23371   3.244   4.417   8.646 -0.1796 -0.0206  0.0699
 3912SOL    HW123372   3.293   4.494   8.616  0.9476 -0.6931  0.1822
 3912SOL    HW223373   3.172   4.414   8.582 -0.7597  0.5769  0.6872
 3913SOL     OW23374   1.262   2.154   5.480 -0.5332  0.8033 -0.0838
 3913SOL    HW123375   1.356   2.148   5.500 -0.4680 -1.3475 -1.0599
 3913SOL    HW223376   1.238   2.112   5.563 -0.0005 -1.7628 -1.2482
 3914SOL     OW23377   0.572   1.113   2.011 -0.0669 -0.1224 -0.1635
 3914SOL    HW123378   0.625   1.163   2.072  0.1759 -0.9674  0.3185
 3914SOL    HW223379   0.508   1.180   1.985  2.2275  2.2127  0.1999
 3915SOL     OW23380   0.389   0.431   8.930  0.2484 -0.2203 -0.3492
 3915SOL    HW123381   0.331   0.356   8.939 -0.2698  0.2447  0.2199
 3915SOL    HW223382   0.471   0.386   8.947  0.6646  0.6853  0.0822
 3916SOL     OW23383   3.536   0.687   8.995  0.2535 -0.4894  0.0124
 3916SOL    HW123384   3.508   0.735   9.073 -0.9702 -0.2833 -0.5551
 3916SOL    HW223385   3.473   0.617   8.977  0.0861  0.0234 -1.3948
 3917SOL     OW23386   0.691   3.603  16.807 -0.0417 -0.0906  0.0084
 3917SOL    HW123387   0.657   3.597  16.897 -0.2027  0.7101  0.0066
 3917SOL    HW223388   0.767   3.660  16.815 -0.6159  0.5587  0.9517
 3918SOL     OW23389   2.871   1.688  10.821 -0.5211 -0.2933 -0.3342
 3918SOL    HW123390   2.807   1.754  10.847  1.0839  1.5395 -0.9974
 3918SOL    HW223391   2.867   1.697  10.726  0.3116 -1.0612 -0.4470
 3919SOL     OW23392   3.270   1.351   9.671 -0.1854 -0.4123  0.0200
 3919SOL    HW123393   3.198   1.292   9.694  0.8286 -1.3027  0.9013
 3919SOL    HW223394   3.352   1.303   9.681 -0.1293 -0.3772 -0.2637
 3920SOL     OW23395   1.871   1.812   4.080  0.2595  0.4426  0.1187
 3920SOL    HW123396   1.821   1.891   4.063 -0.7952  0.0840  1.6107
 3920SOL    HW223397   1.796   1.752   4.077  0.9436 -0.4406  0.8251
 3921SOL     OW23398   3.879   0.106   4.235 -0.0587 -0.7731 -0.2926
 3921SOL    HW123399   3.848   0.189   4.270 -0.8567 -1.1296 -0.1597
 3921SOL    HW223400   3.816   0.042   4.268  1.1596 -1.1415  1.3291
 3922SOL     OW23401   3.224   0.490   6.458 -0.1091  0.2410  0.5474
 3922SOL    HW123402   3.212   0.520   6.368  0.8493  1.2073  0.7451
 3922SOL    HW223403   3.217   0.571   6.509 -1.3642 -0.4570  1.4892
 3923SOL     OW23404   3.251   3.998   9.566 -0.2496 -0.2257 -0.1671
 3923SOL    HW123405   3.186   4.066   9.582 -0.8623 -0.4953 -1.5998
 3923SOL    HW223406   3.196   3.921   9.554 -1.2557  0.6835 -1.3759
 3924SOL     OW23407   1.739   1.640   9.153 -0.4266 -0.0182  0.1009
 3924SOL    HW123408   1.737   1.565   9.212  3.4163 -0.9962 -1.0548
 3924SOL    HW223409   1.798   1.594   9.094  1.5124  0.8919  1.3065
 3925SOL     OW23410   3.168   3.638   9.385 -0.2981 -0.0020  0.1002
 3925SOL    HW123411   3.157   3.555   9.432  0.1620  1.0419  2.0402
 3925SOL    HW223412   3.258   3.633   9.351 -0.4508  1.0288 -0.4480
 3926SOL     OW23413   1.527   2.743  14.940 -0.5317  0.3617  0.0444
 3926SOL    HW123414   1.590   2.739  14.868 -0.7007  3.6531 -0.3007
 3926SOL    HW223415   1.522   2.838  14.949 -1.5168  0.5256 -2.4104
 3927SOL     OW23416   0.758   0.628   5.133  0.2501  0.0017  0.1417
 3927SOL    HW123417   0.755   0.534   5.151  2.4945 -0.3037 -1.0613
 3927SOL    HW223418   0.805   0.666   5.207 -1.7482  1.0538  0.8728
 3928SOL     OW23419   1.404   0.937   2.901  0.2709  0.0898 -0.2635
 3928SOL    HW123420   1.427   1.027   2.877 -1.8749  0.7939  0.3939
 3928SOL    HW223421   1.313   0.929   2.872 -0.2092 -0.1708  1.3103
 3929SOL     OW23422   0.419   2.434   7.917 -0.4737 -0.4683  0.0036
 3929SOL    HW123423   0.451   2.523   7.935 -1.1414  0.2691 -2.4691
 3929SOL    HW223424   0.459   2.387   7.990  0.0374 -0.6382 -0.3875
 3930SOL     OW23425   2.728   4.483   5.954 -0.2074  0.1952 -0.1061
 3930SOL    HW123426   2.645   4.438   5.944 -0.7046  1.7450 -2.9567
 3930SOL    HW223427   2.760   4.442   6.034 -2.3537 -0.4687  0.4003
 3931SOL     OW23428   3.090   2.253   7.012  0.0984  0.3373  0.5453
 3931SOL    HW123429   3.166   2.197   7.029 -0.7447 -0.0256  3.2525
 3931SOL    HW223430   3.035   2.227   7.086  0.6626 -0.2264  0.7627
 3932SOL     OW23431   0.547   1.227  11.158 -0.2452  0.0301 -0.0068
 3932SOL    HW123432   0.521   1.316  11.136  3.1042  0.8708 -0.5005
 3932SOL    HW223433   0.467   1.176  11.173  0.2236 -0.7809 -0.2281
 3933SOL     OW23434   3.834   0.982   0.948 -0.5134  0.2116  0.0002
 3933SOL    HW123435   3.790   1.016   0.869 -1.6808 -0.7441  0.2284
 3933SOL    HW223436   3.849   1.060   1.001  0.4052 -1.3877  2.0586
 3934SOL     OW23437   3.657   0.473   7.181 -0.6008  0.2116 -0.0437
 3934SOL    HW123438   3.724   0.483   7.113 -0.4134  2.1347  0.4084
 3934SOL    HW223439   3.583   0.505   7.129 -1.1524 -0.8539  0.1024
 3935SOL     OW23440   2.844   3.363  10.720 -0.0075 -0.6705  0.1473
 3935SOL    HW123441   2.927   3.326  10.751  0.3943  1.4139  1.5290
 3935SOL    HW223442   2.827   3.310  10.642 -0.8468  1.1979 -0.9272
 3936SOL     OW23443   1.750   0.900  15.025 -0.4577 -0.7293  0.0355
 3936SOL    HW123444   1.674   0.923  15.078 -0.2912 -0.2938  0.0891
 3936SOL    HW223445   1.812   0.949  15.079 -1.2404  0.6678 -0.3336
 3937SOL     OW23446   0.685   0.004   9.254  0.2864  0.2644  0.2901
 3937SOL    HW123447   0.728   4.725   9.171  0.8075  0.5403  0.5063
 3937SOL    HW223448   0.596   4.709   9.238  0.1077  0.0309  1.7192
 3938SOL     OW23449   1.646   1.581   5.539 -0.2750 -0.3376 -0.0568
 3938SOL    HW123450   1.585   1.516   5.505 -1.2074  0.3506  0.3062
 3938SOL    HW223451   1.732   1.547   5.513 -0.2453 -0.9928  0.8842
 3939SOL     OW23452   2.402   1.531   1.215 -1.0377 -0.7208 -0.5395
 3939SOL    HW123453   2.473   1.469   1.232  1.7301  2.5620 -0.0843
 3939SOL    HW223454   2.420   1.604   1.274  1.1163 -0.8438 -1.0415
 3940SOL     OW23455   2.859   0.306   9.157  0.4059 -0.1051 -0.6020
 3940SOL    HW123456   2.800   0.232   9.161  0.5575 -0.2705 -1.4972
 3940SOL    HW223457   2.882   0.290   9.066  0.2895  1.6006 -0.9303
 3941SOL     OW23458   4.732   1.305   8.267  0.2935  0.3324  0.2475
 3941SOL    HW123459   4.649   1.330   8.227  0.0870  0.4302  0.7402
 3941SOL    HW223460   4.730   1.210   8.278 -1.9241  0.0544 -2.6296
 3942SOL     OW23461   2.334   0.239   3.107  0.5664  0.7601 -0.3013
 3942SOL    HW123462   2.290   0.267   3.187  1.5300  0.5778  0.2855
 3942SOL    HW223463   2.271   0.180   3.065  0.4332  0.8937 -0.2905
 3943SOL     OW23464   2.134   3.331   1.760  0.0444 -0.5170  0.5033
 3943SOL    HW123465   2.075   3.299   1.692  1.1812  0.1921 -0.7998
 3943SOL    HW223466   2.185   3.390   1.704  0.5818  0.7423  2.3101
 3944SOL     OW23467   4.668   0.166   4.336  0.2439  0.0542  0.0185
 3944SOL    HW123468   4.597   0.105   4.351  0.5617 -0.2432  0.3265
 3944SOL    HW223469   4.654   0.242   4.394  0.7919  0.7198 -0.7224
 3945SOL     OW23470   1.896   4.176  14.180 -0.3576 -0.5863 -0.2427
 3945SOL    HW123471   1.946   4.096  14.194  1.5303  0.9361  1.6885
 3945SOL    HW223472   1.822   4.155  14.238  1.0544 -0.7065  1.4981
 3946SOL     OW23473   2.318   1.824   6.611  0.0397 -0.2810 -0.1565
 3946SOL    HW123474   2.354   1.751   6.662 -0.8670  0.3029  1.3238
 3946SOL    HW223475   2.266   1.861   6.682 -0.9837 -0.1971 -0.9534
 3947SOL     OW23476   4.376   3.269  15.721  0.5562 -0.1866 -0.1151
 3947SOL    HW123477   4.282   3.257  15.706  0.4445  0.2236  0.2652
 3947SOL    HW223478   4.402   3.299  15.634 -2.5561 -1.0131 -1.3526
 3948SOL     OW23479   4.648   0.401  11.850 -0.8049  0.2792  0.2826
 3948SOL    HW123480   4.598   0.451  11.915  1.2210  0.7922  1.4452
 3948SOL    HW223481   4.646   0.311  11.883 -1.5837 -0.9923 -3.2425
 3949SOL     OW23482   2.513   1.261   3.645 -0.1371  0.0645  0.3957
 3949SOL    HW123483   2.515   1.321   3.571  0.2904  1.8918  1.8969
 3949SOL    HW223484   2.445   1.198   3.624 -1.5562  0.8188  2.7978
 3950SOL     OW23485   4.502   4.043   8.095 -0.0747  0.2006  0.2027
 3950SOL    HW123486   4.434   3.975   8.095 -1.1345  1.2723  1.2117
 3950SOL    HW223487   4.551   3.995   8.028  0.4480  0.2804  0.5234
 3951SOL     OW23488   0.278   0.706   3.792  0.1399 -0.9619 -0.1170
 3951SOL    HW123489   0.256   0.711   3.885 -3.5027  0.6827 -1.0998
 3951SOL    HW223490   0.371   0.728   3.793 -0.6195  2.2768 -2.0677
 3952SOL     OW23491   3.922   1.605   7.101  0.2265  0.4322 -0.3060
 3952SOL    HW123492   3.853   1.574   7.043 -0.4196  0.3048  0.5171
 3952SOL    HW223493   3.867   1.640   7.171  0.5646  1.2484 -0.4549
 3953SOL     OW23494   0.857   3.089   4.352  0.2026 -0.2187  0.1487
 3953SOL    HW123495   0.934   3.073   4.407  0.2447  0.6216  0.3269
 3953SOL    HW223496   0.855   3.184   4.358 -1.0394 -0.4195  2.8469
 3954SOL     OW23497   2.396   0.842  12.323  0.0591  0.5998 -0.7347
 3954SOL    HW123498   2.326   0.833  12.258  0.2245 -2.3309 -0.5082
 3954SOL    HW223499   2.416   0.934  12.306 -0.7058  0.5867 -1.6635
 3955SOL     OW23500   1.761   3.790   6.159  0.1090 -0.0591 -0.1134
 3955SOL    HW123501   1.850   3.817   6.180 -0.0054 -0.1312  0.4713
 3955SOL    HW223502   1.715   3.874   6.166  1.2827  0.3630  2.4050
 3956SOL     OW23503   1.930   3.929   8.686 -0.3310  0.4142  0.0935
 3956SOL    HW123504   1.907   4.019   8.709  1.6682  0.1882  3.0156
 3956SOL    HW223505   1.999   3.948   8.623  0.7771 -0.9521  0.8941
 3957SOL     OW23506   3.709   3.704   8.059 -0.6252 -0.0985 -0.1433
 3957SOL    HW123507   3.639   3.667   8.006 -0.0852 -0.1276 -0.8489
 3957SOL    HW223508   3.659   3.778   8.094 -0.6324 -0.2771  0.2247
 3958SOL     OW23509   4.532   2.342   2.546  0.7056  0.4878 -0.5422
 3958SOL    HW123510   4.558   2.419   2.496  0.9384  0.5703 -0.2960
 3958SOL    HW223511   4.603   2.279   2.535  1.1158  0.7719  0.4373
 3959SOL     OW23512   3.921   1.290   0.698  0.0477 -0.2975 -0.1129
 3959SOL    HW123513   3.930   1.287   0.603 -0.7170  1.6215 -0.2532
 3959SOL    HW223514   3.846   1.240   0.730 -0.4036  2.0688  2.6189
 3960SOL     OW23515   3.204   0.683  13.324  0.0944 -0.0134 -0.3720
 3960SOL    HW123516   3.250   0.721  13.249  2.5819  0.5532  1.4694
 3960SOL    HW223517   3.130   0.743  13.328 -0.8532 -1.0979 -1.3332
 3961SOL     OW23518   1.339   3.807   4.749  0.5025 -0.4194 -0.9802
 3961SOL    HW123519   1.342   3.712   4.737  0.7144 -0.4779 -0.4652
 3961SOL    HW223520   1.261   3.835   4.700 -0.0748  0.1529  0.2703
 3962SOL     OW23521   0.055   0.325   7.760  0.8620 -0.2150 -0.1790
 3962SOL    HW123522   0.002   0.248   7.779  1.6035 -1.0202 -1.3695
 3962SOL    HW223523   4.732   0.398   7.770  1.7685  0.8011 -1.9230
 3963SOL     OW23524   1.693   4.233   2.992  0.3103  0.0458 -0.3877
 3963SOL    HW123525   1.629   4.228   3.062  0.8305 -1.0122  0.0116
 3963SOL    HW223526   1.769   4.188   3.029  1.1698  0.3683 -1.7310
 3964SOL     OW23527   2.280   2.339  11.904  0.6953  0.4104  0.1931
 3964SOL    HW123528   2.255   2.252  11.935  0.2791  0.8942  1.2199
 3964SOL    HW223529   2.294   2.394  11.981 -1.5088 -1.7577  2.1294
 3965SOL     OW23530   3.235   0.536   2.368 -0.5045  0.2146  0.9118
 3965SOL    HW123531   3.287   0.582   2.302 -0.2949  2.2569  2.4998
 3965SOL    HW223532   3.235   0.596   2.443  1.3908 -0.1318  1.1943
 3966SOL     OW23533   1.129   2.948   3.800 -0.1034  0.0795  0.2520
 3966SOL    HW123534   1.208   2.951   3.745  0.4530 -0.2985  1.0242
 3966SOL    HW223535   1.098   2.860   3.776  1.9544 -0.9014  1.1408
 3967SOL     OW23536   1.354   3.483  13.858 -0.0997  0.5590 -0.2392
 3967SOL    HW123537   1.263   3.476  13.889 -0.1626 -0.4422 -0.6549
 3967SOL    HW223538   1.395   3.412  13.907 -1.6626 -0.5610 -0.5520
 3968SOL     OW23539   3.003   3.937  10.395  0.9679 -0.4678 -0.1384
 3968SOL    HW123540   2.921   3.977  10.424  0.3875 -1.0517 -0.9810
 3968SOL    HW223541   3.055   3.936  10.475 -0.6442  0.3032  0.9242
 3969SOL     OW23542   0.140   4.013   4.075 -0.2163  0.0868 -0.2229
 3969SOL    HW123543   0.081   4.018   4.000 -1.0440  1.0863  0.4830
 3969SOL    HW223544   0.138   4.105   4.103 -1.9369 -0.1064  0.3196
 3970SOL     OW23545   2.945   3.798   1.200  0.4057 -0.2787  0.2952
 3970SOL    HW123546   2.992   3.719   1.227  0.2978 -0.4820 -0.0976
 3970SOL    HW223547   3.003   3.872   1.213  0.2330 -0.0465 -0.2242
 3971SOL     OW23548   3.055   2.227   7.858  0.0180 -0.4180 -0.4177
 3971SOL    HW123549   3.067   2.135   7.833 -1.3948 -0.6717 -0.2149
 3971SOL    HW223550   3.053   2.219   7.953 -1.0138 -2.0736 -0.5689
 3972SOL     OW23551   4.521   0.508  16.435 -0.0577  0.8497  0.5864
 3972SOL    HW123552   4.462   0.511  16.360  1.2833 -1.7518 -0.5479
 3972SOL    HW223553   4.585   0.447  16.399  1.0248  0.2751  3.4873
 3973SOL     OW23554   4.141   4.642   2.338  0.1756  0.0418  0.1057
 3973SOL    HW123555   4.057   4.595   2.336 -0.0111  0.2901  2.1371
 3973SOL    HW223556   4.134   4.672   2.428 -0.8046  1.2143 -0.3550
 3974SOL     OW23557   1.635   3.441  13.191 -0.2813  0.6232 -0.0822
 3974SOL    HW123558   1.555   3.464  13.145 -0.7584  0.9120  0.8870
 3974SOL    HW223559   1.683   3.522  13.172 -0.4255  0.6980 -0.1244
 3975SOL     OW23560   2.437   2.184   5.322 -0.0003 -0.9194  0.9934
 3975SOL    HW123561   2.475   2.263   5.283  1.5606 -1.1631  2.0256
 3975SOL    HW223562   2.452   2.206   5.414  0.1589  1.8300  0.3379
 3976SOL     OW23563   1.285   2.876   9.121  0.1544  0.4831  0.0157
 3976SOL    HW123564   1.288   2.904   9.212 -0.3480 -1.9037  0.7531
 3976SOL    HW223565   1.234   2.941   9.072  0.1335  1.1815  0.9726
 3977SOL     OW23566   1.307   4.104   5.035  0.1997  0.0788 -0.2427
 3977SOL    HW123567   1.305   4.128   4.942 -0.2466 -0.8847 -0.4849
 3977SOL    HW223568   1.349   4.018   5.029  0.1128 -0.0345  0.7803
 3978SOL     OW23569   2.527   1.330   8.817  0.5350  0.3449 -0.0471
 3978SOL    HW123570   2.472   1.314   8.740 -0.2200 -0.0010  0.5576
 3978SOL    HW223571   2.610   1.293   8.786 -0.7811 -2.2423 -0.4559
 3979SOL     OW23572   2.426   2.923   9.104  0.8851  0.1586  0.5726
 3979SOL    HW123573   2.457   3.014   9.099 -0.3278  0.6153  1.4974
 3979SOL    HW223574   2.444   2.898   9.013 -1.7369  3.1455 -0.7588
 3980SOL     OW23575   2.815   3.923   5.813  0.3943 -0.0100 -0.5850
 3980SOL    HW123576   2.839   3.939   5.904 -5.1518  0.5869  0.7536
 3980SOL    HW223577   2.773   4.008   5.800 -1.0246 -0.6857 -0.3799
 3981SOL     OW23578   2.346   4.126  10.247 -0.3877 -0.2417  0.3523
 3981SOL    HW123579   2.433   4.109  10.210 -0.3035  1.0710 -0.0557
 3981SOL    HW223580   2.298   4.183  10.187 -1.1683 -2.2348 -0.9057
 3982SOL     OW23581   3.842   4.551   5.464  0.1337 -0.0869 -0.1523
 3982SOL    HW123582   3.886   4.540   5.549  0.2989 -1.2824 -0.3883
 3982SOL    HW223583   3.831   4.462   5.432  0.5988 -0.5836  1.0455
 3983SOL     OW23584   3.978   3.166  12.992  0.1673 -0.3918 -0.0882
 3983SOL    HW123585   4.049   3.193  12.933  1.0697 -0.4444  0.9824
 3983SOL    HW223586   4.005   3.207  13.074 -1.0182 -1.1702  0.6921
 3984SOL     OW23587   2.850   1.664   8.161 -0.2492 -0.3064 -0.6409
 3984SOL    HW123588   2.769   1.663   8.212  1.0839  1.8731  1.5674
 3984SOL    HW223589   2.893   1.591   8.205 -0.4983  0.1173  0.3254
 3985SOL     OW23590   2.430   3.637   9.420  0.3983 -0.2793  0.1998
 3985SOL    HW123591   2.422   3.683   9.337  0.1239  0.5546  0.6835
 3985SOL    HW223592   2.341   3.646   9.452 -0.0519 -2.7933 -0.3920
 3986SOL     OW23593   2.367   2.288   5.690 -0.4563  0.0696 -0.0891
 3986SOL    HW123594   2.290   2.258   5.739 -0.1850 -0.6086 -0.0845
 3986SOL    HW223595   2.434   2.235   5.734  0.1087 -1.9328 -3.3099
 3987SOL     OW23596   1.710   2.694   7.720  0.3482  0.3040 -0.5598
 3987SOL    HW123597   1.674   2.774   7.759  0.0325 -0.0104 -0.2044
 3987SOL    HW223598   1.691   2.724   7.631  2.0988 -0.4846 -1.1847
 3988SOL     OW23599   1.077   1.724   3.715  0.4520 -0.6567  0.1387
 3988SOL    HW123600   1.164   1.700   3.747 -0.2875  0.1496  2.7809
 3988SOL    HW223601   1.037   1.651   3.668 -0.9194  0.2353 -0.0883
 3989SOL     OW23602   4.540   3.860   2.651 -0.2566 -0.2914 -0.3315
 3989SOL    HW123603   4.514   3.805   2.577 -1.3543 -0.2958  0.0585
 3989SOL    HW223604   4.492   3.942   2.637 -1.8057 -1.1604 -0.0658
 3990SOL     OW23605   0.953   3.454   0.162  0.7085  0.2413 -0.4524
 3990SOL    HW123606   0.980   3.376   0.114 -0.7595 -1.7058  1.9193
 3990SOL    HW223607   0.988   3.434   0.249 -0.9380 -0.2390  0.1023
 3991SOL     OW23608   4.400   1.104   9.612  0.0038  0.6080 -0.1483
 3991SOL    HW123609   4.363   1.027   9.655  0.1040  0.0682 -1.0200
 3991SOL    HW223610   4.493   1.082   9.619  0.2292  2.1785  1.7202
 3992SOL     OW23611   4.136   1.362   8.749 -0.2410 -0.0967  0.7465
 3992SOL    HW123612   4.187   1.385   8.671 -2.3349  1.3343 -0.2061
 3992SOL    HW223613   4.050   1.402   8.733  0.7772  1.5083 -0.6520
 3993SOL     OW23614   2.729   1.175   9.707  0.0429 -0.0216  0.1040
 3993SOL    HW123615   2.736   1.197   9.614  2.0646  0.1921  0.3138
 3993SOL    HW223616   2.637   1.148   9.702  0.2933 -0.9666  0.5175
 3994SOL     OW23617   3.315   3.808   1.284 -0.5732 -0.1587  0.1274
 3994SOL    HW123618   3.394   3.857   1.307 -0.0682  0.1414 -2.3075
 3994SOL    HW223619   3.239   3.857   1.315 -1.7931 -1.6602 -0.5034
 3995SOL     OW23620   4.444   1.312   3.456  0.0561 -0.7712 -0.4674
 3995SOL    HW123621   4.394   1.373   3.401  1.7167 -0.8807 -2.1125
 3995SOL    HW223622   4.475   1.368   3.527 -1.0432  0.2759 -0.8045
 3996SOL     OW23623   2.096   1.250   7.624 -0.0310  0.7711  0.4310
 3996SOL    HW123624   2.130   1.337   7.645  1.2064 -0.2323  2.5768
 3996SOL    HW223625   2.090   1.203   7.707  0.2984  1.2481  0.7210
 3997SOL     OW23626   2.641   4.360  11.002 -0.1528  0.0614 -0.1944
 3997SOL    HW123627   2.696   4.394  10.931  0.8747  1.0575  1.0786
 3997SOL    HW223628   2.592   4.295  10.952 -1.2073  1.0663 -0.4573
 3998SOL     OW23629   4.196   2.424  10.737  0.1504  0.5889  0.1597
 3998SOL    HW123630   4.234   2.433  10.824 -0.4664 -1.8283  0.6779
 3998SOL    HW223631   4.271   2.423  10.678 -0.4107 -2.3205 -0.5029
 3999SOL     OW23632   1.375   1.793   9.832 -0.6148  0.0046  0.1467
 3999SOL    HW123633   1.435   1.719   9.843  1.7027  1.3944 -2.8403
 3999SOL    HW223634   1.419   1.831   9.756 -0.9885 -0.1044 -0.1230
 4000SOL     OW23635   1.572   4.034   6.183 -0.2191  0.2982  0.2039
 4000SOL    HW123636   1.635   4.106   6.173  2.3946 -2.2425 -1.7944
 4000SOL    HW223637   1.502   4.085   6.223  1.1637  1.6633  0.8925
 4001SOL     OW23638   0.748   0.604   6.374 -0.5311 -0.4443 -0.3056
 4001SOL    HW123639   0.785   0.674   6.321 -2.5322  0.2848 -0.7241
 4001SOL    HW223640   0.708   0.646   6.450  0.1970 -1.0762  0.4251
 4002SOL     OW23641   0.420   0.661   9.443 -0.6425 -0.5628  0.2633
 4002SOL    HW123642   0.464   0.699   9.367 -0.8537 -1.1823 -0.1702
 4002SOL    HW223643   0.426   0.566   9.427  1.4791 -0.5911  1.2323
 4003SOL     OW23644   0.465   1.614   0.558  0.2060  0.0871  0.3975
 4003SOL    HW123645   0.479   1.701   0.596 -2.6130  0.6397  0.1471
 4003SOL    HW223646   0.551   1.591   0.523 -0.3292 -0.7823 -0.3436
 4004SOL     OW23647   2.579   3.088   1.867  0.2590 -0.0390  0.7398
 4004SOL    HW123648   2.527   3.038   1.803  1.2952  0.1443 -0.2356
 4004SOL    HW223649   2.646   3.126   1.810  0.9815  2.1527  3.0596
 4005SOL     OW23650   3.151   3.092   8.562  0.0413 -0.0808 -0.5175
 4005SOL    HW123651   3.080   3.151   8.585 -1.0309 -1.9053  0.8141
 4005SOL    HW223652   3.129   3.012   8.610  2.6035 -1.1474 -1.0911
 4006SOL     OW23653   0.226   2.589   3.477  0.3660 -0.3181  0.5896
 4006SOL    HW123654   0.217   2.654   3.407  0.2096 -2.2374 -1.1489
 4006SOL    HW223655   0.303   2.538   3.456  0.5946  0.1669  0.2568
 4007SOL     OW23656   2.570   4.033  14.650  0.1084  0.1741 -0.1523
 4007SOL    HW123657   2.540   3.942  14.643  1.1117 -0.2251  0.7313
 4007SOL    HW223658   2.507   4.064  14.716 -0.1054  3.4767 -1.9301
 4008SOL     OW23659   1.264   3.337   6.005  0.0774 -1.1281 -0.2110
 4008SOL    HW123660   1.265   3.266   6.069 -0.8793 -2.1896 -1.3571
 4008SOL    HW223661   1.286   3.414   6.057  2.5835 -2.5125  0.7904
 4009SOL     OW23662   1.630   1.673   6.180 -0.5016 -0.7441 -0.5366
 4009SOL    HW123663   1.574   1.599   6.200 -0.5052 -0.1746  1.5252
 4009SOL    HW223664   1.573   1.743   6.148  0.8865  0.8290  0.4057
 4010SOL     OW23665   0.506   3.315  16.949 -0.1126  0.4372  0.1049
 4010SOL    HW123666   0.470   3.363  16.874  0.6399 -0.2345 -0.6828
 4010SOL    HW223667   0.426   3.281  16.990 -0.6408  0.7542 -0.6480
 4011SOL     OW23668   4.410   2.628   7.313  0.0097  0.1375 -0.5840
 4011SOL    HW123669   4.332   2.672   7.279  0.8889  3.0751  1.2823
 4011SOL    HW223670   4.417   2.557   7.249  1.6046  0.4592 -0.7656
 4012SOL     OW23671   1.126   1.376  16.315  0.0694 -0.0000 -0.1137
 4012SOL    HW123672   1.180   1.410  16.244 -0.7300  1.1235 -0.1677
 4012SOL    HW223673   1.156   1.425  16.391  0.2907  1.0673 -0.9002
 4013SOL     OW23674   2.357   3.838   2.562 -0.1255  0.2693  0.2587
 4013SOL    HW123675   2.375   3.751   2.527 -0.1529  0.6002 -0.5856
 4013SOL    HW223676   2.261   3.843   2.558 -0.0237  1.1001 -1.1269
 4014SOL     OW23677   0.196   2.007   2.739 -0.5289 -0.2269 -0.7690
 4014SOL    HW123678   0.116   1.973   2.778  0.5426  1.6585  3.1080
 4014SOL    HW223679   0.238   2.062   2.805 -0.9933  1.9822 -2.3284
 4015SOL     OW23680   1.768   0.853   2.463  0.3714 -0.0227  0.5157
 4015SOL    HW123681   1.750   0.810   2.547 -2.4598 -1.1500 -0.6859
 4015SOL    HW223682   1.743   0.944   2.476  0.1789 -0.1026  0.7026
 4016SOL     OW23683   2.251   0.658  17.303  0.6021 -0.1527 -0.0642
 4016SOL    HW123684   2.321   0.593  17.300 -0.7670 -1.7130  1.3692
 4016SOL    HW223685   2.303   0.734  17.278  0.6121 -0.7251 -1.7651
 4017SOL     OW23686   3.445   2.573   4.983 -0.3149 -0.2793  0.4384
 4017SOL    HW123687   3.384   2.547   5.052  0.6156 -2.4200  0.4800
 4017SOL    HW223688   3.411   2.515   4.914  0.2718  1.5033 -1.3406
 4018SOL     OW23689   2.030   4.136   2.522 -0.2686 -0.4446 -0.0455
 4018SOL    HW123690   1.960   4.188   2.562 -1.2093 -1.6039 -0.1686
 4018SOL    HW223691   2.043   4.063   2.583 -0.1013 -0.5263 -0.1787
 4019SOL     OW23692   1.705   0.598   7.319 -0.2124 -0.0463 -0.1778
 4019SOL    HW123693   1.625   0.599   7.268 -0.2713  2.0377 -0.0610
 4019SOL    HW223694   1.664   0.605   7.406  0.5951  0.7334  0.1404
 4020SOL     OW23695   2.164   0.825   1.851  0.0258  0.0385  0.3194
 4020SOL    HW123696   2.178   0.795   1.762  0.2653 -0.0633  0.3927
 4020SOL    HW223697   2.200   0.913   1.856  1.1015 -0.2806 -2.1110
 4021SOL     OW23698   0.114   3.220   3.055  0.1570  0.2450 -0.1753
 4021SOL    HW123699   0.044   3.274   3.092 -2.5636 -0.9065 -3.6997
 4021SOL    HW223700   0.188   3.280   3.057 -0.4592  1.0841 -2.5567
 4022SOL     OW23701   3.565   0.404   3.313 -0.0843 -0.3306  0.1758
 4022SOL    HW123702   3.470   0.413   3.324 -0.2211  0.1470 -1.3722
 4022SOL    HW223703   3.561   0.360   3.228 -0.8829 -0.2113  0.1506
 4023SOL     OW23704   3.638   2.969   2.671  0.8488 -0.0265 -0.1931
 4023SOL    HW123705   3.608   2.958   2.761 -0.6731 -1.1241 -0.8286
 4023SOL    HW223706   3.724   3.007   2.691  1.4460 -0.9006 -1.1103
 4024SOL     OW23707   2.530   2.411   5.948  0.0994 -0.0939  0.2195
 4024SOL    HW123708   2.599   2.467   5.982 -1.0616 -0.0651  2.5055
 4024SOL    HW223709   2.475   2.401   6.025 -0.7380 -0.9622 -0.4943
 4025SOL     OW23710   4.557   0.878   9.417  0.8096  0.1701  0.2061
 4025SOL    HW123711   4.572   0.827   9.337 -0.4302  1.3907 -0.8047
 4025SOL    HW223712   4.646   0.876   9.451 -0.0930  0.9285  2.5975
 4026SOL     OW23713   0.856   0.750   1.324 -0.3807 -0.0404  0.1495
 4026SOL    HW123714   0.910   0.746   1.245 -0.7542  1.4630 -0.1888
 4026SOL    HW223715   0.922   0.720   1.387 -2.0274 -1.4772  1.1700
 4027SOL     OW23716   2.943   2.852   2.574  0.0781  0.1306 -0.3292
 4027SOL    HW123717   2.924   2.854   2.480  1.2373  4.0730 -0.4960
 4027SOL    HW223718   2.924   2.942   2.600  0.7112  0.6797 -1.7017
 4028SOL     OW23719   1.745   0.022   5.970  0.5838  0.0547 -0.1269
 4028SOL    HW123720   1.726   0.083   6.041 -1.0078 -1.4865  0.7970
 4028SOL    HW223721   1.711   0.064   5.891  1.4296 -0.8072 -0.9498
 4029SOL     OW23722   4.442   2.143   5.905 -0.2891  0.2460  0.3558
 4029SOL    HW123723   4.431   2.229   5.944  0.0703 -0.0970  1.2101
 4029SOL    HW223724   4.537   2.139   5.894 -0.3450  0.2772 -0.1236
 4030SOL     OW23725   3.223   0.051   4.142 -0.2062 -0.3968 -0.8798
 4030SOL    HW123726   3.169   0.126   4.120 -0.9245 -0.1998  1.5772
 4030SOL    HW223727   3.273   0.071   4.221 -1.2525  1.2755 -0.6557
 4031SOL     OW23728   2.811   0.260   2.823 -0.2331 -0.3139 -0.2634
 4031SOL    HW123729   2.891   0.295   2.863  0.0704  0.4812 -1.5730
 4031SOL    HW223730   2.771   0.222   2.901 -1.1760  1.5531  0.1569
 4032SOL     OW23731   0.019   4.597   4.621 -0.2907 -0.0054 -0.2634
 4032SOL    HW123732   0.105   4.595   4.664 -0.7873  3.7009  0.9470
 4032SOL    HW223733   0.036   4.510   4.585  0.4733 -0.2096  0.5828
 4033SOL     OW23734   4.405   4.450  11.461  0.2676 -0.2911 -0.1990
 4033SOL    HW123735   4.348   4.516  11.422 -0.9802 -0.8012  0.7552
 4033SOL    HW223736   4.424   4.481  11.549 -2.0075  0.8421 -0.0994
 4034SOL     OW23737   2.304   1.233   0.205 -0.2418  0.5661  0.0207
 4034SOL    HW123738   2.318   1.142   0.179 -5.2686 -0.0682 -0.5553
 4034SOL    HW223739   2.223   1.258   0.161 -1.1500 -1.6102  0.4476
 4035SOL     OW23740   1.817   0.382  16.317  0.4363  0.1011  0.2568
 4035SOL    HW123741   1.862   0.374  16.401  1.8400  1.7400 -0.3386
 4035SOL    HW223742   1.794   0.474  16.323 -0.2082  0.1286 -2.5081
 4036SOL     OW23743   0.652   4.554   1.269 -0.6267 -1.2024 -0.3065
 4036SOL    HW123744   0.692   4.636   1.298 -3.5879  0.9140 -2.2593
 4036SOL    HW223745   0.687   4.556   1.180  1.4063  1.9760  0.5384
 4037SOL     OW23746   4.507   3.574  16.642 -0.4172 -0.8930 -0.0504
 4037SOL    HW123747   4.502   3.624  16.724 -1.9179  0.4882 -0.9777
 4037SOL    HW223748   4.600   3.582  16.625 -0.2779 -0.1977  1.0058
 4038SOL     OW23749   3.241   2.841   5.124  0.1492  0.2394  0.1281
 4038SOL    HW123750   3.301   2.840   5.199 -0.1676  0.0978  0.3806
 4038SOL    HW223751   3.175   2.893   5.171 -1.6374 -2.4504  0.5930
 4039SOL     OW23752   2.828   0.457   7.938  0.1020  0.4193  0.1337
 4039SOL    HW123753   2.735   0.436   7.943 -0.1835  1.7596  0.6254
 4039SOL    HW223754   2.841   0.479   8.030  1.6943 -0.8737  0.2149
 4040SOL     OW23755   2.547   2.753   6.143 -0.0997  0.4569 -0.1569
 4040SOL    HW123756   2.640   2.767   6.125  0.0936 -0.6830 -0.0229
 4040SOL    HW223757   2.530   2.662   6.120 -1.7718  0.3823  1.4126
 4041SOL     OW23758   1.039   1.262   8.984  0.2931  0.0465 -0.6995
 4041SOL    HW123759   0.965   1.255   9.045  0.5501  0.8502 -0.3005
 4041SOL    HW223760   1.089   1.324   9.038  0.3954 -1.2805  0.7293
 4042SOL     OW23761   3.493   1.910  17.067  0.5270  0.4459 -0.1391
 4042SOL    HW123762   3.447   1.963  17.002 -0.4497 -0.9281 -0.5615
 4042SOL    HW223763   3.433   1.840  17.092  1.0107  0.6038  1.4297
 4043SOL     OW23764   0.972   0.956   5.566  0.4224  0.0776 -0.2494
 4043SOL    HW123765   1.042   0.941   5.630 -0.3455 -1.1938  0.2885
 4043SOL    HW223766   1.015   1.016   5.505  2.7080 -0.2009  1.0850
 4044SOL     OW23767   0.226   0.401  10.313  0.2793 -0.3383  0.3223
 4044SOL    HW123768   0.202   0.373  10.401  0.0565 -0.8548  0.0931
 4044SOL    HW223769   0.321   0.414  10.324  0.2774  0.4100 -0.4972
 4045SOL     OW23770   1.882   4.057   6.462  0.4599 -0.0435  0.1586
 4045SOL    HW123771   1.935   4.049   6.383 -0.0362  2.2855 -0.4086
 4045SOL    HW223772   1.951   4.064   6.528 -1.2572 -1.0065  2.0565
 4046SOL     OW23773   1.832   3.877   9.454 -0.9275 -0.3183  0.2067
 4046SOL    HW123774   1.844   3.785   9.476  0.2083 -0.7066 -2.0435
 4046SOL    HW223775   1.917   3.918   9.469  0.4231 -1.8811 -3.2009
 4047SOL     OW23776   4.450   0.640   9.499 -0.0911  0.0029 -0.0017
 4047SOL    HW123777   4.495   0.724   9.489  2.0147 -1.4968 -2.9781
 4047SOL    HW223778   4.429   0.620   9.408 -4.0940 -0.2231  0.9489
 4048SOL     OW23779   0.892   2.671  17.462  0.0209 -0.2264 -0.4434
 4048SOL    HW123780   0.806   2.692  17.425 -0.4532  0.2648  0.9548
 4048SOL    HW223781   0.949   2.717  17.400  1.5568 -1.2523  0.2084
 4049SOL     OW23782   2.351   0.679   4.678 -0.5386  0.1554  0.5868
 4049SOL    HW123783   2.422   0.635   4.725 -0.4610 -0.4206 -0.0768
 4049SOL    HW223784   2.393   0.755   4.637 -1.5556 -0.3058 -1.3037
 4050SOL     OW23785   4.089   1.008  15.607 -0.2418  0.1685 -0.3325
 4050SOL    HW123786   4.085   0.915  15.584 -2.8576 -0.0227  0.8082
 4050SOL    HW223787   4.103   1.014  15.702  1.0264 -0.0089 -0.5107
 4051SOL     OW23788   3.201   3.564  11.075  0.6973  0.0006 -0.1609
 4051SOL    HW123789   3.283   3.595  11.114  0.7028  1.7040 -1.5587
 4051SOL    HW223790   3.196   3.469  11.092 -0.3748  0.1259  0.2316
 4052SOL     OW23791   4.154   3.380   4.376 -0.3010  0.0208 -0.4061
 4052SOL    HW123792   4.081   3.441   4.363 -0.1598  0.6082  1.6415
 4052SOL    HW223793   4.205   3.427   4.442  0.4821 -2.7444  0.9514
 4053SOL     OW23794   2.961   2.825   7.987 -0.1566  0.4399 -0.4802
 4053SOL    HW123795   2.931   2.882   7.916  1.7207 -0.5601 -2.0677
 4053SOL    HW223796   3.021   2.888   8.029 -0.3220 -1.0562  1.9882
 4054SOL     OW23797   1.588   0.829   8.875 -0.3703 -0.2791 -0.0641
 4054SOL    HW123798   1.678   0.813   8.846 -0.2150  1.0081 -0.2850
 4054SOL    HW223799   1.602   0.806   8.967 -0.9271 -0.1419  0.0516
 4055SOL     OW23800   2.135   0.851   2.410 -0.4939  0.6081 -0.0305
 4055SOL    HW123801   2.159   0.859   2.502 -2.4636  0.2600  0.5266
 4055SOL    HW223802   2.065   0.917   2.410  0.2576  1.3946 -0.3740
 4056SOL     OW23803   2.915   4.395  10.039  0.7942 -0.0591 -0.2492
 4056SOL    HW123804   2.959   4.321  10.082 -0.3322  0.2860  1.5058
 4056SOL    HW223805   2.821   4.379  10.051  0.7124 -0.4814 -1.4597
 4057SOL     OW23806   3.464   4.034  11.566 -0.3272 -0.0536  0.4675
 4057SOL    HW123807   3.414   4.052  11.646 -2.5925 -3.3565 -0.2110
 4057SOL    HW223808   3.448   3.942  11.546 -0.2488  0.3950 -1.6309
 4058SOL     OW23809   3.338   0.101  16.738 -0.2369 -0.2309 -0.6978
 4058SOL    HW123810   3.271   0.166  16.720 -2.0580 -2.1185 -0.6833
 4058SOL    HW223811   3.395   0.123  16.664 -2.2153  0.5295 -1.9962
 4059SOL     OW23812   0.652   4.318  11.185 -0.0283  0.4524 -0.2581
 4059SOL    HW123813   0.713   4.338  11.256 -1.3519 -0.8581  1.2477
 4059SOL    HW223814   0.583   4.293  11.247  0.0849 -0.4654 -0.5017
 4060SOL     OW23815   4.347   3.457   7.459  0.2982 -0.5104 -0.4343
 4060SOL    HW123816   4.304   3.539   7.484 -1.0480 -1.0233 -1.0843
 4060SOL    HW223817   4.426   3.460   7.514 -0.9601  0.9548  1.2953
 4061SOL     OW23818   3.892   3.270  10.089  0.0159  0.0670 -0.1681
 4061SOL    HW123819   3.867   3.297  10.177 -0.2535 -1.2908  0.1812
 4061SOL    HW223820   3.923   3.180  10.101 -0.3831 -0.0299  0.1536
 4062SOL     OW23821   2.337   1.163  13.634 -0.1251  0.6648  0.0788
 4062SOL    HW123822   2.414   1.162  13.691  1.1617 -1.2381 -1.7048
 4062SOL    HW223823   2.268   1.145  13.698  2.3141  0.9642  2.7995
 4063SOL     OW23824   3.017   4.657  16.636  0.1366 -0.0392 -0.0727
 4063SOL    HW123825   3.093   4.670  16.580  1.2242  0.8662  1.6253
 4063SOL    HW223826   3.059   4.625  16.715  0.5430  0.7891  0.0445
 4064SOL     OW23827   1.487   4.242  14.909 -0.3155  0.6760 -0.5472
 4064SOL    HW123828   1.492   4.309  14.841 -1.3713  1.6545  0.3449
 4064SOL    HW223829   1.423   4.186  14.865  1.0517 -2.1813  1.0478
 4065SOL     OW23830   4.533   0.903   6.993 -0.0746  0.1885  0.4755
 4065SOL    HW123831   4.603   0.967   6.978  0.4800 -0.3359  0.8036
 4065SOL    HW223832   4.584   0.846   7.052 -0.9013  0.6490  1.6305
 4066SOL     OW23833   1.958   3.949  10.163 -0.0257 -0.7211  0.4641
 4066SOL    HW123834   2.017   3.979  10.232  0.9642 -1.4429 -0.0550
 4066SOL    HW223835   1.898   4.023  10.172 -1.7178 -1.9347 -0.7849
 4067SOL     OW23836   1.276   4.505   7.502  0.7680 -0.0769  0.7625
 4067SOL    HW123837   1.275   4.515   7.597 -2.3418 -0.2027  0.7248
 4067SOL    HW223838   1.199   4.555   7.476  1.2576 -0.0816 -0.7080
 4068SOL     OW23839   3.930   1.876   6.251 -0.3705 -0.3562  0.2567
 4068SOL    HW123840   3.863   1.935   6.285  0.0545  1.3125 -1.8162
 4068SOL    HW223841   3.913   1.872   6.157  1.1203  0.9575 -0.0694
 4069SOL     OW23842   3.999   0.852   2.344  0.3011 -0.6895  0.6064
 4069SOL    HW123843   4.032   0.786   2.406 -0.9691 -0.7624  1.2182
 4069SOL    HW223844   4.038   0.825   2.261  0.2987  0.9165  0.0819
 4070SOL     OW23845   3.337   3.447   8.078 -0.6297 -0.1121  0.3239
 4070SOL    HW123846   3.390   3.370   8.056 -1.2287  0.2801 -2.5762
 4070SOL    HW223847   3.359   3.500   8.001  1.6378 -1.7446 -0.1697
 4071SOL     OW23848   1.204   4.027   3.437 -0.8739  0.1354  0.8891
 4071SOL    HW123849   1.180   3.985   3.520  1.8269 -1.6402  0.7707
 4071SOL    HW223850   1.135   4.093   3.439 -0.0933  0.9196  1.8582
 4072SOL     OW23851   3.417   2.672   6.057  0.4757 -0.4268  0.0476
 4072SOL    HW123852   3.456   2.736   5.997 -2.9688  1.0949 -0.5276
 4072SOL    HW223853   3.468   2.591   6.055 -1.2966 -1.5566  0.6291
 4073SOL     OW23854   4.038   2.138  13.065 -0.2056  0.0805 -0.7340
 4073SOL    HW123855   4.063   2.078  13.135  0.8802  0.0239 -1.1719
 4073SOL    HW223856   4.064   2.213  13.118  4.0467 -2.6252  1.0611
 4074SOL     OW23857   3.087   0.803  15.405 -0.3356 -0.1615  0.2160
 4074SOL    HW123858   3.019   0.870  15.405  1.0812  1.2692 -0.8960
 4074SOL    HW223859   3.053   0.741  15.469 -0.6903 -0.1766  0.0164
 4075SOL     OW23860   2.655   4.429   2.442  0.1357 -0.0165  0.0333
 4075SOL    HW123861   2.733   4.381   2.413 -0.1474 -0.0217 -0.7122
 4075SOL    HW223862   2.642   4.395   2.530 -0.7640 -0.7854 -0.3967
 4076SOL     OW23863   4.283   0.931   1.402 -0.3501 -0.4796 -0.0014
 4076SOL    HW123864   4.364   0.885   1.422  0.8336  1.0503 -1.2170
 4076SOL    HW223865   4.264   0.911   1.310  0.6090  0.7040 -0.4594
 4077SOL     OW23866   4.193   2.758   2.648  0.0339 -0.1377 -0.6199
 4077SOL    HW123867   4.266   2.811   2.679 -0.9652  1.5825 -1.2145
 4077SOL    HW223868   4.221   2.667   2.641 -0.5799 -0.3138 -0.7672
 4078SOL     OW23869   2.717   1.398   0.368  0.3685  0.0473 -0.1701
 4078SOL    HW123870   2.727   1.459   0.440 -2.8163 -0.0530  0.3452
 4078SOL    HW223871   2.711   1.314   0.413  0.8255 -0.3861 -0.9075
 4079SOL     OW23872   2.863   0.273   5.145 -0.3225 -0.1677  0.0714
 4079SOL    HW123873   2.847   0.183   5.116 -1.4425  0.1374 -0.2394
 4079SOL    HW223874   2.889   0.253   5.235  1.2806  2.5819  0.2180
 4080SOL     OW23875   0.357   2.696   2.693 -1.1710 -0.0937 -0.1142
 4080SOL    HW123876   0.350   2.632   2.623  1.2945  1.4916 -1.7936
 4080SOL    HW223877   0.447   2.729   2.683 -1.5553  1.2578  0.8659
 4081SOL     OW23878   0.049   2.424   5.199 -0.6301  0.0351  0.9599
 4081SOL    HW123879   0.069   2.344   5.247 -0.5741 -1.8149 -2.1243
 4081SOL    HW223880   0.126   2.414   5.142 -1.2076 -2.1425  0.5711
 4082SOL     OW23881   1.504   3.860   5.538  0.5071  0.2612 -0.2945
 4082SOL    HW123882   1.469   3.807   5.467 -1.7228  2.4950 -0.8396
 4082SOL    HW223883   1.427   3.883   5.589 -0.7853 -1.8750 -1.3107
 4083SOL     OW23884   3.310   4.379   4.999  0.5886 -0.6747  0.3970
 4083SOL    HW123885   3.376   4.424   4.946 -0.8393 -2.1008 -2.6423
 4083SOL    HW223886   3.297   4.429   5.079  0.1579  0.5540 -0.4477
 4084SOL     OW23887   2.056   4.336   1.715  0.1330  0.4925 -0.2184
 4084SOL    HW123888   2.150   4.332   1.702  0.1746 -0.1914  0.2981
 4084SOL    HW223889   2.040   4.256   1.766 -1.1321  1.0853  0.3300
 4085SOL     OW23890   2.853   1.855   2.538 -0.0123  0.3872 -0.3998
 4085SOL    HW123891   2.788   1.810   2.591  1.7279  0.0882  1.4690
 4085SOL    HW223892   2.810   1.940   2.536 -0.8263 -0.0277 -0.2552
 4086SOL     OW23893   0.814   2.234  14.910 -0.4762  0.4602 -0.1089
 4086SOL    HW123894   0.857   2.214  14.827 -0.5267  1.9131 -0.4862
 4086SOL    HW223895   0.884   2.247  14.974  0.6672  1.5200 -1.5730
 4087SOL     OW23896   3.315   1.285  15.637 -0.3978  0.6179  0.0507
 4087SOL    HW123897   3.369   1.217  15.596 -1.4432  1.3858 -2.5677
 4087SOL    HW223898   3.373   1.354  15.669 -0.8613  1.0995 -0.1510
 4088SOL     OW23899   0.037   0.504   2.971 -0.4892 -0.4569  0.6561
 4088SOL    HW123900   0.017   0.585   3.019  1.0257 -0.9749  2.1639
 4088SOL    HW223901   0.013   0.530   2.882  0.9371  0.0713  0.4401
 4089SOL     OW23902   0.123   3.351   4.578 -0.2806 -0.1923  0.3069
 4089SOL    HW123903   0.119   3.401   4.497 -3.0174 -0.5753  0.2352
 4089SOL    HW223904   0.059   3.281   4.568  0.7851 -0.6728 -2.9634
 4090SOL     OW23905   1.898   1.357   6.929 -0.1104  0.9905 -0.4963
 4090SOL    HW123906   1.920   1.365   7.022 -0.2111 -1.1682 -0.2998
 4090SOL    HW223907   1.847   1.277   6.923 -0.3998  1.1470 -0.1479
 4091SOL     OW23908   3.689   3.864  14.138 -0.0278  0.3993 -0.0246
 4091SOL    HW123909   3.665   3.865  14.230  4.4017  0.1857  1.1544
 4091SOL    HW223910   3.617   3.897  14.084 -1.1011 -0.9269  0.5852
 4092SOL     OW23911   4.013   0.776   4.722  0.5735  0.3103 -0.1902
 4092SOL    HW123912   3.988   0.867   4.710  0.3898  0.4697  1.4805
 4092SOL    HW223913   4.109   0.768   4.722  0.4205 -1.4581  0.1710
 4093SOL     OW23914   3.183   0.359   8.440  0.0657 -0.1487  0.2512
 4093SOL    HW123915   3.261   0.400   8.477 -0.6378  0.4601  1.0450
 4093SOL    HW223916   3.116   0.424   8.461 -0.8599 -1.0767  0.1910
 4094SOL     OW23917   3.591   0.437  16.747  0.6043 -0.6693  0.1806
 4094SOL    HW123918   3.630   0.522  16.725 -0.5841 -0.6080 -1.6649
 4094SOL    HW223919   3.663   0.377  16.726  0.6142  0.1960 -2.3217
 4095SOL     OW23920   1.606   3.486   8.358 -0.3296  0.3224  0.1202
 4095SOL    HW123921   1.590   3.513   8.267  2.0913 -0.1724 -0.4545
 4095SOL    HW223922   1.700   3.499   8.367 -0.1634 -1.0163  0.3071
 4096SOL     OW23923   1.242   3.469   5.511 -0.3219  1.0607  0.3641
 4096SOL    HW123924   1.234   3.502   5.600 -1.7560  0.9984  0.2528
 4096SOL    HW223925   1.156   3.429   5.496 -0.2275  0.4758  1.3955
 4097SOL     OW23926   4.716   0.631   5.626  0.2050 -0.0118 -0.0491
 4097SOL    HW123927   4.695   0.650   5.534  1.5315 -0.5910 -0.4783
 4097SOL    HW223928   4.632   0.643   5.670 -0.4612  2.0020 -1.8520
 4098SOL     OW23929   1.579   0.692   3.305  0.2686  0.1809  0.2251
 4098SOL    HW123930   1.495   0.647   3.301 -0.5141  1.6877 -0.2619
 4098SOL    HW223931   1.563   0.777   3.266  2.7153  0.8380  0.6227
 4099SOL     OW23932   1.258   1.235   4.416  0.1700  0.3565  0.2663
 4099SOL    HW123933   1.239   1.229   4.323  0.4614 -3.8921  0.4974
 4099SOL    HW223934   1.175   1.193   4.438 -1.0643  2.2514 -0.7697
 4100SOL     OW23935   0.767   1.993  15.365 -0.1803  0.3079 -0.1287
 4100SOL    HW123936   0.740   1.993  15.457 -0.7393  0.1618 -0.2939
 4100SOL    HW223937   0.723   1.917  15.326  2.2901 -1.8488  1.2824
 4101SOL     OW23938   0.904   4.103   1.189 -0.0113 -0.1158 -0.0893
 4101SOL    HW123939   0.819   4.143   1.172  0.6798  0.8118 -1.4000
 4101SOL    HW223940   0.939   4.177   1.238 -1.3371  0.7703 -0.4813
 4102SOL     OW23941   3.061   0.284   5.553  0.5859  0.4206 -0.2038
 4102SOL    HW123942   3.089   0.338   5.626 -0.2243  1.4209 -0.6275
 4102SOL    HW223943   3.093   0.198   5.581 -2.1467  0.0378  1.7776
 4103SOL     OW23944   3.661   3.379  11.334 -0.0961  0.5166 -0.2575
 4103SOL    HW123945   3.613   3.296  11.336  0.7114  0.0420 -0.5758
 4103SOL    HW223946   3.751   3.345  11.342 -0.4400 -0.1313  0.8021
 4104SOL     OW23947   1.712   1.179   2.971  0.5273  0.1383 -0.1317
 4104SOL    HW123948   1.620   1.191   2.998  0.8093  2.0953 -0.0706
 4104SOL    HW223949   1.708   1.084   2.965 -2.5020  0.0760  2.6918
 4105SOL     OW23950   4.228   2.489   0.335  0.4229  0.5765  0.3947
 4105SOL    HW123951   4.197   2.540   0.409 -3.4906 -1.4496  0.1404
 4105SOL    HW223952   4.324   2.488   0.343  0.5902 -0.1971 -1.7006
 4106SOL     OW23953   1.340   0.181   3.729  0.2194 -0.4572  0.2719
 4106SOL    HW123954   1.324   0.226   3.646  2.3223 -1.0374 -0.4559
 4106SOL    HW223955   1.253   0.155   3.758  0.5295 -1.8076 -0.0253
 4107SOL     OW23956   0.739   0.918   1.918 -0.5191 -0.3096 -0.8320
 4107SOL    HW123957   0.694   0.992   1.959 -0.8489 -1.1931  0.3970
 4107SOL    HW223958   0.803   0.897   1.987  1.4907  0.4775 -2.4573
 4108SOL     OW23959   1.351   3.425   8.298  0.1478  0.5303  0.5896
 4108SOL    HW123960   1.261   3.453   8.280 -1.2559 -3.9044  0.5634
 4108SOL    HW223961   1.387   3.502   8.342  1.2709  0.0539  0.4969
 4109SOL     OW23962   1.305   1.650  17.588  0.0039 -0.0445  0.0161
 4109SOL    HW123963   1.387   1.665  17.634  0.4362  0.0512 -0.7950
 4109SOL    HW223964   1.240   1.693  17.644 -0.0339  1.0563 -0.8943
 4110SOL     OW23965   4.629   0.012   2.484 -0.2299 -0.0194  0.0764
 4110SOL    HW123966   4.582   0.062   2.417 -0.8254 -3.1034 -1.8070
 4110SOL    HW223967   4.707   0.066   2.472  1.1170 -1.5737  1.7670
 4111SOL     OW23968   4.229   4.499   6.596  0.6131 -0.2475  0.2650
 4111SOL    HW123969   4.142   4.506   6.635  0.1962  1.8641 -1.0370
 4111SOL    HW223970   4.270   4.560   6.657 -0.1024 -0.3673  0.8629
 4112SOL     OW23971   2.573   3.028   3.360  0.5107  0.4480  0.5363
 4112SOL    HW123972   2.628   2.965   3.407 -2.0465 -2.2909 -0.1033
 4112SOL    HW223973   2.601   3.012   3.270 -1.2656 -0.2508  0.1123
 4113SOL     OW23974   0.675   2.640  15.601 -0.4015  0.1796  0.2103
 4113SOL    HW123975   0.745   2.701  15.578 -1.2559  1.9238  2.2697
 4113SOL    HW223976   0.654   2.657  15.692  1.0257  0.5213  0.4807
 4114SOL     OW23977   2.070   3.653   3.747 -0.8179  0.2542  0.1752
 4114SOL    HW123978   2.073   3.639   3.842 -1.0289 -0.0465  0.1350
 4114SOL    HW223979   2.153   3.701   3.745 -2.2824  2.7772 -0.0898
 4115SOL     OW23980   3.808   2.850   7.519 -0.2939 -0.4538 -0.4099
 4115SOL    HW123981   3.789   2.944   7.519 -3.0178 -1.0191  1.8750
 4115SOL    HW223982   3.849   2.841   7.433 -0.1728 -1.6528 -0.2143
 4116SOL     OW23983   4.511   2.800  11.472  0.0508 -0.1474 -0.0668
 4116SOL    HW123984   4.510   2.793  11.376  0.7898  0.4686 -0.1164
 4116SOL    HW223985   4.605   2.785  11.480 -0.0771 -1.3053 -0.7552
 4117SOL     OW23986   3.226   2.751   4.263  0.1572  0.0163  0.0839
 4117SOL    HW123987   3.194   2.674   4.216 -2.1046  2.3963 -2.2249
 4117SOL    HW223988   3.200   2.825   4.208  0.8075 -0.8494 -1.3730
 4118SOL     OW23989   0.843   2.658  10.761  0.2730 -0.2522  0.0970
 4118SOL    HW123990   0.865   2.711  10.685  0.3709  0.3756  0.5626
 4118SOL    HW223991   0.912   2.592  10.760 -1.6198 -2.2256 -1.1348
 4119SOL     OW23992   0.693   3.628  15.754 -0.2907  0.1785  0.2442
 4119SOL    HW123993   0.722   3.679  15.679  0.2571  1.9467  1.6702
 4119SOL    HW223994   0.655   3.554  15.707  0.7087  0.7656 -1.4577
 4120SOL     OW23995   3.183   0.913   5.657 -0.0139  0.2238  0.0090
 4120SOL    HW123996   3.243   0.937   5.728  0.6459  0.3076 -0.5847
 4120SOL    HW223997   3.243   0.871   5.595 -0.0002  1.0540 -0.5401
 4121SOL     OW23998   1.672   0.939   1.142 -0.1865  0.1866 -0.3940
 4121SOL    HW123999   1.759   0.904   1.123  0.4247  1.6326 -0.2162
 4121SOL    HW224000   1.637   0.957   1.055 -2.5249 -0.5710  0.3813
 4122SOL     OW24001   4.337   1.737   2.884  0.5945  0.4319  0.5600
 4122SOL    HW124002   4.299   1.664   2.933 -2.2127  0.5785 -1.3593
 4122SOL    HW224003   4.356   1.691   2.802 -0.2359 -0.1158  0.6809
 4123SOL     OW24004   0.043   1.962   7.155 -0.4361 -0.0127  0.4012
 4123SOL    HW124005   4.714   2.025   7.181  1.1881  1.8345  0.1445
 4123SOL    HW224006   0.019   1.896   7.219 -2.2628  0.1338 -0.1277
 4124SOL     OW24007   3.525   4.228   7.532 -0.0307  0.2744 -0.0556
 4124SOL    HW124008   3.471   4.209   7.455  2.0160 -0.1251 -1.4004
 4124SOL    HW224009   3.496   4.312   7.568 -0.1771 -0.3682  1.3015
 4125SOL     OW24010   4.734   0.777  16.305 -0.0639  0.2607  0.3766
 4125SOL    HW124011   0.036   0.825  16.377  1.8421 -0.9165  0.1082
 4125SOL    HW224012   0.049   0.697  16.309 -1.3479 -0.6834 -1.5346
 4126SOL     OW24013   2.696   1.031   0.128 -0.0139 -0.4030 -0.4767
 4126SOL    HW124014   2.758   1.046   0.200  1.9546  0.3083 -2.3184
 4126SOL    HW224015   2.734   1.079   0.055  0.6047  1.2708  0.9444
 4127SOL     OW24016   1.156   1.398   9.203 -0.1863  0.5262 -0.2643
 4127SOL    HW124017   1.138   1.492   9.195  0.9777  0.7788  0.0976
 4127SOL    HW224018   1.251   1.387   9.200  0.0070  1.2586  2.4862
 4128SOL     OW24019   1.223   1.980  14.150 -0.3590  0.2960  0.5125
 4128SOL    HW124020   1.211   1.932  14.069 -0.8459  1.4200 -0.0762
 4128SOL    HW224021   1.196   2.069  14.126 -1.6342 -0.2730 -0.1212
 4129SOL     OW24022   2.934   3.646  10.806 -0.5959  0.1643  0.2786
 4129SOL    HW124023   2.998   3.587  10.766  1.1919  0.7068  2.3264
 4129SOL    HW224024   2.852   3.608  10.776 -1.4341  2.4831 -0.3903
 4130SOL     OW24025   0.616   4.235   7.712 -0.6807  0.4218  0.3035
 4130SOL    HW124026   0.676   4.204   7.645  0.5054  2.0154  0.6359
 4130SOL    HW224027   0.596   4.148   7.745 -1.6642  0.1680 -0.9385
 4131SOL     OW24028   3.935   0.972   6.378  0.2946  0.0791  0.3493
 4131SOL    HW124029   3.926   0.961   6.473  0.7118 -0.1577  0.3584
 4131SOL    HW224030   3.970   0.888   6.349 -1.5787 -0.5593 -0.1114
 4132SOL     OW24031   2.081   3.419   0.926 -0.5271  0.4559 -0.3669
 4132SOL    HW124032   1.998   3.462   0.948  0.9151  1.4002  3.2007
 4132SOL    HW224033   2.134   3.490   0.889 -0.7140 -0.2817 -2.0664
 4133SOL     OW24034   3.822   2.445   5.011  0.1882 -0.3120 -0.4842
 4133SOL    HW124035   3.809   2.360   5.055 -0.6715 -0.7968 -1.6777
 4133SOL    HW224036   3.789   2.424   4.924 -1.3727 -0.2040  0.0858
 4134SOL     OW24037   3.655   1.193   2.654  0.0868  0.5647 -0.1096
 4134SOL    HW124038   3.603   1.272   2.639 -0.7575 -0.2023 -1.1989
 4134SOL    HW224039   3.687   1.170   2.567 -1.4352 -1.1049 -0.2387
 4135SOL     OW24040   3.806   4.669  12.238 -0.2239 -0.4719  0.1470
 4135SOL    HW124041   3.833   4.653  12.148 -0.3836 -0.2818  0.0649
 4135SOL    HW224042   3.727   4.720  12.220  0.0464  0.2554  0.9859
 4136SOL     OW24043   2.626   0.402   1.648  0.0522  0.2701 -0.5202
 4136SOL    HW124044   2.648   0.331   1.587 -2.8086 -1.7978  0.8397
 4136SOL    HW224045   2.653   0.350   1.724 -2.2584 -1.2589 -0.7460
 4137SOL     OW24046   0.976   2.240   1.949  0.3703  0.4831  0.0343
 4137SOL    HW124047   0.941   2.242   2.038  1.4909  0.6630  0.4689
 4137SOL    HW224048   1.071   2.236   1.958  0.2897  1.9723  1.5053
 4138SOL     OW24049   3.631   0.665  12.806 -0.1692  0.1201  0.0709
 4138SOL    HW124050   3.618   0.643  12.899  1.3608  0.6912  0.4142
 4138SOL    HW224051   3.685   0.742  12.828 -1.1430  1.9723 -4.0415
 4139SOL     OW24052   4.219   2.317  12.873 -0.7476  0.9076 -0.1807
 4139SOL    HW124053   4.123   2.319  12.879 -0.7294 -1.5550  0.9054
 4139SOL    HW224054   4.228   2.224  12.892 -1.6485  0.6601 -0.9523
 4140SOL     OW24055   2.067   2.996   6.627  0.1504  0.3952 -0.1836
 4140SOL    HW124056   2.158   2.985   6.601  0.2925 -2.1168  1.3991
 4140SOL    HW224057   2.080   3.071   6.685  0.4073  0.4699 -0.3406
 4141SOL     OW24058   0.450   0.278   8.479 -0.0157  0.6118 -0.3391
 4141SOL    HW124059   0.498   0.318   8.406  0.9393 -0.8940 -0.5292
 4141SOL    HW224060   0.522   0.273   8.542  0.8418 -1.6220 -1.4607
 4142SOL     OW24061   1.996   4.275   9.528  0.2619  0.4361  0.6888
 4142SOL    HW124062   2.047   4.233   9.597  0.5097  0.4420  0.5111
 4142SOL    HW224063   2.039   4.360   9.520  2.9792 -1.0070  0.0207
 4143SOL     OW24064   3.480   3.292   6.876  0.1294  0.1438 -0.0642
 4143SOL    HW124065   3.449   3.269   6.964 -2.1165 -0.9428 -1.1447
 4143SOL    HW224066   3.535   3.219   6.846  0.9414  0.6850  0.0969
 4144SOL     OW24067   0.852   0.933  14.819  0.1051 -0.2573 -0.0744
 4144SOL    HW124068   0.862   0.854  14.871 -0.1029 -0.9325 -1.0557
 4144SOL    HW224069   0.848   0.893  14.732 -0.3692  0.1932 -0.2601
 4145SOL     OW24070   2.027   3.454   6.031  0.3136 -0.1928 -0.6372
 4145SOL    HW124071   2.053   3.435   5.941 -1.6085 -1.0483 -1.0212
 4145SOL    HW224072   1.935   3.480   6.022 -0.3820 -1.7846  1.8817
 4146SOL     OW24073   0.854   2.287   5.215  0.1514 -0.1188  0.0681
 4146SOL    HW124074   0.816   2.222   5.156 -0.6789  1.0837 -0.7249
 4146SOL    HW224075   0.802   2.362   5.187 -0.7972 -1.2140 -1.0794
 4147SOL     OW24076   1.626   4.318  12.859 -0.1303 -0.2661 -0.1016
 4147SOL    HW124077   1.612   4.232  12.899 -0.8374 -0.1339 -0.0813
 4147SOL    HW224078   1.546   4.354  12.896 -0.1487 -1.3597  0.9594
 4148SOL     OW24079   3.383   3.545   3.202 -0.3897  0.3769  0.5094
 4148SOL    HW124080   3.470   3.507   3.215  0.6569  2.0864 -1.4602
 4148SOL    HW224081   3.338   3.470   3.163 -2.1760  0.8755  1.6385
 4149SOL     OW24082   3.415   4.084   2.283 -0.4300  0.0327 -0.5641
 4149SOL    HW124083   3.483   4.093   2.349 -0.2869  0.2382 -0.7370
 4149SOL    HW224084   3.424   3.991   2.264  0.8792  0.1075 -0.3353
 4150SOL     OW24085   3.188   2.571  11.968  0.2291 -0.3836  0.0824
 4150SOL    HW124086   3.110   2.626  11.980  1.3390  1.9896 -3.3663
 4150SOL    HW224087   3.178   2.545  11.876  0.7002  0.4162 -0.2002
 4151SOL     OW24088   4.560   1.255   4.377 -0.0117  0.1725 -0.0306
 4151SOL    HW124089   4.489   1.280   4.318  1.1499  0.8469 -1.1449
 4151SOL    HW224090   4.584   1.176   4.329  2.8239 -0.3914  2.3154
 4152SOL     OW24091   3.001   2.514  17.364  0.4057  0.2717 -0.0148
 4152SOL    HW124092   3.064   2.443  17.358  0.9978  0.8727 -0.9338
 4152SOL    HW224093   2.983   2.532  17.271  1.5439  0.5572 -0.1760
 4153SOL     OW24094   4.438   1.114   6.148  0.4612  0.4593  0.1022
 4153SOL    HW124095   4.444   1.145   6.239  0.8638  0.8825 -0.0690
 4153SOL    HW224096   4.517   1.153   6.112 -1.3139  3.1347 -0.9373
 4154SOL     OW24097   2.734   2.747  12.663  0.0669 -0.0196  0.3145
 4154SOL    HW124098   2.815   2.696  12.670  0.9723  0.9876 -2.8567
 4154SOL    HW224099   2.705   2.733  12.753  0.3605 -0.0272  0.4099
 4155SOL     OW24100   1.156   4.667   5.648  0.3387 -0.2708  0.3542
 4155SOL    HW124101   1.213   4.602   5.689 -0.2950 -0.7162  0.5229
 4155SOL    HW224102   1.200   4.675   5.563 -0.0915 -2.4349 -0.0614
 4156SOL     OW24103   4.546   4.051   5.487  0.5662 -0.7835 -0.0505
 4156SOL    HW124104   4.518   4.108   5.416 -0.5430 -2.0652 -0.6490
 4156SOL    HW224105   4.625   4.093   5.522 -0.5860 -0.1947  1.8226
 4157SOL     OW24106   4.254   2.113   4.234 -0.3120  0.0744 -0.1354
 4157SOL    HW124107   4.171   2.070   4.216  0.2725 -0.3988 -1.6629
 4157SOL    HW224108   4.226   2.192   4.280  0.2247  0.7000 -0.9003
 4158SOL     OW24109   0.253   2.716   8.696  0.1983 -0.1050  0.1886
 4158SOL    HW124110   0.325   2.664   8.732  0.0549 -0.7523 -0.4523
 4158SOL    HW224111   0.175   2.668   8.723  0.6881 -0.8621  0.2592
 4159SOL     OW24112   4.313   0.466   3.367  0.2880  0.7998  0.0275
 4159SOL    HW124113   4.326   0.464   3.462  1.7610  0.8700 -0.1753
 4159SOL    HW224114   4.218   0.458   3.378  0.2215  1.5782 -0.0075
 4160SOL     OW24115   3.477   1.243   9.141  0.3669  0.4121  0.1929
 4160SOL    HW124116   3.483   1.297   9.220  0.7461  2.6506 -1.3620
 4160SOL    HW224117   3.542   1.283   9.083 -0.9810  0.4569 -1.2995
 4161SOL     OW24118   2.637   4.502   8.293  0.0596  0.4894  0.1699
 4161SOL    HW124119   2.544   4.485   8.277  0.0505 -0.4645  1.2165
 4161SOL    HW224120   2.649   4.456   8.376 -0.0404  0.0869 -0.0392
 4162SOL     OW24121   4.674   0.615   1.536 -0.6585 -0.3800  0.2727
 4162SOL    HW124122   4.729   0.540   1.556  1.0535  1.3445  2.1151
 4162SOL    HW224123   4.692   0.629   1.443  0.1108  3.2842  0.9603
 4163SOL     OW24124   4.084   4.693   3.915  0.7318  0.1371  0.1930
 4163SOL    HW124125   4.091   4.635   3.991 -0.7382 -1.7118 -1.0746
 4163SOL    HW224126   4.173   4.694   3.880  0.8891 -1.3352  0.5858
 4164SOL     OW24127   0.489   2.802   4.291 -0.0611 -0.4799 -0.0832
 4164SOL    HW124128   0.514   2.803   4.199 -0.4969 -0.4758 -0.1993
 4164SOL    HW224129   0.402   2.840   4.301 -0.9355 -2.3964 -0.4222
 4165SOL     OW24130   0.287   0.540   2.880  0.2678  0.3988 -0.3442
 4165SOL    HW124131   0.303   0.446   2.879 -0.7252  0.2205 -0.2422
 4165SOL    HW224132   0.201   0.540   2.923 -0.2341 -2.4969 -1.3494
 4166SOL     OW24133   1.865   4.137   3.173 -0.2695  0.2619 -0.1790
 4166SOL    HW124134   1.838   4.135   3.265  1.0168 -1.9635  0.1491
 4166SOL    HW224135   1.919   4.061   3.154 -0.6251 -0.4258  1.6254
 4167SOL     OW24136   1.703   3.174   6.815  0.3408  0.6821  0.2054
 4167SOL    HW124137   1.750   3.115   6.756 -0.1799 -1.2930  1.8156
 4167SOL    HW224138   1.753   3.159   6.895 -0.3211  2.9138  1.0349
 4168SOL     OW24139   3.411   2.846   8.234 -0.0409  0.0899  0.3620
 4168SOL    HW124140   3.502   2.816   8.242 -0.5328 -1.5745 -0.3717
 4168SOL    HW224141   3.401   2.873   8.325  2.2402  0.0177  0.6347
 4169SOL     OW24142   1.764   0.643   1.902  0.0708 -0.6513 -0.2333
 4169SOL    HW124143   1.838   0.609   1.952  1.2324  0.9029 -0.8641
 4169SOL    HW224144   1.689   0.638   1.961 -2.1618 -3.4315 -3.3440
 4170SOL     OW24145   0.753   1.551   6.619 -0.2343  0.0966  0.5853
 4170SOL    HW124146   0.743   1.645   6.629 -0.3120  0.0285  1.1243
 4170SOL    HW224147   0.686   1.533   6.553 -1.4595 -0.8219  2.0798
 4171SOL     OW24148   1.444   3.951   5.952 -0.0895 -0.0680  0.1820
 4171SOL    HW124149   1.487   3.992   6.027  0.9750 -0.7965 -0.0187
 4171SOL    HW224150   1.516   3.957   5.889 -0.4902 -0.7743 -0.3398
 4172SOL     OW24151   0.997   4.681   7.823  0.0292  0.5598 -0.1146
 4172SOL    HW124152   0.968   4.605   7.772  1.4002 -1.5313  2.1985
 4172SOL    HW224153   0.921   4.729   7.856  0.5725  0.2477  1.5886
 4173SOL     OW24154   2.781   3.618  11.571  0.4997  0.0087  0.5761
 4173SOL    HW124155   2.750   3.558  11.503  1.0192 -1.4642  1.6388
 4173SOL    HW224156   2.830   3.558  11.627 -1.4004 -1.7165  0.3914
 4174SOL     OW24157   3.226   1.792  16.825 -0.7262 -0.8375  0.0866
 4174SOL    HW124158   3.302   1.792  16.768 -0.4265 -0.0342  0.4778
 4174SOL    HW224159   3.215   1.885  16.846  0.5148 -0.5877 -0.4111
 4175SOL     OW24160   3.047   1.586  12.373 -0.2979  0.1918 -0.0516
 4175SOL    HW124161   3.112   1.522  12.346 -0.9517 -1.1652  1.5914
 4175SOL    HW224162   3.066   1.659  12.315  2.4576 -2.0813 -1.9888
 4176SOL     OW24163   1.968   0.782   1.137 -0.1858 -0.1597  0.1746
 4176SOL    HW124164   1.995   0.815   1.051  3.6475 -2.2378  0.5991
 4176SOL    HW224165   2.029   0.835   1.189 -1.6000  0.0291  1.6256
 4177SOL     OW24166   0.728   3.911   0.467  0.0051 -0.6768 -0.6582
 4177SOL    HW124167   0.776   3.854   0.527 -0.7106 -0.1443  0.4109
 4177SOL    HW224168   0.745   4.000   0.497 -1.0348 -0.4820 -0.6387
 4178SOL     OW24169   4.689   3.176   2.826 -0.3236  0.0578 -0.5383
 4178SOL    HW124170   0.015   3.186   2.897 -0.0450  0.8757 -0.8999
 4178SOL    HW224171   4.709   3.256   2.776 -0.4508 -0.1536 -0.9259
 4179SOL     OW24172   4.035   3.448   8.359 -0.4595  0.4949  0.8208
 4179SOL    HW124173   3.964   3.500   8.321 -1.4955 -2.0393 -0.6716
 4179SOL    HW224174   4.075   3.496   8.431  0.4791  1.6905 -0.4905
 4180SOL     OW24175   4.577   3.147   8.205 -0.4643 -0.3269  0.0213
 4180SOL    HW124176   4.509   3.098   8.252  0.9387 -0.9051  1.4408
 4180SOL    HW224177   4.552   3.117   8.118 -0.5096 -2.3612  0.7368
 4181SOL     OW24178   0.778   2.197   7.993  0.7378  0.4187 -0.2233
 4181SOL    HW124179   0.852   2.227   7.940  0.9768  0.8776  0.3687
 4181SOL    HW224180   0.802   2.216   8.084 -2.1910  0.2339  0.5780
 4182SOL     OW24181   4.118   1.603   1.959 -0.0010 -0.2071  0.3496
 4182SOL    HW124182   4.145   1.689   1.926 -0.8135  0.0068  0.2504
 4182SOL    HW224183   4.137   1.624   2.050  1.6663  1.1439 -0.3079
 4183SOL     OW24184   3.406   2.074   0.010 -0.0439 -0.2127 -0.2748
 4183SOL    HW124185   3.438   2.036   0.092 -1.0134  2.0467  1.1483
 4183SOL    HW224186   3.349   2.141   0.048 -1.1919 -0.7356 -1.0982
 4184SOL     OW24187   3.533   1.460   6.212  0.3607 -0.2293  0.1515
 4184SOL    HW124188   3.518   1.484   6.120  0.8415  0.8108  0.3362
 4184SOL    HW224189   3.497   1.372   6.209  0.7282 -0.3990  0.7386
 4185SOL     OW24190   4.586   3.812  16.477 -0.0194  0.2101  0.4419
 4185SOL    HW124191   4.544   3.784  16.558 -2.5184  0.5686 -0.7229
 4185SOL    HW224192   4.643   3.738  16.456  1.2998  1.3471  0.0118
 4186SOL     OW24193   3.181   4.716   5.371  0.7687 -0.9047  0.0392
 4186SOL    HW124194   3.184   0.033   5.292  0.2220  0.2796  0.8564
 4186SOL    HW224195   3.239   0.026   5.430 -0.9933  1.2068  0.0438
 4187SOL     OW24196   3.011   0.320   7.797 -0.0247  0.3173 -0.2005
 4187SOL    HW124197   3.002   0.346   7.706  1.0941  0.9060 -0.1427
 4187SOL    HW224198   2.937   0.364   7.839  0.0884  1.7274 -1.5206
 4188SOL     OW24199   1.592   1.227   8.978  0.7191 -0.2512  0.6322
 4188SOL    HW124200   1.657   1.183   9.032  1.2921 -1.3106 -0.9404
 4188SOL    HW224201   1.643   1.261   8.905  0.5813  0.3474  0.8156
 4189SOL     OW24202   3.451   4.523   0.632  0.0629  0.9482  0.6407
 4189SOL    HW124203   3.467   4.429   0.622 -1.9284  0.7637 -0.6595
 4189SOL    HW224204   3.423   4.535   0.723  2.0542  2.0963  1.1109
 4190SOL     OW24205   0.325   4.495  17.190 -0.0763 -0.1717 -0.4912
 4190SOL    HW124206   0.318   4.518  17.283 -1.3539 -1.3051 -0.2908
 4190SOL    HW224207   0.362   4.407  17.190  3.5199  1.3326 -1.0732
 4191SOL     OW24208   0.380   0.302  15.068  0.5949  0.0749  0.1477
 4191SOL    HW124209   0.394   0.393  15.040  2.5395 -0.5499 -0.9612
 4191SOL    HW224210   0.301   0.280  15.018  0.6011 -0.5864  0.4381
 4192SOL     OW24211   2.885   3.630   5.984  0.2908 -0.4955 -0.3354
 4192SOL    HW124212   2.901   3.605   5.893  2.0378 -3.2076  0.7298
 4192SOL    HW224213   2.825   3.558   6.003 -1.3667  0.2299 -2.7239
 4193SOL     OW24214   2.084   4.218   8.012  0.2701 -0.0227 -0.2420
 4193SOL    HW124215   2.067   4.296   7.960 -2.7855 -0.7360 -0.3280
 4193SOL    HW224216   1.994   4.204   8.042  0.0312  1.3214 -0.3490
 4194SOL     OW24217   4.658   0.841   4.623  0.2311  0.2899  0.7128
 4194SOL    HW124218   4.593   0.800   4.566  2.8105 -2.8428 -0.0253
 4194SOL    HW224219   4.729   0.845   4.559 -0.9468 -0.1228 -0.6205
 4195SOL     OW24220   4.313   1.024  12.555 -0.6468  0.1229  0.4356
 4195SOL    HW124221   4.304   1.074  12.636 -2.0006 -1.4061  1.2243
 4195SOL    HW224222   4.283   0.942  12.593 -2.1056 -0.1784 -1.3750
 4196SOL     OW24223   0.504   3.689   1.839  0.1268 -0.3460 -0.0034
 4196SOL    HW124224   0.560   3.731   1.905 -1.8955 -3.1503  3.4402
 4196SOL    HW224225   0.557   3.612   1.819 -0.8158 -1.2249  0.9003
 4197SOL     OW24226   3.649   3.524   6.858  0.3832 -0.3286 -0.0218
 4197SOL    HW124227   3.605   3.597   6.901 -2.2700 -2.8367  1.5723
 4197SOL    HW224228   3.573   3.467   6.844 -1.8110  2.5009  0.4781
 4198SOL     OW24229   1.082   2.085   2.526 -0.1289  0.5182  0.3731
 4198SOL    HW124230   1.013   2.020   2.539 -0.2868  0.4344 -0.8941
 4198SOL    HW224231   1.096   2.071   2.433 -0.7317  0.5745  0.2764
 4199SOL     OW24232   2.888   0.219   6.559 -0.0913 -0.4668  0.0014
 4199SOL    HW124233   2.962   0.182   6.511 -1.0979 -3.9295  1.0928
 4199SOL    HW224234   2.876   0.304   6.518 -2.3963  0.0679  1.7851
 4200SOL     OW24235   0.997   1.235   9.743 -0.0311 -0.4625 -0.1252
 4200SOL    HW124236   0.914   1.252   9.787  0.3394 -0.6646  0.6464
 4200SOL    HW224237   0.996   1.143   9.717  0.9681 -0.9293  1.5055
 4201SOL     OW24238   2.910   0.968   7.699 -0.5224  0.2223 -0.1066
 4201SOL    HW124239   2.877   0.895   7.753  1.5618 -0.6996 -0.0946
 4201SOL    HW224240   2.840   0.992   7.638  1.0465  2.0538 -1.1522
 4202SOL     OW24241   2.003   2.563  12.817  0.3831  0.2854  0.2473
 4202SOL    HW124242   1.931   2.500  12.826  0.4854  0.0008 -0.9880
 4202SOL    HW224243   1.954   2.638  12.783  1.3972  0.0414 -1.7174
 4203SOL     OW24244   3.178   4.624   8.465 -0.0972  0.0356  0.2879
 4203SOL    HW124245   3.093   4.579   8.473 -0.4268  0.1919 -2.4598
 4203SOL    HW224246   3.187   4.614   8.370  1.3935  1.7641  0.2573
 4204SOL     OW24247   1.876   0.217   4.537 -0.2806  0.0808  0.3659
 4204SOL    HW124248   1.872   0.133   4.582 -0.1440 -0.7007 -1.0818
 4204SOL    HW224249   1.924   0.187   4.460 -0.7306 -0.9651  0.4927
 4205SOL     OW24250   0.155   2.915   3.460 -0.5774 -0.8107  0.0041
 4205SOL    HW124251   0.145   2.868   3.377  2.0918  0.4804 -1.0444
 4205SOL    HW224252   0.071   2.958   3.473  0.1865  0.8177 -0.3669
 4206SOL     OW24253   0.363   3.841   5.327 -0.5896 -0.0817 -0.1805
 4206SOL    HW124254   0.278   3.801   5.345 -0.9679  1.4262  1.3661
 4206SOL    HW224255   0.406   3.861   5.410  0.8823 -0.1951 -0.9196
 4207SOL     OW24256   1.453   0.693   4.133  0.0564  0.4715 -0.2431
 4207SOL    HW124257   1.419   0.754   4.198  0.8323  1.5942 -0.9084
 4207SOL    HW224258   1.516   0.644   4.186 -1.7222 -0.6302  0.8810
 4208SOL     OW24259   2.043   1.457   2.384 -0.3062 -0.5456  0.2958
 4208SOL    HW124260   2.016   1.434   2.295  1.2137 -2.2842  0.2945
 4208SOL    HW224261   1.964   1.467   2.437 -0.8547  0.6355 -0.7420
 4209SOL     OW24262   2.950   1.432   9.477 -0.1403  0.5029  0.4840
 4209SOL    HW124263   2.986   1.516   9.448  0.1086 -0.4050 -1.8514
 4209SOL    HW224264   2.867   1.460   9.516 -0.6087  1.6322 -1.3055
 4210SOL     OW24265   0.309   4.240  17.320  0.2340  0.1737 -0.1873
 4210SOL    HW124266   0.225   4.193  17.323  0.4610 -0.2802 -1.2955
 4210SOL    HW224267   0.285   4.318  17.370 -1.3567  0.4050 -1.3202
 4211SOL     OW24268   3.238   3.783   2.245 -0.2696 -0.0284  0.5618
 4211SOL    HW124269   3.330   3.810   2.251  0.1808 -1.1219 -1.5271
 4211SOL    HW224270   3.245   3.693   2.213  0.8084 -0.2269  1.3342
 4212SOL     OW24271   2.323   4.266   0.405  0.1630 -0.1757  0.0042
 4212SOL    HW124272   2.365   4.298   0.486  0.8788 -2.4718  0.5362
 4212SOL    HW224273   2.396   4.271   0.343  1.4523  1.4858  1.6304
 4213SOL     OW24274   0.876   4.009   0.670 -0.5751 -0.2980  0.3615
 4213SOL    HW124275   0.954   3.969   0.630 -0.4864 -0.0808  0.3164
 4213SOL    HW224276   0.897   4.005   0.764  2.8843 -0.3461 -0.4021
 4214SOL     OW24277   1.281   0.887   5.451 -0.1737  0.0680  0.2944
 4214SOL    HW124278   1.316   0.879   5.363 -0.0734  0.1634  0.3259
 4214SOL    HW224279   1.189   0.908   5.438  0.0819  1.8866  1.5133
 4215SOL     OW24280   1.166   4.602   4.526  0.0257  0.3427  0.0033
 4215SOL    HW124281   1.097   4.652   4.570  1.1512 -0.0737  2.2276
 4215SOL    HW224282   1.152   4.627   4.434 -1.4223 -1.1567 -0.1773
 4216SOL     OW24283   3.660   3.064   6.751  0.0417  0.0551 -0.0803
 4216SOL    HW124284   3.752   3.081   6.775  0.6266 -1.4419 -1.2772
 4216SOL    HW224285   3.650   3.115   6.671 -1.1031 -0.4045 -0.2311
 4217SOL     OW24286   3.977   0.853   4.426  0.0549 -0.4861  0.3123
 4217SOL    HW124287   3.943   0.789   4.489 -1.7273  0.2075  0.0465
 4217SOL    HW224288   3.962   0.934   4.474 -1.9916 -0.6098 -0.1275
 4218SOL     OW24289   1.466   4.603   7.969 -0.2069  0.0166  0.4604
 4218SOL    HW124290   1.529   4.532   7.958  0.7011  1.0838 -1.2481
 4218SOL    HW224291   1.399   4.567   8.026  0.1886  1.7290  2.0230
 4219SOL     OW24292   3.805   1.586   5.536  0.2829 -0.0638 -0.4136
 4219SOL    HW124293   3.714   1.560   5.546  0.3050 -1.0986 -2.9052
 4219SOL    HW224294   3.827   1.543   5.453  0.0834 -1.2927  0.1776
 4220SOL     OW24295   2.755   3.000   4.158  0.3212  0.0165 -0.0189
 4220SOL    HW124296   2.683   3.057   4.130 -1.0146 -1.6705 -0.0179
 4220SOL    HW224297   2.759   2.954   4.074  1.5604  0.0374  0.0286
 4221SOL     OW24298   0.765   1.497  13.341  0.1538 -0.1538 -0.1517
 4221SOL    HW124299   0.807   1.457  13.265  1.2775  2.3650 -0.8558
 4221SOL    HW224300   0.677   1.524  13.315  0.6227  0.5640 -1.0344
 4222SOL     OW24301   1.753   2.901  16.542 -0.0046  0.0121 -0.6340
 4222SOL    HW124302   1.736   2.994  16.552  0.5759  0.1481 -0.9292
 4222SOL    HW224303   1.845   2.902  16.517  0.1914 -0.8130  0.0754
 4223SOL     OW24304   3.740   3.887   3.340  0.1118 -0.5480 -0.2070
 4223SOL    HW124305   3.716   3.918   3.427  1.6085 -1.7315  0.6226
 4223SOL    HW224306   3.696   3.958   3.292 -1.3571  1.0964  3.5953
 4224SOL     OW24307   0.956   3.988   4.247 -0.6102 -0.4467 -0.6476
 4224SOL    HW124308   1.018   4.057   4.226  0.1678 -1.4137 -1.5220
 4224SOL    HW224309   0.885   4.048   4.269 -0.2888 -0.3275  0.0511
 4225SOL     OW24310   4.680   4.334   1.823 -0.4348 -0.1089 -0.3428
 4225SOL    HW124311   4.723   4.249   1.832 -0.9705 -0.1547  1.7844
 4225SOL    HW224312   0.003   4.404   1.849 -0.0819 -1.1529  1.7011
 4226SOL     OW24313   1.318   3.395  13.202 -0.5139 -0.1162 -0.7522
 4226SOL    HW124314   1.346   3.439  13.122 -1.2593  2.0112  0.1602
 4226SOL    HW224315   1.366   3.313  13.212  0.9557  0.9084  0.6056
 4227SOL     OW24316   2.052   0.521   4.182  0.0056  0.1420 -0.3452
 4227SOL    HW124317   2.042   0.585   4.253 -2.8344  1.1244 -1.6275
 4227SOL    HW224318   2.144   0.498   4.193  0.0434  0.6488  0.4169
 4228SOL     OW24319   2.089   3.021   2.832 -0.8972  0.3966  0.0895
 4228SOL    HW124320   1.999   3.008   2.862 -0.6696 -1.8175 -0.1780
 4228SOL    HW224321   2.111   2.938   2.790  2.2620  1.0019  0.5007
 4229SOL     OW24322   3.054   2.127  13.426  0.2793  0.3469 -0.1772
 4229SOL    HW124323   3.142   2.126  13.388 -0.2315 -0.9781 -1.3028
 4229SOL    HW224324   3.007   2.173  13.357 -0.8579 -1.5506 -0.6316
 4230SOL     OW24325   2.491   2.845  17.708 -0.3834  0.1871 -0.1691
 4230SOL    HW124326   2.427   2.901  17.664  0.3358 -0.6879 -2.2964
 4230SOL    HW224327   2.530   2.914   0.012 -0.8548  0.0180  0.4016
 4231SOL     OW24328   2.893   0.390  13.853  0.1243 -0.5237  0.4660
 4231SOL    HW124329   2.963   0.374  13.789  0.4305  0.3732  0.5687
 4231SOL    HW224330   2.893   0.486  13.849 -0.1437 -0.5829 -0.9563
 4232SOL     OW24331   0.914   0.035   4.633  0.4631  0.0274  0.7916
 4232SOL    HW124332   0.850   0.094   4.674 -1.1702 -0.8619 -0.4492
 4232SOL    HW224333   0.977   0.103   4.610  1.7801 -1.3230  0.4452
 4233SOL     OW24334   3.857   2.120  12.874 -0.1730  0.0992  0.3079
 4233SOL    HW124335   3.898   2.200  12.840  0.8377 -0.6269 -0.1819
 4233SOL    HW224336   3.894   2.122  12.962 -1.4723  0.8294  0.8341
 4234SOL     OW24337   2.524   4.315   5.974 -0.1001 -0.3069  0.0699
 4234SOL    HW124338   2.484   4.271   5.899 -1.5329  0.5224  0.3576
 4234SOL    HW224339   2.442   4.328   6.022 -1.5151 -0.8625 -2.2236
 4235SOL     OW24340   2.788   1.689   0.573 -0.0881  0.4165 -0.5192
 4235SOL    HW124341   2.831   1.742   0.640 -3.4290  2.1362  0.2533
 4235SOL    HW224342   2.791   1.600   0.609  1.9224  1.1787  1.2343
 4236SOL     OW24343   0.375   2.313   7.666  0.9266  0.0701  0.1965
 4236SOL    HW124344   0.344   2.352   7.747  1.9594  0.5894  0.3439
 4236SOL    HW224345   0.298   2.266   7.634 -0.5975  2.2808  0.6162
 4237SOL     OW24346   1.087   3.385   7.729  0.5111  0.2341  0.2369
 4237SOL    HW124347   1.062   3.297   7.699 -1.6042  0.3945  1.5078
 4237SOL    HW224348   1.146   3.349   7.795 -0.9360  0.9460  1.9349
 4238SOL     OW24349   1.297   0.673   1.904 -0.1277 -0.4427  0.3729
 4238SOL    HW124350   1.366   0.644   1.845 -0.1026 -1.1824  0.7727
 4238SOL    HW224351   1.261   0.742   1.848  0.1615  2.0399  3.2854
 4239SOL     OW24352   0.261   3.512   4.823  0.3572  0.1548  1.0512
 4239SOL    HW124353   0.204   3.436   4.812 -1.7954  1.8791  0.5586
 4239SOL    HW224354   0.268   3.524   4.917  1.0601  1.5935  0.8208
 4240SOL     OW24355   0.695   3.123   3.217  0.0078  0.5322  0.4956
 4240SOL    HW124356   0.724   3.040   3.253 -0.5376 -0.8449 -2.2588
 4240SOL    HW224357   0.617   3.093   3.170 -0.0338  0.5717  0.5386
 4241SOL     OW24358   4.682   3.291   5.392  0.3879 -0.0927  0.4963
 4241SOL    HW124359   4.592   3.311   5.418  0.2171  1.5918 -1.4023
 4241SOL    HW224360   4.717   3.274   5.479  0.9089 -0.7515  0.1560
 4242SOL     OW24361   1.702   1.615   8.078 -0.0169 -0.4270  0.1582
 4242SOL    HW124362   1.769   1.646   8.017 -0.4169  2.0089  0.9946
 4242SOL    HW224363   1.715   1.664   8.158 -0.1853  0.2432 -0.2269
 4243SOL     OW24364   4.479   2.060   2.708  0.0807  0.0710  0.2145
 4243SOL    HW124365   4.457   2.132   2.648 -1.9995  0.7987  1.8359
 4243SOL    HW224366   4.458   2.096   2.794  1.3884 -0.5736  0.7926
 4244SOL     OW24367   4.158   1.471   7.264 -0.3254  0.0213  0.1972
 4244SOL    HW124368   4.097   1.531   7.221  0.8025  1.2125  0.2329
 4244SOL    HW224369   4.165   1.479   7.359  1.9075  4.5326 -0.3151
 4245SOL     OW24370   0.483   2.151   8.704  0.0038 -0.0671 -0.1880
 4245SOL    HW124371   0.512   2.065   8.733  0.8514 -0.0249 -0.9044
 4245SOL    HW224372   0.511   2.142   8.613  0.0235  1.9236 -0.3859
 4246SOL     OW24373   2.634   3.253   7.535  0.0360  0.1824  0.3031
 4246SOL    HW124374   2.694   3.255   7.610 -0.0676 -0.1536  0.3934
 4246SOL    HW224375   2.563   3.308   7.567  0.5739  1.2115 -0.2716
 4247SOL     OW24376   1.260   0.541  13.003  0.1226 -0.0163  0.1167
 4247SOL    HW124377   1.243   0.481  12.931  0.2789 -0.0046  0.0719
 4247SOL    HW224378   1.278   0.481  13.075 -0.2482 -0.5053 -0.1992
 4248SOL     OW24379   3.197   0.845   4.240 -0.1744 -0.2480  0.2356
 4248SOL    HW124380   3.140   0.906   4.286  1.1213  1.0481  0.1533
 4248SOL    HW224381   3.142   0.768   4.232  1.2291 -1.1288 -0.8850
 4249SOL     OW24382   4.690   2.307   3.059  0.1963  0.2232  0.0600
 4249SOL    HW124383   4.638   2.370   3.011  0.7517  0.5813 -0.0768
 4249SOL    HW224384   0.043   2.315   3.027  0.4088  3.0478  1.3682
 4250SOL     OW24385   0.148   3.142   6.479 -0.1383  0.0678 -0.1112
 4250SOL    HW124386   0.233   3.132   6.522 -0.4123  2.0373  0.9008
 4250SOL    HW224387   0.165   3.209   6.413  1.8776 -0.6301 -0.2902
 4251SOL     OW24388   1.863   3.882   4.987 -0.8292 -0.0664 -0.0286
 4251SOL    HW124389   1.843   3.941   5.059  0.9826 -0.4478  0.7799
 4251SOL    HW224390   1.790   3.888   4.926 -0.1182  1.6421 -0.7169
 4252SOL     OW24391   3.476   0.050   0.725  0.0298  0.1238  0.1312
 4252SOL    HW124392   3.423   0.089   0.655 -1.6129 -1.9487  0.2152
 4252SOL    HW224393   3.486   4.698   0.696 -1.8182  0.2850 -0.9881
 4253SOL     OW24394   4.011   2.197   5.303 -0.5059  0.2655  0.2303
 4253SOL    HW124395   3.933   2.150   5.332 -0.0296 -1.8951 -1.9925
 4253SOL    HW224396   3.982   2.287   5.319 -0.0354  0.5672 -0.5969
 4254SOL     OW24397   3.632   3.933   2.587 -0.0444  0.9986  0.1042
 4254SOL    HW124398   3.589   3.939   2.673 -0.7671 -1.0466 -0.1090
 4254SOL    HW224399   3.678   4.015   2.572  0.8968  0.1741 -1.5123
 4255SOL     OW24400   3.566   3.824   4.449 -0.0508  0.0999 -0.6601
 4255SOL    HW124401   3.648   3.808   4.403  1.0924  1.4261  0.9060
 4255SOL    HW224402   3.506   3.765   4.404 -0.1396  0.0786 -0.5158
 4256SOL     OW24403   4.375   0.925  14.188  0.0291 -0.6154 -0.2003
 4256SOL    HW124404   4.344   1.015  14.183 -1.6386 -1.1356  0.6293
 4256SOL    HW224405   4.405   0.919  14.279  0.2682  0.1152 -0.2351
 4257SOL     OW24406   4.626   3.527  11.109  0.0482 -0.1978  0.1731
 4257SOL    HW124407   4.541   3.490  11.130  0.5954 -0.2920  2.2086
 4257SOL    HW224408   4.671   3.468  11.049  0.1512 -0.6641  0.7057
 4258SOL     OW24409   3.899   2.866  10.458 -0.2627 -0.4444  0.7517
 4258SOL    HW124410   3.855   2.782  10.477  0.1552 -0.8318 -0.0132
 4258SOL    HW224411   3.988   2.833  10.443 -0.4231 -0.1898 -0.7540
 4259SOL     OW24412   1.363   4.351  17.035 -0.1577  0.1310 -0.8263
 4259SOL    HW124413   1.398   4.332  17.123  1.1530 -1.5974 -1.7109
 4259SOL    HW224414   1.387   4.272  16.986  0.1205 -0.6348  0.5339
 4260SOL     OW24415   4.615   2.065  14.637  0.4894 -0.1185 -0.3062
 4260SOL    HW124416   4.569   2.125  14.578  2.4322  1.5203 -0.1527
 4260SOL    HW224417   4.604   2.106  14.723  1.1970  0.0561 -0.2985
 4261SOL     OW24418   1.239   1.482   4.564  0.6307 -0.1614 -0.2228
 4261SOL    HW124419   1.261   1.540   4.491  0.5546 -0.6405 -0.6278
 4261SOL    HW224420   1.251   1.396   4.525  1.3765  0.3789 -1.1817
 4262SOL     OW24421   1.397   1.751   7.702 -0.5997  0.1684  0.1832
 4262SOL    HW124422   1.417   1.747   7.609  0.2749  1.1625  0.3265
 4262SOL    HW224423   1.381   1.844   7.719 -0.0332  0.7724 -2.5523
 4263SOL     OW24424   4.309   2.456   3.188 -0.3968  0.2911 -0.1883
 4263SOL    HW124425   4.236   2.439   3.247 -0.7070  1.1709 -0.3316
 4263SOL    HW224426   4.362   2.385   3.224  1.3068  0.7025 -1.8970
 4264SOL     OW24427   1.522   0.258   9.604 -0.1779 -0.5056 -0.0306
 4264SOL    HW124428   1.463   0.333   9.607 -0.6586 -0.7427 -3.2086
 4264SOL    HW224429   1.463   0.183   9.606  0.1305 -0.7709 -0.7162
 4265SOL     OW24430   3.183   0.094   7.744  0.1599 -0.0976  0.2052
 4265SOL    HW124431   3.119   0.156   7.779 -0.0958 -0.8411  1.0680
 4265SOL    HW224432   3.160   0.087   7.651 -2.0198  0.5904  0.6855
 4266SOL     OW24433   2.785   3.252   0.192  0.2235  0.4084  0.4985
 4266SOL    HW124434   2.759   3.320   0.255  1.2046  1.1298  0.1307
 4266SOL    HW224435   2.857   3.212   0.241  0.7935  2.3704  1.2631
 4267SOL     OW24436   3.208   3.359   7.316  0.1352 -0.0487 -0.4356
 4267SOL    HW124437   3.241   3.447   7.301 -2.4054  0.8208 -0.8434
 4267SOL    HW224438   3.214   3.352   7.411  1.3105  0.7563 -0.4512
 4268SOL     OW24439   4.587   4.322   5.926 -0.5145  0.1478 -0.4349
 4268SOL    HW124440   4.632   4.403   5.951 -2.9794  1.1711  0.6343
 4268SOL    HW224441   4.626   4.257   5.985  0.9516 -0.7922 -2.4403
 4269SOL     OW24442   4.644   1.516   0.332  0.0718  0.0484  0.2591
 4269SOL    HW124443   4.603   1.550   0.252  0.7224 -1.5879 -0.7921
 4269SOL    HW224444   4.685   1.434   0.303  1.1910  1.2772 -1.6733
 4270SOL     OW24445   1.932   2.943   1.916  0.8448  0.3695 -0.1012
 4270SOL    HW124446   1.896   2.873   1.969 -2.2439  2.3553  0.4247
 4270SOL    HW224447   1.915   3.017   1.974  1.3324  1.8293 -1.7875
 4271SOL     OW24448   4.599   4.561  11.043  0.3655 -0.3469 -0.0643
 4271SOL    HW124449   4.680   4.549  11.093  0.8630 -1.4842 -1.1342
 4271SOL    HW224450   4.565   4.634  11.095 -0.3612  0.3926 -1.5771
 4272SOL     OW24451   1.125   0.160   2.524 -0.4400  0.2786  0.2657
 4272SOL    HW124452   1.159   0.237   2.478 -1.4388 -0.6759 -2.0519
 4272SOL    HW224453   1.110   0.097   2.454  0.5209 -0.2549  0.5549
 4273SOL     OW24454   0.540   2.905  12.699  0.0990 -0.0809  0.7675
 4273SOL    HW124455   0.600   2.952  12.756  2.9007 -2.2666 -0.3646
 4273SOL    HW224456   0.479   2.876  12.768  1.0402  0.1393  1.6911
 4274SOL     OW24457   1.179   1.298  17.649  0.1048 -0.3925 -0.6263
 4274SOL    HW124458   1.192   1.355  17.573 -2.2753  1.0384  0.0121
 4274SOL    HW224459   1.191   1.367  17.714  0.5487 -0.6083 -0.4815
 4275SOL     OW24460   3.162   1.728   8.793  0.6083  0.0746 -0.0645
 4275SOL    HW124461   3.141   1.810   8.749 -0.1841 -0.5649 -0.9097
 4275SOL    HW224462   3.246   1.747   8.834  0.2786 -1.8938  1.5069
 4276SOL     OW24463   3.230   3.297  17.592 -0.1602  0.2055 -0.6460
 4276SOL    HW124464   3.217   3.238  17.518 -1.5895  0.0099 -0.2374
 4276SOL    HW224465   3.300   3.355  17.562 -0.6548  1.7124  1.0268
 4277SOL     OW24466   0.920   1.860   7.812  0.2598  0.0787 -0.2192
 4277SOL    HW124467   0.935   1.800   7.885  1.4016 -1.4001 -1.6563
 4277SOL    HW224468   0.916   1.800   7.737  0.4529  0.5681 -0.6186
 4278SOL     OW24469   2.879   0.184  10.516  0.4523 -0.3686 -0.3208
 4278SOL    HW124470   2.805   0.125  10.497 -0.3220 -0.3591  2.7006
 4278SOL    HW224471   2.855   0.263  10.467 -2.3066  0.2663  2.0608
 4279SOL     OW24472   2.947   3.178   9.038 -0.5678 -0.4606 -0.0073
 4279SOL    HW124473   2.922   3.180   9.130  1.6652 -1.7776  0.6256
 4279SOL    HW224474   2.861   3.201   9.003  0.2950  0.2535 -1.6707
 4280SOL     OW24475   2.244   2.879   5.257 -0.1842  0.1177  0.0776
 4280SOL    HW124476   2.251   2.901   5.164  2.8970  0.2482  0.3372
 4280SOL    HW224477   2.247   2.965   5.300  3.2064  0.4147 -0.7331
 4281SOL     OW24478   4.478   1.733   2.038 -0.0627 -0.2932  0.1228
 4281SOL    HW124479   4.473   1.640   2.059  0.0187 -0.6477 -1.4415
 4281SOL    HW224480   4.391   1.736   1.997 -0.7902  0.2947  1.7399
 4282SOL     OW24481   3.668   0.110   3.630  0.3491  0.1157 -0.0793
 4282SOL    HW124482   3.641   0.198   3.658  0.5913  0.0684  0.3061
 4282SOL    HW224483   3.659   0.059   3.710 -0.9757 -1.6119 -1.3278
 4283SOL     OW24484   2.847   0.806   8.551 -0.4630  0.0358  0.4768
 4283SOL    HW124485   2.923   0.850   8.588  0.5949 -0.2705 -1.3048
 4283SOL    HW224486   2.860   0.829   8.459  1.0677 -0.8681  0.4622
 4284SOL     OW24487   0.758   0.410  14.806 -0.3930  0.4002 -0.5151
 4284SOL    HW124488   0.667   0.402  14.776 -0.7448  0.2659  0.5848
 4284SOL    HW224489   0.799   0.342  14.752  1.1699  1.0673 -0.1527
 4285SOL     OW24490   1.442   3.180  13.271  0.1978  0.1831  0.0521
 4285SOL    HW124491   1.370   3.123  13.297  0.9977 -0.8081  0.0866
 4285SOL    HW224492   1.510   3.130  13.317  0.2218  0.3391  0.1857
 4286SOL     OW24493   0.924   3.416   9.117  0.6361  0.3164 -0.4655
 4286SOL    HW124494   0.840   3.453   9.088 -0.5664 -1.8470  0.2732
 4286SOL    HW224495   0.955   3.476   9.186 -0.6946  0.7841 -0.2587
 4287SOL     OW24496   2.943   4.212   8.215  0.4081  0.3544  0.3701
 4287SOL    HW124497   2.870   4.209   8.277  0.1162  4.1391  0.2560
 4287SOL    HW224498   2.939   4.304   8.188 -3.0076 -0.3074 -1.3410
 4288SOL     OW24499   3.095   3.360   6.293 -0.5207 -0.6211 -0.3036
 4288SOL    HW124500   3.004   3.338   6.274 -0.6404  1.3277 -1.9918
 4288SOL    HW224501   3.094   3.340   6.387  1.5322  0.7904  0.0069
 4289SOL     OW24502   1.179   2.310   4.420 -0.1384 -0.1495  0.5680
 4289SOL    HW124503   1.203   2.222   4.393  0.9692  0.5373 -0.7264
 4289SOL    HW224504   1.176   2.307   4.516  2.0753 -1.7177  0.5797
 4290SOL     OW24505   2.614   4.213   0.692 -0.1399 -0.1667 -0.2657
 4290SOL    HW124506   2.656   4.203   0.777  1.0808  1.8975 -0.6151
 4290SOL    HW224507   2.680   4.270   0.650 -2.1766  2.5891  0.2645
 4291SOL     OW24508   2.443   3.978   2.799 -0.2020  0.0585 -0.1751
 4291SOL    HW124509   2.445   3.911   2.731  1.0248 -0.8997  0.8063
 4291SOL    HW224510   2.527   4.023   2.791 -0.3098  0.5424  1.4294
 4292SOL     OW24511   2.884   0.450   9.592 -0.6054 -0.3111  0.0437
 4292SOL    HW124512   2.792   0.473   9.585  0.5967  4.1175 -1.5027
 4292SOL    HW224513   2.890   0.355   9.580  0.8813 -0.2404  0.1795
 4293SOL     OW24514   4.618   2.371   6.274 -0.1408  0.7066  0.4434
 4293SOL    HW124515   4.622   2.413   6.187 -0.6795  0.4602  0.2993
 4293SOL    HW224516   4.663   2.442   6.319  0.2362 -0.0632  1.2686
 4294SOL     OW24517   3.973   2.717   7.918 -0.3458  0.4792  0.0000
 4294SOL    HW124518   3.969   2.700   8.012  0.1889  1.9569  0.2922
 4294SOL    HW224519   4.055   2.677   7.890 -0.3903 -0.3456  1.0571
 4295SOL     OW24520   2.397   4.247   4.284 -0.0375  0.5880 -0.7614
 4295SOL    HW124521   2.367   4.305   4.214  1.8349  2.3381 -0.1120
 4295SOL    HW224522   2.429   4.312   4.346 -1.5227 -0.7503  1.3918
 4296SOL     OW24523   3.317   1.084  16.510  0.4136  0.4785  0.0587
 4296SOL    HW124524   3.347   1.028  16.438 -1.2244  0.3837 -0.5520
 4296SOL    HW224525   3.261   1.015  16.545 -0.1681  0.5343 -0.7652
 4297SOL     OW24526   3.454   4.612  14.752 -1.0253  0.5543 -0.0097
 4297SOL    HW124527   3.444   4.573  14.665 -3.9839  0.1202  0.5137
 4297SOL    HW224528   3.541   4.650  14.739  0.7417 -3.1910  0.8977
 4298SOL     OW24529   1.618   2.049  15.493 -0.0841 -0.5650  0.3045
 4298SOL    HW124530   1.578   1.965  15.514  0.8474 -0.7055  1.4803
 4298SOL    HW224531   1.561   2.097  15.552  0.0061 -0.2949  0.1727
 4299SOL     OW24532   4.357   1.303  14.390 -0.2152  0.0122 -0.5318
 4299SOL    HW124533   4.436   1.264  14.428 -1.2383 -0.6292  0.9122
 4299SOL    HW224534   4.370   1.385  14.438  1.9245 -0.4582 -0.3197
 4300SOL     OW24535   3.656   2.048   5.926  0.0865  0.2059 -0.5216
 4300SOL    HW124536   3.636   2.077   6.015  2.6058 -0.8360  0.3887
 4300SOL    HW224537   3.594   1.975   5.921 -1.3466  1.4378 -0.6749
 4301SOL     OW24538   1.365   3.432   2.915  0.4714  0.1017 -0.7258
 4301SOL    HW124539   1.319   3.394   2.839 -0.3993  0.5163 -0.4047
 4301SOL    HW224540   1.393   3.348   2.952 -0.7530  0.3002  0.6559
 4302SOL     OW24541   3.121   0.675  11.854 -0.4304 -0.4537 -0.0479
 4302SOL    HW124542   3.043   0.679  11.800 -0.1827  1.1653 -0.2735
 4302SOL    HW224543   3.166   0.755  11.826 -2.5279  0.1851 -1.5556
 4303SOL     OW24544   2.618   0.196   9.232 -0.4864 -0.0536 -0.2695
 4303SOL    HW124545   2.543   0.138   9.225 -0.5447 -0.2357  1.8787
 4303SOL    HW224546   2.577   0.271   9.188  3.2720  2.1218 -0.1113
 4304SOL     OW24547   1.647   3.257   4.094  0.1108 -0.0082 -0.2345
 4304SOL    HW124548   1.589   3.196   4.140 -0.0781  0.5709  0.3051
 4304SOL    HW224549   1.611   3.257   4.006 -0.0692 -0.7693 -0.1641
 4305SOL     OW24550   1.490   1.269   3.827  0.4426  0.3192 -0.4054
 4305SOL    HW124551   1.481   1.242   3.736 -1.7747  1.9447 -0.6819
 4305SOL    HW224552   1.440   1.201   3.872 -0.2312  0.5889 -0.7443
 4306SOL     OW24553   0.716   1.982   4.348  0.0901 -0.5462 -0.5883
 4306SOL    HW124554   0.635   1.937   4.325  0.1633 -0.7883 -0.3663
 4306SOL    HW224555   0.758   1.983   4.261 -0.4138 -2.4510 -0.8387
 4307SOL     OW24556   4.692   3.656   4.203 -0.9367 -0.4387  0.0051
 4307SOL    HW124557   4.604   3.621   4.219 -1.0411 -0.7098 -1.1788
 4307SOL    HW224558   4.697   3.664   4.108  2.3197 -0.1480  0.2154
 4308SOL     OW24559   0.895   3.244   4.046 -0.0637 -0.3899  0.1668
 4308SOL    HW124560   0.987   3.223   4.030 -0.5587 -0.7320 -2.1859
 4308SOL    HW224561   0.904   3.284   4.133  2.0582  0.4185 -0.4382
 4309SOL     OW24562   3.118   1.774   5.516 -0.4159  0.1730  0.1495
 4309SOL    HW124563   3.177   1.778   5.441 -0.5715 -1.2238 -0.0454
 4309SOL    HW224564   3.155   1.844   5.569 -0.2226  1.6953 -2.0010
 4310SOL     OW24565   4.703   1.407   9.865 -0.0170  0.2189  0.3610
 4310SOL    HW124566   4.621   1.439   9.828 -0.9806 -1.8729  0.7195
 4310SOL    HW224567   0.009   1.375   9.786 -2.4822  0.6191 -1.1559
 4311SOL     OW24568   4.051   1.936   9.097  0.3618  0.3322 -0.2891
 4311SOL    HW124569   4.144   1.940   9.076  0.8667  0.9883  2.1252
 4311SOL    HW224570   4.010   1.998   9.036  1.4826  0.0319 -1.3606
 4312SOL     OW24571   4.409   4.066   6.233  0.2595  0.2832 -0.3698
 4312SOL    HW124572   4.379   3.977   6.216  0.6089  0.3172 -1.1597
 4312SOL    HW224573   4.324   4.101   6.260  1.4664  0.7295  2.9277
 4313SOL     OW24574   3.181   3.117   2.894  0.1188  0.3928 -0.0158
 4313SOL    HW124575   3.154   3.146   2.807  0.6914  1.8400  0.2761
 4313SOL    HW224576   3.271   3.148   2.882  1.0735 -2.4482 -0.0766
 4314SOL     OW24577   2.260   0.004   1.006 -0.5353 -0.2172 -0.4880
 4314SOL    HW124578   2.238   4.658   1.046 -0.2109  0.4776  1.1077
 4314SOL    HW224579   2.351   4.729   0.978 -0.4019 -0.4814  0.0690
 4315SOL     OW24580   0.943   4.384   8.792  0.0365 -0.7302  0.1320
 4315SOL    HW124581   0.983   4.323   8.729  3.0175  0.4323  0.8893
 4315SOL    HW224582   1.028   4.424   8.807 -0.8822  1.4721 -0.5700
 4316SOL     OW24583   4.687   0.372   9.240 -0.2004  0.0512 -0.9478
 4316SOL    HW124584   4.673   0.283   9.270 -0.9889  0.6566  0.4742
 4316SOL    HW224585   4.738   0.402   9.315  0.8327 -2.0990 -0.8173
 4317SOL     OW24586   0.125   1.125   6.297  0.0164  0.1713  0.3287
 4317SOL    HW124587   0.112   1.030   6.291  1.5298  0.0437 -0.9587
 4317SOL    HW224588   0.135   1.151   6.206  0.1374 -1.6147 -0.1746
 4318SOL     OW24589   1.214   1.457  17.408 -0.4044  0.1309  0.0239
 4318SOL    HW124590   1.257   1.522  17.463 -0.7812 -1.4946  2.2165
 4318SOL    HW224591   1.208   1.508  17.327 -0.2230 -0.1205 -0.1530
 4319SOL     OW24592   1.045   1.853  10.168 -0.1844  0.1450 -0.3803
 4319SOL    HW124593   0.967   1.908  10.178 -0.0804 -0.1937  2.3521
 4319SOL    HW224594   1.050   1.860  10.073  0.1577  2.7403 -0.1684
 4320SOL     OW24595   0.653   0.424   9.576 -0.2783 -0.0690 -0.2692
 4320SOL    HW124596   0.561   0.450   9.568 -0.3754 -0.5371 -0.6946
 4320SOL    HW224597   0.642   0.350   9.516 -0.9460  1.1189 -1.6031
 4321SOL     OW24598   2.540   4.047  17.657  0.4858  1.1280 -0.1920
 4321SOL    HW124599   2.588   3.998  17.590 -2.2861  2.3532 -3.0455
 4321SOL    HW224600   2.616   4.099  17.683  0.1888  2.2990 -1.6719
 4322SOL     OW24601   1.073   0.242  17.365 -0.0047 -0.5149 -0.2140
 4322SOL    HW124602   1.083   0.300  17.441 -0.0924  1.0971 -1.4359
 4322SOL    HW224603   1.108   0.157  17.391  0.5647 -0.1273  0.2837
 4323SOL     OW24604   2.479   1.837  14.856 -0.3277 -0.5954  0.0686
 4323SOL    HW124605   2.544   1.894  14.816 -0.1190 -0.6770  0.2949
 4323SOL    HW224606   2.464   1.777  14.782 -3.4427  0.1607  0.0843
 4324SOL     OW24607   0.201   0.550   3.559 -0.3991  0.1569  0.0470
 4324SOL    HW124608   0.111   0.583   3.551  0.6379  2.7486 -0.7009
 4324SOL    HW224609   0.232   0.592   3.639 -3.0421  1.0391  0.6383
 4325SOL     OW24610   2.620   3.514  11.844 -0.3699  0.2634 -0.2626
 4325SOL    HW124611   2.622   3.610  11.848 -0.4109  0.2102  1.2537
 4325SOL    HW224612   2.526   3.509  11.826 -0.5157  0.8714  0.3053
 4326SOL     OW24613   4.731   3.995  16.876 -0.5219  0.6328  0.0242
 4326SOL    HW124614   4.668   4.000  16.948  0.3675 -1.1741  0.9358
 4326SOL    HW224615   0.073   4.030  16.917 -0.5545  0.1123  0.5286
 4327SOL     OW24616   0.915   2.461  12.833  0.3206  0.5652  0.0938
 4327SOL    HW124617   0.977   2.525  12.868  1.4572 -0.6948  0.3809
 4327SOL    HW224618   0.943   2.440  12.744 -0.5472  2.2592 -0.5830
 4328SOL     OW24619   2.241   3.168   6.381 -0.1296 -0.2530 -0.2397
 4328SOL    HW124620   2.269   3.255   6.408  2.0424 -0.5131 -1.6444
 4328SOL    HW224621   2.224   3.180   6.287 -0.4317 -1.2329 -0.3136
 4329SOL     OW24622   4.476   4.697   5.691 -0.4174  1.0784  0.6139
 4329SOL    HW124623   4.477   0.055   5.682 -1.3751  1.0477  0.2554
 4329SOL    HW224624   4.435   4.671   5.609  0.3351  3.6637 -0.6121
 4330SOL     OW24625   0.786   1.371   3.320 -0.5663  0.1732  0.8583
 4330SOL    HW124626   0.839   1.313   3.373 -0.1448  1.9848  2.4273
 4330SOL    HW224627   0.719   1.312   3.285  1.3217 -0.8985 -0.9391
 4331SOL     OW24628   2.801   1.730   1.834  0.4155  0.1629 -0.2524
 4331SOL    HW124629   2.785   1.660   1.897  1.4323  0.2318  0.0959
 4331SOL    HW224630   2.809   1.802   1.895  0.0692  1.2112 -1.4371
 4332SOL     OW24631   1.464   0.003   6.922  0.2792  0.4046  0.0195
 4332SOL    HW124632   1.401   0.063   6.961 -0.0957  1.9532 -2.9338
 4332SOL    HW224633   1.451   4.668   6.983 -2.0265 -2.1942 -3.6084
 4333SOL     OW24634   1.247   4.137   2.707 -0.3851  0.3381  0.0723
 4333SOL    HW124635   1.262   4.218   2.754  0.9358  0.5929 -0.7781
 4333SOL    HW224636   1.266   4.068   2.771  1.8024  1.1168  0.2738
 4334SOL     OW24637   4.563   1.502   5.023  0.0645 -0.4973 -0.4784
 4334SOL    HW124638   4.501   1.573   5.038 -0.7215 -1.6179  1.5821
 4334SOL    HW224639   4.508   1.431   5.056  1.1205 -1.4795 -0.8451
 4335SOL     OW24640   4.547   0.978   6.707  0.8258  0.0962 -0.1704
 4335SOL    HW124641   4.575   1.068   6.691  0.7057  0.2255  0.3394
 4335SOL    HW224642   4.535   0.968   6.802  0.1328 -0.2023 -0.2888
 4336SOL     OW24643   1.486   4.245  17.250 -0.3641 -0.2765 -0.8985
 4336SOL    HW124644   1.484   4.165  17.304 -0.0657  1.1367  1.2188
 4336SOL    HW224645   1.501   4.311  17.318  0.4707 -1.4235  0.0354
 4337SOL     OW24646   3.367   3.284  12.283 -0.4159 -0.1942  0.0413
 4337SOL    HW124647   3.406   3.197  12.267  1.3063  0.0591  2.8335
 4337SOL    HW224648   3.279   3.248  12.297 -0.3107  0.3146  2.0463
 4338SOL     OW24649   1.721   4.547  13.036 -0.1758 -0.5660 -0.9250
 4338SOL    HW124650   1.747   4.516  12.949  0.0610  3.3969 -2.2856
 4338SOL    HW224651   1.703   4.469  13.089 -2.3034 -0.3956 -1.3969
 4339SOL     OW24652   3.612   4.234  11.464 -0.1324  0.4380  0.2433
 4339SOL    HW124653   3.602   4.289  11.542  0.5262 -2.0798  2.0931
 4339SOL    HW224654   3.551   4.161  11.476 -0.2135  0.7826  1.9314
 4340SOL     OW24655   1.558   0.711   4.830  0.1194  0.1204  0.3097
 4340SOL    HW124656   1.503   0.771   4.779 -2.3864 -0.3774  2.4798
 4340SOL    HW224657   1.639   0.715   4.779  0.0580  0.4519  0.2378
 4341SOL     OW24658   3.200   0.072  12.895 -0.3257  0.0398  0.5976
 4341SOL    HW124659   3.142   0.118  12.835 -1.9141  1.0625  2.9635
 4341SOL    HW224660   3.243   0.141  12.945 -1.8505  1.8090 -0.5672
 4342SOL     OW24661   3.586   3.624  15.356  0.8029  0.4352  0.0110
 4342SOL    HW124662   3.558   3.624  15.264  3.2886 -1.3926 -0.7238
 4342SOL    HW224663   3.680   3.614  15.343  0.5422 -0.8904 -0.8616
 4343SOL     OW24664   4.450   4.171  14.823 -0.2073  0.2315  0.8727
 4343SOL    HW124665   4.455   4.076  14.835 -0.5233  0.1736  0.5433
 4343SOL    HW224666   4.364   4.183  14.783  0.3495 -0.7520 -0.6176
 4344SOL     OW24667   2.863   2.155   4.425  0.9178  0.1351  0.7743
 4344SOL    HW124668   2.802   2.091   4.387  1.2147 -0.5996  1.5374
 4344SOL    HW224669   2.848   2.223   4.359  0.0094 -0.2815  0.5593
 4345SOL     OW24670   0.286   1.017   0.938 -0.3367 -0.5549 -0.5805
 4345SOL    HW124671   0.254   1.008   0.848  0.4657  0.1858 -0.9370
 4345SOL    HW224672   0.373   0.976   0.942  1.2346  2.7468 -0.7992
 4346SOL     OW24673   0.040   2.165   4.175  0.1749  0.4641  0.4786
 4346SOL    HW124674   0.113   2.136   4.229 -1.5968  1.5714  3.4871
 4346SOL    HW224675   0.087   2.184   4.094 -0.3401 -1.1001 -0.1774
 4347SOL     OW24676   3.803   4.427   8.352  0.4538  0.1275  0.2340
 4347SOL    HW124677   3.758   4.490   8.407 -2.5192 -1.0912 -0.7969
 4347SOL    HW224678   3.747   4.349   8.355  2.8174 -1.5127  1.3857
 4348SOL     OW24679   1.083   2.044   0.278 -0.0574  0.5404  0.3129
 4348SOL    HW124680   1.111   2.058   0.187  0.7071 -2.0857  0.1445
 4348SOL    HW224681   0.987   2.046   0.274 -0.0211 -1.3150 -1.5210
 4349SOL     OW24682   3.845   4.194   6.832 -0.2010 -0.3083  0.8801
 4349SOL    HW124683   3.830   4.283   6.799 -0.2125  0.3513  2.6718
 4349SOL    HW224684   3.923   4.202   6.887  0.9593  3.1878 -1.2551
 4350SOL     OW24685   2.208   1.113  12.178  0.4020 -0.2025  0.0905
 4350SOL    HW124686   2.299   1.085  12.179 -0.2720 -2.3579  1.1517
 4350SOL    HW224687   2.187   1.106  12.271 -0.6093  0.5222 -0.0785
 4351SOL     OW24688   0.375   3.100   7.574 -0.1305 -0.0326 -0.3989
 4351SOL    HW124689   0.301   3.041   7.588  0.2486 -0.1193  1.2501
 4351SOL    HW224690   0.441   3.075   7.638 -1.2238  0.4844  0.9505
 4352SOL     OW24691   1.691   2.834   8.292  0.3097  0.5574 -0.1524
 4352SOL    HW124692   1.625   2.768   8.270  2.2113 -1.1249 -0.8705
 4352SOL    HW224693   1.670   2.828   8.385 -1.2986  1.9087 -0.4337
 4353SOL     OW24694   0.845   4.016  12.396 -0.5808 -0.5063 -0.4107
 4353SOL    HW124695   0.933   4.053  12.396 -1.5325  1.7703  0.2615
 4353SOL    HW224696   0.811   4.030  12.484 -0.6841  1.1517 -0.7209
 4354SOL     OW24697   3.088   2.369   5.020 -0.0267  0.0893  0.1393
 4354SOL    HW124698   3.055   2.452   4.987  1.3959  0.7077  0.2813
 4354SOL    HW224699   3.155   2.399   5.081 -3.8308  2.6338  3.0382
 4355SOL     OW24700   1.554   1.105   5.088 -0.6226  0.0849  0.2103
 4355SOL    HW124701   1.501   1.151   5.023  0.7079  2.2196  0.6289
 4355SOL    HW224702   1.576   1.019   5.052 -1.3514  0.2390 -0.5955
 4356SOL     OW24703   0.819   4.203  12.677 -0.3337  0.4883 -0.0609
 4356SOL    HW124704   0.758   4.276  12.670 -0.7384  0.2259  0.7186
 4356SOL    HW224705   0.900   4.251  12.663 -1.0778  1.0512 -2.3847
 4357SOL     OW24706   4.235   1.156  14.199 -0.0852  0.0538 -0.1654
 4357SOL    HW124707   4.302   1.214  14.235 -0.1564 -0.2440  0.4530
 4357SOL    HW224708   4.184   1.164  14.280  1.7932 -0.3384  1.0744
 4358SOL     OW24709   0.238   4.554   7.702 -0.7916  0.1687 -0.0067
 4358SOL    HW124710   0.248   4.461   7.724  2.6280  0.7773  1.0306
 4358SOL    HW224711   0.321   4.591   7.732 -0.5273 -1.3649  1.1593
 4359SOL     OW24712   2.433   4.146   8.816 -0.4404  0.1457 -0.5943
 4359SOL    HW124713   2.496   4.105   8.757  1.0242 -0.2468  1.2203
 4359SOL    HW224714   2.408   4.227   8.771  0.4772  0.1455 -1.1086
 4360SOL     OW24715   1.915   0.816  17.107  0.2474  0.0439  0.9027
 4360SOL    HW124716   1.833   0.772  17.087  1.0332 -1.2249  0.4739
 4360SOL    HW224717   1.984   0.783  17.049 -0.6256 -1.7385  0.8807
 4361SOL     OW24718   1.984   1.891   4.645  0.5235 -0.1321 -0.0092
 4361SOL    HW124719   1.997   1.837   4.723 -1.0268 -3.0695 -1.7667
 4361SOL    HW224720   1.961   1.973   4.688  1.6794 -0.8030  1.9025
 4362SOL     OW24721   4.637   3.174   4.591  0.0931 -0.0649  0.6115
 4362SOL    HW124722   4.613   3.129   4.510  1.3981  0.5339 -0.1080
 4362SOL    HW224723   4.653   3.101   4.652  1.2203 -1.4040 -1.2874
 4363SOL     OW24724   1.803   1.694  11.552 -0.3594  0.3254 -0.0812
 4363SOL    HW124725   1.880   1.653  11.593 -0.2374  0.8797  0.2398
 4363SOL    HW224726   1.728   1.662  11.602  0.3172  1.0138  1.3761
 4364SOL     OW24727   4.371   2.117  12.704 -0.3769 -0.7761 -0.5447
 4364SOL    HW124728   4.289   2.166  12.689 -0.2796 -0.3710  0.2883
 4364SOL    HW224729   4.361   2.120  12.799  1.2788 -0.6315 -0.3781
 4365SOL     OW24730   4.247   4.513   8.771  0.3938  0.7085  0.8838
 4365SOL    HW124731   4.251   4.430   8.818  2.0451  0.4117  0.2196
 4365SOL    HW224732   4.267   4.575   8.842 -1.4081 -0.2841  2.2518
 4366SOL     OW24733   3.673   3.332   2.852 -0.1734  0.3634 -0.3382
 4366SOL    HW124734   3.630   3.394   2.794  2.1051  0.4326 -1.9269
 4366SOL    HW224735   3.735   3.392   2.893 -1.6318 -0.1090  2.6013
 4367SOL     OW24736   0.256   0.706   7.307 -0.5546  0.1463  0.5104
 4367SOL    HW124737   0.199   0.755   7.366  0.6843  1.3441  0.6951
 4367SOL    HW224738   0.334   0.759   7.320 -0.5493  0.6575 -1.5749
 4368SOL     OW24739   1.339   0.300   3.471 -0.3211 -0.1284  0.1716
 4368SOL    HW124740   1.267   0.330   3.416 -0.0867 -1.6345 -0.9328
 4368SOL    HW224741   1.382   0.246   3.405  1.9538  0.0279  1.5216
 4369SOL     OW24742   3.191   0.101   4.467  0.4120 -0.5268  0.1599
 4369SOL    HW124743   3.199   0.007   4.452  0.3533 -0.4174 -0.5772
 4369SOL    HW224744   3.096   0.106   4.478  0.3944  0.6160 -0.3816
 4370SOL     OW24745   2.383   0.088   8.580 -0.6954  0.3284 -0.0799
 4370SOL    HW124746   2.319   0.055   8.643 -0.2163  2.1878  1.3761
 4370SOL    HW224747   2.378   0.180   8.605 -0.5230  0.3065  0.0297
 4371SOL     OW24748   0.911   1.975   6.451  0.2082 -0.4407 -0.1129
 4371SOL    HW124749   1.005   1.993   6.440  0.2720 -0.7647 -0.0923
 4371SOL    HW224750   0.887   2.021   6.531 -0.4912 -1.0070  0.0052
 4372SOL     OW24751   2.219   3.055  16.956 -0.2557  0.0834 -0.2090
 4372SOL    HW124752   2.238   3.134  17.006 -0.3584 -0.7465  1.1465
 4372SOL    HW224753   2.238   2.986  17.019  0.8275  1.2150  0.6799
 4373SOL     OW24754   4.242   0.638  15.525 -0.5152  0.3097  0.2912
 4373SOL    HW124755   4.225   0.576  15.453  2.6676  0.8417 -0.9407
 4373SOL    HW224756   4.191   0.708  15.486  1.2102  1.8352  0.7609
 4374SOL     OW24757   1.287   3.858   0.785 -0.2881  0.2547  0.6808
 4374SOL    HW124758   1.319   3.946   0.807  1.9323 -0.7726  1.5272
 4374SOL    HW224759   1.261   3.865   0.693  1.7303  0.3801  0.1197
 4375SOL     OW24760   2.147   0.349  14.136 -0.4680 -0.3271  0.4388
 4375SOL    HW124761   2.077   0.294  14.170 -1.8821  0.1429 -1.7241
 4375SOL    HW224762   2.134   0.424  14.194  2.4037 -1.7478  2.9506
 4376SOL     OW24763   2.688   0.937   9.168 -0.5294 -0.5145  0.3294
 4376SOL    HW124764   2.756   0.900   9.111  0.2369  1.1540  0.1400
 4376SOL    HW224765   2.645   0.995   9.105 -0.2162 -0.1849  0.4183
 4377SOL     OW24766   0.549   2.318   8.113  0.2359 -0.3845  0.0214
 4377SOL    HW124767   0.639   2.284   8.116 -1.2708 -4.3953 -1.3805
 4377SOL    HW224768   0.552   2.396   8.169 -0.3200 -0.7473  0.5554
 4378SOL     OW24769   4.071   0.382   9.509 -0.0020 -0.4081 -0.2855
 4378SOL    HW124770   4.071   0.363   9.415 -0.3953 -1.2120 -0.1268
 4378SOL    HW224771   3.978   0.366   9.524  0.3832 -1.6639  0.7575
 4379SOL     OW24772   1.484   3.853   3.516  0.6412  0.3766  0.7636
 4379SOL    HW124773   1.453   3.932   3.559  1.1744 -0.0460  1.9611
 4379SOL    HW224774   1.415   3.828   3.455  0.3827 -0.6009  1.4365
 4380SOL     OW24775   0.398   1.645  13.117 -0.3924  0.0973  0.2004
 4380SOL    HW124776   0.320   1.699  13.131  0.2804  1.2511 -0.5016
 4380SOL    HW224777   0.408   1.656  13.022 -1.3797 -0.5497  0.0249
 4381SOL     OW24778   1.491   2.176  12.763 -0.2683 -0.1082  1.0055
 4381SOL    HW124779   1.401   2.164  12.732  0.5638 -0.0696 -1.4530
 4381SOL    HW224780   1.480   2.202  12.854 -1.4683 -3.4622  1.7893
 4382SOL     OW24781   4.494   1.714   9.392  0.3396  0.4370  0.1184
 4382SOL    HW124782   4.421   1.708   9.454  0.0647  2.2219 -0.0311
 4382SOL    HW224783   4.452   1.686   9.310  1.4775  2.4095 -1.1268
 4383SOL     OW24784   0.868   0.094   6.254 -0.2929 -0.0037  0.1381
 4383SOL    HW124785   0.955   0.073   6.289 -0.1907 -0.9438 -0.6797
 4383SOL    HW224786   0.833   0.164   6.309  0.5733 -0.7279  1.6216
 4384SOL     OW24787   3.106   1.418  13.824  0.0682  0.0645 -0.1855
 4384SOL    HW124788   3.186   1.426  13.875  0.4739  1.7585 -1.0696
 4384SOL    HW224789   3.122   1.334  13.781  0.2051 -0.6688  1.2984
 4385SOL     OW24790   0.972   2.915   7.468 -0.0087 -0.3253  0.3296
 4385SOL    HW124791   0.998   2.829   7.500  0.4966 -0.0791  0.5855
 4385SOL    HW224792   0.907   2.885   7.404 -1.3820  1.4348  0.8861
 4386SOL     OW24793   4.196   0.954   7.676 -0.3957 -0.1782  0.6663
 4386SOL    HW124794   4.224   0.866   7.703  0.6783  0.4043  1.4863
 4386SOL    HW224795   4.108   0.925   7.655  0.3476 -3.0755  1.5194
 4387SOL     OW24796   1.908   3.461  17.657 -0.1114 -0.8467  0.5160
 4387SOL    HW124797   1.949   3.529  17.710 -0.2186 -0.1451 -0.2910
 4387SOL    HW224798   1.830   3.440  17.708 -1.5966 -0.1021 -1.4519
 4388SOL     OW24799   1.906   1.194  12.633 -0.0098 -0.2278 -0.0632
 4388SOL    HW124800   1.849   1.125  12.599  1.3089 -0.8209 -1.1051
 4388SOL    HW224801   1.962   1.149  12.697 -0.1009  1.0904  0.9347
 4389SOL     OW24802   2.495   0.641   5.874  0.3146  0.3936 -0.1494
 4389SOL    HW124803   2.559   0.576   5.904 -1.1975 -0.8920  0.2778
 4389SOL    HW224804   2.505   0.629   5.780  0.3056  2.4717 -0.4146
 4390SOL     OW24805   1.718   2.955   3.135  0.2017 -0.2392  0.1598
 4390SOL    HW124806   1.775   3.022   3.172 -0.8851  0.3850  0.6949
 4390SOL    HW224807   1.637   2.972   3.183 -0.0623 -0.2736 -0.2768
 4391SOL     OW24808   0.652   2.420   2.382 -0.3781  0.3283 -0.2079
 4391SOL    HW124809   0.608   2.503   2.366  0.4939  0.8907  0.3010
 4391SOL    HW224810   0.615   2.359   2.317  1.1822  2.1433 -2.8060
 4392SOL     OW24811   0.872   1.899   4.559  0.5884  0.6810  0.1236
 4392SOL    HW124812   0.813   1.954   4.508  1.0914 -1.1185 -2.3854
 4392SOL    HW224813   0.928   1.871   4.488 -0.8346  0.2326 -0.8274
 4393SOL     OW24814   3.896   0.076   7.161  0.4927 -0.2647 -0.5111
 4393SOL    HW124815   3.850   0.120   7.233 -1.0316 -0.6006 -1.2696
 4393SOL    HW224816   3.893   4.724   7.195 -1.4628 -0.1669 -0.3884
 4394SOL     OW24817   1.820   2.309  13.087  0.7169  0.9663 -0.6220
 4394SOL    HW124818   1.776   2.365  13.023  0.2579  1.7433  0.3733
 4394SOL    HW224819   1.872   2.248  13.036 -0.5501 -1.2306  0.6785
 4395SOL     OW24820   4.261   1.085   3.677 -0.2551  0.1480  0.1882
 4395SOL    HW124821   4.352   1.114   3.688 -0.4103  0.3575  0.9414
 4395SOL    HW224822   4.213   1.132   3.745 -0.8430 -0.4753  0.2021
 4396SOL     OW24823   0.076   0.168   7.256  0.4793  0.1250 -0.3282
 4396SOL    HW124824   0.001   0.113   7.276 -0.9898  0.9568 -3.4793
 4396SOL    HW224825   0.077   0.205   7.344 -2.7777  0.9113 -0.6044
 4397SOL     OW24826   0.455   1.414   6.573  0.1684 -0.6761  0.3087
 4397SOL    HW124827   0.415   1.335   6.536  1.5404 -0.6644 -1.1975
 4397SOL    HW224828   0.464   1.467   6.493 -0.3411 -2.0425 -0.6649
 4398SOL     OW24829   1.771   1.472  14.943 -0.7759  0.4491 -0.3975
 4398SOL    HW124830   1.685   1.495  14.979 -1.2983  1.9523 -2.6015
 4398SOL    HW224831   1.829   1.462  15.018 -0.3220  3.9017 -0.3083
 4399SOL     OW24832   0.580   1.893  14.797  0.3388 -0.0257  0.4661
 4399SOL    HW124833   0.624   1.816  14.761  0.7717  0.1601  0.5981
 4399SOL    HW224834   0.647   1.959  14.786  0.4977 -0.2455  0.1400
 4400SOL     OW24835   1.950   3.401   5.083 -0.4437  0.0761  0.6632
 4400SOL    HW124836   1.930   3.489   5.051 -0.0123 -0.3039 -0.6395
 4400SOL    HW224837   1.958   3.416   5.177 -0.4643  4.7661 -0.1111
 4401SOL     OW24838   3.224   3.874   4.594  0.6045 -0.3512 -0.0271
 4401SOL    HW124839   3.294   3.939   4.581  0.5166 -0.2095  0.2194
 4401SOL    HW224840   3.215   3.869   4.689 -0.2133 -0.8630 -0.1328
 4402SOL     OW24841   3.541   3.130  11.671  0.5007  0.0804 -0.0861
 4402SOL    HW124842   3.534   3.049  11.720  1.6637  0.9221  1.4575
 4402SOL    HW224843   3.490   3.194  11.721 -1.6133  0.7509 -3.0494
 4403SOL     OW24844   3.162   2.525   1.933 -0.2236  0.6504  0.0372
 4403SOL    HW124845   3.181   2.586   1.862 -2.9352 -0.5530 -1.7318
 4403SOL    HW224846   3.238   2.467   1.926 -1.1188 -0.4187 -0.7665
 4404SOL     OW24847   0.793   0.778   5.445  0.2348 -0.6463  0.4842
 4404SOL    HW124848   0.858   0.840   5.478  0.3185 -1.3486  1.6508
 4404SOL    HW224849   0.718   0.833   5.423  0.8861  0.3839  0.8556
 4405SOL     OW24850   1.345   3.534   3.169 -0.3663  0.6224  0.2894
 4405SOL    HW124851   1.439   3.543   3.183  0.0378 -0.5716 -1.6726
 4405SOL    HW224852   1.338   3.516   3.075 -1.8489  2.7509 -0.0165
 4406SOL     OW24853   4.282   4.189   4.222  0.1767  0.4847 -0.3547
 4406SOL    HW124854   4.202   4.234   4.250 -0.4042 -1.1926  0.6543
 4406SOL    HW224855   4.352   4.228   4.275 -0.9994  2.5814 -0.3636
 4407SOL     OW24856   3.256   1.189   4.364  0.3295  0.0347  0.0132
 4407SOL    HW124857   3.307   1.108   4.363  0.6656  0.2638 -1.4892
 4407SOL    HW224858   3.206   1.186   4.446 -3.0047  2.6244 -1.9688
 4408SOL     OW24859   2.628   1.528   6.106 -0.7240  0.1872 -0.4562
 4408SOL    HW124860   2.680   1.593   6.154 -1.0077 -1.2625  1.8517
 4408SOL    HW224861   2.700   1.494   6.053  1.3687  2.4212  0.9191
 4409SOL     OW24862   3.294   0.851  14.587  0.1356 -0.0821 -0.4443
 4409SOL    HW124863   3.209   0.814  14.610  0.2778  0.5679  1.1413
 4409SOL    HW224864   3.325   0.773  14.540 -0.3204 -0.5175 -0.0207
 4410SOL     OW24865   1.647   2.959   4.916  1.3491 -0.1117 -0.0786
 4410SOL    HW124866   1.577   2.927   4.860  0.9730 -0.4344  0.5747
 4410SOL    HW224867   1.646   2.912   4.999  1.1206 -1.2738 -0.7399
 4411SOL     OW24868   1.581   4.216   3.465  0.1226 -0.1585  0.5579
 4411SOL    HW124869   1.591   4.284   3.531  0.2478  0.5200 -0.1586
 4411SOL    HW224870   1.661   4.162   3.471  0.3590  0.0573 -0.6125
 4412SOL     OW24871   0.790   4.515   0.356 -0.0369 -0.5684 -0.1636
 4412SOL    HW124872   0.721   4.566   0.315  0.5450  0.7522  0.4925
 4412SOL    HW224873   0.861   4.518   0.292  0.6263 -2.6897  0.4364
 4413SOL     OW24874   0.616   0.061   4.460 -0.7861 -0.1358 -0.0302
 4413SOL    HW124875   0.589   0.015   4.540  1.5563 -1.8707 -0.2220
 4413SOL    HW224876   0.672   4.730   4.423  2.7432  2.2320  0.9085
 4414SOL     OW24877   3.747   2.324   3.645  0.3846 -0.1868 -0.5845
 4414SOL    HW124878   3.742   2.385   3.571 -1.3596  1.3099  0.7448
 4414SOL    HW224879   3.839   2.318   3.670  0.7287  1.7880 -1.3154
 4415SOL     OW24880   4.383   0.736   3.117 -0.2829 -0.3024  0.1585
 4415SOL    HW124881   4.343   0.670   3.172  0.8912 -0.9074  0.2827
 4415SOL    HW224882   4.355   0.822   3.149  0.8628 -0.1985  0.8802
 4416SOL     OW24883   2.687   3.575   7.665 -0.0860 -0.3488 -0.0197
 4416SOL    HW124884   2.713   3.534   7.748  0.3105 -1.4256 -0.6865
 4416SOL    HW224885   2.601   3.538   7.646 -0.2047  0.0697 -0.2882
 4417SOL     OW24886   1.746   1.906   5.879 -0.3894  0.6033  0.3569
 4417SOL    HW124887   1.825   1.904   5.933 -0.6097  0.5405  0.6785
 4417SOL    HW224888   1.678   1.903   5.947  0.8222  0.6987  1.5728
 4418SOL     OW24889   3.628   2.802   3.166  0.1007  0.1927 -0.5811
 4418SOL    HW124890   3.644   2.874   3.226 -0.5882 -1.0548  1.1024
 4418SOL    HW224891   3.665   2.731   3.219  0.4402 -0.0580 -1.1520
 4419SOL     OW24892   2.570   3.829   3.526 -0.0893 -0.4084  0.0460
 4419SOL    HW124893   2.565   3.869   3.439  1.7054  0.0868  0.1679
 4419SOL    HW224894   2.646   3.772   3.514  2.0398  2.3340  0.4593
 4420SOL     OW24895   3.643   0.793   1.036  0.4264 -0.6633  0.5571
 4420SOL    HW124896   3.705   0.802   1.109  0.7321  1.5953  0.0074
 4420SOL    HW224897   3.702   0.848   0.985  2.0820  0.2410  3.4035
 4421SOL     OW24898   0.054   3.733   7.283 -0.0527 -0.0484 -0.1853
 4421SOL    HW124899   0.029   3.662   7.341 -0.0554 -0.9356 -1.2729
 4421SOL    HW224900   0.145   3.708   7.265 -0.5294 -1.4623 -0.6536
 4422SOL     OW24901   2.774   1.211  11.904 -0.1268 -0.2902 -0.0751
 4422SOL    HW124902   2.710   1.259  11.852  0.6307  0.3367 -0.4250
 4422SOL    HW224903   2.818   1.152  11.842  2.0337 -2.0002  3.0788
 4423SOL     OW24904   3.546   3.063  12.655  0.1617  0.1486 -0.0055
 4423SOL    HW124905   3.632   3.030  12.684  0.5739  0.7346 -0.5693
 4423SOL    HW224906   3.565   3.157  12.662  0.2913  0.1594 -0.5318
 4424SOL     OW24907   1.785   3.014  13.169 -0.2043  0.1524  0.7091
 4424SOL    HW124908   1.761   3.030  13.078 -0.3400 -0.5836  0.6123
 4424SOL    HW224909   1.880   3.007  13.158 -0.5405  0.1797 -2.1235
 4425SOL     OW24910   0.986   0.303   4.974 -0.0259 -0.1538 -0.1265
 4425SOL    HW124911   0.939   0.358   5.038 -0.0051 -0.9599  0.5799
 4425SOL    HW224912   1.073   0.315   5.013  0.1834 -1.9208 -0.0762
 4426SOL     OW24913   2.642   3.101   3.081  0.0141 -0.2571 -0.1117
 4426SOL    HW124914   2.681   3.069   3.000 -1.4044 -1.4756 -0.2872
 4426SOL    HW224915   2.710   3.152   3.127  2.5047 -3.2224 -0.5322
 4427SOL     OW24916   4.574   4.355  10.638  0.1521 -0.1459 -0.1657
 4427SOL    HW124917   4.499   4.410  10.613 -1.2102 -2.6684 -1.6641
 4427SOL    HW224918   4.570   4.363  10.733 -0.7373 -1.0442 -0.1272
 4428SOL     OW24919   0.051   3.659  15.377  0.6084  0.1822 -0.3189
 4428SOL    HW124920   4.693   3.656  15.379  0.6513 -0.6566  0.5124
 4428SOL    HW224921   0.060   3.752  15.358 -0.1949  0.3869  0.3416
 4429SOL     OW24922   4.314   4.513  15.498 -0.5286  0.2911 -0.1393
 4429SOL    HW124923   4.331   4.605  15.518 -0.6465  0.5323 -1.1616
 4429SOL    HW224924   4.379   4.506  15.428 -1.0573 -1.7662 -0.4310
 4430SOL     OW24925   0.494   3.073   0.494 -0.2232 -0.2626  0.2451
 4430SOL    HW124926   0.410   3.032   0.473  0.3389 -0.6939 -1.1367
 4430SOL    HW224927   0.462   3.154   0.532  1.3518  0.3576  0.2542
 4431SOL     OW24928   1.257   3.403  10.994 -0.1475 -0.4201 -0.5623
 4431SOL    HW124929   1.166   3.427  11.012 -0.5764 -2.3140 -0.2603
 4431SOL    HW224930   1.299   3.420  11.078 -0.9054 -2.6146  0.2466
 4432SOL     OW24931   4.348   2.102  12.072  0.4917  0.1086  0.4275
 4432SOL    HW124932   4.304   2.174  12.118 -2.3458 -2.3869  1.6391
 4432SOL    HW224933   4.390   2.054  12.144  0.9565 -0.3135 -0.1214
 4433SOL     OW24934   2.531   0.422   3.062  0.0299 -0.2252 -0.2415
 4433SOL    HW124935   2.481   0.364   3.119  0.8190  0.6604  1.3543
 4433SOL    HW224936   2.488   0.507   3.077  2.0370  0.5904  0.9127
 4434SOL     OW24937   0.306   3.655  14.725  0.6027  0.2757  0.6590
 4434SOL    HW124938   0.354   3.596  14.666  0.0237  1.9334 -1.4610
 4434SOL    HW224939   0.260   3.585  14.771  1.2737  0.4662  1.6262
 4435SOL     OW24940   0.278   2.125   3.549  0.7406 -0.6423 -0.6111
 4435SOL    HW124941   0.232   2.202   3.582  2.1616 -1.2796  2.8558
 4435SOL    HW224942   0.213   2.090   3.488  0.2010  2.8655 -2.0493
 4436SOL     OW24943   1.479   1.698   4.792  0.3425  0.3808 -0.5723
 4436SOL    HW124944   1.535   1.689   4.715  0.7559  2.0407 -0.4683
 4436SOL    HW224945   1.551   1.711   4.854 -0.8344  0.7534  0.7228
 4437SOL     OW24946   0.442   2.669   5.768  0.6173 -0.8093  0.7554
 4437SOL    HW124947   0.484   2.602   5.715 -1.3298 -1.0715 -0.4384
 4437SOL    HW224948   0.479   2.748   5.728 -1.3117 -0.4969 -0.4509
 4438SOL     OW24949   3.713   1.160  16.256  0.4558  0.1468  0.2340
 4438SOL    HW124950   3.663   1.092  16.302 -1.1815  1.3107  0.1692
 4438SOL    HW224951   3.644   1.221  16.231  1.2644  1.0883  0.2898
 4439SOL     OW24952   3.422   4.594   9.470 -0.0621  0.2397  0.0577
 4439SOL    HW124953   3.402   4.534   9.542  0.4693 -2.8908 -2.3934
 4439SOL    HW224954   3.399   4.679   9.506 -0.7437  0.3778 -0.7149
 4440SOL     OW24955   2.445   4.482   9.910  0.2632 -0.0628  0.0441
 4440SOL    HW124956   2.404   4.510   9.828  2.3675  0.6294 -0.7948
 4440SOL    HW224957   2.483   4.564   9.941 -1.0952  0.2320  0.9075
 4441SOL     OW24958   4.164   2.734   7.205  0.6459  0.4899 -0.0561
 4441SOL    HW124959   4.195   2.778   7.284 -0.2941  0.3421  0.3942
 4441SOL    HW224960   4.096   2.673   7.233  0.1157  2.4260  2.8851
 4442SOL     OW24961   4.074   2.893   5.818  0.2018  0.3081 -0.1554
 4442SOL    HW124962   4.165   2.876   5.793  0.5361  1.2045  0.4293
 4442SOL    HW224963   4.036   2.933   5.740  0.8648  2.2288  0.4996
 4443SOL     OW24964   2.918   2.580   8.985 -0.6396  0.1131  0.3783
 4443SOL    HW124965   2.849   2.580   8.919  0.6404 -0.2531 -0.9595
 4443SOL    HW224966   2.991   2.541   8.938 -0.9130  0.4122 -0.2946
 4444SOL     OW24967   1.377   4.136   0.736  0.2173 -0.5368  0.0727
 4444SOL    HW124968   1.396   4.219   0.693  3.6954 -1.8110 -0.8942
 4444SOL    HW224969   1.360   4.161   0.826 -1.4859  2.1656 -1.0270
 4445SOL     OW24970   1.072   1.072   8.758  0.2958  0.7047 -0.2644
 4445SOL    HW124971   1.058   1.135   8.828  0.6482 -1.6703  1.9482
 4445SOL    HW224972   1.088   1.133   8.686  0.9866  0.4414 -0.3348
 4446SOL     OW24973   4.229   1.791   8.466 -0.1893  0.0865  0.4117
 4446SOL    HW124974   4.200   1.754   8.383 -0.6660 -0.5279  0.8514
 4446SOL    HW224975   4.170   1.866   8.472 -0.4291 -0.1294  0.8124
 4447SOL     OW24976   2.372   1.867   4.950  0.5185 -0.2679  0.6721
 4447SOL    HW124977   2.370   1.779   4.988 -0.4526 -1.2061 -1.5444
 4447SOL    HW224978   2.370   1.913   5.034  1.8395  0.3021  0.3898
 4448SOL     OW24979   3.804   0.620   9.206  1.0892 -0.6762  0.2059
 4448SOL    HW124980   3.741   0.549   9.212 -1.2391  1.4550  1.0291
 4448SOL    HW224981   3.787   0.680   9.279  0.3999 -2.6730  1.6864
 4449SOL     OW24982   0.396   0.583   9.704  0.4128  0.8715  0.3658
 4449SOL    HW124983   0.422   0.614   9.617 -2.5442  0.2510 -0.7272
 4449SOL    HW224984   0.355   0.664   9.734  1.0477  1.8865 -1.5204
 4450SOL     OW24985   2.709   2.172   7.668  0.8716  0.5417 -0.0582
 4450SOL    HW124986   2.733   2.123   7.747 -1.0707  0.7896  0.6921
 4450SOL    HW224987   2.663   2.246   7.708  0.7242  0.1131  0.5649
 4451SOL     OW24988   1.812   1.877   3.382 -0.3479 -0.2202 -0.2811
 4451SOL    HW124989   1.730   1.913   3.350 -0.3818 -0.4553 -0.4583
 4451SOL    HW224990   1.862   1.959   3.378 -2.1486  0.9066  0.1347
 4452SOL     OW24991   1.980   2.852   9.732 -0.4086 -0.1832 -0.0409
 4452SOL    HW124992   1.895   2.892   9.715  1.0557  2.8721 -0.1581
 4452SOL    HW224993   2.045   2.894   9.676 -1.0730 -0.4912 -1.0417
 4453SOL     OW24994   1.322   0.734   1.109  0.0568  0.0926  1.0278
 4453SOL    HW124995   1.252   0.706   1.168 -0.2226 -1.5080 -0.0540
 4453SOL    HW224996   1.382   0.767   1.175  0.8861 -1.1158  0.8672
 4454SOL     OW24997   0.946   0.862   4.892 -0.2163 -0.1174 -0.1428
 4454SOL    HW124998   0.997   0.784   4.868  0.5458  0.2221  0.3844
 4454SOL    HW224999   0.982   0.879   4.979 -0.3981  0.4689 -0.1864
 4455SOL     OW25000   2.086   3.910   2.660 -0.5545  0.1765 -0.1621
 4455SOL    HW125001   2.013   3.891   2.601  0.8595  0.3109 -1.9451
 4455SOL    HW225002   2.074   3.843   2.728  3.3161 -1.5904 -1.1934
 4456SOL     OW25003   4.118   1.251  11.739 -0.2085  0.3353  0.3409
 4456SOL    HW125004   4.106   1.334  11.784  1.0648 -0.1038  1.4867
 4456SOL    HW225005   4.125   1.204  11.822 -0.5663 -1.8089 -0.8289
 4457SOL     OW25006   0.837   1.979   7.506  0.2170  0.2866  0.1674
 4457SOL    HW125007   0.743   1.964   7.515  0.0788  0.9208 -0.2101
 4457SOL    HW225008   0.874   1.899   7.468 -2.7362 -1.0206  0.0517
 4458SOL     OW25009   2.158   3.181   9.414  0.0590  0.1457  0.0018
 4458SOL    HW125010   2.238   3.130   9.419 -1.0176 -1.3201  1.8620
 4458SOL    HW225011   2.174   3.247   9.481 -0.8466 -0.1378  0.4939
 4459SOL     OW25012   3.391   1.297   3.034 -0.0213 -0.0582  0.0057
 4459SOL    HW125013   3.319   1.246   2.998 -0.7517  1.3997 -0.5997
 4459SOL    HW225014   3.353   1.340   3.111  0.7594  0.4863  0.0896
 4460SOL     OW25015   2.997   2.606   5.263  0.2234 -0.1823  0.4002
 4460SOL    HW125016   3.012   2.677   5.325 -0.9972 -0.7555  1.3439
 4460SOL    HW225017   2.909   2.628   5.231 -0.3623 -0.2051  2.0021
 4461SOL     OW25018   2.517   3.481   7.015 -0.1465 -0.0515 -0.0326
 4461SOL    HW125019   2.526   3.573   6.992  0.4637 -0.3173 -0.8443
 4461SOL    HW225020   2.599   3.439   6.988 -1.5848 -1.3879 -2.3652
 4462SOL     OW25021   0.844   1.218   0.422  0.3729  0.1645  0.0628
 4462SOL    HW125022   0.859   1.127   0.447  2.4214  0.0793 -1.4402
 4462SOL    HW225023   0.933   1.245   0.446  0.6420 -0.3990 -0.3215
 4463SOL     OW25024   1.411   4.395   4.111  0.1532 -0.5308  0.4269
 4463SOL    HW125025   1.481   4.441   4.157  0.6142 -0.5634 -0.2374
 4463SOL    HW225026   1.350   4.467   4.094 -0.8013 -1.1426  1.2819
 4464SOL     OW25027   2.201   4.021   7.131  0.2910  0.7434  0.0885
 4464SOL    HW125028   2.260   4.061   7.195 -1.5254  1.7883  1.1156
 4464SOL    HW225029   2.161   3.959   7.192  1.6084 -0.1594  0.0412
 4465SOL     OW25030   2.180   1.634   8.325  0.0647  0.4048 -0.1631
 4465SOL    HW125031   2.235   1.712   8.320 -0.6901  0.9254 -0.2275
 4465SOL    HW225032   2.110   1.660   8.266  1.1153  3.0838 -0.2281
 4466SOL     OW25033   0.655   3.358   8.018 -0.3228  0.5453  0.0829
 4466SOL    HW125034   0.612   3.334   8.100  0.6426  1.0833  0.7434
 4466SOL    HW225035   0.665   3.451   8.037  0.0643  0.6413 -0.5981
 4467SOL     OW25036   2.011   2.701   6.038  0.1724  0.0588  0.3900
 4467SOL    HW125037   2.088   2.756   6.052  0.1239 -0.1418  1.4380
 4467SOL    HW225038   1.936   2.757   6.014  0.1547  0.1376  0.6215
 4468SOL     OW25039   4.244   0.932   5.377 -0.3764  0.0678 -0.1433
 4468SOL    HW125040   4.243   0.936   5.281  0.6753  3.4568 -0.0144
 4468SOL    HW225041   4.268   0.841   5.392  1.7652  0.4989 -0.9589
 4469SOL     OW25042   2.234   0.363   5.560  0.8651 -0.2773 -0.4285
 4469SOL    HW125043   2.140   0.377   5.571  1.3869  1.6912  1.5786
 4469SOL    HW225044   2.264   0.451   5.582 -2.7912  0.7703  0.3958
 4470SOL     OW25045   3.679   4.692  14.969 -0.0238 -0.4392  0.3223
 4470SOL    HW125046   3.721   4.701  14.884  0.7628 -0.7824  0.6728
 4470SOL    HW225047   3.586   4.682  14.949  0.0628 -1.5293  0.4803
 4471SOL     OW25048   1.330   3.946  13.438 -0.2369 -0.1210  0.0305
 4471SOL    HW125049   1.298   3.979  13.354  0.7400 -1.3595 -0.8072
 4471SOL    HW225050   1.297   4.006  13.505 -1.5217 -1.3555  0.4921
 4472SOL     OW25051   3.940   0.113   2.524 -0.7161  0.5787 -0.1151
 4472SOL    HW125052   4.026   0.098   2.562 -2.3096 -0.5880  3.0604
 4472SOL    HW225053   3.945   0.106   2.429  0.7379 -0.3570  0.0454
 4473SOL     OW25054   4.140   4.139   8.943  0.3813 -0.0335 -0.1811
 4473SOL    HW125055   4.192   4.059   8.933 -1.0510 -0.8027 -1.4683
 4473SOL    HW225056   4.211   4.202   8.956  0.1093  0.4802 -1.1666
 4474SOL     OW25057   4.708   3.746   2.005  0.2739 -0.2581  0.2156
 4474SOL    HW125058   0.056   3.724   1.967 -0.3387  1.1373 -1.9906
 4474SOL    HW225059   4.702   3.840   1.986 -1.9325 -0.7317 -1.3957
 4475SOL     OW25060   4.135   3.489  15.544  0.2233 -0.0624  0.0263
 4475SOL    HW125061   4.216   3.440  15.558  1.0130  1.8256  2.0780
 4475SOL    HW225062   4.163   3.568  15.499 -0.2347 -0.2297 -0.5577
 4476SOL     OW25063   1.326   2.776   8.483  0.6516  0.4233  0.2513
 4476SOL    HW125064   1.384   2.719   8.432  1.4687 -0.1142  1.7977
 4476SOL    HW225065   1.259   2.717   8.519 -0.4877  1.7601  0.3467
 4477SOL     OW25066   1.771   3.807   6.534 -0.1703 -0.4550 -0.8951
 4477SOL    HW125067   1.768   3.892   6.491 -0.2034  0.1358  0.2692
 4477SOL    HW225068   1.858   3.813   6.573 -0.8197  2.0986  0.1164
 4478SOL     OW25069   1.025   2.289   8.743 -0.2081  0.0466 -0.0172
 4478SOL    HW125070   0.952   2.351   8.738  1.3501  2.1895  3.1947
 4478SOL    HW225071   1.054   2.298   8.834 -1.1408  1.0978  0.1825
 4479SOL     OW25072   4.340   3.535  11.116 -0.2597  0.4002  0.2457
 4479SOL    HW125073   4.301   3.612  11.074 -1.4610  0.2696  1.1357
 4479SOL    HW225074   4.256   3.489  11.110 -1.0682  1.9687 -0.4770
 4480SOL     OW25075   3.901   1.818  16.829 -0.1238  0.6186 -0.7477
 4480SOL    HW125076   3.957   1.850  16.759 -2.2429  0.2812 -2.5697
 4480SOL    HW225077   3.878   1.905  16.861 -0.1021  1.1163 -2.1047
 4481SOL     OW25078   0.408   3.640   9.626 -0.5993  0.0695 -0.1444
 4481SOL    HW125079   0.429   3.566   9.682 -1.2054 -1.9019 -2.5281
 4481SOL    HW225080   0.374   3.703   9.689  1.4751  1.8772 -0.7967
 4482SOL     OW25081   3.512   4.399  10.092 -0.0341  0.0389  0.5164
 4482SOL    HW125082   3.461   4.358  10.162  1.2503  1.1519  2.1212
 4482SOL    HW225083   3.588   4.434  10.138 -0.0906  0.7852  0.0405
 4483SOL     OW25084   2.183   0.275   6.070 -0.2308 -0.2798 -0.1510
 4483SOL    HW125085   2.122   0.249   6.139 -0.4028  1.1531  0.2380
 4483SOL    HW225086   2.126   0.326   6.012 -0.8353 -3.0557 -2.0218
 4484SOL     OW25087   4.379   4.130   7.486  0.0103 -0.2326  0.3872
 4484SOL    HW125088   4.439   4.056   7.483  0.1438 -0.0003 -2.4457
 4484SOL    HW225089   4.422   4.199   7.436 -0.5482  0.4420  0.8352
 4485SOL     OW25090   0.879   4.647   5.727  0.0993  0.6206  0.2635
 4485SOL    HW125091   0.974   4.650   5.712 -0.1726 -0.4343 -1.5942
 4485SOL    HW225092   0.860   4.709   5.798  0.0475  0.1284  0.6789
 4486SOL     OW25093   2.420   4.111   2.465  0.3798 -0.0994  0.2779
 4486SOL    HW125094   2.392   4.023   2.491  2.0864 -0.2496  1.6002
 4486SOL    HW225095   2.391   4.163   2.540 -0.6295  1.8894 -1.4972
 4487SOL     OW25096   3.448   3.907   6.452  0.0795  0.4713 -0.1933
 4487SOL    HW125097   3.380   3.849   6.419  2.2496 -2.0103 -0.3059
 4487SOL    HW225098   3.528   3.854   6.457  0.4355  0.8530 -1.8879
 4488SOL     OW25099   0.702   3.956  12.663  0.0858 -0.5414 -0.0491
 4488SOL    HW125100   0.736   3.908  12.739 -1.4345 -0.5154  0.6603
 4488SOL    HW225101   0.726   4.037  12.708 -0.3548 -0.8331  0.7144
 4489SOL     OW25102   0.232   2.927   4.371 -1.0798 -0.0609  0.0748
 4489SOL    HW125103   0.232   3.015   4.332 -0.2863 -0.2436 -0.3415
 4489SOL    HW225104   0.244   2.942   4.464  0.6434  0.4597 -0.2256
 4490SOL     OW25105   1.587   1.149   2.524 -0.0307 -0.1106 -0.4175
 4490SOL    HW125106   1.542   1.065   2.536 -0.3618  0.1912  0.4131
 4490SOL    HW225107   1.563   1.161   2.432  1.2252  1.5613 -0.5164
 4491SOL     OW25108   3.930   4.461   2.353 -0.0846  0.2974  0.1797
 4491SOL    HW125109   3.883   4.514   2.289  0.7440  0.1063 -0.5824
 4491SOL    HW225110   3.862   4.403   2.386  0.3189  0.8015  1.9049
 4492SOL     OW25111   0.638   1.038   9.129 -0.1523  0.8599 -0.2681
 4492SOL    HW125112   0.560   1.011   9.080  1.4878 -0.1598 -2.2732
 4492SOL    HW225113   0.598   1.039   9.217  1.5706  2.0265  0.4919
 4493SOL     OW25114   1.499   3.595   8.733 -0.2795 -0.9189  0.1737
 4493SOL    HW125115   1.515   3.639   8.816  1.3457 -2.9308  0.9189
 4493SOL    HW225116   1.578   3.541   8.729 -0.8073 -1.6588 -0.0697
 4494SOL     OW25117   0.666   4.697   5.036 -0.4196 -0.0813  0.1847
 4494SOL    HW125118   0.752   4.702   5.076  0.8940 -0.7711 -2.5328
 4494SOL    HW225119   0.628   0.042   5.065  2.1632  1.2481 -0.2632
 4495SOL     OW25120   3.189   2.938  12.223 -0.1986  0.0122  0.3254
 4495SOL    HW125121   3.135   2.859  12.235 -1.2665  0.7162  0.1689
 4495SOL    HW225122   3.146   3.007  12.274  1.2390  2.3811 -1.6860
 4496SOL     OW25123   4.568   3.479  13.518 -0.2184  0.1157 -0.4575
 4496SOL    HW125124   4.625   3.464  13.442  1.5839 -1.2444  1.1618
 4496SOL    HW225125   4.487   3.495  13.470 -0.8110 -1.0977  0.1470
 4497SOL     OW25126   1.660   1.252   5.625  0.3607 -0.2919 -0.4275
 4497SOL    HW125127   1.576   1.278   5.586  1.6520  0.3906 -2.7026
 4497SOL    HW225128   1.674   1.309   5.701 -1.2351  0.6083 -0.7943
 4498SOL     OW25129   3.813   1.354   3.206  0.1082  0.3474  0.0870
 4498SOL    HW125130   3.869   1.416   3.252  0.8347 -1.2779  1.3950
 4498SOL    HW225131   3.725   1.391   3.218  0.0060  0.5440 -1.2249
 4499SOL     OW25132   4.728   0.314  12.514  0.1710  0.3478  0.3475
 4499SOL    HW125133   0.001   0.273  12.428 -0.4693 -0.1828  0.5275
 4499SOL    HW225134   0.027   0.253  12.577  0.9586  0.5619  0.0942
 4500SOL     OW25135   0.294   4.329   8.612  0.0148  0.3356  0.7983
 4500SOL    HW125136   0.340   4.413   8.620  1.3182 -0.3082  0.1239
 4500SOL    HW225137   0.340   4.271   8.673  0.0382 -1.4502 -0.9352
 4501SOL     OW25138   1.847   0.144   3.295 -0.0404  0.6833 -0.1904
 4501SOL    HW125139   1.772   0.118   3.240 -0.8642 -0.5676  1.5245
 4501SOL    HW225140   1.879   0.060   3.328  1.9523  1.4659 -0.1516
 4502SOL     OW25141   0.979   2.593   5.926 -0.3098 -0.2540 -0.4659
 4502SOL    HW125142   0.955   2.591   5.833  3.2273 -1.2051 -1.3743
 4502SOL    HW225143   1.074   2.588   5.917 -0.1845 -0.3647  0.9916
 4503SOL     OW25144   4.341   2.430   7.104 -0.0447  0.2580 -0.2299
 4503SOL    HW125145   4.347   2.374   7.027 -0.0092  0.3799 -0.3163
 4503SOL    HW225146   4.276   2.390   7.162 -1.8409  1.8150 -1.1653
 4504SOL     OW25147   3.714   2.689  16.185 -0.0623 -0.9716  0.0296
 4504SOL    HW125148   3.779   2.753  16.156 -2.9660  0.8373 -2.6291
 4504SOL    HW225149   3.741   2.694  16.277  4.4051 -0.7530 -1.3244
 4505SOL     OW25150   3.835   1.565   7.440  0.2517 -0.1093 -0.0883
 4505SOL    HW125151   3.852   1.650   7.400 -0.4139 -0.4973 -1.1861
 4505SOL    HW225152   3.921   1.538   7.471 -0.4010  1.0209  2.7183
 4506SOL     OW25153   4.159   0.565   9.937  0.5321 -0.1298  0.3525
 4506SOL    HW125154   4.209   0.597   9.861 -0.9754  0.3582 -0.4223
 4506SOL    HW225155   4.131   0.480   9.903  3.1310 -0.4836 -0.9228
 4507SOL     OW25156   1.585   0.012   6.526  0.3049  0.2270 -0.2219
 4507SOL    HW125157   1.584   4.658   6.500 -1.1019  0.2775 -0.3384
 4507SOL    HW225158   1.493   0.033   6.543  0.1285  0.4370 -1.4135
 4508SOL     OW25159   1.767   0.484   9.047  0.4153 -0.0313  0.7008
 4508SOL    HW125160   1.705   0.554   9.067 -0.6014 -1.0138  1.0061
 4508SOL    HW225161   1.843   0.538   9.027  2.4533 -2.2028  2.5489
 4509SOL     OW25162   0.691   1.837   6.334  0.2014 -0.0234  0.4711
 4509SOL    HW125163   0.786   1.841   6.344  0.1519  2.4693 -0.0490
 4509SOL    HW225164   0.668   1.922   6.295 -2.1155 -0.6115  0.5367
 4510SOL     OW25165   0.829   0.522   4.055 -0.0388  0.2023  0.6199
 4510SOL    HW125166   0.916   0.498   4.087  0.5295 -1.1003 -1.8969
 4510SOL    HW225167   0.767   0.474   4.110 -0.0108 -0.7743 -0.2108
 4511SOL     OW25168   2.990   2.063   5.995 -0.3293  0.6875 -0.5420
 4511SOL    HW125169   2.946   2.086   5.913  2.3434  0.4747 -2.0295
 4511SOL    HW225170   2.917   2.095   6.048 -0.5332 -2.0959  0.8149
 4512SOL     OW25171   2.468   0.222   7.174  0.3267 -0.5860 -0.4581
 4512SOL    HW125172   2.521   0.167   7.115  0.3721  0.9236 -1.8311
 4512SOL    HW225173   2.385   0.177   7.184 -0.7713  1.7857  1.0399
 4513SOL     OW25174   1.274   4.620  16.986 -0.2306  0.4571 -0.1217
 4513SOL    HW125175   1.294   4.553  17.052  2.6334  1.5717  0.1304
 4513SOL    HW225176   1.330   4.603  16.911 -1.2509  0.0992 -0.8116
 4514SOL     OW25177   3.168   2.209   5.733  0.1415  0.6892  0.7016
 4514SOL    HW125178   3.184   2.167   5.648  2.7499  0.5698  1.2525
 4514SOL    HW225179   3.077   2.183   5.748  1.3119 -1.8537  3.3743
 4515SOL     OW25180   4.471   0.578   3.861  0.4613 -0.5294  0.5281
 4515SOL    HW125181   4.462   0.669   3.836 -0.5272 -0.9551 -0.6729
 4515SOL    HW225182   4.404   0.530   3.812  0.1250  1.7062 -1.1956
 4516SOL     OW25183   2.553   3.341   8.219  0.3104 -0.2896 -0.0751
 4516SOL    HW125184   2.645   3.367   8.225  0.9121 -1.7228 -2.9436
 4516SOL    HW225185   2.562   3.251   8.249  0.6728 -0.2432 -0.0474
 4517SOL     OW25186   3.098   4.263  12.851  0.7965  0.3341  0.0310
 4517SOL    HW125187   3.098   4.337  12.912  3.6362  0.4159 -0.0470
 4517SOL    HW225188   3.180   4.223  12.881  0.2927 -0.4189  0.3954
 4518SOL     OW25189   3.716   0.111  14.413  0.2741  0.1913  0.3690
 4518SOL    HW125190   3.768   0.038  14.448  1.2081  1.4637  1.6769
 4518SOL    HW225191   3.785   0.171  14.383 -0.4630  0.2352 -1.2143
 4519SOL     OW25192   2.258   3.150  14.246  0.1915  0.1920  0.1905
 4519SOL    HW125193   2.298   3.074  14.288  2.3245  0.6002 -1.0807
 4519SOL    HW225194   2.299   3.140  14.160 -2.4163  0.1353 -1.0309
 4520SOL     OW25195   2.955   2.963   0.094 -0.4060  0.0729 -0.3534
 4520SOL    HW125196   2.944   3.043   0.145  1.2036 -1.0440  1.7281
 4520SOL    HW225197   3.028   2.924   0.142 -0.9848 -0.5112  0.0560
 4521SOL     OW25198   2.521   3.806   8.863  0.6556  0.0403 -0.4711
 4521SOL    HW125199   2.565   3.881   8.904 -0.6341  0.1021  0.8096
 4521SOL    HW225200   2.540   3.802   8.769 -1.2874  0.3373 -0.8808
 4522SOL     OW25201   3.936   3.919  16.191 -0.5388 -0.5945  0.5551
 4522SOL    HW125202   3.849   3.957  16.209 -1.0356 -0.4049 -2.2154
 4522SOL    HW225203   3.967   3.970  16.116 -1.0223 -2.2421 -0.7559
 4523SOL     OW25204   1.761   1.847  12.822  0.6906 -0.1427 -0.0933
 4523SOL    HW125205   1.769   1.780  12.890  0.2725  0.0702  0.1584
 4523SOL    HW225206   1.705   1.800  12.760 -0.8629 -0.0761  1.2491
 4524SOL     OW25207   2.504   0.923   3.362  0.3244 -0.1013 -0.2745
 4524SOL    HW125208   2.455   0.971   3.296  0.8601 -1.9265 -2.0100
 4524SOL    HW225209   2.482   0.972   3.441  2.7781 -2.6113  1.9999
 4525SOL     OW25210   1.038   2.834   3.342  0.1948 -0.7553 -0.5751
 4525SOL    HW125211   1.066   2.876   3.261 -0.8623  0.7922 -0.1403
 4525SOL    HW225212   1.074   2.895   3.407  1.0620 -0.5594 -1.2447
 4526SOL     OW25213   3.549   1.295   4.398  0.7656 -0.2233  0.1793
 4526SOL    HW125214   3.581   1.207   4.419 -0.1962 -0.5504  0.3010
 4526SOL    HW225215   3.456   1.282   4.377  0.8110  0.1081 -0.2369
 4527SOL     OW25216   0.241   0.522   8.722 -0.0031  0.4010 -0.7661
 4527SOL    HW125217   0.280   0.471   8.792 -0.1686 -0.1948 -1.1091
 4527SOL    HW225218   0.201   0.598   8.764  0.5677  0.1528  0.2378
 4528SOL     OW25219   2.721   4.678  16.966 -0.0483 -0.0367 -0.1925
 4528SOL    HW125220   2.663   4.698  17.039  0.0359 -2.4158  0.5192
 4528SOL    HW225221   2.660   4.691  16.893 -0.6332 -0.9737  0.1326
 4529SOL     OW25222   2.791   3.961   9.771  0.0149 -0.2504  0.7788
 4529SOL    HW125223   2.710   3.921   9.802 -0.8723  1.4070  0.6123
 4529SOL    HW225224   2.775   4.049   9.804 -0.1843 -0.1029  0.2910
 4530SOL     OW25225   1.049   0.234   6.912  1.1257 -0.4254  0.2138
 4530SOL    HW125226   0.999   0.242   6.831 -0.1247 -0.7862  0.9463
 4530SOL    HW225227   0.985   0.226   6.982 -0.0377 -3.0452 -1.1553
 4531SOL     OW25228   1.379   3.442   4.284 -0.0807  0.5523 -0.2569
 4531SOL    HW125229   1.336   3.401   4.208 -1.0920  0.2053  0.4987
 4531SOL    HW225230   1.334   3.398   4.357 -0.9246  0.8173 -0.6118
 4532SOL     OW25231   4.275   2.518  10.962 -0.1143  0.5322 -0.9179
 4532SOL    HW125232   4.348   2.501  11.022 -1.7242  0.3321  0.9569
 4532SOL    HW225233   4.224   2.583  11.009  2.3166  1.4258  0.4845
 4533SOL     OW25234   3.894   1.262   8.251 -0.3810  0.3562  0.4899
 4533SOL    HW125235   3.928   1.204   8.183  0.6286 -0.5785  1.7930
 4533SOL    HW225236   3.801   1.257   8.227 -0.8254 -1.2066  2.5655
 4534SOL     OW25237   3.038   3.394   1.993  0.6069 -0.4056  0.1742
 4534SOL    HW125238   3.101   3.324   2.011 -0.6750 -1.5495  0.2071
 4534SOL    HW225239   2.990   3.393   2.076  0.3039 -0.3963 -0.0020
 4535SOL     OW25240   1.329   0.196   2.738 -0.2465 -0.2360 -0.5677
 4535SOL    HW125241   1.285   0.207   2.822 -0.0303 -1.6487 -0.2793
 4535SOL    HW225242   1.259   0.184   2.674 -1.0518  1.9333 -0.1067
 4536SOL     OW25243   2.718   2.763  12.985  0.6375  0.1299  0.5581
 4536SOL    HW125244   2.770   2.829  13.032  0.7230 -0.0971  0.7802
 4536SOL    HW225245   2.638   2.814  12.971  0.4742 -0.0630  0.7688
 4537SOL     OW25246   3.808   0.756  13.065  0.2047  0.4252  0.1059
 4537SOL    HW125247   3.871   0.686  13.085  2.1436  2.6368  1.7947
 4537SOL    HW225248   3.786   0.786  13.153 -0.0755 -1.5443  0.7220
 4538SOL     OW25249   3.622   3.641  14.735 -0.2914 -0.0600  0.1829
 4538SOL    HW125250   3.587   3.718  14.690  0.1980  0.8702  1.4119
 4538SOL    HW225251   3.561   3.577  14.698  0.9651 -0.9119 -0.4206
 4539SOL     OW25252   1.353   3.711  13.320 -0.2960  0.5923 -0.1202
 4539SOL    HW125253   1.348   3.781  13.385  2.6472  2.3661 -1.8047
 4539SOL    HW225254   1.355   3.631  13.373 -0.8915 -1.3061 -2.9361
 4540SOL     OW25255   0.864   0.073   8.556  0.9264  0.5279 -0.6239
 4540SOL    HW125256   0.944   0.031   8.527  0.4476 -2.4619  2.4266
 4540SOL    HW225257   0.803   0.014   8.511  0.7190 -0.3110  0.7552
 4541SOL     OW25258   2.972   1.877  12.476 -0.5842 -0.0536  0.1441
 4541SOL    HW125259   3.052   1.910  12.519 -0.9308  0.7242  0.2004
 4541SOL    HW225260   2.906   1.868  12.545  0.3582  2.7110  1.4303
 4542SOL     OW25261   2.825   0.778   5.600  0.3165 -0.0194  0.4144
 4542SOL    HW125262   2.851   0.697   5.644 -2.3120  0.1702  2.3100
 4542SOL    HW225263   2.751   0.741   5.553  0.1717 -1.5082  1.8236
 4543SOL     OW25264   2.156   3.992  11.888  0.4708 -0.0361 -0.1087
 4543SOL    HW125265   2.087   3.980  11.822  1.2477 -1.7968 -0.6005
 4543SOL    HW225266   2.139   4.080  11.922 -0.9668  0.2805 -1.6390
 4544SOL     OW25267   4.098   3.696   6.293  0.1163  0.3940  0.2948
 4544SOL    HW125268   4.112   3.677   6.385  1.2549  2.2018  0.5012
 4544SOL    HW225269   4.033   3.634   6.259  2.4422 -0.0340 -3.3892
 4545SOL     OW25270   1.526   1.629  16.842 -0.2348  0.9214 -0.1554
 4545SOL    HW125271   1.488   1.709  16.877  1.0857  0.9354  1.2655
 4545SOL    HW225272   1.561   1.654  16.757  1.7924 -1.8962 -0.1577
 4546SOL     OW25273   4.408   4.420   1.160 -0.0146  0.3369  0.3365
 4546SOL    HW125274   4.431   4.407   1.068 -0.7857 -0.1274  0.2012
 4546SOL    HW225275   4.460   4.349   1.198  1.4426  0.5491 -1.2701
 4547SOL     OW25276   0.940   4.100   8.343  0.4799 -0.1880 -0.4622
 4547SOL    HW125277   0.968   4.044   8.416 -0.6596  0.7158  0.6731
 4547SOL    HW225278   0.889   4.035   8.295 -0.9509  0.9620 -0.5099
 4548SOL     OW25279   1.989   1.400  14.013  0.0519 -1.1194  0.0133
 4548SOL    HW125280   1.995   1.357  14.099  1.7987 -1.9201 -0.4967
 4548SOL    HW225281   2.070   1.376  13.968 -0.2170 -0.9515 -0.5516
 4549SOL     OW25282   4.089   1.376   3.934  0.1413  0.3554  0.1805
 4549SOL    HW125283   4.081   1.377   3.839  2.9407 -0.3955 -0.0759
 4549SOL    HW225284   4.134   1.293   3.952 -1.4249 -0.7471 -1.0157
 4550SOL     OW25285   0.744   4.601   6.580  0.0830 -0.3461 -0.0701
 4550SOL    HW125286   0.833   4.585   6.612 -0.1687 -1.1590  0.2149
 4550SOL    HW225287   0.703   4.528   6.626  1.6091 -0.3815  1.2403
 4551SOL     OW25288   0.433   0.858   2.133 -0.0126 -0.2715 -0.1192
 4551SOL    HW125289   0.418   0.795   2.204  0.3100 -0.1464  0.0575
 4551SOL    HW225290   0.346   0.871   2.095 -0.3509  0.6414  0.9478
 4552SOL     OW25291   0.673   1.651   4.279 -0.0873  0.5809  0.3058
 4552SOL    HW125292   0.722   1.591   4.335  1.4709  1.5307 -0.0300
 4552SOL    HW225293   0.602   1.681   4.335 -0.9088 -1.7907  0.5308
 4553SOL     OW25294   4.406   0.434   7.978  0.1452  0.4048  0.2525
 4553SOL    HW125295   4.449   0.372   8.037 -0.1187  0.2305  0.2593
 4553SOL    HW225296   4.379   0.511   8.028  0.2751  1.7887 -1.8091
 4554SOL     OW25297   1.711   1.564   4.125  0.5215  0.2167 -0.1578
 4554SOL    HW125298   1.657   1.543   4.202  0.3697 -4.2193 -1.4395
 4554SOL    HW225299   1.796   1.537   4.161 -0.2510 -0.1786  1.4049
 4555SOL     OW25300   4.114   0.853  14.526  0.1529  0.3860 -0.0620
 4555SOL    HW125301   4.100   0.948  14.527 -2.1339  0.0431  1.1256
 4555SOL    HW225302   4.065   0.829  14.604 -0.8715 -2.8508 -1.7139
 4556SOL     OW25303   1.991   3.817   1.677 -0.7510 -0.3917  0.0362
 4556SOL    HW125304   1.937   3.870   1.619 -0.9367 -0.3206  0.2706
 4556SOL    HW225305   2.084   3.828   1.658 -0.4202 -3.9201 -0.4054
 4557SOL     OW25306   1.389   3.565   3.684 -0.0080 -0.0807  0.0580
 4557SOL    HW125307   1.457   3.572   3.616 -0.7515  0.3984 -0.6333
 4557SOL    HW225308   1.443   3.556   3.762  2.3420  0.1887 -1.4995
 4558SOL     OW25309   3.397   2.580   7.266  0.0662  0.5897  0.1592
 4558SOL    HW125310   3.425   2.516   7.201  0.3431  1.4785 -0.5896
 4558SOL    HW225311   3.469   2.642   7.269  0.1335  0.5260 -0.2345
 4559SOL     OW25312   4.661   3.385   3.164  0.3514  0.0049 -0.3906
 4559SOL    HW125313   4.644   3.454   3.099  1.5222  1.7583  1.1585
 4559SOL    HW225314   4.581   3.333   3.158 -0.6053  1.0467  2.9387
 4560SOL     OW25315   0.415   4.555   8.643  0.0683 -0.6708 -0.1702
 4560SOL    HW125316   0.426   4.527   8.734  1.8039 -0.9185 -0.4597
 4560SOL    HW225317   0.411   4.650   8.655  1.8196 -0.8824  2.2383
 4561SOL     OW25318   3.616   2.199   6.213 -0.2757 -0.3699  0.4548
 4561SOL    HW125319   3.547   2.185   6.278 -1.1292  2.6620  0.2083
 4561SOL    HW225320   3.690   2.162   6.261  0.3628  1.6040  1.0063
 4562SOL     OW25321   3.697   1.169   0.768  0.4253 -0.1317  0.4665
 4562SOL    HW125322   3.672   1.177   0.860  0.9768  2.8535  0.3518
 4562SOL    HW225323   3.641   1.230   0.720 -0.2655 -1.2105 -0.0971
 4563SOL     OW25324   2.869   1.346   9.005  0.0844 -0.3767  0.6353
 4563SOL    HW125325   2.931   1.297   9.059 -1.5979 -2.0056  1.0695
 4563SOL    HW225326   2.815   1.386   9.074 -0.4628 -1.9910  1.1289
 4564SOL     OW25327   0.815   1.329   6.474  0.0008 -0.1219  0.2999
 4564SOL    HW125328   0.770   1.394   6.529  1.1130  1.2882 -0.4431
 4564SOL    HW225329   0.906   1.335   6.502 -0.1037  1.3592  0.3290
 4565SOL     OW25330   4.076   1.421   4.823  0.4942 -0.4690  0.0722
 4565SOL    HW125331   4.101   1.484   4.755 -2.2033  1.2715  0.7070
 4565SOL    HW225332   4.148   1.439   4.883 -0.3846 -0.6286  1.1631
 4566SOL     OW25333   4.502   0.472   1.785  0.0396  0.6433 -0.1784
 4566SOL    HW125334   4.572   0.537   1.774  1.1513 -0.2994  1.3209
 4566SOL    HW225335   4.547   0.395   1.752 -0.6260  1.6607 -3.4863
 4567SOL     OW25336   3.337   4.069  17.392 -0.1608  0.1938 -0.3500
 4567SOL    HW125337   3.304   4.117  17.468 -0.3260  0.6899 -0.7443
 4567SOL    HW225338   3.274   3.997  17.383 -0.1185  0.2236 -0.8729
 4568SOL     OW25339   2.628   3.460   1.805  0.4123  0.0419 -0.0867
 4568SOL    HW125340   2.581   3.484   1.884  0.7112  1.4866 -0.3606
 4568SOL    HW225341   2.722   3.447   1.820  0.3126 -0.3063  0.2511
 4569SOL     OW25342   3.890   1.579   0.664  0.1263 -0.7028  0.1809
 4569SOL    HW125343   3.872   1.497   0.708  1.1788 -1.3248 -0.5577
 4569SOL    HW225344   3.935   1.630   0.731  2.0117 -2.9087  0.5658
 4570SOL     OW25345   1.924   4.588   1.173  0.7163  0.7852  0.1241
 4570SOL    HW125346   1.858   4.575   1.241  2.1266 -2.3491  0.8949
 4570SOL    HW225347   1.919   4.678   1.142 -0.0994  1.1668  1.3825
 4571SOL     OW25348   0.822   0.733   3.255 -0.0868  0.0889  0.4826
 4571SOL    HW125349   0.831   0.824   3.226  1.7801  0.3796  1.9317
 4571SOL    HW225350   0.880   0.690   3.194  0.7547 -1.0138  2.0768
 4572SOL     OW25351   3.028   1.836   8.415 -0.2447 -0.2430 -0.3099
 4572SOL    HW125352   2.982   1.886   8.347  1.5312 -1.8875 -2.7255
 4572SOL    HW225353   2.953   1.811   8.469 -0.2003  0.8912  0.2704
 4573SOL     OW25354   1.443   0.313   2.205  0.0918  0.0651 -0.5237
 4573SOL    HW125355   1.526   0.279   2.237  0.0592 -1.5524 -2.1698
 4573SOL    HW225356   1.417   0.252   2.136  0.3482  0.9441 -1.4010
 4574SOL     OW25357   4.695   0.508   2.405 -0.8403  0.1157  0.5457
 4574SOL    HW125358   0.011   0.434   2.378 -2.2014 -1.6878  2.7870
 4574SOL    HW225359   0.012   0.581   2.375  0.2446  0.4300  3.2542
 4575SOL     OW25360   2.330   2.441  17.033 -0.0463  0.5609  0.3905
 4575SOL    HW125361   2.281   2.466  16.955  1.5413  1.3303 -0.3555
 4575SOL    HW225362   2.392   2.380  16.992 -0.6138 -0.2995  0.7945
 4576SOL     OW25363   2.399   4.266   8.273 -0.1987 -0.4524 -0.3135
 4576SOL    HW125364   2.342   4.343   8.262  0.9227  0.3069 -0.8235
 4576SOL    HW225365   2.374   4.201   8.207 -1.5468 -0.1449 -0.1091
 4577SOL     OW25366   1.195   0.455  14.906 -1.0076 -0.1819 -0.0446
 4577SOL    HW125367   1.273   0.415  14.868 -1.2616 -2.4026  1.7503
 4577SOL    HW225368   1.149   0.483  14.827  0.1532 -1.7439 -1.2834
 4578SOL     OW25369   3.822   0.097   1.049 -0.6527 -0.7132 -0.0048
 4578SOL    HW125370   3.780   0.132   0.971 -2.3687 -1.5131  0.5452
 4578SOL    HW225371   3.886   0.033   1.017  1.2256  1.1100  0.0876
 4579SOL     OW25372   2.038   0.231  14.476 -0.0556 -0.0061  0.1781
 4579SOL    HW125373   1.970   0.292  14.505 -0.3302 -0.1223 -0.2225
 4579SOL    HW225374   2.026   0.233  14.381 -1.8926 -0.3368  0.4101
 4580SOL     OW25375   4.345   4.609   5.479 -0.3810 -0.1828 -0.0222
 4580SOL    HW125376   4.407   4.595   5.408  1.0194 -2.1978  1.6185
 4580SOL    HW225377   4.290   4.531   5.473 -0.0205 -0.5423  1.2624
 4581SOL     OW25378   0.625   1.146   6.575  0.3113  0.3823 -0.2361
 4581SOL    HW125379   0.622   1.214   6.642 -1.6915 -0.2809  0.3688
 4581SOL    HW225380   0.706   1.180   6.538  1.3511 -0.1315  1.5832
 4582SOL     OW25381   2.620   3.001   8.718 -0.3277 -0.1913 -0.2552
 4582SOL    HW125382   2.559   2.948   8.769 -0.1724  0.7878  0.9295
 4582SOL    HW225383   2.580   2.989   8.632  0.5303  5.0456 -1.4062
 4583SOL     OW25384   4.113   1.891   0.521 -0.2551 -0.5176  0.1634
 4583SOL    HW125385   4.153   1.900   0.434  2.1511  2.2100  1.5841
 4583SOL    HW225386   4.130   1.974   0.564  0.8342  0.5981 -2.4168
 4584SOL     OW25387   3.568   2.891   2.920  0.4629 -0.6411 -0.8494
 4584SOL    HW125388   3.479   2.859   2.907 -0.4838  1.9340 -0.6949
 4584SOL    HW225389   3.605   2.831   2.985 -1.0530  0.8869  1.4102
 4585SOL     OW25390   0.739   1.271   4.496 -0.0427 -0.0445 -0.1417
 4585SOL    HW125391   0.757   1.340   4.559 -2.6164  1.4498 -1.0968
 4585SOL    HW225392   0.646   1.283   4.481  0.1778  1.9018  0.1687
 4586SOL     OW25393   2.644   2.772   7.902 -0.2702  0.5705 -0.4911
 4586SOL    HW125394   2.610   2.712   7.835 -1.0622  2.0663 -1.4164
 4586SOL    HW225395   2.656   2.850   7.849 -4.2691  0.3318 -1.7925
 4587SOL     OW25396   0.208   4.684  17.589  0.1629 -0.2017 -0.6518
 4587SOL    HW125397   0.233   0.035  17.614  2.9528 -0.6027 -2.0022
 4587SOL    HW225398   0.123   4.702  17.550 -0.0923  0.0062 -0.0008
 4588SOL     OW25399   1.887   2.133  15.001 -0.4416 -0.1411 -0.1662
 4588SOL    HW125400   1.913   2.221  15.029  0.4858 -0.8140  1.0966
 4588SOL    HW225401   1.954   2.076  15.039 -0.5787 -0.6549 -0.6823
 4589SOL     OW25402   1.266   2.021   0.018 -0.0779  0.8901 -0.0773
 4589SOL    HW125403   1.339   2.005  17.707  0.1455  1.1081  0.1386
 4589SOL    HW225404   1.207   1.957  17.727  2.6042 -1.6171 -0.0327
 4590SOL     OW25405   0.733   3.169   0.809  0.3467 -0.7893  0.2989
 4590SOL    HW125406   0.806   3.120   0.771 -0.7217 -1.6102 -0.7021
 4590SOL    HW225407   0.662   3.138   0.753 -0.6648  0.0839  1.0927
 4591SOL     OW25408   4.068   3.723   4.901 -0.1521 -0.1347 -0.8790
 4591SOL    HW125409   4.077   3.645   4.956 -2.9521  0.3492  0.2806
 4591SOL    HW225410   4.007   3.679   4.842  0.5912  0.1182 -1.8232
 4592SOL     OW25411   0.591   0.174   3.567  0.1413 -0.2286  0.2884
 4592SOL    HW125412   0.565   0.262   3.539 -0.4604 -0.7495 -0.7923
 4592SOL    HW225413   0.515   0.127   3.533  0.3094 -0.9005  0.8420
 4593SOL     OW25414   0.200   2.722   3.256 -0.3445  0.4456  0.2181
 4593SOL    HW125415   0.114   2.733   3.215  0.2017 -0.6346 -1.2093
 4593SOL    HW225416   0.258   2.688   3.188  0.6926  0.8940  0.8865
 4594SOL     OW25417   1.526   2.856   5.644 -0.6262 -0.1895 -0.5882
 4594SOL    HW125418   1.604   2.803   5.628 -1.8341 -2.6120  1.4961
 4594SOL    HW225419   1.456   2.792   5.627 -0.1339 -1.0906  0.7680
 4595SOL     OW25420   0.128   4.249   1.538  0.2857  0.1143 -0.1680
 4595SOL    HW125421   0.065   4.303   1.490  1.4722  2.2322  0.6879
 4595SOL    HW225422   0.076   4.170   1.554 -0.0528  0.3278 -0.2185
 4596SOL     OW25423   2.543   3.132  15.722 -0.3734 -0.4120  0.1110
 4596SOL    HW125424   2.570   3.211  15.770  1.2815  0.2071 -1.8443
 4596SOL    HW225425   2.613   3.071  15.741 -0.2678  0.4783  2.6343
 4597SOL     OW25426   4.679   4.424   3.064  0.4264 -0.7415  0.0146
 4597SOL    HW125427   4.591   4.413   3.029  0.6672  0.6308 -1.0299
 4597SOL    HW225428   4.699   4.514   3.041  1.6292 -0.8813  0.5149
 4598SOL     OW25429   0.184   2.401  11.118  0.5916  0.0571  0.7062
 4598SOL    HW125430   0.167   2.438  11.204 -0.2637  1.2373  0.0282
 4598SOL    HW225431   0.265   2.440  11.086  0.8592 -2.2950 -1.5165
 4599SOL     OW25432   2.761   1.391   3.179  0.0787 -0.3160 -0.2943
 4599SOL    HW125433   2.756   1.466   3.239  0.8001 -0.1329 -0.4639
 4599SOL    HW225434   2.851   1.363   3.194  0.3417 -0.3406 -1.9480
 4600SOL     OW25435   0.011   2.065   3.798  0.3777 -0.2253 -0.7934
 4600SOL    HW125436   0.074   2.131   3.828 -1.1714 -0.4868  3.0309
 4600SOL    HW225437   4.676   2.116   3.763 -0.2285  0.7246  1.8678
 4601SOL     OW25438   0.049   3.617   7.927 -0.5895  0.1608  0.3784
 4601SOL    HW125439   4.736   3.629   7.846 -1.6217  1.5502  1.2224
 4601SOL    HW225440   0.031   3.524   7.943  1.2727 -0.3131 -0.2925
 4602SOL     OW25441   3.693   4.115   3.149  0.3362 -0.6449  0.6929
 4602SOL    HW125442   3.730   4.167   3.220  3.0162 -1.0595 -0.3708
 4602SOL    HW225443   3.615   4.166   3.128  0.9414 -0.2593 -0.6182
 4603SOL     OW25444   3.098   1.575  10.824 -0.3813  0.3180  0.4132
 4603SOL    HW125445   3.015   1.622  10.832 -2.1248 -2.6091 -0.5228
 4603SOL    HW225446   3.076   1.503  10.883  0.3190  1.8686  2.5425
 4604SOL     OW25447   3.365   3.148   8.414  0.7724 -0.7333 -0.0630
 4604SOL    HW125448   3.428   3.095   8.463  2.3504  0.9913 -0.2529
 4604SOL    HW225449   3.285   3.123   8.461  0.3611 -2.0341 -1.4353
 4605SOL     OW25450   2.646   2.973   2.099 -0.3847  0.5875  0.7928
 4605SOL    HW125451   2.730   2.959   2.056 -1.0691  0.8335 -0.6200
 4605SOL    HW225452   2.600   3.024   2.032 -0.6824  0.1679  0.6757
 4606SOL     OW25453   2.068   2.267  15.812  0.3709  0.0524  0.2082
 4606SOL    HW125454   2.044   2.312  15.893 -1.7175 -1.9044  0.6705
 4606SOL    HW225455   1.985   2.228  15.785 -0.3711  0.9363  1.1920
 4607SOL     OW25456   4.123   3.528   8.069  0.0335  0.3263  0.1982
 4607SOL    HW125457   4.052   3.584   8.099 -0.8832 -0.3473 -0.7104
 4607SOL    HW225458   4.147   3.482   8.150  0.9857  2.3139  1.0252
 4608SOL     OW25459   0.901   1.364  16.833 -0.2451 -0.2048 -0.3065
 4608SOL    HW125460   0.960   1.292  16.809 -1.6068 -1.8279  1.1853
 4608SOL    HW225461   0.919   1.426  16.762 -0.1886 -0.8088 -0.8194
 4609SOL     OW25462   3.453   3.668   4.237 -0.9042  0.4228 -0.4495
 4609SOL    HW125463   3.449   3.595   4.298 -0.9025  1.7152  1.0895
 4609SOL    HW225464   3.452   3.608   4.163 -0.5368  1.6428 -1.4520
 4610SOL     OW25465   3.496   0.336   8.342 -0.4520 -0.0964 -0.1280
 4610SOL    HW125466   3.494   0.244   8.370 -0.4328 -0.1049 -0.1547
 4610SOL    HW225467   3.477   0.371   8.429  1.9854 -1.1310  0.8076
 4611SOL     OW25468   3.772   1.091   8.489  0.1007 -0.5657  0.2511
 4611SOL    HW125469   3.825   1.113   8.566  0.2086  3.3465 -0.9184
 4611SOL    HW225470   3.784   1.173   8.441 -1.0188  0.8083  2.2992
 4612SOL     OW25471   3.289   1.047  13.300  0.2990  0.3420  0.2329
 4612SOL    HW125472   3.341   0.984  13.251  0.6468  1.5124 -0.8916
 4612SOL    HW225473   3.313   1.132  13.265 -2.9239  0.5871 -1.3910
 4613SOL     OW25474   0.962   0.728   2.423 -1.1161  0.2224  1.2608
 4613SOL    HW125475   0.922   0.691   2.502  0.6596 -3.2806  0.5201
 4613SOL    HW225476   0.976   0.645   2.377  0.8476  0.8413  0.7372
 4614SOL     OW25477   3.313   3.810  16.824 -0.0924 -0.2886  0.0199
 4614SOL    HW125478   3.338   3.729  16.780 -1.5982 -0.2791 -0.8411
 4614SOL    HW225479   3.249   3.775  16.886  1.2489 -3.9791 -0.6717
 4615SOL     OW25480   2.820   3.684   1.597  0.4417  0.4486  0.0038
 4615SOL    HW125481   2.899   3.728   1.569  1.2689 -0.6091  0.6672
 4615SOL    HW225482   2.797   3.738   1.673 -0.5099  2.5551 -1.8030
 4616SOL     OW25483   4.120   2.813   5.420  0.2059  0.0356 -0.9123
 4616SOL    HW125484   4.215   2.819   5.433 -0.1217 -1.9543  2.5144
 4616SOL    HW225485   4.114   2.723   5.451 -1.4885  0.8446  1.1173
 4617SOL     OW25486   3.053   3.741   3.775 -0.7295  0.1100 -0.2681
 4617SOL    HW125487   2.999   3.808   3.818 -0.7310  0.2016 -0.4116
 4617SOL    HW225488   3.126   3.787   3.734  0.7576 -2.5174 -0.5509
 4618SOL     OW25489   3.410   4.439  14.158 -0.0505  0.0609 -0.3066
 4618SOL    HW125490   3.357   4.495  14.214  0.3004 -1.2449  1.3178
 4618SOL    HW225491   3.453   4.369  14.207 -0.0534  0.3019  0.0342
 4619SOL     OW25492   2.475   0.449   7.714 -0.7647  0.4765 -0.2438
 4619SOL    HW125493   2.523   0.486   7.640 -2.4803 -0.0229 -1.6048
 4619SOL    HW225494   2.400   0.410   7.669 -0.4330  1.2201 -1.4422
 4620SOL     OW25495   3.147   1.513  11.078  0.1897 -0.3794  0.0355
 4620SOL    HW125496   3.154   1.608  11.081 -2.3827 -0.2053  0.6426
 4620SOL    HW225497   3.238   1.486  11.092 -0.0425 -1.7425 -1.1458
 4621SOL     OW25498   2.441   2.924   0.298  0.0069 -0.2236 -0.3645
 4621SOL    HW125499   2.350   2.912   0.271  0.0233  1.0613 -0.9564
 4621SOL    HW225500   2.465   3.005   0.253 -2.6513  0.3117 -0.7999
 4622SOL     OW25501   2.407   3.408   2.787  0.0089 -0.3502  0.4873
 4622SOL    HW125502   2.420   3.315   2.771  1.7306  0.4912 -3.0688
 4622SOL    HW225503   2.316   3.410   2.818 -0.7295  5.4676 -2.0094
 4623SOL     OW25504   1.997   0.603   0.006 -0.3677 -0.4147 -0.8485
 4623SOL    HW125505   1.903   0.594   0.022 -0.4977 -0.0284 -1.3794
 4623SOL    HW225506   1.994   0.573  17.664  1.0316 -0.3078 -0.9277
 4624SOL     OW25507   2.346   0.384   6.711 -0.2685  0.7377  0.3127
 4624SOL    HW125508   2.314   0.319   6.774  0.3915  1.4334  1.3666
 4624SOL    HW225509   2.439   0.376   6.731 -0.0814  0.6738 -0.6071
 4625SOL     OW25510   4.395   0.896   5.980  0.0358  0.1496  0.2171
 4625SOL    HW125511   4.385   0.833   6.051  1.5169 -0.8849 -0.5002
 4625SOL    HW225512   4.406   0.980   6.026  2.6708 -1.8445  3.2324
 4626SOL     OW25513   1.085   1.091   4.756 -0.1434 -0.0482  0.5819
 4626SOL    HW125514   1.039   1.032   4.816 -0.0109  0.3886  1.1171
 4626SOL    HW225515   1.060   1.170   4.805 -2.7002 -1.7030  1.9464
 4627SOL     OW25516   3.401   3.389  10.768 -0.1609 -0.2331  0.2424
 4627SOL    HW125517   3.458   3.435  10.831 -0.0468 -1.9537  1.3968
 4627SOL    HW225518   3.449   3.309  10.751 -0.8998 -0.7214  0.4704
 4628SOL     OW25519   1.431   3.708  11.579  0.0731 -0.1548  0.5456
 4628SOL    HW125520   1.380   3.706  11.660  0.2643  0.7889  0.6879
 4628SOL    HW225521   1.494   3.777  11.599 -1.1224  1.4277 -1.1860
 4629SOL     OW25522   0.271   3.187   2.642 -0.3112  0.7368  0.5452
 4629SOL    HW125523   0.332   3.168   2.713 -0.1129  1.4161  0.5542
 4629SOL    HW225524   0.290   3.272   2.603 -2.6338  0.0943 -1.9809
 4630SOL     OW25525   3.499   1.767   2.794 -0.5135 -0.4656  0.1432
 4630SOL    HW125526   3.465   1.697   2.849 -0.4702 -0.8917 -0.3660
 4630SOL    HW225527   3.452   1.757   2.711 -0.6154  2.0645 -0.0905
 4631SOL     OW25528   2.024   4.096   1.884 -0.5590  0.0705 -0.3877
 4631SOL    HW125529   1.942   4.079   1.838  0.1886  1.6425 -2.2594
 4631SOL    HW225530   1.997   4.173   1.933  0.9640  1.8712 -2.4095
 4632SOL     OW25531   2.115   3.152   7.094 -0.6114  0.1471 -0.0050
 4632SOL    HW125532   2.191   3.123   7.144 -0.0752  0.7622 -0.4631
 4632SOL    HW225533   2.096   3.233   7.143  0.1026 -0.0619  0.6091
 4633SOL     OW25534   4.239   4.296   9.661  0.2293  0.5128  0.0816
 4633SOL    HW125535   4.251   4.203   9.680  1.3237  0.9386  1.4506
 4633SOL    HW225536   4.329   4.328   9.659 -0.6735  2.8862 -2.0029
 4634SOL     OW25537   4.614   0.667   8.783  0.2855 -0.2952 -0.1333
 4634SOL    HW125538   4.631   0.618   8.863  0.9494  1.0448  0.5480
 4634SOL    HW225539   4.620   0.595   8.720 -2.9990  1.3374 -2.3124
 4635SOL     OW25540   0.817   2.027   7.041 -0.0696  0.3573  0.3748
 4635SOL    HW125541   0.758   2.068   6.977  0.8093 -0.7695 -1.1599
 4635SOL    HW225542   0.864   2.099   7.082  2.6896  0.8641 -3.6882
 4636SOL     OW25543   2.850   0.495  17.488 -0.2429  0.3070 -0.8882
 4636SOL    HW125544   2.918   0.429  17.502  0.2664  1.0409  0.1134
 4636SOL    HW225545   2.801   0.470  17.567  0.2899  2.7167  0.2047
 4637SOL     OW25546   0.111   2.732  15.849 -0.4960  0.1059  0.1111
 4637SOL    HW125547   0.026   2.697  15.823 -1.0541 -0.6198  2.8376
 4637SOL    HW225548   0.094   2.824  15.831  1.0094  0.2952 -0.3448
 4638SOL     OW25549   1.960   2.523   5.622  0.0887 -0.2737  0.8169
 4638SOL    HW125550   1.993   2.488   5.705 -0.7833  0.2072  1.3546
 4638SOL    HW225551   2.034   2.570   5.583 -1.5788  0.0060 -2.0222
 4639SOL     OW25552   1.814   3.740  10.014  0.4932  0.2062  0.4018
 4639SOL    HW125553   1.860   3.806  10.067  0.7922  1.1531 -1.0524
 4639SOL    HW225554   1.729   3.774  10.041 -0.0852 -2.4450  2.0052
 4640SOL     OW25555   0.026   2.862   2.135  0.1289 -0.1808 -0.0459
 4640SOL    HW125556   0.086   2.798   2.095  0.4553  0.5098 -0.6629
 4640SOL    HW225557   0.082   2.938   2.149 -0.7738  0.4631  0.0183
 4641SOL     OW25558   2.162   3.636   0.496 -0.1640  0.2100 -0.5237
 4641SOL    HW125559   2.199   3.721   0.520  0.9570  0.2275 -2.2367
 4641SOL    HW225560   2.096   3.662   0.432 -0.1806  0.2206 -0.5016
 4642SOL     OW25561   1.790   4.711  14.148  0.0608 -0.1644 -0.5198
 4642SOL    HW125562   1.741   4.681  14.225  0.8752  0.1480  0.1254
 4642SOL    HW225563   1.831   4.631  14.113  0.8075  0.1079 -0.2783
 4643SOL     OW25564   4.072   4.644  14.651 -0.4156  0.0156 -0.1420
 4643SOL    HW125565   4.149   4.691  14.686 -0.0499 -0.2920 -0.5368
 4643SOL    HW225566   4.084   4.561  14.697 -0.1731  0.0023 -0.2255
 4644SOL     OW25567   0.581   1.524  10.845 -0.1338 -0.4120 -0.0451
 4644SOL    HW125568   0.541   1.461  10.785 -1.7330  0.5061  0.0515
 4644SOL    HW225569   0.668   1.548  10.814 -1.2849  1.3316 -1.9369
 4645SOL     OW25570   3.464   1.911   5.506  0.1007 -0.3425  0.0816
 4645SOL    HW125571   3.433   1.866   5.585 -0.9274 -0.0829 -0.1886
 4645SOL    HW225572   3.559   1.898   5.495  0.2112  0.3804  0.1627
 4646SOL     OW25573   3.464   0.470  10.073  0.0093 -0.1488  0.0914
 4646SOL    HW125574   3.407   0.529  10.023 -0.2673 -0.6070 -0.1388
 4646SOL    HW225575   3.517   0.434  10.002  2.2136  0.8263  1.2658
 4647SOL     OW25576   3.403   1.828   6.511 -0.5427  0.5757  0.1988
 4647SOL    HW125577   3.316   1.792   6.492 -0.9687 -0.0198  3.2087
 4647SOL    HW225578   3.461   1.760   6.476 -1.1381  0.6874 -0.9958
 4648SOL     OW25579   3.090   2.401   6.686 -0.6406  0.1424  0.0779
 4648SOL    HW125580   3.032   2.334   6.650  0.4890 -0.0530 -1.3590
 4648SOL    HW225581   3.167   2.347   6.706 -0.0118  0.5389 -1.2417
 4649SOL     OW25582   0.903   0.219   8.996  0.2616  0.3844 -0.5893
 4649SOL    HW125583   0.968   0.219   8.925  2.4489 -1.1074  1.4030
 4649SOL    HW225584   0.893   0.125   9.007  0.0438  0.5566  0.6980
 4650SOL     OW25585   4.452   1.158   5.445 -0.2999  0.0321 -0.6329
 4650SOL    HW125586   4.374   1.103   5.434 -2.3311  2.8763 -0.5151
 4650SOL    HW225587   4.429   1.249   5.464 -0.3995  0.1723 -1.4260
 4651SOL     OW25588   4.037   4.706   0.912 -0.3617  0.4542  0.3467
 4651SOL    HW125589   4.071   4.682   0.998 -0.9294  1.6270  0.9093
 4651SOL    HW225590   4.109   4.665   0.864  0.3643 -0.5639  2.3085
 4652SOL     OW25591   3.445   4.689   6.871  0.4722 -0.2097 -0.8609
 4652SOL    HW125592   3.396   0.020   6.915 -0.4536 -1.1121 -0.4637
 4652SOL    HW225593   3.529   4.693   6.915 -0.2280 -1.7876  0.6384
 4653SOL     OW25594   2.669   1.872  17.744 -0.2049 -0.2288 -0.8332
 4653SOL    HW125595   2.629   1.892   0.080 -0.0244 -2.6183 -0.1808
 4653SOL    HW225596   2.644   1.782  17.722  1.3782 -0.7581 -0.5099
 4654SOL     OW25597   2.753   2.332   6.424  0.1152  0.4845 -0.5109
 4654SOL    HW125598   2.734   2.320   6.517  2.1249 -1.4733 -0.3387
 4654SOL    HW225599   2.745   2.245   6.384 -0.4490  0.1246  0.3905
 4655SOL     OW25600   1.576   0.837   0.513 -0.2119 -0.1520 -0.0574
 4655SOL    HW125601   1.586   0.932   0.519 -2.1793 -0.0189  0.9216
 4655SOL    HW225602   1.506   0.831   0.578 -0.3878  1.0861 -0.1438
 4656SOL     OW25603   1.436   1.353   0.380  0.5329 -0.2692 -0.9007
 4656SOL    HW125604   1.483   1.430   0.347 -1.1251  2.3113  2.7742
 4656SOL    HW225605   1.378   1.411   0.429  0.4106 -0.3068 -1.0021
 4657SOL     OW25606   3.540   3.936  13.922 -0.3182 -0.5379  0.1951
 4657SOL    HW125607   3.602   4.003  13.892 -1.3000  0.5040  0.5130
 4657SOL    HW225608   3.569   3.864  13.866  2.4078 -0.9348  2.0940
 4658SOL     OW25609   1.010   0.690   2.832 -0.2738 -0.5510  0.2599
 4658SOL    HW125610   1.077   0.621   2.830 -1.7612 -1.9603 -0.9174
 4658SOL    HW225611   0.968   0.674   2.747  0.0550 -1.0868  0.1948
 4659SOL     OW25612   0.080   4.046   2.137  0.0257 -0.0869  0.2452
 4659SOL    HW125613   0.155   3.992   2.112  1.3119  2.5958 -1.5923
 4659SOL    HW225614   0.129   4.127   2.151  0.3669 -0.1208 -0.8054
 4660SOL     OW25615   2.054   4.090   4.127  0.7040 -0.1251 -0.2583
 4660SOL    HW125616   2.026   4.033   4.198  0.0933  1.5368  0.8510
 4660SOL    HW225617   2.006   4.050   4.054  0.9011  1.0418 -1.0242
 4661SOL     OW25618   0.242   0.919  14.686 -0.3264  0.1292  0.4817
 4661SOL    HW125619   0.221   0.858  14.616 -0.0270 -0.9146  1.3012
 4661SOL    HW225620   0.255   1.002  14.640  1.4213 -0.2839  0.2085
 4662SOL     OW25621   1.619   2.040   2.539  0.2079  0.8866  0.1629
 4662SOL    HW125622   1.612   2.063   2.447  0.0806  0.0223 -0.0466
 4662SOL    HW225623   1.535   1.998   2.557  1.3607 -1.4267  0.1787
 4663SOL     OW25624   2.284   0.871   4.311  0.0885  0.9809  0.6261
 4663SOL    HW125625   2.264   0.964   4.323 -3.3338  0.1113  1.6665
 4663SOL    HW225626   2.367   0.875   4.263 -0.6219  1.0177 -0.5897
 4664SOL     OW25627   2.459   1.107   2.555  0.4314  0.2770 -0.0191
 4664SOL    HW125628   2.432   1.133   2.643  0.2865  0.1079 -0.0137
 4664SOL    HW225629   2.532   1.046   2.566 -1.5496 -1.9705  0.7496
 4665SOL     OW25630   3.177   0.886   7.333 -0.1311 -0.2583  0.1468
 4665SOL    HW125631   3.100   0.851   7.379 -1.3045 -2.1033 -3.2713
 4665SOL    HW225632   3.136   0.891   7.247  1.6796 -1.6995 -0.7793
 4666SOL     OW25633   1.815   2.725   6.221 -0.0002 -0.1024  0.8875
 4666SOL    HW125634   1.872   2.790   6.261 -1.4548  0.7671  1.5450
 4666SOL    HW225635   1.887   2.698   6.164 -1.9711  0.8116 -2.0664
 4667SOL     OW25636   2.137   3.003   1.429  0.1007  0.2061  0.2935
 4667SOL    HW125637   2.079   2.930   1.450 -0.2116  0.1892 -0.6141
 4667SOL    HW225638   2.106   3.063   1.497  0.4630  1.6570 -0.8157
 4668SOL     OW25639   4.681   1.118   9.684 -0.4805  0.4494 -0.3773
 4668SOL    HW125640   4.701   1.150   9.772 -1.6212 -0.8823  0.3443
 4668SOL    HW225641   0.033   1.105   9.652  0.4742  1.6854  1.7919
 4669SOL     OW25642   3.701   1.903   0.717 -0.3302  0.1104  0.4732
 4669SOL    HW125643   3.614   1.864   0.709 -0.3885 -0.3462  3.2377
 4669SOL    HW225644   3.759   1.827   0.720 -1.7306 -0.9826  0.0840
 4670SOL     OW25645   1.244   4.303   1.829 -0.3006 -0.7039 -0.5273
 4670SOL    HW125646   1.235   4.212   1.802 -1.1124 -0.4420 -1.1689
 4670SOL    HW225647   1.223   4.289   1.921 -1.2603  0.2653 -0.5872
 4671SOL     OW25648   4.640   0.150  12.793 -0.0508  0.1876 -0.4990
 4671SOL    HW125649   4.628   0.083  12.726  0.3602  0.1650 -0.5519
 4671SOL    HW225650   4.734   0.160  12.781 -0.8275  2.5590 -4.4304
 4672SOL     OW25651   2.438   3.276   1.175  0.5226 -0.7142 -0.0574
 4672SOL    HW125652   2.368   3.211   1.188  0.4570 -1.1228 -2.4622
 4672SOL    HW225653   2.415   3.304   1.086  0.4828 -2.7711 -0.6901
 4673SOL     OW25654   2.404   1.205  15.532  0.3743  0.0606  0.1192
 4673SOL    HW125655   2.497   1.182  15.525  0.4353  0.6690 -1.0616
 4673SOL    HW225656   2.418   1.248  15.616 -2.4590  2.9192 -0.8928
 4674SOL     OW25657   3.039   1.735   9.495 -0.1424  0.5557 -0.2677
 4674SOL    HW125658   3.125   1.751   9.533  0.3274  0.1465 -1.1684
 4674SOL    HW225659   2.988   1.796   9.548 -1.5823 -1.0386  0.1822
 4675SOL     OW25660   0.545   0.497   6.682  0.4923  0.1298 -0.0889
 4675SOL    HW125661   0.483   0.535   6.618 -0.2061  2.1229  1.7688
 4675SOL    HW225662   0.517   0.539   6.763  1.5840 -0.3594  0.5339
 4676SOL     OW25663   4.719   3.367   4.927  0.2448  0.6340  0.4116
 4676SOL    HW125664   4.685   3.456   4.927  0.1236  0.5785 -2.1917
 4676SOL    HW225665   4.640   3.336   4.971  0.3648 -0.4908 -0.1582
 4677SOL     OW25666   1.925   3.039   4.410  0.4227 -0.0178  0.0133
 4677SOL    HW125667   1.855   3.010   4.468 -0.1779  1.8104  0.2141
 4677SOL    HW225668   1.996   2.992   4.453  1.1851  0.5892 -0.5729
 4678SOL     OW25669   0.625   3.565  13.530  0.5915 -0.0301 -0.2430
 4678SOL    HW125670   0.668   3.504  13.471  2.3442 -1.8020  2.8924
 4678SOL    HW225671   0.539   3.525  13.517  0.5141 -0.2317  0.9562
 4679SOL     OW25672   0.741   0.067  17.487  0.4805  0.6825 -0.4640
 4679SOL    HW125673   0.714   0.090  17.398  1.5534 -0.3239 -1.0531
 4679SOL    HW225674   0.785   4.723  17.462 -3.6134 -1.3810 -0.7808
 4680SOL     OW25675   1.947   4.042   9.011 -0.0118 -0.2702  0.3563
 4680SOL    HW125676   2.028   4.010   8.970  0.3264  0.8646  0.1211
 4680SOL    HW225677   1.904   4.076   8.933  2.0713  0.5280 -0.4468
 4681SOL     OW25678   2.077   4.291   9.988 -0.0128 -0.1178 -0.0710
 4681SOL    HW125679   2.010   4.271   9.923 -1.1090  2.1234  0.3803
 4681SOL    HW225680   2.013   4.281  10.058  1.5020  1.5446  1.5606
 4682SOL     OW25681   4.006   4.622   8.691 -0.2371 -0.2234  0.2928
 4682SOL    HW125682   3.965   4.544   8.653 -0.4708 -0.7918  1.7157
 4682SOL    HW225683   4.084   4.588   8.734 -0.8340 -2.2355 -0.1783
 4683SOL     OW25684   1.116   1.981   8.021 -0.1667  0.4624 -0.2355
 4683SOL    HW125685   1.110   1.962   7.928 -1.1473  0.6769 -0.2113
 4683SOL    HW225686   1.068   1.907   8.057 -0.9121  0.9705 -0.1942
 4684SOL     OW25687   2.913   3.168  15.553  0.3181 -0.7699  0.6177
 4684SOL    HW125688   2.950   3.171  15.641  2.0166 -2.7074 -0.0222
 4684SOL    HW225689   2.913   3.073  15.540 -1.1402 -0.7504  0.5381
 4685SOL     OW25690   0.352   4.124   2.764  0.0584  0.0174  0.4246
 4685SOL    HW125691   0.418   4.193   2.771 -1.8452  2.0153 -1.5356
 4685SOL    HW225692   0.275   4.177   2.745  0.8382  1.1754  0.5231
 4686SOL     OW25693   2.210   3.023   4.455  0.5329  0.2276 -0.5015
 4686SOL    HW125694   2.236   2.963   4.385 -0.0744  2.3929 -2.5788
 4686SOL    HW225695   2.273   3.000   4.524 -2.6844 -1.5652  1.8564
 4687SOL     OW25696   3.414   1.052  15.529  0.8684 -0.2940 -0.2429
 4687SOL    HW125697   3.394   0.972  15.480 -0.7158  0.3581 -0.6761
 4687SOL    HW225698   3.507   1.033  15.543  1.2227  0.0521 -2.0726
 4688SOL     OW25699   1.893   1.419  15.179  0.3925 -0.1802 -0.2037
 4688SOL    HW125700   1.980   1.457  15.185  1.3135 -2.4193  0.5559
 4688SOL    HW225701   1.852   1.455  15.257  1.0231  0.1779 -0.0404
 4689SOL     OW25702   1.275   4.509  16.062 -0.5760 -0.0380 -0.3580
 4689SOL    HW125703   1.227   4.592  16.060 -1.8071 -0.7743 -1.4659
 4689SOL    HW225704   1.356   4.559  16.068 -0.3262 -0.5515  0.5755
 4690SOL     OW25705   0.478   3.893   6.990 -0.3189  0.3425 -0.3480
 4690SOL    HW125706   0.445   3.936   6.911 -0.3317 -1.2019 -1.1857
 4690SOL    HW225707   0.494   3.803   6.964 -0.8344 -0.0667  0.7655
 4691SOL     OW25708   1.965   0.273   7.271  0.6634 -0.3052  0.2352
 4691SOL    HW125709   1.928   0.293   7.186 -1.4251 -2.4637  0.6375
 4691SOL    HW225710   2.049   0.231   7.248  0.3104 -2.3484  2.5516
 4692SOL     OW25711   0.006   1.610  10.051  0.3574 -0.3353  0.4246
 4692SOL    HW125712   4.725   1.564  10.133 -3.0974 -0.3475 -0.4073
 4692SOL    HW225713   0.005   1.540   9.986 -0.2194  1.9052 -1.9762
 4693SOL     OW25714   3.019   0.863   2.014  0.1024  0.3937  0.9988
 4693SOL    HW125715   3.054   0.884   2.101  0.8726 -0.0900  0.7996
 4693SOL    HW225716   3.040   0.772   1.996 -2.7308 -0.2302  0.7936
 4694SOL     OW25717   3.071   0.915   7.014 -0.0165 -0.2261  1.4929
 4694SOL    HW125718   3.075   0.822   6.992 -0.5186  0.1874 -0.3370
 4694SOL    HW225719   3.034   0.955   6.935 -0.0827  0.8705  2.0659
 4695SOL     OW25720   4.441   0.848  13.293 -0.0134 -0.0465 -0.1585
 4695SOL    HW125721   4.437   0.758  13.326 -0.0384 -0.1387 -0.4104
 4695SOL    HW225722   4.448   0.834  13.199  2.6958 -1.5500  0.2672
 4696SOL     OW25723   0.112   0.287   7.497 -0.4337  0.3278 -0.0791
 4696SOL    HW125724   0.162   0.214   7.533  0.4419  0.6139 -0.7243
 4696SOL    HW225725   0.081   0.321   7.581 -2.1871  0.9843 -0.9987
 4697SOL     OW25726   1.714   0.102   3.954 -0.5385 -0.5071  0.5405
 4697SOL    HW125727   1.743   0.099   4.045 -0.1352 -0.0111  0.4281
 4697SOL    HW225728   1.774   0.042   3.910  1.2198  3.2127 -2.0740
 4698SOL     OW25729   2.253   1.075   5.370  0.2508 -0.2028 -0.0458
 4698SOL    HW125730   2.214   1.005   5.421 -3.9769  1.7089 -0.6386
 4698SOL    HW225731   2.185   1.107   5.310  1.2074 -1.3647 -1.7560
 4699SOL     OW25732   2.661   2.962   9.796 -0.0363  0.4414  0.2223
 4699SOL    HW125733   2.730   3.021   9.826  1.9568 -1.8914  0.2764
 4699SOL    HW225734   2.607   2.953   9.875 -1.4839 -1.4870 -0.9922
 4700SOL     OW25735   2.032   0.552  17.483 -0.6602 -0.1418 -0.3174
 4700SOL    HW125736   2.103   0.488  17.486  0.2714  0.9248  0.3348
 4700SOL    HW225737   2.085   0.615  17.435  0.6266 -1.8928 -1.2104
 4701SOL     OW25738   1.023   2.980  15.344  0.4895 -0.1344  0.5025
 4701SOL    HW125739   1.066   3.063  15.363  0.3113  0.0084  0.2755
 4701SOL    HW225740   1.060   2.963  15.257 -1.2246 -1.4585  0.0318
 4702SOL     OW25741   3.574   4.573   7.275 -0.0528 -0.5591 -0.1303
 4702SOL    HW125742   3.629   4.622   7.336  2.4460  0.5582 -3.2584
 4702SOL    HW225743   3.632   4.523   7.218 -1.2963 -0.7825 -1.1928
 4703SOL     OW25744   3.676   4.041   6.991 -0.0144  0.6520 -0.4566
 4703SOL    HW125745   3.653   4.134   6.993 -1.5206  0.2900 -0.7798
 4703SOL    HW225746   3.743   4.039   6.923  3.4399  0.9851  2.9521
 4704SOL     OW25747   3.416   1.423   2.262 -1.0464  0.3367 -0.3620
 4704SOL    HW125748   3.466   1.392   2.187  0.1229  1.4049 -0.0331
 4704SOL    HW225749   3.430   1.349   2.321  0.2517  2.8270  2.4523
 4705SOL     OW25750   3.951   1.986   6.003 -0.7352  0.1770  0.1499
 4705SOL    HW125751   4.031   1.979   6.054 -0.8526  0.0466  0.3171
 4705SOL    HW225752   3.972   2.042   5.928  2.4933  2.3377  2.7120
 4706SOL     OW25753   0.850   2.231   8.255  0.3205  0.5377 -0.5996
 4706SOL    HW125754   0.938   2.218   8.221  0.8043  1.1990  0.4369
 4706SOL    HW225755   0.858   2.212   8.348  0.5101  1.3217 -0.4583
 4707SOL     OW25756   4.155   3.156   6.443 -0.1955 -0.1569  0.3869
 4707SOL    HW125757   4.199   3.175   6.360 -2.1484 -3.0379 -1.2473
 4707SOL    HW225758   4.207   3.086   6.483  1.5821  1.0747  0.2788
 4708SOL     OW25759   4.491   4.622   0.857 -0.4393 -0.1132 -0.3791
 4708SOL    HW125760   4.557   4.660   0.798  1.2150 -0.6896  1.0969
 4708SOL    HW225761   4.477   4.686   0.926  2.0421 -0.8567  0.8153
 4709SOL     OW25762   0.421   2.666  16.880  0.8590 -0.5839  0.3464
 4709SOL    HW125763   0.379   2.685  16.797 -0.9044 -1.7653  0.9828
 4709SOL    HW225764   0.374   2.588  16.908  1.8114 -1.3377 -0.1890
 4710SOL     OW25765   2.600   3.804   8.232  0.2062  0.1091  0.4033
 4710SOL    HW125766   2.557   3.784   8.315 -0.9716  0.3190 -0.1513
 4710SOL    HW225767   2.564   3.730   8.185 -1.6043  0.5946  1.0284
 4711SOL     OW25768   3.402   2.130  15.533  0.1187  1.1334 -0.1901
 4711SOL    HW125769   3.346   2.058  15.561 -0.0075  1.7049  1.0035
 4711SOL    HW225770   3.469   2.143  15.599  0.1872  1.3261 -0.2971
 4712SOL     OW25771   1.231   3.952   2.939 -0.3606 -0.2607 -0.1017
 4712SOL    HW125772   1.241   3.865   2.900 -3.1898 -1.0898  1.0249
 4712SOL    HW225773   1.321   3.981   2.950 -0.4004  0.4458 -1.5972
 4713SOL     OW25774   0.987   0.816   9.447  0.2396  0.2966  0.0319
 4713SOL    HW125775   0.970   0.723   9.432  0.9644  0.4190 -1.4948
 4713SOL    HW225776   0.953   0.843   9.362 -0.4800 -1.8066 -0.3398
 4714SOL     OW25777   2.351   3.818   1.365  0.4054 -0.0169  0.0720
 4714SOL    HW125778   2.444   3.794   1.364  0.1619 -0.9168 -0.9440
 4714SOL    HW225779   2.326   3.806   1.273  0.9950  3.3461 -0.5394
 4715SOL     OW25780   3.511   4.637  10.397  0.0352  0.4353 -0.0228
 4715SOL    HW125781   3.527   4.622  10.490  1.6095  0.7714 -0.2410
 4715SOL    HW225782   3.420   4.605  10.396  0.3836 -0.5509  0.8124
 4716SOL     OW25783   2.185   0.074   3.605 -0.2649 -0.2232  0.4011
 4716SOL    HW125784   2.147   4.735   3.648 -1.4054 -1.4968 -2.9051
 4716SOL    HW225785   2.270   0.067   3.648 -0.1517  1.2225  0.4024
 4717SOL     OW25786   3.766   4.329   2.882  0.1869 -0.0469  0.2445
 4717SOL    HW125787   3.781   4.240   2.914  0.1500  0.5627  1.9658
 4717SOL    HW225788   3.696   4.347   2.945 -0.1105 -0.5083  0.0401
 4718SOL     OW25789   2.299   1.323   7.431 -0.0045 -0.4447  0.0184
 4718SOL    HW125790   2.225   1.380   7.412 -0.4781 -0.7836  0.8778
 4718SOL    HW225791   2.335   1.369   7.507  1.3703 -1.3671 -0.0677
 4719SOL     OW25792   1.423   0.576   6.354  0.1254 -0.1678 -0.2373
 4719SOL    HW125793   1.429   0.494   6.305  0.3514  0.6879 -1.6468
 4719SOL    HW225794   1.488   0.558   6.422  1.2582  0.9009 -1.0261
 4720SOL     OW25795   0.493   0.896   4.499  0.8695 -0.7042 -0.1141
 4720SOL    HW125796   0.531   0.966   4.552  2.2178 -0.7318 -1.0550
 4720SOL    HW225797   0.473   0.826   4.562  0.7667 -2.1581 -1.7875
 4721SOL     OW25798   2.955   2.018   3.561 -0.8865 -0.4469  0.4585
 4721SOL    HW125799   2.864   2.011   3.534 -0.6945 -0.2886 -0.2308
 4721SOL    HW225800   2.986   2.091   3.507 -0.0718 -0.5795  0.7445
 4722SOL     OW25801   1.099   0.572   9.075  0.2069  0.5398  0.3938
 4722SOL    HW125802   1.168   0.608   9.132 -0.4524  0.4298  1.2610
 4722SOL    HW225803   1.118   0.621   8.995  2.4978  0.8303  1.1152
 4723SOL     OW25804   4.610   3.896   7.108  0.3193 -0.1247  0.1168
 4723SOL    HW125805   4.639   3.816   7.153 -0.8095  0.1443  1.3171
 4723SOL    HW225806   4.692   3.927   7.068 -0.2449 -0.3300 -1.1866
 4724SOL     OW25807   4.429   0.330  14.877 -0.0562 -0.3102  0.1695
 4724SOL    HW125808   4.349   0.317  14.825 -0.0408  0.0729  0.0484
 4724SOL    HW225809   4.495   0.330  14.808 -0.4083  1.4849 -0.1711
 4725SOL     OW25810   0.664   4.682   3.376  0.2001  0.0192  0.4933
 4725SOL    HW125811   0.681   4.645   3.463 -1.3643 -1.3734  0.2056
 4725SOL    HW225812   0.576   4.651   3.353 -1.0688  2.4684  2.0352
 4726SOL     OW25813   0.547   2.299   5.060 -0.2670  1.2873 -0.3995
 4726SOL    HW125814   0.508   2.328   5.142  2.6850 -0.1462  1.5031
 4726SOL    HW225815   0.618   2.362   5.051  0.6284  0.6285  2.2887
 4727SOL     OW25816   3.048   4.021   9.854  0.0609  0.3194 -0.0104
 4727SOL    HW125817   3.028   4.112   9.872  2.5599  0.7573  0.4987
 4727SOL    HW225818   2.979   3.999   9.791  0.6024  0.0317 -0.5141
 4728SOL     OW25819   0.810   4.512   2.826  0.6346 -0.0671  0.5024
 4728SOL    HW125820   0.824   4.600   2.862  0.9412 -0.0334  0.2940
 4728SOL    HW225821   0.744   4.474   2.885  0.3574  1.7262  1.3546
 4729SOL     OW25822   3.828   3.066  11.857  0.0880  0.1868 -0.4973
 4729SOL    HW125823   3.895   3.055  11.924 -0.7931  0.0364  0.3640
 4729SOL    HW225824   3.752   3.059  11.916 -0.4722  0.8060 -1.1394
 4730SOL     OW25825   1.643   4.657   9.573  0.4162 -0.1257  0.4115
 4730SOL    HW125826   1.626   4.566   9.549 -1.6937  0.3449  0.1252
 4730SOL    HW225827   1.563   4.692   9.611  0.7366  0.3178  0.6711
 4731SOL     OW25828   3.563   1.690  11.370  0.3529 -0.5296 -0.2095
 4731SOL    HW125829   3.532   1.640  11.447  1.3256  0.0016  0.5279
 4731SOL    HW225830   3.657   1.673  11.381  0.5676  1.4575  0.9845
 4732SOL     OW25831   1.111   3.473  13.984  0.0363  0.1203  0.5479
 4732SOL    HW125832   1.015   3.474  13.991  0.0530  0.5683  0.7286
 4732SOL    HW225833   1.144   3.540  14.044  1.9949  1.2241 -1.7482
 4733SOL     OW25834   3.850   0.135   9.315  0.4448 -0.2756  0.2813
 4733SOL    HW125835   3.879   0.155   9.404 -1.8509 -0.8847  1.1752
 4733SOL    HW225836   3.757   0.117   9.331  0.2303 -0.3724 -1.0725
 4734SOL     OW25837   1.828   2.226   2.698 -0.2579 -0.0340  0.1520
 4734SOL    HW125838   1.750   2.202   2.648 -0.8601 -0.5472  1.3348
 4734SOL    HW225839   1.858   2.141   2.731  0.9654  0.6528  0.7689
 4735SOL     OW25840   3.634   3.011   4.814 -0.3204  0.0092  0.3048
 4735SOL    HW125841   3.585   2.933   4.842 -0.8721 -0.6765 -2.5546
 4735SOL    HW225842   3.583   3.084   4.849  1.8560  0.4970  2.4001
 4736SOL     OW25843   1.830   2.838   9.996 -0.0333  0.1857 -0.2191
 4736SOL    HW125844   1.805   2.778   9.926 -0.0211  2.1333 -1.9128
 4736SOL    HW225845   1.902   2.893   9.963 -0.9696  1.8259  0.4757
 4737SOL     OW25846   3.497   1.182   8.444  0.2123  0.1484  0.3460
 4737SOL    HW125847   3.565   1.116   8.434  1.2288  1.3298 -0.6061
 4737SOL    HW225848   3.443   1.141   8.511 -0.1998  1.1457  0.6346
 4738SOL     OW25849   2.500   3.784   6.466 -0.2937 -0.1160 -0.0333
 4738SOL    HW125850   2.581   3.800   6.514 -0.0838 -0.2130 -0.3556
 4738SOL    HW225851   2.542   3.744   6.390 -2.4635 -2.4576 -0.0032
 4739SOL     OW25852   1.976   0.165  14.223  0.2097  0.1772  0.2819
 4739SOL    HW125853   1.911   0.227  14.190 -0.1450 -0.4158 -0.1338
 4739SOL    HW225854   1.929   0.086  14.195 -3.0033  2.6971 -1.3487
 4740SOL     OW25855   0.193   4.642   5.075 -0.3854 -0.1341 -0.0399
 4740SOL    HW125856   0.261   4.661   5.140  0.1897 -1.3310 -0.2988
 4740SOL    HW225857   0.125   4.602   5.130 -1.2688 -0.4896 -1.3961
 4741SOL     OW25858   3.739   0.209   0.779 -0.0947  0.1211 -0.7879
 4741SOL    HW125859   3.697   0.287   0.743 -1.1889  0.6478  1.5536
 4741SOL    HW225860   3.674   0.146   0.746 -1.3029  0.2117  1.3454
 4742SOL     OW25861   0.095   2.502   8.416 -0.1598  0.5102  0.1761
 4742SOL    HW125862   0.102   2.561   8.341  2.3055 -0.3961 -0.3247
 4742SOL    HW225863   0.182   2.466   8.435  0.1469  1.2522  0.1740
 4743SOL     OW25864   2.910   0.183   9.595 -0.5621 -0.1338 -0.1114
 4743SOL    HW125865   2.961   0.114   9.637  2.5239  0.6050 -2.7398
 4743SOL    HW225866   2.939   0.177   9.504  0.5225  0.6640  0.1747
 4744SOL     OW25867   1.180   2.238   7.367 -0.2444 -0.3370 -0.1191
 4744SOL    HW125868   1.195   2.297   7.440 -2.1881 -0.6504  0.5282
 4744SOL    HW225869   1.212   2.154   7.401 -1.5848 -0.4243  0.9548
 4745SOL     OW25870   1.444   2.559  12.889  0.1278 -0.4715 -0.2316
 4745SOL    HW125871   1.461   2.514  12.807 -0.6427  0.5436 -0.9428
 4745SOL    HW225872   1.486   2.642  12.865  0.3465 -0.5442 -0.1049
 4746SOL     OW25873   0.557   1.611   6.409  0.7682 -0.3227  0.4608
 4746SOL    HW125874   0.592   1.664   6.337  0.4027 -2.4108 -1.2619
 4746SOL    HW225875   0.481   1.666   6.430  2.7458  3.3095 -1.7409
 4747SOL     OW25876   3.534   2.485  11.673  0.0600  0.4522 -0.2557
 4747SOL    HW125877   3.457   2.495  11.618 -0.3092 -2.0478 -0.1997
 4747SOL    HW225878   3.507   2.536  11.750  0.3792 -1.4265  1.1010
 4748SOL     OW25879   0.503   4.072  13.832  0.4825 -0.6271  0.0574
 4748SOL    HW125880   0.538   4.072  13.921  1.1156  0.3153 -0.1929
 4748SOL    HW225881   0.571   4.121  13.786  0.1435 -2.7489 -2.6620
 4749SOL     OW25882   0.202   1.720   0.184 -0.0508  0.0522  0.0290
 4749SOL    HW125883   0.233   1.721   0.275  2.2093  1.5980 -0.7636
 4749SOL    HW225884   0.224   1.630   0.158  1.4739  0.4142  0.1128
 4750SOL     OW25885   1.327   3.135   0.049  0.6563 -0.2357 -0.5118
 4750SOL    HW125886   1.280   3.052   0.044 -0.1940  0.0052  3.6568
 4750SOL    HW225887   1.347   3.150  17.706 -2.1787  2.3178 -0.7138
 4751SOL     OW25888   4.478   0.769   6.245 -0.3912  0.4300 -0.3126
 4751SOL    HW125889   4.482   0.831   6.317 -2.2064  0.1058  0.0634
 4751SOL    HW225890   4.419   0.704   6.282  0.9532 -0.8342 -0.3813
 4752SOL     OW25891   3.272   3.784   6.042  0.4203 -0.6993 -0.2771
 4752SOL    HW125892   3.240   3.744   6.123  1.9161  1.6302  1.4508
 4752SOL    HW225893   3.365   3.765   6.041  0.2799 -1.3852  0.8763
 4753SOL     OW25894   2.024   1.218  11.992  0.6669 -0.3130  0.1382
 4753SOL    HW125895   2.093   1.196  12.055 -0.1722 -3.9911 -0.2112
 4753SOL    HW225896   1.953   1.192  12.051 -0.5472  1.6544 -0.4631
 4754SOL     OW25897   3.752   0.665   5.671 -0.7217 -0.0484 -0.4195
 4754SOL    HW125898   3.737   0.574   5.645 -2.4416 -0.0558  0.5225
 4754SOL    HW225899   3.827   0.654   5.730  0.4873 -0.0470 -1.9837
 4755SOL     OW25900   0.255   2.437  14.269  0.4895 -0.2917 -0.1842
 4755SOL    HW125901   0.199   2.472  14.338  1.2652 -0.0334  0.3218
 4755SOL    HW225902   0.215   2.477  14.192  2.5845  1.7323 -0.2252
 4756SOL     OW25903   2.231   1.523   8.551  0.1975  0.7545 -0.4061
 4756SOL    HW125904   2.203   1.579   8.478 -0.8116 -0.8885 -1.2695
 4756SOL    HW225905   2.314   1.567   8.569  0.0381  1.6901 -1.9194
 4757SOL     OW25906   4.555   1.307   7.889 -0.4919  0.4301  0.6012
 4757SOL    HW125907   4.627   1.368   7.873  0.5686 -0.6327  1.2317
 4757SOL    HW225908   4.494   1.318   7.817  0.9660  0.7918 -0.5820
 4758SOL     OW25909   1.743   1.154   4.025  0.2666 -0.5380  0.3278
 4758SOL    HW125910   1.768   1.079   4.078 -1.6163 -0.2281  1.6775
 4758SOL    HW225911   1.665   1.180   4.074  1.0358  0.0880  1.2127
 4759SOL     OW25912   2.338   3.495   0.713  0.2125  0.1525 -0.0454
 4759SOL    HW125913   2.265   3.555   0.698  0.6216  0.7652  0.4202
 4759SOL    HW225914   2.340   3.494   0.808  1.5942  0.9405 -0.0702
 4760SOL     OW25915   0.488   3.148   2.813  0.5142  0.3976 -0.8657
 4760SOL    HW125916   0.527   3.063   2.833  1.2641  0.7048 -1.0451
 4760SOL    HW225917   0.477   3.186   2.900 -0.1848 -0.7025 -0.4730
 4761SOL     OW25918   1.790   1.538   2.472  0.0060 -0.0938 -0.3804
 4761SOL    HW125919   1.746   1.622   2.485 -0.5398 -0.3265 -0.7440
 4761SOL    HW225920   1.714   1.488   2.442 -2.7304  2.1296  2.7927
 4762SOL     OW25921   1.570   1.692   2.521  0.1797  1.3019 -0.1746
 4762SOL    HW125922   1.542   1.714   2.610 -0.3904  1.5420 -0.4132
 4762SOL    HW225923   1.505   1.623   2.505  2.4010 -0.7609 -0.3403
 4763SOL     OW25924   2.737   1.455  10.969 -0.1289  0.2744 -0.3940
 4763SOL    HW125925   2.806   1.437  11.033  1.4790  0.8211 -1.9927
 4763SOL    HW225926   2.771   1.539  10.940  1.7649  0.3512  2.0778
 4764SOL     OW25927   4.457   4.622  14.527 -0.1034  0.3225  0.1708
 4764SOL    HW125928   4.527   4.564  14.557 -0.4213 -0.5736 -0.8072
 4764SOL    HW225929   4.492   4.664  14.448  1.1246 -2.8344 -0.9533
 4765SOL     OW25930   2.028   0.160  10.064  0.6435 -0.5509 -0.0691
 4765SOL    HW125931   2.006   0.219  10.136 -0.0908 -1.6644  0.6248
 4765SOL    HW225932   2.115   0.191  10.040 -0.4409 -0.5397 -4.0768
 4766SOL     OW25933   3.739   3.512   3.687  0.6445 -0.3352 -0.2854
 4766SOL    HW125934   3.782   3.442   3.638  1.9754 -0.0230  0.4446
 4766SOL    HW225935   3.790   3.586   3.655  1.0164 -0.2628  0.4863
 4767SOL     OW25936   4.583   2.368  16.448 -0.9312 -0.5337  0.0224
 4767SOL    HW125937   4.521   2.442  16.444 -0.0877  0.2126  0.6193
 4767SOL    HW225938   4.664   2.414  16.428  0.4860 -2.5735  1.1495
 4768SOL     OW25939   2.586   3.819   3.819 -0.3412  0.0185 -0.2102
 4768SOL    HW125940   2.597   3.725   3.803  0.0606 -0.0523  0.4789
 4768SOL    HW225941   2.552   3.842   3.732  1.1451 -0.7717 -0.9962
 4769SOL     OW25942   1.570   1.773   5.316  0.1701 -0.1665 -0.1999
 4769SOL    HW125943   1.561   1.709   5.246 -0.0531  2.1269 -2.2765
 4769SOL    HW225944   1.559   1.718   5.394  2.9364 -0.1237  0.2082
 4770SOL     OW25945   3.960   4.630   9.435 -0.3972 -0.4736 -0.2504
 4770SOL    HW125946   4.029   4.610   9.371 -2.4181 -2.1826 -1.8906
 4770SOL    HW225947   3.877   4.616   9.390 -0.4316 -1.3305  0.0918
 4771SOL     OW25948   1.427   3.721   4.010 -0.0615  0.6285 -0.3903
 4771SOL    HW125949   1.337   3.688   4.007  0.3228 -0.8021  2.9078
 4771SOL    HW225950   1.410   3.815   3.998  0.0802  0.3721 -2.5828
 4772SOL     OW25951   1.486   2.271  17.222 -0.0356 -0.2722 -0.2333
 4772SOL    HW125952   1.441   2.242  17.301  0.7161 -0.7938  0.0029
 4772SOL    HW225953   1.565   2.298  17.270 -1.0322  1.6554  0.3210
 4773SOL     OW25954   2.727   3.786   4.758 -0.5237  0.1668 -0.4534
 4773SOL    HW125955   2.698   3.698   4.784  0.9868  0.1988  1.3177
 4773SOL    HW225956   2.654   3.837   4.792 -2.4734 -2.5740 -0.5125
 4774SOL     OW25957   2.359   3.249   8.532 -0.7669  0.6639 -0.3921
 4774SOL    HW125958   2.426   3.305   8.571  1.1935 -0.8454 -1.6065
 4774SOL    HW225959   2.360   3.174   8.592 -1.2557  1.8134  1.0505
 4775SOL     OW25960   1.420   1.334   1.162 -0.4779 -0.4302 -0.5909
 4775SOL    HW125961   1.487   1.285   1.114 -0.3270  0.0511 -0.8778
 4775SOL    HW225962   1.347   1.272   1.170 -0.8360  0.0538 -0.1177
 4776SOL     OW25963   0.861   3.528  16.387  0.1690  0.1457  0.1200
 4776SOL    HW125964   0.906   3.601  16.344 -1.6355  0.5227 -1.1456
 4776SOL    HW225965   0.924   3.455  16.387  2.1104  1.8342 -0.7262
 4777SOL     OW25966   2.897   0.075   3.022  0.4096 -0.6682  0.0954
 4777SOL    HW125967   2.919   4.733   2.972 -0.2885 -0.3963 -0.6484
 4777SOL    HW225968   2.802   0.085   3.018  0.5333 -0.1604 -1.6270
 4778SOL     OW25969   2.951   3.574   9.640 -0.0975  0.3659 -0.4791
 4778SOL    HW125970   3.001   3.513   9.694 -2.1251 -1.9247 -1.1710
 4778SOL    HW225971   2.952   3.537   9.552  0.4953  0.7943 -0.6517
 4779SOL     OW25972   4.206   0.545   5.098  0.0883  0.1077 -0.1281
 4779SOL    HW125973   4.144   0.611   5.067 -2.7110 -2.3175  0.4125
 4779SOL    HW225974   4.146   0.501   5.158 -0.0629  1.0238  0.4019
 4780SOL     OW25975   0.899   3.351   4.336  0.5002  0.2095  0.1511
 4780SOL    HW125976   0.942   3.392   4.410 -0.6037  0.1156  0.8425
 4780SOL    HW225977   0.852   3.419   4.288  0.0991 -0.6624 -0.7058
 4781SOL     OW25978   4.698   2.056  11.186  0.8908  0.5980 -0.1777
 4781SOL    HW125979   4.628   2.081  11.246 -0.7914 -0.5547 -1.6701
 4781SOL    HW225980   4.688   2.128  11.124 -0.5624 -1.1750 -2.0070
 4782SOL     OW25981   1.215   4.239   7.505  0.4485  0.3286  0.0010
 4782SOL    HW125982   1.249   4.323   7.475 -0.8776  1.7945  2.6128
 4782SOL    HW225983   1.220   4.254   7.599  1.4038  2.1293 -0.3291
 4783SOL     OW25984   1.390   2.188  17.489 -0.0656 -0.4212 -0.6538
 4783SOL    HW125985   1.414   2.192  17.581 -1.3305 -0.5015 -0.3219
 4783SOL    HW225986   1.379   2.093  17.488 -1.5046 -0.2657  0.4486
 4784SOL     OW25987   2.999   1.012   1.000 -0.6768 -0.6573  0.0531
 4784SOL    HW125988   2.969   1.040   1.086 -0.3472  0.9286 -0.3562
 4784SOL    HW225989   3.083   1.057   0.996 -2.1679  1.9072 -2.1192
 4785SOL     OW25990   3.066   1.550   7.991 -0.3852 -0.0477  0.6679
 4785SOL    HW125991   3.025   1.624   8.037 -0.1616  1.5386 -1.6869
 4785SOL    HW225992   3.046   1.479   8.052 -0.3462  0.7107  1.5531
 4786SOL     OW25993   3.307   2.388   4.832 -0.3748 -0.3440  0.2180
 4786SOL    HW125994   3.235   2.375   4.892  0.4874  2.7258  1.9105
 4786SOL    HW225995   3.340   2.298   4.826  1.1628  0.2694 -0.5801
 4787SOL     OW25996   0.802   0.035   8.015 -0.2793  0.1305  0.2203
 4787SOL    HW125997   0.720   0.025   7.967  0.2011 -0.0396 -0.5602
 4787SOL    HW225998   0.812   0.126   7.986  1.4889 -0.8713 -2.3601
 4788SOL     OW25999   2.882   3.507  11.939 -0.3134  0.0327  0.7310
 4788SOL    HW126000   2.789   3.520  11.918  0.5497  2.1691 -1.8641
 4788SOL    HW226001   2.918   3.465  11.861 -1.4807  0.3498  0.0166
 4789SOL     OW26002   0.906   3.353  11.614  0.3359  0.1167  0.5713
 4789SOL    HW126003   0.857   3.392  11.686  1.2698  2.0893  0.1282
 4789SOL    HW226004   0.842   3.296  11.572  0.4754  0.1335  0.3378
 4790SOL     OW26005   3.588   3.940   6.109 -0.3169  0.3546 -0.3220
 4790SOL    HW126006   3.556   3.860   6.067 -0.2190 -0.1249  0.5262
 4790SOL    HW226007   3.680   3.916   6.112  0.1955  2.4007  0.7036
 4791SOL     OW26008   2.458   1.892  13.042  0.0205  0.2792 -0.1034
 4791SOL    HW126009   2.383   1.892  12.982 -0.0369 -1.1650 -0.0271
 4791SOL    HW226010   2.447   1.834  13.117  1.0962 -1.8053 -1.5746
 4792SOL     OW26011   2.360   2.721   1.929  0.1475  1.1922  0.7026
 4792SOL    HW126012   2.283   2.713   1.873 -0.0796 -2.6800  1.5321
 4792SOL    HW226013   2.411   2.768   1.863 -1.0232 -0.1970 -1.1883
 4793SOL     OW26014   2.708   4.734   6.454 -0.1841  0.7047  0.3239
 4793SOL    HW126015   2.764   0.071   6.477  0.5344  0.7768 -1.6075
 4793SOL    HW226016   2.640   0.036   6.400 -0.4565  2.1914  1.7828
 4794SOL     OW26017   4.626   2.579   4.268  0.3554 -0.2012 -0.0681
 4794SOL    HW126018   4.595   2.655   4.317 -0.0209 -0.3156 -0.1298
 4794SOL    HW226019   4.699   2.619   4.221 -1.4633  2.3018 -0.7985
 4795SOL     OW26020   3.570   2.115   2.658 -0.2528  0.1276 -0.0063
 4795SOL    HW126021   3.493   2.169   2.643 -0.0597  0.7659  1.2978
 4795SOL    HW226022   3.582   2.069   2.575 -4.7068 -0.3546 -0.3951
 4796SOL     OW26023   3.523   0.868   3.340 -0.6063 -0.5566 -0.3811
 4796SOL    HW126024   3.577   0.946   3.324 -1.2205 -0.0876 -0.1581
 4796SOL    HW226025   3.499   0.879   3.432 -2.1249 -1.7909 -0.6370
 4797SOL     OW26026   1.354   2.758   2.225  0.3969 -0.5081  0.0312
 4797SOL    HW126027   1.360   2.678   2.173 -1.4833  1.4049 -3.1023
 4797SOL    HW226028   1.426   2.760   2.288  0.9350 -1.0029 -0.5818
 4798SOL     OW26029   2.541   0.510  15.310 -0.4312  0.9650  0.3521
 4798SOL    HW126030   2.597   0.479  15.381 -3.0576 -1.1323  1.5157
 4798SOL    HW226031   2.527   0.604  15.325  0.2067  1.0429  0.4463
 4799SOL     OW26032   1.142   0.711   9.665  0.2882 -0.3476 -0.1709
 4799SOL    HW126033   1.120   0.763   9.588 -2.1065 -1.6360 -0.3247
 4799SOL    HW226034   1.092   0.755   9.734  1.3301 -1.9521  1.6207
 4800SOL     OW26035   0.969   2.391   4.227  0.6682 -0.5483  0.0198
 4800SOL    HW126036   1.040   2.348   4.275  1.7223 -0.0647 -1.1139
 4800SOL    HW226037   1.010   2.456   4.170  1.1936  0.3262  1.3757
 4801SOL     OW26038   0.245   1.784   5.695  0.7743  0.0923 -0.3012
 4801SOL    HW126039   0.183   1.855   5.679 -1.3273 -1.4773  0.7324
 4801SOL    HW226040   0.188   1.729   5.749 -0.9636  1.1175 -1.0907
 4802SOL     OW26041   3.678   1.087   3.295  0.1699 -0.4340 -0.5275
 4802SOL    HW126042   3.697   1.179   3.275 -1.0801 -0.4053 -1.6031
 4802SOL    HW226043   3.716   1.047   3.216  2.3092 -0.7209  0.6417
 4803SOL     OW26044   1.054   3.145   2.889 -0.4812  0.0487  0.3012
 4803SOL    HW126045   0.999   3.186   2.822  0.1349 -0.1608 -0.3271
 4803SOL    HW226046   1.005   3.176   2.965  1.0704  0.8236  0.9902
 4804SOL     OW26047   1.753   3.294   4.947  0.1026 -0.0135  0.0080
 4804SOL    HW126048   1.820   3.343   4.994 -0.6591  0.7574  0.2818
 4804SOL    HW226049   1.794   3.251   4.872 -0.3021  0.4109 -0.4531
 4805SOL     OW26050   3.244   1.803   3.841 -0.1961  0.6487 -0.5206
 4805SOL    HW126051   3.184   1.766   3.905  1.0520  0.8202  0.7352
 4805SOL    HW226052   3.281   1.719   3.814  1.9709  1.1966  0.8249
 4806SOL     OW26053   2.933   3.521  16.133  0.1581  0.0868  0.1788
 4806SOL    HW126054   2.979   3.551  16.054 -0.2567  2.8330  0.9840
 4806SOL    HW226055   2.847   3.496  16.100  1.9155 -1.9524 -2.8444
 4807SOL     OW26056   3.489   3.098   3.715  0.2107  0.2361 -0.2472
 4807SOL    HW126057   3.554   3.034   3.686  0.2978 -0.4588  1.5347
 4807SOL    HW226058   3.500   3.175   3.659 -3.7242 -0.5561 -2.1366
 4808SOL     OW26059   4.650   1.097   1.880  0.0337 -0.0119 -0.6270
 4808SOL    HW126060   4.602   1.136   1.807 -0.0191  3.2917  1.1683
 4808SOL    HW226061   4.596   1.127   1.953  1.9535 -1.5324  1.4416
 4809SOL     OW26062   4.383   0.086   5.949 -0.3054  0.1990  0.1515
 4809SOL    HW126063   4.419   0.100   5.862 -1.2337 -1.2349 -0.4719
 4809SOL    HW226064   4.367   0.174   5.982 -1.3230 -0.6225  1.8267
 4810SOL     OW26065   1.740   1.838   9.786  0.2881 -0.1749  0.5439
 4810SOL    HW126066   1.717   1.808   9.698  0.1728 -2.2794  1.2868
 4810SOL    HW226067   1.833   1.816   9.773  0.7908  1.3824  1.5900
 4811SOL     OW26068   4.067   2.883  10.864  0.4518  0.1840 -0.5335
 4811SOL    HW126069   4.101   2.817  10.924  0.0833  0.5770  0.0944
 4811SOL    HW226070   4.061   2.830  10.784  1.1618 -0.7111  0.0044
 4812SOL     OW26071   3.614   1.766   6.825 -0.4693  0.4053 -0.0316
 4812SOL    HW126072   3.652   1.739   6.909  0.1994  0.7580 -0.2195
 4812SOL    HW226073   3.625   1.692   6.766  0.7789 -1.2653  2.3092
 4813SOL     OW26074   2.439   0.431   4.802  0.9118  0.2245  0.1787
 4813SOL    HW126075   2.372   0.464   4.862  2.3253  1.0595  1.2970
 4813SOL    HW226076   2.411   0.339   4.801  2.2826 -0.1773 -1.5651
 4814SOL     OW26077   2.344   4.121   8.053 -0.6286 -0.5586  0.1515
 4814SOL    HW126078   2.286   4.044   8.059  0.7686 -1.7991 -2.3571
 4814SOL    HW226079   2.280   4.179   8.013 -0.5771  1.0974  2.4778
 4815SOL     OW26080   1.654   3.118   7.451 -0.2755  0.2939  0.1543
 4815SOL    HW126081   1.574   3.120   7.504 -0.0622 -0.2899  0.4909
 4815SOL    HW226082   1.627   3.143   7.363  1.3629  2.9339  0.4086
 4816SOL     OW26083   4.292   3.521  16.905 -0.2517  0.1322 -0.0470
 4816SOL    HW126084   4.387   3.525  16.902 -0.2666  0.2307 -0.3732
 4816SOL    HW226085   4.274   3.611  16.878  0.4614  0.2018 -0.2824
 4817SOL     OW26086   1.443   1.495   9.610  0.2862  0.0157  0.3434
 4817SOL    HW126087   1.430   1.576   9.560  0.6734  0.1961  0.5401
 4817SOL    HW226088   1.359   1.453   9.589  0.1254 -0.0552  1.1274
 4818SOL     OW26089   1.360   0.652   7.279 -0.1490  0.4391  0.0418
 4818SOL    HW126090   1.311   0.583   7.322 -0.0235  0.0571 -0.4375
 4818SOL    HW226091   1.378   0.595   7.204 -1.0669  0.7832 -0.4408
 4819SOL     OW26092   2.218   1.300   5.522  0.1834 -0.6652  0.2966
 4819SOL    HW126093   2.235   1.213   5.486 -0.6956  0.5192 -2.9985
 4819SOL    HW226094   2.264   1.364   5.468  2.9093 -1.5309  1.6046
 4820SOL     OW26095   0.761   3.988   2.497  0.0085 -0.1509 -0.4112
 4820SOL    HW126096   0.845   4.008   2.539 -0.5114 -0.0668  0.5908
 4820SOL    HW226097   0.699   4.045   2.542  1.1376  1.3160 -0.7320
 4821SOL     OW26098   1.877   1.535  15.433 -0.6689 -0.0564  0.5103
 4821SOL    HW126099   1.963   1.555  15.470  0.4386 -1.5268 -1.3054
 4821SOL    HW226100   1.847   1.626  15.433  0.7181  0.4101  1.1231
 4822SOL     OW26101   3.681   3.517   2.056  0.0464 -0.4327 -0.0391
 4822SOL    HW126102   3.763   3.541   2.013  0.8024 -1.1082  1.0109
 4822SOL    HW226103   3.707   3.540   2.145 -0.7018 -1.6729  0.4973
 4823SOL     OW26104   2.301   1.512  10.695 -0.7134  0.5306  0.4837
 4823SOL    HW126105   2.390   1.532  10.725 -0.3889  0.9034 -0.7421
 4823SOL    HW226106   2.302   1.417  10.681 -0.0497  0.7107 -0.6305
 4824SOL     OW26107   0.181   0.720  14.470  0.1782 -0.0906 -0.1088
 4824SOL    HW126108   0.248   0.671  14.517  1.1126 -1.1324 -2.5072
 4824SOL    HW226109   0.132   0.639  14.452 -0.6130  0.6264 -1.1382
 4825SOL     OW26110   0.207   2.861   7.967 -0.0024  0.5790 -0.6019
 4825SOL    HW126111   0.260   2.880   8.045 -0.2842 -0.2957 -0.1914
 4825SOL    HW226112   0.180   2.770   7.982 -1.4452  1.2263  0.7131
 4826SOL     OW26113   0.164   4.710   9.866  0.1524 -0.4536  0.2158
 4826SOL    HW126114   0.122   0.006   9.945 -0.8367  0.4792 -0.7115
 4826SOL    HW226115   0.139   0.043   9.806 -1.2631  0.5448  1.9635
 4827SOL     OW26116   2.592   0.804  16.565  0.1156 -0.0475 -0.3146
 4827SOL    HW126117   2.624   0.740  16.629 -1.0341 -0.5230 -0.2170
 4827SOL    HW226118   2.517   0.842  16.609  1.3722  2.3797 -0.2696
 4828SOL     OW26119   0.089   0.742   0.556 -0.3945  0.0192 -0.0242
 4828SOL    HW126120   0.140   0.753   0.476  1.5657 -0.4767  1.1564
 4828SOL    HW226121   0.002   0.753   0.518 -0.6867  0.3040  0.7263
 4829SOL     OW26122   1.224   2.905   6.562 -0.4546  0.0972 -0.1704
 4829SOL    HW126123   1.293   2.872   6.505 -1.2898  0.6795 -1.5053
 4829SOL    HW226124   1.209   2.818   6.600  0.3634 -0.6722 -1.6023
 4830SOL     OW26125   0.127   1.394   5.359  0.5358 -0.0559  0.4362
 4830SOL    HW126126   0.058   1.401   5.425 -0.5048  1.9736 -0.8543
 4830SOL    HW226127   0.078   1.337   5.301  0.2813  0.5450  0.0573
 4831SOL     OW26128   3.785   3.596  15.715  0.9075 -0.0235 -0.2626
 4831SOL    HW126129   3.787   3.677  15.767 -2.1192  0.8219 -1.4791
 4831SOL    HW226130   3.814   3.636  15.633 -1.0492  2.5482  0.2971
 4832SOL     OW26131   1.828   1.348   7.551 -0.1086  0.6209 -0.2373
 4832SOL    HW126132   1.805   1.307   7.467  1.4385  0.2669 -0.4916
 4832SOL    HW226133   1.924   1.338   7.550 -0.1336  0.3073  0.2101
 4833SOL     OW26134   4.562   4.334  10.914 -0.0358 -0.1238  0.7828
 4833SOL    HW126135   4.600   4.267  10.970  0.8587 -1.4562 -1.4259
 4833SOL    HW226136   4.578   4.415  10.962  1.4589 -1.4797  2.5652
 4834SOL     OW26137   2.282   2.602   9.575 -0.0627  0.0546 -0.1216
 4834SOL    HW126138   2.286   2.693   9.545 -2.9345  0.1805 -0.1749
 4834SOL    HW226139   2.192   2.587   9.543  0.1776 -0.6951 -0.4435
 4835SOL     OW26140   0.957   0.823  16.606  0.3115 -0.0766 -0.3942
 4835SOL    HW126141   0.888   0.826  16.540  0.6080 -1.1370 -0.7569
 4835SOL    HW226142   0.937   0.897  16.663  0.9755  0.3965 -0.7741
 4836SOL     OW26143   4.728   0.215  13.922 -0.1088  0.4568 -0.0410
 4836SOL    HW126144   4.678   0.180  13.996 -0.1840  0.4866 -0.0781
 4836SOL    HW226145   0.017   0.137  13.872 -0.9508  0.7176 -0.8882
 4837SOL     OW26146   2.110   0.504  16.546 -0.4006  0.3176 -0.1315
 4837SOL    HW126147   2.047   0.432  16.539  0.4701 -0.5510  0.8636
 4837SOL    HW226148   2.076   0.561  16.477  1.8858  1.2173 -0.5052
 4838SOL     OW26149   3.981   1.656   2.370  0.4162 -0.1618  0.6635
 4838SOL    HW126150   4.070   1.650   2.336 -0.5737 -1.3727 -1.7155
 4838SOL    HW226151   3.985   1.577   2.424 -0.8249  0.5038  1.7304
 4839SOL     OW26152   2.033   3.010   4.161 -0.2227 -0.3807  0.1517
 4839SOL    HW126153   2.001   3.044   4.245  0.6552 -1.9212  1.1006
 4839SOL    HW226154   2.124   2.985   4.171 -0.2320  0.2940  1.9582
 4840SOL     OW26155   3.427   1.957   6.750  0.1745  0.4716  0.5332
 4840SOL    HW126156   3.493   1.895   6.780  0.9311  1.6339  1.2443
 4840SOL    HW226157   3.426   1.932   6.657  0.7297  0.1692  0.6093
 4841SOL     OW26158   2.783   3.936  16.315  1.0971 -0.1542  0.0947
 4841SOL    HW126159   2.734   3.855  16.326 -0.6426  0.8138 -0.6018
 4841SOL    HW226160   2.772   3.953  16.222 -0.5209 -0.9455  0.1466
 4842SOL     OW26161   0.502   4.651   0.242  0.3231 -0.2096 -0.5785
 4842SOL    HW126162   0.416   4.691   0.258 -0.6468 -2.8165  0.7817
 4842SOL    HW226163   0.530   4.704   0.168 -0.4821  0.5961 -0.3098
 4843SOL     OW26164   1.480   2.542   9.387  0.0827  0.1166 -0.2392
 4843SOL    HW126165   1.405   2.593   9.418  1.0461  2.7357 -2.2915
 4843SOL    HW226166   1.553   2.604   9.381 -0.4602  0.7801 -0.0533
 4844SOL     OW26167   1.837   2.378   7.749 -0.1306  0.7768 -0.4870
 4844SOL    HW126168   1.762   2.321   7.769  0.6207 -0.4814 -1.2867
 4844SOL    HW226169   1.861   2.422   7.830  1.2748 -0.4687 -0.2349
 4845SOL     OW26170   4.131   1.934   2.823  0.3455  0.5028  0.2618
 4845SOL    HW126171   4.139   1.951   2.729  0.5251 -0.0639  0.1791
 4845SOL    HW226172   4.199   1.873   2.851 -0.1682  0.2163  0.8800
 4846SOL     OW26173   1.325   0.100   7.435 -0.2146  0.5629  0.9985
 4846SOL    HW126174   1.249   0.060   7.478 -0.5944 -0.3652 -0.5204
 4846SOL    HW226175   1.390   0.082   7.502  0.2399 -0.9543  0.1219
 4847SOL     OW26176   0.608   1.722   4.658 -0.2421 -0.3676 -0.3260
 4847SOL    HW126177   0.565   1.794   4.611  3.4067  1.5305 -0.7284
 4847SOL    HW226178   0.661   1.769   4.722  3.0711  0.4347 -3.6421
 4848SOL     OW26179   1.712   0.695  16.753 -0.0495  0.3445 -0.6579
 4848SOL    HW126180   1.798   0.657  16.769  0.1034  1.4706  1.2946
 4848SOL    HW226181   1.665   0.703  16.837 -2.7605 -0.1987 -2.1131
 4849SOL     OW26182   2.671   3.423   3.247  0.0910 -0.2231 -0.3404
 4849SOL    HW126183   2.671   3.518   3.253  2.2936 -0.1525 -1.4726
 4849SOL    HW226184   2.607   3.422   3.177  0.1874  0.0620 -0.4316
 4850SOL     OW26185   3.397   1.185   2.410 -0.1930  0.1636 -0.5926
 4850SOL    HW126186   3.354   1.100   2.421  3.9130 -1.6328  1.6491
 4850SOL    HW226187   3.373   1.238   2.486 -2.1748  0.6149 -1.5461
 4851SOL     OW26188   0.592   4.574  12.382 -0.0716 -0.1153 -0.2882
 4851SOL    HW126189   0.514   4.559  12.328 -0.0908 -0.2815 -0.2151
 4851SOL    HW226190   0.600   4.497  12.438  2.3536 -0.3888 -1.0215
 4852SOL     OW26191   2.044   0.312   7.816  0.2483 -0.0235 -0.0696
 4852SOL    HW126192   2.108   0.362   7.765  0.9928 -1.2498 -0.3391
 4852SOL    HW226193   1.998   0.383   7.860  0.2779  0.7076 -1.2035
 4853SOL     OW26194   1.993   4.147   6.980  0.2407 -0.2534  0.0543
 4853SOL    HW126195   2.069   4.111   7.025  0.7134  0.7534  0.0458
 4853SOL    HW226196   1.919   4.110   7.029 -2.3486  4.1983 -0.5331
 4854SOL     OW26197   4.392   2.574  16.202 -0.3939  0.6792  0.0292
 4854SOL    HW126198   4.340   2.494  16.203  0.8127 -0.1233 -0.9034
 4854SOL    HW226199   4.408   2.597  16.294  1.5193 -2.1985  0.4128
 4855SOL     OW26200   3.147   1.384   5.713  0.4492  0.4468 -0.1837
 4855SOL    HW126201   3.073   1.332   5.683  0.1264  0.7569  0.0738
 4855SOL    HW226202   3.187   1.413   5.631  0.0081 -1.1103 -0.9363
 4856SOL     OW26203   0.874   2.157   2.227 -0.1515 -0.7054 -0.1627
 4856SOL    HW126204   0.830   2.240   2.245  0.9727  0.2453 -1.7755
 4856SOL    HW226205   0.800   2.097   2.230 -2.2634  2.0007  2.9492
 4857SOL     OW26206   3.551   1.369   3.991  0.8157 -0.0927 -0.6508
 4857SOL    HW126207   3.642   1.358   4.019  0.9867  2.3709 -0.3266
 4857SOL    HW226208   3.567   1.451   3.945  0.5612  1.3457  1.8432
 4858SOL     OW26209   3.854   1.515  10.909 -0.1298 -0.3807 -0.1190
 4858SOL    HW126210   3.769   1.535  10.870 -0.3938 -1.3799 -0.0326
 4858SOL    HW226211   3.842   1.527  11.003 -0.5125 -1.8357  0.0158
 4859SOL     OW26212   4.209   3.425  12.311 -0.3275 -0.1361 -0.3419
 4859SOL    HW126213   4.201   3.510  12.352 -3.2877  0.6789 -2.6328
 4859SOL    HW226214   4.292   3.391  12.346  0.4524  1.1797 -0.9287
 4860SOL     OW26215   0.566   2.524  15.363 -0.1404 -0.6911 -0.3045
 4860SOL    HW126216   0.471   2.515  15.358 -0.5945  2.1144  3.5862
 4860SOL    HW226217   0.579   2.565  15.449  1.1217  0.9857 -1.3097
 4861SOL     OW26218   3.341   3.289  15.434  0.2107  0.6434 -0.0432
 4861SOL    HW126219   3.288   3.220  15.394  0.6798 -1.0415  2.2480
 4861SOL    HW226220   3.374   3.237  15.507 -2.9383 -1.7528 -0.3067
 4862SOL     OW26221   4.311   1.297   6.851 -0.4871 -0.1318  0.0645
 4862SOL    HW126222   4.255   1.272   6.925  2.2622  1.4666  2.6931
 4862SOL    HW226223   4.244   1.312   6.784 -0.1725 -1.0369 -0.4594
 4863SOL     OW26224   3.945   3.014  10.183 -0.3027  0.2015  0.2667
 4863SOL    HW126225   3.868   2.983  10.231  1.1494 -1.7545  1.3415
 4863SOL    HW226226   3.959   2.937  10.128 -0.1008  1.4926 -1.4862
 4864SOL     OW26227   3.310   2.735   3.900 -0.1178 -0.0115  0.5099
 4864SOL    HW126228   3.380   2.721   3.964  0.7891 -0.0448 -0.4810
 4864SOL    HW226229   3.299   2.830   3.909 -0.6233 -0.2791  2.6486
 4865SOL     OW26230   2.637   2.014   4.362  0.2094 -0.7616 -0.1094
 4865SOL    HW126231   2.563   2.026   4.302  0.4932  1.1244 -0.0826
 4865SOL    HW226232   2.640   1.918   4.364  1.7153 -0.6862  0.6209
 4866SOL     OW26233   0.669   3.181   2.020  0.6344 -0.1220  0.1902
 4866SOL    HW126234   0.653   3.209   1.930 -0.4432 -1.8391 -0.1661
 4866SOL    HW226235   0.611   3.244   2.063 -3.4755 -1.5047 -3.2800
 4867SOL     OW26236   4.079   2.581  14.621  0.0036 -0.3667 -0.7145
 4867SOL    HW126237   4.017   2.649  14.648  0.3781 -0.1548 -0.3910
 4867SOL    HW226238   4.152   2.638  14.597  0.0735  0.2145  0.9140
 4868SOL     OW26239   3.842   1.784   6.585  0.0501  0.5493  0.8117
 4868SOL    HW126240   3.808   1.696   6.566 -1.9363  1.7838 -1.3436
 4868SOL    HW226241   3.933   1.774   6.556 -1.2086 -2.7459 -2.0382
 4869SOL     OW26242   1.736   3.689  13.131 -0.0614 -0.2302  0.6961
 4869SOL    HW126243   1.755   3.717  13.220 -1.8666  1.4637  0.5470
 4869SOL    HW226244   1.727   3.775  13.091  0.2423 -0.8902 -0.8118
 4870SOL     OW26245   2.632   0.900   7.524  0.4093  0.4076 -0.3439
 4870SOL    HW126246   2.567   0.858   7.468 -1.2187 -1.1238  2.7179
 4870SOL    HW226247   2.613   0.869   7.613 -1.1644  1.1366 -0.4265
 4871SOL     OW26248   4.181   4.466   2.124 -0.1229 -0.0664  0.7840
 4871SOL    HW126249   4.099   4.511   2.103  1.6633  2.6686 -0.3269
 4871SOL    HW226250   4.153   4.375   2.115 -2.3149  0.7951 -1.2298
 4872SOL     OW26251   3.150   3.016   9.259 -0.3218  0.0278  0.0795
 4872SOL    HW126252   3.208   2.993   9.186 -0.5775 -0.1246 -0.0765
 4872SOL    HW226253   3.200   2.973   9.329 -1.3296 -2.0462 -0.4569
 4873SOL     OW26254   1.227   4.617  14.747 -0.0320  0.4142 -0.1072
 4873SOL    HW126255   1.260   4.667  14.821  3.1715 -2.3576  0.3321
 4873SOL    HW226256   1.154   4.571  14.789  0.8135 -0.4457  0.4221
 4874SOL     OW26257   3.819   1.484   5.270 -0.0118  0.3521 -0.2418
 4874SOL    HW126258   3.768   1.404   5.269  1.1497 -0.4010  1.3999
 4874SOL    HW226259   3.747   1.545   5.281 -1.9888 -2.5433  2.7589
 4875SOL     OW26260   2.976   1.394   4.740  0.3173  0.3709  0.7922
 4875SOL    HW126261   3.047   1.414   4.801 -0.4206 -0.8448  2.0424
 4875SOL    HW226262   2.914   1.358   4.802 -1.7834 -0.4739 -1.7840
 4876SOL     OW26263   2.007   3.801  10.637  0.3216 -0.0093  0.4816
 4876SOL    HW126264   2.022   3.894  10.621  1.3724  0.0085  1.5116
 4876SOL    HW226265   2.072   3.781  10.704  0.4066 -3.0616 -0.5097
 4877SOL     OW26266   0.373   0.492   7.451  0.0642 -0.1477 -0.3414
 4877SOL    HW126267   0.328   0.564   7.407  3.0793  1.9762  0.1276
 4877SOL    HW226268   0.411   0.538   7.525 -0.2557  0.6528 -0.6819
 4878SOL     OW26269   1.883   1.525   8.975 -0.0421 -0.4337 -0.0369
 4878SOL    HW126270   1.913   1.458   8.913  0.9132 -1.0571  1.0960
 4878SOL    HW226271   1.857   1.593   8.912 -1.6455  0.2194  1.3261
 4879SOL     OW26272   0.311   0.689   4.078 -0.6670 -0.0810 -0.1629
 4879SOL    HW126273   0.385   0.630   4.096  0.9264  2.2251  0.8613
 4879SOL    HW226274   0.309   0.731   4.164 -2.8001 -0.5819  0.0213
 4880SOL     OW26275   1.352   0.393   4.667 -0.1309 -0.0122  0.4185
 4880SOL    HW126276   1.437   0.375   4.627 -0.9611  0.3906 -1.5332
 4880SOL    HW226277   1.322   0.478   4.633 -0.5882  0.2292  1.4085
 4881SOL     OW26278   0.777   0.150  12.392  0.6236  0.5893 -0.1151
 4881SOL    HW126279   0.703   0.146  12.451  1.2979 -2.6304  0.5225
 4881SOL    HW226280   0.783   0.243  12.370  0.4274  0.4240 -0.8622
 4882SOL     OW26281   0.196   2.676  17.219  0.5670 -0.1745 -0.0413
 4882SOL    HW126282   0.184   2.582  17.207 -1.2991  0.1226 -0.4482
 4882SOL    HW226283   0.257   2.697  17.148  2.4186  0.9059  1.8668
 4883SOL     OW26284   1.156   3.746   1.995 -0.0663  0.6542 -0.3242
 4883SOL    HW126285   1.079   3.732   2.049  0.4112  1.4289  0.5497
 4883SOL    HW226286   1.157   3.840   1.977  1.0354  1.0586  1.8646
 4884SOL     OW26287   1.151   0.153   4.570 -0.5289 -0.0200  0.3131
 4884SOL    HW126288   1.229   0.103   4.594 -0.3461  0.8527  1.5703
 4884SOL    HW226289   1.168   0.157   4.476 -1.8292  1.6594  0.1509
 4885SOL     OW26290   1.480   1.212   4.841  0.3439 -0.2228 -0.3475
 4885SOL    HW126291   1.446   1.298   4.818  1.5165  0.3589  0.0964
 4885SOL    HW226292   1.568   1.200   4.803  0.2592 -2.0075  0.0115
 4886SOL     OW26293   4.686   4.344   3.700  0.2523 -0.9424 -0.4801
 4886SOL    HW126294   4.635   4.355   3.781 -0.9280 -1.1635 -1.1868
 4886SOL    HW226295   4.614   4.378   3.647 -0.6133  1.6821  2.3930
 4887SOL     OW26296   1.268   2.678  15.025 -0.4152 -0.6044  0.7261
 4887SOL    HW126297   1.346   2.673  14.970  0.5015  2.1066  1.8128
 4887SOL    HW226298   1.265   2.595  15.073 -0.2345 -1.7790 -1.3044
 4888SOL     OW26299   1.642   0.482   5.471  0.0389 -0.8386 -0.3660
 4888SOL    HW126300   1.591   0.424   5.414 -1.7319  0.5591 -0.1982
 4888SOL    HW226301   1.643   0.431   5.552 -1.1760  1.6665  1.2344
 4889SOL     OW26302   2.709   0.059   4.118 -0.4620 -0.3945  0.1460
 4889SOL    HW126303   2.698   0.037   4.211 -2.7218  1.1709  0.2660
 4889SOL    HW226304   2.714   4.705   4.091  0.9208 -0.5822  1.0471
 4890SOL     OW26305   1.138   4.300   2.090  0.2028 -0.2919  0.0062
 4890SOL    HW126306   1.055   4.294   2.137 -0.7383  0.5765 -1.5449
 4890SOL    HW226307   1.195   4.297   2.167  1.2706 -2.5543 -0.8812
 4891SOL     OW26308   3.801   0.457   2.915  0.2510 -0.1537 -0.1046
 4891SOL    HW126309   3.783   0.424   2.827  0.5227  2.0325 -0.9718
 4891SOL    HW226310   3.878   0.406   2.939  0.5440  0.2754 -0.1333
 4892SOL     OW26311   1.558   1.967   7.251 -0.0555  0.1704  0.1483
 4892SOL    HW126312   1.491   1.937   7.189 -1.0608  0.1506  1.2484
 4892SOL    HW226313   1.618   2.018   7.197  1.0487 -0.1278  1.1067
 4893SOL     OW26314   1.461   0.083   8.295  0.4250  0.3085 -0.5522
 4893SOL    HW126315   1.384   0.078   8.352  2.0611  0.7373  1.7135
 4893SOL    HW226316   1.521   0.031   8.349  0.5542  0.2240 -0.7775
 4894SOL     OW26317   1.960   0.650   5.191  0.5922  0.5102  0.6619
 4894SOL    HW126318   1.936   0.739   5.163  0.7009  0.7300  1.2703
 4894SOL    HW226319   1.874   0.609   5.196  0.3612  1.0290  1.0062
 4895SOL     OW26320   2.192   2.586   4.136 -0.5077 -0.6973  0.1275
 4895SOL    HW126321   2.103   2.621   4.135 -0.5669 -0.8829 -2.0214
 4895SOL    HW226322   2.207   2.552   4.048  0.4771 -1.5916  0.6391
 4896SOL     OW26323   0.262   1.526   0.716 -0.4120  0.2167  0.2316
 4896SOL    HW126324   0.321   1.600   0.703  2.1078 -1.8618 -0.0851
 4896SOL    HW226325   0.234   1.501   0.628 -0.2194  2.4832 -0.4730
 4897SOL     OW26326   3.730   4.260   2.165 -0.1110  0.0091 -0.0970
 4897SOL    HW126327   3.686   4.334   2.123 -1.2571  1.7804  4.1573
 4897SOL    HW226328   3.701   4.285   2.253  1.6658 -1.1504  0.8239
 4898SOL     OW26329   3.722   0.401   8.597 -0.4423 -0.1409 -0.0642
 4898SOL    HW126330   3.723   0.411   8.692  2.8132  2.1836 -0.3442
 4898SOL    HW226331   3.728   0.306   8.598  1.3668 -0.0493 -2.3929
 4899SOL     OW26332   2.423   3.562   2.000 -0.2854 -0.1975 -0.0212
 4899SOL    HW126333   2.454   3.630   1.940  0.1535 -0.7325 -0.3893
 4899SOL    HW226334   2.398   3.605   2.082 -1.0859  1.6357 -1.2158
 4900SOL     OW26335   1.015   3.798   2.448 -0.6377  0.1596 -0.2839
 4900SOL    HW126336   1.073   3.874   2.447  1.2038 -1.1415  3.8869
 4900SOL    HW226337   0.949   3.816   2.381  0.6238  1.4332 -1.1862
 4901SOL     OW26338   3.779   3.705   9.324  0.7682 -0.0815  0.4672
 4901SOL    HW126339   3.741   3.771   9.266  4.3066  0.5291 -1.1270
 4901SOL    HW226340   3.764   3.748   9.409 -1.6757  1.0486 -0.5223
 4902SOL     OW26341   4.157   0.549   4.188  0.6213 -0.2011 -0.6183
 4902SOL    HW126342   4.075   0.597   4.203  0.8616 -0.3582  1.2044
 4902SOL    HW226343   4.139   0.496   4.111 -0.0651  0.1586 -0.7098
 4903SOL     OW26344   0.169   0.292   8.452 -0.5095  0.3956 -0.1027
 4903SOL    HW126345   0.167   0.386   8.436  0.2205  0.6819  1.4475
 4903SOL    HW226346   0.263   0.273   8.453 -0.5005  0.4021 -1.5499
 4904SOL     OW26347   1.794   2.303   5.940  0.0464 -0.7138 -0.2327
 4904SOL    HW126348   1.777   2.286   6.032  0.6643  1.4243  0.2795
 4904SOL    HW226349   1.749   2.236   5.888  1.0947 -1.6537  0.0808
 4905SOL     OW26350   2.442   0.246  16.442 -0.3271  0.2159 -0.2465
 4905SOL    HW126351   2.421   0.338  16.459 -1.6535 -0.3747  1.3482
 4905SOL    HW226352   2.385   0.221  16.369  1.1339 -1.1874 -0.9091
 4906SOL     OW26353   3.457   1.502   8.904 -0.4933 -0.4443 -0.2111
 4906SOL    HW126354   3.397   1.516   8.978 -0.0838 -1.3326  0.2910
 4906SOL    HW226355   3.393   1.487   8.835  1.3260  1.5026 -2.2887
 4907SOL     OW26356   1.250   1.143  12.890  0.4551 -0.1431  0.2727
 4907SOL    HW126357   1.224   1.103  12.973 -0.2628  0.5897  0.4039
 4907SOL    HW226358   1.330   1.186  12.921  1.4689 -0.3278 -2.1175
 4908SOL     OW26359   3.943   1.952   4.543 -0.2703  0.8498  0.1502
 4908SOL    HW126360   3.948   2.038   4.501  1.3427  0.3894 -0.6088
 4908SOL    HW226361   3.851   1.966   4.566 -0.3304  0.6595  0.0234
 4909SOL     OW26362   1.138   2.542   7.170 -0.3408 -0.1077 -0.1065
 4909SOL    HW126363   1.087   2.499   7.238 -1.2580  3.1723  1.2720
 4909SOL    HW226364   1.093   2.517   7.090 -0.9353  2.6366 -0.6379
 4910SOL     OW26365   1.200   2.725  12.333  0.5345 -0.0835 -0.0022
 4910SOL    HW126366   1.189   2.778  12.254 -0.3853 -1.7502 -0.9757
 4910SOL    HW226367   1.154   2.644  12.313 -2.4417  0.9484  2.6869
 4911SOL     OW26368   0.361   3.464   3.581  0.2482  1.0505 -0.2039
 4911SOL    HW126369   0.371   3.555   3.554  0.8124  1.1201  0.2347
 4911SOL    HW226370   0.403   3.473   3.667 -1.0377 -0.6316  0.6065
 4912SOL     OW26371   0.016   2.427   1.587  0.9687  0.3849  0.1586
 4912SOL    HW126372   4.735   2.507   1.537 -0.0812 -0.4145 -0.7401
 4912SOL    HW226373   0.076   2.379   1.530  0.2446 -1.1356  0.6721
 4913SOL     OW26374   4.663   0.176   5.587 -0.2136  0.0676  0.2508
 4913SOL    HW126375   4.687   0.086   5.564  0.1061  0.5592 -1.3416
 4913SOL    HW226376   4.692   0.187   5.677 -0.3672 -1.1854  0.4490
 4914SOL     OW26377   2.390   1.261   8.596 -0.5668 -0.1667 -0.0327
 4914SOL    HW126378   2.333   1.337   8.579 -0.9225 -0.8194 -1.7491
 4914SOL    HW226379   2.451   1.256   8.522 -0.0706 -3.3033  0.6080
 4915SOL     OW26380   3.934   0.116   9.598 -0.2623  0.0029 -0.5214
 4915SOL    HW126381   3.927   0.036   9.547  0.0143 -0.3993  0.0767
 4915SOL    HW226382   4.027   0.116   9.621 -1.0683 -0.1069  2.7624
 4916SOL     OW26383   3.160   2.055   3.823  0.3843 -0.4690 -0.1406
 4916SOL    HW126384   3.208   1.972   3.822  0.5637 -0.3544 -0.7562
 4916SOL    HW226385   3.082   2.018   3.780  1.6336 -0.8264 -2.0612
 4917SOL     OW26386   1.786   1.165   5.855  0.2110 -0.1350  0.6027
 4917SOL    HW126387   1.759   1.167   5.764  0.8170  0.4641  0.4360
 4917SOL    HW226388   1.877   1.190   5.842  0.0297 -0.6672 -1.6620
 4918SOL     OW26389   3.109   4.061   7.835  0.2666  0.5552  0.4849
 4918SOL    HW126390   3.202   4.043   7.845  0.0088 -1.4222 -0.7392
 4918SOL    HW226391   3.091   4.096   7.922  0.5560  1.3515  0.2201
 4919SOL     OW26392   2.362   3.023   9.379  0.7192 -0.4734  0.0294
 4919SOL    HW126393   2.440   3.076   9.360 -0.8255  1.8278  0.1145
 4919SOL    HW226394   2.379   2.948   9.323 -0.8207 -1.1181  0.4494
 4920SOL     OW26395   4.585   0.928   4.879  0.2256  0.4359  0.3275
 4920SOL    HW126396   4.497   0.891   4.881  0.5878 -0.4657 -0.3893
 4920SOL    HW226397   4.623   0.918   4.791 -1.4598 -0.0629 -0.3347
 4921SOL     OW26398   3.286   2.821   9.841  0.0736 -0.0153  0.0211
 4921SOL    HW126399   3.229   2.890   9.877 -1.4539 -0.1776 -2.0390
 4921SOL    HW226400   3.377   2.831   9.868  0.6554  1.2519 -2.3961
 4922SOL     OW26401   3.811   1.417   9.356 -0.3905 -0.2421  0.3284
 4922SOL    HW126402   3.897   1.402   9.316 -1.0731  0.1876 -1.2605
 4922SOL    HW226403   3.845   1.416   9.446 -1.1701 -1.4354  0.6095
 4923SOL     OW26404   1.787   4.465   7.551  0.2340  0.4226 -0.7988
 4923SOL    HW126405   1.840   4.472   7.472  1.4267  3.3024  0.2304
 4923SOL    HW226406   1.708   4.506   7.514  0.0375 -0.0448 -0.9046
 4924SOL     OW26407   2.722   4.459   1.549  0.1125  0.0849  0.1699
 4924SOL    HW126408   2.775   4.488   1.623  0.0312  1.4518 -0.3032
 4924SOL    HW226409   2.641   4.510   1.555  1.2105  1.8641 -0.4080
 4925SOL     OW26410   1.161   0.005   2.294  0.6092  0.3138 -0.3764
 4925SOL    HW126411   1.110   0.044   2.224  0.9069  0.7645 -0.3402
 4925SOL    HW226412   1.234   4.696   2.252  0.5032  0.7914 -1.0871
 4926SOL     OW26413   3.678   4.711   3.011 -0.2712  0.5828 -0.1111
 4926SOL    HW126414   3.612   4.662   3.060  0.1692 -0.6569 -0.7619
 4926SOL    HW226415   3.634   0.028   2.945  1.2566  1.5047 -0.3715
 4927SOL     OW26416   1.625   2.219   9.618 -0.5281  0.0524  0.0745
 4927SOL    HW126417   1.608   2.308   9.648 -1.7486  0.2617 -1.2516
 4927SOL    HW226418   1.606   2.171   9.698  0.3102 -0.5137 -0.0599
 4928SOL     OW26419   1.675   0.439  11.768  0.1767 -0.4464  0.0288
 4928SOL    HW126420   1.745   0.500  11.791 -2.9420  3.0584  0.2628
 4928SOL    HW226421   1.606   0.502  11.745 -0.8798 -0.9744  1.7991
 4929SOL     OW26422   1.902   4.417   3.129  0.2813  0.5772  0.4284
 4929SOL    HW126423   1.994   4.401   3.107  0.2515 -1.6865  1.9332
 4929SOL    HW226424   1.874   4.327   3.148  0.9295  0.2462 -0.1531
 4930SOL     OW26425   3.941   2.224   4.386 -0.2135  0.2741  0.2082
 4930SOL    HW126426   3.860   2.275   4.395  0.2026  1.0994 -0.7983
 4930SOL    HW226427   4.008   2.289   4.403  0.9204 -1.3301  1.9288
 4931SOL     OW26428   0.606   0.536   2.709  0.5793 -0.1536 -0.3251
 4931SOL    HW126429   0.626   0.494   2.793  0.0863 -0.3782 -0.3210
 4931SOL    HW226430   0.603   0.458   2.654  0.2787 -0.7269  0.5107
 4932SOL     OW26431   1.251   2.025   3.016  0.1421  0.2159  0.1271
 4932SOL    HW126432   1.271   1.995   3.105  0.5287  1.2962  0.4018
 4932SOL    HW226433   1.185   2.092   3.037  1.1589  1.0773  0.5447
 4933SOL     OW26434   2.805   0.227   9.877  0.2606 -0.1773 -0.4054
 4933SOL    HW126435   2.818   0.313   9.917  2.0657 -0.3022 -0.7068
 4933SOL    HW226436   2.895   0.218   9.846  0.7210  1.3319  0.4774
 4934SOL     OW26437   3.337   3.255   2.508  0.1326  0.0009 -0.0015
 4934SOL    HW126438   3.391   3.306   2.568  0.6160  0.9739 -1.2764
 4934SOL    HW226439   3.251   3.296   2.513  0.2740  0.5324 -2.1732
 4935SOL     OW26440   0.903   2.927   6.246 -0.0251  0.1091 -0.1238
 4935SOL    HW126441   0.822   2.889   6.280  1.0206 -1.5080  0.5254
 4935SOL    HW226442   0.961   2.857   6.215 -1.6932 -0.9265 -0.9125
 4936SOL     OW26443   3.891   3.178  14.116  0.2895  0.0937 -0.6636
 4936SOL    HW126444   3.917   3.124  14.042 -0.2187 -0.0627 -0.7302
 4936SOL    HW226445   3.872   3.256  14.063  2.6701  0.0269 -1.5805
 4937SOL     OW26446   3.164   4.079   3.267  0.2910  0.0018 -0.1266
 4937SOL    HW126447   3.172   4.174   3.258 -2.0198  0.2117  0.1245
 4937SOL    HW226448   3.224   4.068   3.342 -0.1073  0.3715  0.2446
 4938SOL     OW26449   3.913   0.342   7.892 -0.3532 -0.6265  0.0967
 4938SOL    HW126450   4.008   0.345   7.892 -0.4210  1.2777 -0.8672
 4938SOL    HW226451   3.900   0.309   7.803  0.3653  0.4462 -0.4067
 4939SOL     OW26452   1.140   0.725  16.404  0.3664 -0.3337  0.7007
 4939SOL    HW126453   1.078   0.760  16.468  1.4032 -1.2918  2.2268
 4939SOL    HW226454   1.073   0.679  16.354  0.7225 -1.1005  0.9252
 4940SOL     OW26455   4.396   4.241   7.757  0.1331 -0.1698 -0.1408
 4940SOL    HW126456   4.455   4.174   7.793 -0.6338 -0.3470  0.8002
 4940SOL    HW226457   4.388   4.207   7.668  1.7769  1.4805 -0.9109
 4941SOL     OW26458   0.048   1.489   7.922 -0.0843 -0.3275  0.7526
 4941SOL    HW126459   0.105   1.555   7.881 -0.8104 -0.6323 -0.7244
 4941SOL    HW226460   0.116   1.444   7.972  0.6180 -0.2228 -0.1107
 4942SOL     OW26461   2.335   2.506   5.505 -0.1555  0.2209 -0.1332
 4942SOL    HW126462   2.413   2.481   5.454  0.6536 -0.7805  1.5702
 4942SOL    HW226463   2.347   2.450   5.583 -3.7008  0.9168  0.8808
 4943SOL     OW26464   2.592   2.538   3.402  0.3662 -0.6053  0.2495
 4943SOL    HW126465   2.624   2.552   3.312  0.1441 -0.3665  0.2092
 4943SOL    HW226466   2.583   2.443   3.397 -0.0860 -0.5704  0.4475
 4944SOL     OW26467   1.979   4.598   2.238 -0.2465 -0.2378 -0.1914
 4944SOL    HW126468   2.016   4.638   2.159  1.3675 -0.0672  0.6608
 4944SOL    HW226469   1.992   4.505   2.220 -2.3265 -0.1736 -1.9666
 4945SOL     OW26470   3.004   4.626   4.758  0.2624 -0.2963  0.8018
 4945SOL    HW126471   2.993   4.620   4.853 -1.3613 -1.9544  0.5002
 4945SOL    HW226472   3.095   4.598   4.752  0.1950 -0.0227 -1.4825
 4946SOL     OW26473   4.665   1.809  11.657 -0.4447  0.5649 -0.3670
 4946SOL    HW126474   4.685   1.809  11.564 -1.3657 -0.2455 -0.5639
 4946SOL    HW226475   4.593   1.746  11.657  0.8211 -0.9027 -0.6525
 4947SOL     OW26476   0.928   4.703  17.130  0.7129  0.5197 -0.5079
 4947SOL    HW126477   0.912   4.666  17.043  0.3450  1.2651 -0.7575
 4947SOL    HW226478   0.914   0.059  17.119  1.4813  0.6358 -0.4402
 4948SOL     OW26479   4.367   1.475   1.958  0.0024  0.2905  0.5399
 4948SOL    HW126480   4.274   1.497   1.954 -0.4302 -1.6108 -0.0952
 4948SOL    HW226481   4.373   1.398   1.901 -0.8066 -0.2951  1.2355
 4949SOL     OW26482   1.818   0.101   2.506  0.1122  0.5697  0.1245
 4949SOL    HW126483   1.854   0.177   2.552  1.8928 -0.4856  0.5027
 4949SOL    HW226484   1.899   0.057   2.478 -0.3029  0.3139 -0.6881
 4950SOL     OW26485   4.530   1.419   7.625 -0.0506 -0.0000  0.4217
 4950SOL    HW126486   4.596   1.467   7.576  0.2491 -0.7052  0.1352
 4950SOL    HW226487   4.494   1.352   7.567 -0.2204 -1.1921  1.9011
 4951SOL     OW26488   2.505   0.573   7.009 -0.0618 -0.7701 -0.6708
 4951SOL    HW126489   2.460   0.628   7.073  3.1011  1.6063 -0.5323
 4951SOL    HW226490   2.480   0.607   6.923 -2.9611  3.3220  1.7989
 4952SOL     OW26491   2.242   1.367   9.663 -0.1155 -0.1951 -0.4114
 4952SOL    HW126492   2.328   1.324   9.667 -1.1100 -2.2568 -1.2807
 4952SOL    HW226493   2.175   1.307   9.631 -1.3178  0.7492  0.2961
 4953SOL     OW26494   4.411   2.189  14.493  0.3154 -0.1951  0.5585
 4953SOL    HW126495   4.354   2.263  14.513 -1.1628 -0.9844 -0.7600
 4953SOL    HW226496   4.349   2.116  14.497  1.2692 -0.9953  0.7542
 4954SOL     OW26497   2.494   4.224  10.829 -0.6600  0.1445 -0.6759
 4954SOL    HW126498   2.430   4.155  10.844  0.5393 -0.7470  0.4037
 4954SOL    HW226499   2.524   4.212  10.738  1.3257  0.8152 -0.1150
 4955SOL     OW26500   0.282   0.446   4.916 -0.3783 -0.1682 -0.1361
 4955SOL    HW126501   0.210   0.461   4.854  0.4879  1.3225 -0.7635
 4955SOL    HW226502   0.361   0.438   4.864 -0.1332 -1.9819  0.5024
 4956SOL     OW26503   4.223   2.004   6.549 -0.4324  0.4323 -0.0031
 4956SOL    HW126504   4.313   1.976   6.534 -0.5142  1.1596 -1.8607
 4956SOL    HW226505   4.230   2.097   6.569  0.8793  0.3439 -0.0756
 4957SOL     OW26506   0.682   1.840   6.626 -0.7674  0.4544 -0.4424
 4957SOL    HW126507   0.709   1.854   6.535 -1.3610  1.2110 -0.4988
 4957SOL    HW226508   0.591   1.819   6.608 -0.1204 -1.4556 -1.5521
 4958SOL     OW26509   4.033   1.943  16.653  0.1095 -0.4262 -0.0458
 4958SOL    HW126510   4.020   1.933  16.559 -0.5674  0.2029 -0.0176
 4958SOL    HW226511   4.122   1.978  16.661  0.5319 -1.3581 -0.6557
 4959SOL     OW26512   1.246   1.042   9.676  0.2860  0.6932 -0.1550
 4959SOL    HW126513   1.159   1.007   9.695  0.0185  1.9691  0.9977
 4959SOL    HW226514   1.234   1.137   9.670  1.5052  0.9512  1.3173
 4960SOL     OW26515   0.402   2.399   6.942 -0.3094 -0.2120 -0.0877
 4960SOL    HW126516   0.374   2.319   6.898 -3.5532  0.4736  0.6745
 4960SOL    HW226517   0.391   2.368   7.032 -0.3534  0.9321  0.3001
 4961SOL     OW26518   4.690   0.101  14.548  0.3174 -0.1125 -0.4283
 4961SOL    HW126519   4.713   0.185  14.507 -0.7024  0.5431  0.3681
 4961SOL    HW226520   4.664   0.064  14.464  3.1625 -1.8242 -0.5429
 4962SOL     OW26521   0.536   2.995   7.789 -0.4828 -0.3694  0.1112
 4962SOL    HW126522   0.481   3.004   7.867  0.2990  0.3152  0.5807
 4962SOL    HW226523   0.500   2.913   7.753 -2.1269  0.3332  0.1547
 4963SOL     OW26524   3.480   4.236   3.535 -0.1424  0.1915 -0.0073
 4963SOL    HW126525   3.559   4.233   3.481 -0.7507  1.8979 -1.0069
 4963SOL    HW226526   3.510   4.302   3.598 -0.5361  0.5096 -0.1523
 4964SOL     OW26527   2.701   0.517   4.814  0.3670  0.1956 -0.1930
 4964SOL    HW126528   2.624   0.466   4.840 -1.0532  1.9872 -0.9195
 4964SOL    HW226529   2.678   0.566   4.735  0.2763  1.9364  0.9329
 4965SOL     OW26530   4.702   2.479   3.827 -0.7384  0.1780  0.3038
 4965SOL    HW126531   4.681   2.553   3.771  0.7298  0.5081  0.1792
 4965SOL    HW226532   0.006   2.419   3.766 -0.3067 -0.1344  0.9053
 4966SOL     OW26533   4.149   0.385   3.960 -0.4027  0.4047  0.4249
 4966SOL    HW126534   4.059   0.390   3.927 -0.7834  1.1042  1.5761
 4966SOL    HW226535   4.182   0.358   3.874  1.2475  1.0070  0.8746
 4967SOL     OW26536   1.215   2.136  12.653  0.1030  0.0979  0.4075
 4967SOL    HW126537   1.244   2.078  12.582 -1.2726  3.3384 -2.8106
 4967SOL    HW226538   1.161   2.074  12.700  2.5425 -2.9958 -0.8337
 4968SOL     OW26539   3.023   1.176  16.389  0.0599  0.3092 -0.4502
 4968SOL    HW126540   3.116   1.199  16.384  0.8962 -3.2079 -1.4916
 4968SOL    HW226541   3.044   1.101  16.444 -1.6654  1.0774  1.2321
 4969SOL     OW26542   0.870   0.335   9.724 -0.3229  0.2109 -0.1345
 4969SOL    HW126543   0.879   0.258   9.668  1.4322  0.7950 -0.6530
 4969SOL    HW226544   0.803   0.376   9.671 -0.2579  0.6471  0.1178
 4970SOL     OW26545   0.337   2.423   8.606 -0.1052 -0.2422  0.4109
 4970SOL    HW126546   0.371   2.501   8.648 -2.4169  1.6326 -1.2038
 4970SOL    HW226547   0.392   2.361   8.654 -1.0262  0.6729  2.6654
 4971SOL     OW26548   4.203   3.064   9.001 -0.5627 -0.3673  0.1854
 4971SOL    HW126549   4.182   3.064   8.908  0.5057  0.4579 -0.0545
 4971SOL    HW226550   4.272   3.131   9.005  1.4873 -2.3230 -2.4587
 4972SOL     OW26551   2.977   2.643  10.961 -0.4060  0.4985 -0.5459
 4972SOL    HW126552   3.072   2.642  10.947 -0.4653 -0.6705 -0.8488
 4972SOL    HW226553   2.973   2.664  11.055  1.7071 -0.2212 -0.2853
 4973SOL     OW26554   4.516   3.227   5.041 -0.1889  0.2381 -0.6571
 4973SOL    HW126555   4.490   3.169   4.969 -1.0921  0.4872 -0.5315
 4973SOL    HW226556   4.486   3.180   5.119 -1.8625 -0.1034 -1.5068
 4974SOL     OW26557   3.086   2.333  15.868  0.1853 -0.1697  0.4006
 4974SOL    HW126558   3.126   2.420  15.877  1.6597 -0.7686 -0.5629
 4974SOL    HW226559   3.038   2.333  15.786 -1.6053  3.4303  1.4318
 4975SOL     OW26560   3.793   1.757   3.520  0.1275  0.2570  0.2802
 4975SOL    HW126561   3.718   1.778   3.465  1.4939  0.3466 -1.5736
 4975SOL    HW226562   3.831   1.844   3.533  2.2729 -0.3878 -1.6021
 4976SOL     OW26563   0.138   1.759  11.848 -0.5962  0.2416 -0.1964
 4976SOL    HW126564   0.099   1.673  11.831 -0.6947  0.5683 -1.6682
 4976SOL    HW226565   0.082   1.818  11.797  1.6983  1.9380 -0.7578
 4977SOL     OW26566   2.709   0.623   8.680 -0.1241  0.2620 -0.3917
 4977SOL    HW126567   2.756   0.620   8.763  2.7775  1.2558 -2.0167
 4977SOL    HW226568   2.732   0.707   8.641  3.2940 -0.8317 -0.6649
 4978SOL     OW26569   3.586   1.030  11.072 -0.5614 -0.3611 -0.7379
 4978SOL    HW126570   3.663   1.050  11.125 -1.5807  0.2314  0.5131
 4978SOL    HW226571   3.634   0.998  10.996 -0.6346 -1.6626 -0.2367
 4979SOL     OW26572   4.022   1.000   6.026 -0.5473  0.3623  0.0348
 4979SOL    HW126573   4.013   1.067   6.093  0.7868 -0.5438  1.1357
 4979SOL    HW226574   4.053   0.927   6.080  2.3462  2.3067  0.9867
 4980SOL     OW26575   1.921   1.975  12.500 -0.3408  0.5575  0.0811
 4980SOL    HW126576   1.967   2.059  12.488 -0.8738  0.8907  0.3670
 4980SOL    HW226577   1.847   2.002  12.555 -1.9492 -1.1046 -1.2946
 4981SOL     OW26578   3.228   2.522  15.674  0.5476  0.1885 -0.2569
 4981SOL    HW126579   3.236   2.485  15.586 -2.8591  1.5719 -1.1295
 4981SOL    HW226580   3.146   2.570  15.677 -0.9373 -2.4446  0.6506
 4982SOL     OW26581   3.120   0.465   4.321 -0.1639  0.3878 -0.2017
 4982SOL    HW126582   3.073   0.383   4.308 -0.0643  0.0251  1.6368
 4982SOL    HW226583   3.186   0.438   4.385 -0.8207 -1.8507 -0.4685
 4983SOL     OW26584   2.674   0.835  16.849 -0.1229 -0.2576 -0.0419
 4983SOL    HW126585   2.719   0.759  16.811 -0.0429 -0.4922  0.5137
 4983SOL    HW226586   2.705   0.829  16.940 -1.3734  0.3329  0.4158
 4984SOL     OW26587   1.826   3.318  10.432 -0.1671  0.3703  0.0643
 4984SOL    HW126588   1.878   3.251  10.387 -1.3490 -2.5935  3.0709
 4984SOL    HW226589   1.817   3.387  10.367 -2.1698  0.1725  0.1356
 4985SOL     OW26590   1.947   3.202   1.610 -0.0563  0.2933 -0.1538
 4985SOL    HW126591   1.862   3.167   1.585  0.5964 -1.8974  0.7165
 4985SOL    HW226592   1.915   3.290   1.631  0.4876  0.0146  1.8105
 4986SOL     OW26593   1.810   3.142   3.558  0.5307 -0.5693  0.2568
 4986SOL    HW126594   1.802   3.177   3.469  0.9338 -0.3080  0.3228
 4986SOL    HW226595   1.899   3.106   3.566  1.1598  1.0913  0.8331
 4987SOL     OW26596   1.219   1.801   2.861 -0.2981 -0.1579  0.0634
 4987SOL    HW126597   1.282   1.827   2.794  1.3911 -0.1508  1.6545
 4987SOL    HW226598   1.219   1.882   2.912 -0.8422  0.0648 -0.2911
 4988SOL     OW26599   2.998   1.482  13.145 -0.4079  0.3593  0.0745
 4988SOL    HW126600   3.041   1.398  13.128 -0.8447 -0.1356  1.4117
 4988SOL    HW226601   3.016   1.529  13.063  0.7933 -0.8093 -0.3307
 4989SOL     OW26602   3.946   3.561  16.812 -0.2334 -0.5033  0.0875
 4989SOL    HW126603   4.005   3.535  16.882 -0.4328 -1.3708 -0.0677
 4989SOL    HW226604   3.872   3.600  16.858 -0.7467 -2.4531  0.9100
 4990SOL     OW26605   0.983   1.455   3.983  0.3630 -0.2277 -0.1387
 4990SOL    HW126606   1.079   1.446   3.975  0.4291  1.5144 -1.2800
 4990SOL    HW226607   0.956   1.418   3.899  1.0464  0.2208 -0.5622
 4991SOL     OW26608   0.981   1.516   0.295 -0.0336 -0.1412 -0.2244
 4991SOL    HW126609   1.006   1.541   0.206  2.4148 -1.4212  0.1015
 4991SOL    HW226610   0.991   1.596   0.348 -0.9213  0.5781 -1.1372
 4992SOL     OW26611   2.906   1.623   6.160 -0.2080 -0.2067  0.4022
 4992SOL    HW126612   2.944   1.571   6.231 -1.1618  0.8462  1.7113
 4992SOL    HW226613   2.891   1.707   6.204 -3.2192  0.1636 -1.3043
 4993SOL     OW26614   1.656   2.280   6.853 -0.0975  0.1285 -0.1768
 4993SOL    HW126615   1.563   2.285   6.875 -0.0437  0.7954 -0.1148
 4993SOL    HW226616   1.654   2.365   6.809  2.1452  1.5125  2.4071
 4994SOL     OW26617   4.668   4.075   6.075 -0.4605  0.0558  0.0307
 4994SOL    HW126618   4.737   4.102   6.135  1.2789 -0.0521 -1.9229
 4994SOL    HW226619   4.585   4.093   6.118  0.5171 -0.6265  2.1838
 4995SOL     OW26620   3.054   2.289  13.003  0.1213  0.3350  0.0775
 4995SOL    HW126621   3.077   2.380  13.022  1.4105 -0.4277  2.0315
 4995SOL    HW226622   3.000   2.263  13.078  0.0929 -0.3846 -0.1873
 4996SOL     OW26623   1.214   3.324   2.714 -0.3729  0.6299  0.2169
 4996SOL    HW126624   1.135   3.377   2.709 -0.3080  0.5431 -1.6724
 4996SOL    HW226625   1.210   3.270   2.635 -1.2885 -1.0868  1.4426
 4997SOL     OW26626   3.317   0.622   9.855  0.5698 -0.1348 -0.1491
 4997SOL    HW126627   3.245   0.567   9.824  0.7309 -0.1448 -0.5067
 4997SOL    HW226628   3.277   0.709   9.854 -0.0286 -0.4135 -0.6362
 4998SOL     OW26629   1.213   1.253  13.169  0.3828  0.4516 -0.0706
 4998SOL    HW126630   1.163   1.172  13.156  4.2841 -1.8772 -0.5491
 4998SOL    HW226631   1.198   1.268  13.263 -0.2790  0.6937 -0.2124
 4999SOL     OW26632   3.900   4.532  11.290 -0.0001  0.5462  0.0689
 4999SOL    HW126633   3.900   4.460  11.353 -0.5217 -0.2884 -0.8901
 4999SOL    HW226634   3.947   4.600  11.339 -1.7024  2.3628 -0.8287
 5000SOL     OW26635   0.861   0.842   9.149  0.2841  0.0905  0.3622
 5000SOL    HW126636   0.795   0.912   9.144  0.4494  0.2589  0.5285
 5000SOL    HW226637   0.939   0.882   9.110  0.1598  0.0040  0.0204
 5001SOL     OW26638   2.079   1.535   3.062 -0.7102 -0.0118  0.1217
 5001SOL    HW126639   2.052   1.444   3.062  0.2399 -0.2917 -0.4639
 5001SOL    HW226640   2.147   1.529   2.995 -0.8738  1.1432 -0.1587
 5002SOL     OW26641   3.837   0.315   3.492  0.3552 -0.0588 -0.4305
 5002SOL    HW126642   3.809   0.238   3.543  0.3866  0.0890 -0.1914
 5002SOL    HW226643   3.785   0.299   3.414 -0.1543  1.5441 -0.4147
 5003SOL     OW26644   2.992   4.313  11.613 -0.4017  0.5495 -0.0053
 5003SOL    HW126645   2.972   4.400  11.580 -0.5425  0.0417 -1.2366
 5003SOL    HW226646   3.087   4.320  11.605 -0.1928  1.0636  2.7246
 5004SOL     OW26647   0.687   4.613   8.507  0.1278  0.3670 -0.0649
 5004SOL    HW126648   0.734   4.541   8.465 -0.3018  1.0233 -1.6720
 5004SOL    HW226649   0.609   4.574   8.547  1.1293 -1.7558 -0.1453
 5005SOL     OW26650   1.098   2.347   2.468 -0.0644  0.7055  0.2579
 5005SOL    HW126651   1.064   2.261   2.491 -0.5924  0.5221 -1.2316
 5005SOL    HW226652   1.130   2.367   2.556  0.2496  0.6730  0.1540
 5006SOL     OW26653   0.382   1.611   3.983 -0.2595 -0.3812 -0.4088
 5006SOL    HW126654   0.337   1.687   4.021 -0.6728 -0.9700  0.2702
 5006SOL    HW226655   0.382   1.643   3.893  0.7929 -2.8865 -1.2983
 5007SOL     OW26656   0.984   1.500   2.570  0.4859 -0.1491  0.5012
 5007SOL    HW126657   1.050   1.514   2.502 -0.2602  1.5846  0.1375
 5007SOL    HW226658   1.018   1.561   2.636  2.2471  0.7543 -1.2837
 5008SOL     OW26659   0.091   2.617   4.788 -0.1429 -0.2008 -0.3661
 5008SOL    HW126660   0.043   2.665   4.720 -0.6989 -0.6398 -0.2870
 5008SOL    HW226661   0.085   2.673   4.866 -0.6827 -1.0006  0.1645
 5009SOL     OW26662   3.926   1.144   9.288  0.3671 -0.2393  0.3866
 5009SOL    HW126663   3.859   1.081   9.315 -0.9177  1.1295  0.4316
 5009SOL    HW226664   3.900   1.161   9.197 -1.3157 -4.2772  0.1148
 5010SOL     OW26665   2.959   0.993   4.741  0.6934  0.1911  0.1706
 5010SOL    HW126666   2.948   0.972   4.833  1.7291  0.2747  0.3115
 5010SOL    HW226667   3.044   0.955   4.719  0.6530  0.1363  0.1074
 5011SOL     OW26668   0.438   4.400  12.241 -0.3433  0.1864 -0.1515
 5011SOL    HW126669   0.482   4.416  12.157 -0.7945 -2.4453 -0.9209
 5011SOL    HW226670   0.438   4.304  12.247  0.2112  0.2300  0.5699
 5012SOL     OW26671   1.902   3.740   2.819  0.0511 -0.3708 -0.1971
 5012SOL    HW126672   1.816   3.780   2.804  0.5605  1.0949  0.7853
 5012SOL    HW226673   1.921   3.786   2.901  0.9785 -0.2355 -0.4903
 5013SOL     OW26674   4.616   2.304   4.645  0.1803 -0.2390 -0.3207
 5013SOL    HW126675   4.665   2.325   4.566  0.1156 -0.2207 -0.3565
 5013SOL    HW226676   4.685   2.271   4.702  0.9143  1.3791 -0.3008
 5014SOL     OW26677   4.600   1.861  17.217  0.3933  0.1387  0.2655
 5014SOL    HW126678   4.566   1.826  17.135  0.0315  0.6273  0.1982
 5014SOL    HW226679   4.669   1.914  17.177  0.2011  0.9267  0.9739
 5015SOL     OW26680   4.581   2.396   4.995  0.0178 -0.4444 -0.4186
 5015SOL    HW126681   4.632   2.415   5.073  2.5194  1.3562 -2.5033
 5015SOL    HW226682   4.539   2.311   5.007  1.3241 -1.0100  0.1440
 5016SOL     OW26683   2.458   3.144   9.693 -0.1522 -0.7074 -0.4214
 5016SOL    HW126684   2.493   3.108   9.612  0.7695  1.7489 -1.1156
 5016SOL    HW226685   2.533   3.151   9.752 -1.1025 -1.3243  0.8823
 5017SOL     OW26686   1.469   2.778   4.587 -0.1346 -0.5766 -0.1333
 5017SOL    HW126687   1.453   2.689   4.620  1.5567 -1.2532 -1.1471
 5017SOL    HW226688   1.405   2.769   4.516 -0.8474 -1.1578  0.5853
 5018SOL     OW26689   4.525   3.596   5.249 -0.0452  0.0643 -0.1325
 5018SOL    HW126690   4.454   3.531   5.254 -1.1353  1.2522 -0.2566
 5018SOL    HW226691   4.512   3.650   5.328 -0.0821  1.8243 -1.3476
 5019SOL     OW26692   0.255   1.578  14.485 -0.4549 -0.1999  0.0840
 5019SOL    HW126693   0.216   1.641  14.425  0.7847  1.5401  1.1081
 5019SOL    HW226694   0.240   1.496  14.437 -0.3726 -0.9036  1.2533
 5020SOL     OW26695   2.025   0.970   3.578 -0.2558  0.0127 -0.2091
 5020SOL    HW126696   1.959   0.949   3.644 -0.9603 -1.7473 -1.4682
 5020SOL    HW226697   1.970   0.944   3.505  0.7454 -0.6314 -0.7361
 5021SOL     OW26698   0.224   2.085   8.499  0.3239  0.4954 -0.1103
 5021SOL    HW126699   0.200   2.143   8.427  0.0028  1.0309  0.4255
 5021SOL    HW226700   0.320   2.085   8.491  0.3701 -0.1613  0.3963
 5022SOL     OW26701   1.180   4.137   6.178 -1.0447 -0.2032  0.2817
 5022SOL    HW126702   1.133   4.103   6.102 -0.8853 -0.2539  0.2041
 5022SOL    HW226703   1.198   4.224   6.142  1.0213  0.1768  2.2498
 5023SOL     OW26704   3.419   1.075   8.700 -0.0283  0.3351  0.1407
 5023SOL    HW126705   3.494   1.091   8.758 -0.0010 -2.9922  1.0326
 5023SOL    HW226706   3.367   1.010   8.748 -0.5398 -0.7804 -1.9154
 5024SOL     OW26707   4.552   2.341   9.819  0.0695 -0.1107 -0.2817
 5024SOL    HW126708   4.552   2.247   9.839  0.9949 -0.2340 -0.8840
 5024SOL    HW226709   4.475   2.353   9.764  0.7174  3.6673 -0.3580
 5025SOL     OW26710   1.619   0.393   6.462  0.4205 -0.0869 -0.3716
 5025SOL    HW126711   1.682   0.321   6.457 -0.9013 -1.1942 -1.0411
 5025SOL    HW226712   1.678   0.468   6.469  1.1123 -0.6485 -0.2477
 5026SOL     OW26713   2.056   0.234   0.037  0.1792  0.2853  0.2966
 5026SOL    HW126714   2.084   0.285   0.113  1.2644  0.6634 -0.3520
 5026SOL    HW226715   2.085   0.289  17.714 -0.2953  0.3157  0.1359
 5027SOL     OW26716   2.023   1.934   9.498 -0.1999  0.0699  0.6549
 5027SOL    HW126717   1.945   1.897   9.457 -0.0098  0.0051  0.3480
 5027SOL    HW226718   2.003   1.896   9.583  0.9477 -2.3437 -0.1551
 5028SOL     OW26719   0.619   3.520   4.509 -0.3282  0.3043 -0.3815
 5028SOL    HW126720   0.563   3.581   4.557 -1.7014 -0.9632 -0.3614
 5028SOL    HW226721   0.553   3.453   4.492  1.7887 -2.0054  0.4744
 5029SOL     OW26722   4.256   0.619   6.364 -0.1652 -0.1285  1.2552
 5029SOL    HW126723   4.229   0.643   6.452  2.9283 -2.5638  2.8918
 5029SOL    HW226724   4.217   0.532   6.350 -3.4467  1.3408  1.2254
 5030SOL     OW26725   2.679   2.390   9.109  0.1389 -0.1505 -0.3450
 5030SOL    HW126726   2.636   2.354   9.186  0.5676  0.1427  0.0326
 5030SOL    HW226727   2.771   2.385   9.135 -0.1203 -1.1606  0.3832
 5031SOL     OW26728   2.353   0.030  16.006 -0.4728  0.0853 -0.4423
 5031SOL    HW126729   2.374   4.684  16.047 -1.4159  0.3217  0.5267
 5031SOL    HW226730   2.317   0.088  16.074 -2.6114  1.3704 -2.6552
 5032SOL     OW26731   4.696   1.882  16.931  0.8037  0.2231 -0.7058
 5032SOL    HW126732   0.037   1.860  16.982  0.0965  0.4682  0.4825
 5032SOL    HW226733   4.674   1.795  16.899  1.8786 -0.8387  1.4527
 5033SOL     OW26734   2.660   0.333   4.001 -0.3729  0.0421 -0.5456
 5033SOL    HW126735   2.736   0.372   3.957  0.3846  0.0741  0.7909
 5033SOL    HW226736   2.693   0.247   4.029 -0.6997  0.0747 -0.0583
 5034SOL     OW26737   0.996   4.521   0.550  0.6712 -0.5435  0.4790
 5034SOL    HW126738   0.927   4.535   0.486 -0.8016  1.0915  2.4344
 5034SOL    HW226739   0.956   4.465   0.616 -0.3646 -0.5917 -0.1968
 5035SOL     OW26740   0.247   4.036   8.691 -0.3204 -0.4244  0.0774
 5035SOL    HW126741   0.184   3.965   8.701  0.8193 -0.9597  3.7283
 5035SOL    HW226742   0.325   3.981   8.697 -0.5518 -0.7257  0.3256
 5036SOL     OW26743   1.431   2.453  12.637  0.0383 -0.0339  0.3914
 5036SOL    HW126744   1.418   2.382  12.573  3.0629 -1.2191  1.0891
 5036SOL    HW226745   1.517   2.490  12.615  0.3972 -0.5967  0.8620
 5037SOL     OW26746   3.730   2.515   9.340  0.2582 -0.1752 -0.1585
 5037SOL    HW126747   3.820   2.500   9.371  0.5305  0.8879 -0.4464
 5037SOL    HW226748   3.752   2.530   9.248  3.6551  0.5715  0.7778
 5038SOL     OW26749   1.573   0.065   4.903 -0.1880 -0.4218  0.2219
 5038SOL    HW126750   1.611   0.094   4.986  1.3077  0.5500 -0.8185
 5038SOL    HW226751   1.587   4.708   4.914 -0.4564 -0.3997  0.7654
 5039SOL     OW26752   2.333   0.345   8.661  0.4213  0.1265 -0.3897
 5039SOL    HW126753   2.249   0.363   8.619  2.0069  1.7587 -2.8437
 5039SOL    HW226754   2.325   0.416   8.724  0.1017 -1.9505  1.9308
 5040SOL     OW26755   0.314   0.114   7.622 -0.1321  0.0532 -0.2228
 5040SOL    HW126756   0.404   0.146   7.619  0.3778 -1.1468  2.0431
 5040SOL    HW226757   0.319   0.072   7.708  2.8286 -1.4353 -1.1287
 5041SOL     OW26758   4.467   2.217   8.911  0.3418  0.0386  0.0746
 5041SOL    HW126759   4.390   2.262   8.944 -1.2543 -2.4001 -0.3417
 5041SOL    HW226760   4.476   2.144   8.972 -0.0300  0.0965  0.1950
 5042SOL     OW26761   2.245   3.796  14.927 -0.2943  0.0192  0.4077
 5042SOL    HW126762   2.273   3.787  15.018  0.7813 -0.3364  0.0462
 5042SOL    HW226763   2.149   3.801  14.933 -0.5001 -0.2804 -2.7986
 5043SOL     OW26764   4.438   0.548   6.755  0.5642 -0.6861 -0.2167
 5043SOL    HW126765   4.425   0.589   6.840  1.8121 -0.8090  0.0295
 5043SOL    HW226766   4.347   0.543   6.725  0.2494  0.7970  0.4855
 5044SOL     OW26767   2.842   0.146  12.793  0.5251  0.1912  0.6141
 5044SOL    HW126768   2.794   0.189  12.722  1.1802  0.4162  0.3022
 5044SOL    HW226769   2.924   0.147  12.743 -0.1371  2.0537 -0.4532
 5045SOL     OW26770   0.312   0.944  12.826  0.2065 -0.0075 -0.0070
 5045SOL    HW126771   0.261   0.896  12.761  1.3875  1.5702 -2.0705
 5045SOL    HW226772   0.323   1.029  12.785 -0.2238 -0.5427 -1.2427
 5046SOL     OW26773   3.281   4.058   3.503  0.0555  0.0877  0.4243
 5046SOL    HW126774   3.352   4.119   3.524  0.6195 -0.3449 -0.2395
 5046SOL    HW226775   3.215   4.094   3.562 -0.7106  2.7156 -2.0647
 5047SOL     OW26776   3.961   4.199   2.054 -0.1235  0.4643 -0.3008
 5047SOL    HW126777   3.924   4.149   1.981  2.2837 -1.9555  0.1288
 5047SOL    HW226778   3.882   4.225   2.101  0.0700  1.1562 -0.3642
 5048SOL     OW26779   0.908   4.732   5.406  0.2935 -0.2767  0.0930
 5048SOL    HW126780   0.877   0.084   5.412 -1.9794 -0.8488 -2.6139
 5048SOL    HW226781   0.996   0.011   5.372  0.8237 -1.2589  0.9801
 5049SOL     OW26782   0.399   0.075   9.556  0.5679 -0.5218 -0.1834
 5049SOL    HW126783   0.404   4.721   9.582 -2.8053 -0.7137 -0.2443
 5049SOL    HW226784   0.306   0.081   9.536  0.4760  0.0392  0.4377
 5050SOL     OW26785   2.083   2.820   4.988  0.4298  0.0874 -0.1936
 5050SOL    HW126786   2.117   2.732   5.002  1.8824  0.1654 -3.1687
 5050SOL    HW226787   2.163   2.866   4.962 -1.0829  2.1902 -1.1179
 5051SOL     OW26788   0.813   2.297   9.320 -0.5522  0.2290  0.1344
 5051SOL    HW126789   0.853   2.210   9.320 -2.3581 -0.5959 -0.0127
 5051SOL    HW226790   0.764   2.280   9.401  0.6060 -0.6358  0.6650
 5052SOL     OW26791   3.605   2.428  10.112 -0.2234  0.2323 -0.2422
 5052SOL    HW126792   3.598   2.360  10.044  0.9565  0.6773 -0.8080
 5052SOL    HW226793   3.649   2.382  10.183 -0.6787 -2.6915 -1.8300
 5053SOL     OW26794   3.213   3.366   4.874 -0.3204 -0.9209  0.0405
 5053SOL    HW126795   3.255   3.321   4.947 -0.2706 -0.3640  0.3590
 5053SOL    HW226796   3.157   3.436   4.908  0.5019  0.2018 -0.8758
 5054SOL     OW26797   3.806   3.447   0.138 -0.4049 -0.1470 -0.2560
 5054SOL    HW126798   3.799   3.365   0.187  1.0811 -1.1474 -1.6878
 5054SOL    HW226799   3.893   3.436   0.099 -0.3535 -0.6227 -0.0040
 5055SOL     OW26800   4.493   2.406   0.427 -0.2515  0.0934  0.6815
 5055SOL    HW126801   4.566   2.441   0.478  0.3452 -1.9441  1.2202
 5055SOL    HW226802   4.523   2.439   0.342  0.3842  0.4225  1.0302
 5056SOL     OW26803   1.411   3.009  13.621 -0.2988  0.2062  0.5163
 5056SOL    HW126804   1.419   3.026  13.715  0.9953 -0.8542  0.5870
 5056SOL    HW226805   1.359   3.087  13.600  0.4411  0.7371  0.6343
 5057SOL     OW26806   3.554   2.343   6.711 -0.1040  0.3927 -0.3756
 5057SOL    HW126807   3.573   2.261   6.665  1.1323  0.1386  0.5774
 5057SOL    HW226808   3.473   2.371   6.670 -0.0219  3.1604  1.2787
 5058SOL     OW26809   4.133   0.328   9.789 -0.5538 -0.1345  0.3738
 5058SOL    HW126810   4.155   0.237   9.805 -0.8474  0.2530  2.9179
 5058SOL    HW226811   4.151   0.327   9.695 -0.3340 -1.0127  0.4263
 5059SOL     OW26812   3.465   2.335   2.287 -0.0272  0.3626 -0.3532
 5059SOL    HW126813   3.432   2.408   2.234  0.1505  0.4523 -0.3403
 5059SOL    HW226814   3.556   2.357   2.306 -0.6794  1.3632  1.5794
 5060SOL     OW26815   2.218   1.610   9.790  0.4284 -0.0396 -0.4415
 5060SOL    HW126816   2.208   1.517   9.771 -0.5936 -0.2910  1.3428
 5060SOL    HW226817   2.299   1.600   9.841  0.3396 -1.9045 -0.6771
 5061SOL     OW26818   2.443   3.679  10.517 -0.2008 -0.0452 -0.9031
 5061SOL    HW126819   2.482   3.765  10.501  1.1628 -0.7420 -1.3909
 5061SOL    HW226820   2.501   3.642  10.583 -0.9082  0.0952 -0.2085
 5062SOL     OW26821   2.821   0.234   5.811  0.1397  0.2292 -0.5400
 5062SOL    HW126822   2.915   0.225   5.798 -0.0232  0.8079 -2.1278
 5062SOL    HW226823   2.795   0.142   5.820  0.5744 -0.1683 -3.5420
 5063SOL     OW26824   1.784   1.944  16.732  0.0005 -0.2354  0.3259
 5063SOL    HW126825   1.709   1.891  16.709 -0.8250 -0.1213  2.8131
 5063SOL    HW226826   1.754   2.023  16.686  0.0516 -0.1950  0.3616
 5064SOL     OW26827   1.752   3.218   5.568 -0.0976 -0.2827 -0.2745
 5064SOL    HW126828   1.740   3.165   5.647  1.3889 -3.2150 -2.0217
 5064SOL    HW226829   1.675   3.275   5.573  0.6133  0.5507  0.9637
 5065SOL     OW26830   1.008   3.720  13.541 -0.2005  0.2154  0.0286
 5065SOL    HW126831   1.033   3.684  13.456  0.6177 -0.2434  0.4722
 5065SOL    HW226832   1.089   3.696  13.585 -0.3602 -3.5942 -1.8040
 5066SOL     OW26833   1.136   2.497   4.063  0.2091 -0.1134 -0.2849
 5066SOL    HW126834   1.139   2.562   3.992 -0.1996  2.2901  1.9182
 5066SOL    HW226835   1.223   2.458   4.061  0.3877  0.3664 -2.3446
 5067SOL     OW26836   3.319   0.289  16.397 -0.5592  0.6966  0.3035
 5067SOL    HW126837   3.320   0.334  16.312  0.9488 -0.4678 -0.3077
 5067SOL    HW226838   3.411   0.272  16.418 -0.6034  2.1124  1.5887
 5068SOL     OW26839   1.506   1.984   9.066  0.5622  0.1497 -0.5041
 5068SOL    HW126840   1.472   1.895   9.057 -2.0220  0.9438  1.3922
 5068SOL    HW226841   1.491   2.015   8.977 -0.8276  1.6807  0.2660
 5069SOL     OW26842   0.917   1.426  13.139 -0.1027 -0.3332 -0.3392
 5069SOL    HW126843   0.914   1.507  13.088 -0.1062  0.1458  0.4181
 5069SOL    HW226844   1.010   1.415  13.161 -0.5727 -2.3042  0.6785
 5070SOL     OW26845   2.171   0.818  12.128  0.1441  0.4240  0.4707
 5070SOL    HW126846   2.153   0.906  12.095  1.1758 -0.0258 -1.2507
 5070SOL    HW226847   2.139   0.772  12.051 -1.2407 -0.5986  1.6443
 5071SOL     OW26848   0.654   1.444  15.172 -0.7304  0.5016  0.6144
 5071SOL    HW126849   0.606   1.363  15.156 -1.1476  0.5727  1.5011
 5071SOL    HW226850   0.724   1.431  15.237  2.6813  0.7229 -3.0022
 5072SOL     OW26851   0.548   2.819   3.997 -0.7181  0.0996  0.3783
 5072SOL    HW126852   0.543   2.787   3.907 -2.0789 -0.6519  0.7196
 5072SOL    HW226853   0.598   2.901   3.996  1.2665 -1.1787 -4.2832
 5073SOL     OW26854   3.292   3.226   4.361  0.0656  0.4868  0.2045
 5073SOL    HW126855   3.315   3.147   4.313 -1.6784 -0.2007  0.4908
 5073SOL    HW226856   3.214   3.188   4.400  1.4356 -0.7528  1.7130
 5074SOL     OW26857   2.008   3.686  13.636 -0.2358  0.0120 -0.1765
 5074SOL    HW126858   1.957   3.756  13.677 -0.8076  0.2433 -1.2722
 5074SOL    HW226859   2.037   3.631  13.709  0.0249 -1.8198 -1.6562
 5075SOL     OW26860   0.308   1.211   9.106 -0.2220  0.1897  0.1315
 5075SOL    HW126861   0.382   1.159   9.076  0.2591  1.4672 -0.9353
 5075SOL    HW226862   0.277   1.252   9.025  1.5737  0.5104 -0.3987
 5076SOL     OW26863   4.126   3.011   3.855 -0.2986 -0.0567  0.5408
 5076SOL    HW126864   4.136   3.043   3.766  1.2363 -0.9215  0.4045
 5076SOL    HW226865   4.168   2.926   3.845 -1.3579 -1.0864  4.7356
 5077SOL     OW26866   0.838   4.612   9.742 -0.0440 -0.0079 -0.1816
 5077SOL    HW126867   0.892   4.535   9.725  0.0269  0.0651 -0.2868
 5077SOL    HW226868   0.769   4.608   9.676  0.9738  0.3393 -1.2661
 5078SOL     OW26869   3.019   1.848   7.156 -0.1003  0.2867  0.5517
 5078SOL    HW126870   3.023   1.787   7.229  0.2878  0.8434  0.9937
 5078SOL    HW226871   3.074   1.801   7.093  0.0238  0.2733  0.6701
 5079SOL     OW26872   3.986   3.670   7.378 -0.6656 -0.5571  0.0196
 5079SOL    HW126873   3.977   3.753   7.332 -0.2908  0.2653  1.4246
 5079SOL    HW226874   4.053   3.671   7.447  0.4674  0.4189 -1.1004
 5080SOL     OW26875   4.722   1.089   6.993 -0.2162  0.9774  0.7787
 5080SOL    HW126876   0.062   1.049   7.033  0.9603  0.1623 -2.3778
 5080SOL    HW226877   0.025   1.169   6.959  2.9111 -0.6606  0.6691
 5081SOL     OW26878   3.325   0.790   3.752 -0.3212 -0.1018  0.0339
 5081SOL    HW126879   3.361   0.845   3.683 -0.3035  0.5459  0.5592
 5081SOL    HW226880   3.263   0.847   3.798  1.3620  0.0949  2.0979
 5082SOL     OW26881   0.579   1.936   5.877  0.1507 -0.1345  0.2711
 5082SOL    HW126882   0.667   1.905   5.857  0.0566  0.5501 -1.2356
 5082SOL    HW226883   0.544   1.977   5.798  1.4445  2.3084  0.9509
 5083SOL     OW26884   1.359   2.207  12.017  0.3640  0.6007  0.5051
 5083SOL    HW126885   1.283   2.185  11.962  1.9727 -0.6956 -1.2163
 5083SOL    HW226886   1.432   2.161  11.975  1.1679  2.2529  0.1030
 5084SOL     OW26887   0.406   4.298   6.493  0.1782 -0.0815 -0.0474
 5084SOL    HW126888   0.402   4.376   6.438  2.3374 -0.4209 -0.6729
 5084SOL    HW226889   0.317   4.271   6.517  0.2407  0.3241  0.6388
 5085SOL     OW26890   3.365   2.337   1.974  0.3282 -0.4425  0.4859
 5085SOL    HW126891   3.321   2.280   2.037 -2.2248  2.4432  1.3470
 5085SOL    HW226892   3.449   2.292   1.980  2.8485  4.2911  0.5936
 5086SOL     OW26893   1.029   2.083   5.801  0.1564 -0.3385 -0.2898
 5086SOL    HW126894   0.962   2.022   5.831 -0.2267  0.1531 -0.1312
 5086SOL    HW226895   1.019   2.049   5.713 -1.0363 -0.4740 -0.1046
 5087SOL     OW26896   2.492   4.378   9.364  0.9272 -0.2400 -0.3755
 5087SOL    HW126897   2.586   4.389   9.378  1.2011 -0.5050 -2.0721
 5087SOL    HW226898   2.474   4.464   9.328  0.8207 -0.2255 -0.2847
 5088SOL     OW26899   2.075   3.379  10.039 -0.0009  0.3261  0.5483
 5088SOL    HW126900   2.061   3.303   9.982  0.0722 -0.4080  1.5096
 5088SOL    HW226901   2.030   3.450   9.993  1.0438  0.8913  0.4103
 5089SOL     OW26902   0.209   0.318   5.648 -0.5438 -0.8127  0.7647
 5089SOL    HW126903   0.168   0.278   5.572 -0.7736 -0.7162  0.8386
 5089SOL    HW226904   0.163   0.281   5.724  2.3834 -1.2302  2.3565
 5090SOL     OW26905   3.985   2.040   8.799 -0.3878  0.1723  0.2807
 5090SOL    HW126906   3.904   2.068   8.757 -0.2415 -0.2792 -0.3100
 5090SOL    HW226907   3.987   1.945   8.783  0.1219  0.2543 -0.1403
 5091SOL     OW26908   1.738   2.708   3.590 -0.5931  0.0439  0.4313
 5091SOL    HW126909   1.772   2.623   3.618  0.5732 -0.3231 -2.0372
 5091SOL    HW226910   1.645   2.685   3.588  0.1239 -2.8302  0.0846
 5092SOL     OW26911   1.713   1.538  12.404 -0.1778 -0.1038  0.5470
 5092SOL    HW126912   1.688   1.508  12.491 -0.9388  0.3250  0.4771
 5092SOL    HW226913   1.807   1.523  12.412  0.7820  4.7378 -1.9266
 5093SOL     OW26914   1.007   0.051   1.328  0.6257  0.5950  0.0283
 5093SOL    HW126915   0.921   0.012   1.312  1.3677 -0.0150 -2.3961
 5093SOL    HW226916   1.026   0.076   1.238 -0.3000 -0.4122 -0.4459
 5094SOL     OW26917   1.675   3.511   4.163  0.1203 -0.1136  0.2521
 5094SOL    HW126918   1.656   3.421   4.134 -0.5833 -0.3724  1.5204
 5094SOL    HW226919   1.629   3.516   4.247 -1.0343 -2.1884 -0.2404
 5095SOL     OW26920   2.926   4.377   4.231  0.0391  0.5172  0.4205
 5095SOL    HW126921   2.849   4.329   4.201 -1.1656  1.9545  1.2263
 5095SOL    HW226922   2.904   4.381   4.324 -0.2245  0.4263  0.3624
 5096SOL     OW26923   4.181   0.446   6.626  0.1528 -0.0662 -0.5076
 5096SOL    HW126924   4.134   0.504   6.686  2.1192 -0.5942  1.5898
 5096SOL    HW226925   4.116   0.386   6.589  1.1824 -1.9127  0.6498
 5097SOL     OW26926   2.680   3.280  11.664 -0.5219  0.2675  0.0357
 5097SOL    HW126927   2.627   3.336  11.720 -0.5383  0.6164 -0.3345
 5097SOL    HW226928   2.678   3.317  11.576 -2.6770 -1.0282 -0.4702
 5098SOL     OW26929   0.304   1.806  15.098  0.0717  0.2910  0.1069
 5098SOL    HW126930   0.343   1.726  15.066 -0.6997  0.3865 -1.0952
 5098SOL    HW226931   0.292   1.860  15.020  0.1269  1.6598  1.0390
 5099SOL     OW26932   3.941   1.714   0.897  0.1321  0.6843  0.1331
 5099SOL    HW126933   3.939   1.639   0.957  0.7168  0.4372 -0.1574
 5099SOL    HW226934   3.878   1.774   0.937  2.5189  2.9047  0.4964
 5100SOL     OW26935   2.997   1.231   6.182 -0.0844 -0.3244  0.0965
 5100SOL    HW126936   2.971   1.140   6.195 -2.4812  0.5332  1.2410
 5100SOL    HW226937   2.922   1.276   6.221 -0.2151 -1.6030  1.3288
 5101SOL     OW26938   2.124   1.741  10.668 -0.4826 -0.3954 -0.0605
 5101SOL    HW126939   2.170   1.662  10.697 -0.4438 -0.6235 -0.7417
 5101SOL    HW226940   2.074   1.763  10.746  1.4552 -1.0226  1.3507
 5102SOL     OW26941   2.562   0.733   9.271  0.2660 -0.0977  0.0332
 5102SOL    HW126942   2.622   0.804   9.249 -0.2677  1.2632  2.8916
 5102SOL    HW226943   2.498   0.754   9.203  0.5429 -0.9667 -0.5010
 5103SOL     OW26944   2.921   0.011   8.931 -0.0785 -0.9365  0.0689
 5103SOL    HW126945   3.003   4.710   8.899  0.4041 -1.3399  1.7621
 5103SOL    HW226946   2.855   4.709   8.874 -1.4465  0.2870  0.8079
 5104SOL     OW26947   0.732   1.381   4.949  0.1022 -0.2963  0.2704
 5104SOL    HW126948   0.813   1.331   4.954 -0.2572 -0.8529  0.5408
 5104SOL    HW226949   0.666   1.324   4.988  1.7239 -1.7875  0.8462
 5105SOL     OW26950   1.424   2.036  15.265 -0.7548  0.1637 -0.4469
 5105SOL    HW126951   1.518   2.042  15.283 -0.6111  0.3260 -1.2421
 5105SOL    HW226952   1.414   1.944  15.242  0.2029 -0.1019  0.1994
 5106SOL     OW26953   1.933   0.717  10.827 -0.1624 -0.0822 -0.0907
 5106SOL    HW126954   1.930   0.663  10.748  1.8792  0.5438 -0.5837
 5106SOL    HW226955   1.858   0.677  10.873 -0.0868 -0.5157 -0.3409
 5107SOL     OW26956   1.030   3.280  13.803 -0.7769  0.4434  0.5734
 5107SOL    HW126957   1.062   3.341  13.869 -2.6249  1.8038  0.2065
 5107SOL    HW226958   0.955   3.324  13.764 -0.8858  0.0667  0.3522
 5108SOL     OW26959   4.317   1.372  16.636  0.0124  0.2172 -0.2081
 5108SOL    HW126960   4.323   1.455  16.684 -2.4277  0.4926 -0.3772
 5108SOL    HW226961   4.233   1.381  16.592 -1.2048 -0.5923  1.9593
 5109SOL     OW26962   4.320   3.061  15.900  0.2146  0.0926 -0.3016
 5109SOL    HW126963   4.243   3.093  15.946  1.6733  0.6920  1.7281
 5109SOL    HW226964   4.345   3.135  15.846  0.6901 -0.1378 -0.3958
 5110SOL     OW26965   1.409   3.868   9.655  0.6830 -0.1381  0.4103
 5110SOL    HW126966   1.483   3.807   9.653  0.6992 -0.1379  0.9223
 5110SOL    HW226967   1.333   3.811   9.656  0.6147 -0.0521 -0.2130
 5111SOL     OW26968   3.032   1.730   5.200  0.2118  0.7799 -0.0487
 5111SOL    HW126969   3.002   1.660   5.143 -1.0770  1.3274 -0.0394
 5111SOL    HW226970   2.962   1.795   5.202 -0.1470  0.4441 -1.3056
 5112SOL     OW26971   3.518   3.482  16.232 -0.0403 -0.0413  0.1541
 5112SOL    HW126972   3.573   3.495  16.309  0.2932 -0.0256 -0.0833
 5112SOL    HW226973   3.524   3.566  16.187  1.6772 -0.9020 -1.2134
 5113SOL     OW26974   3.430   4.409   2.190  0.1304 -0.0052 -0.2082
 5113SOL    HW126975   3.460   4.495   2.219  2.3271 -0.4293 -1.2190
 5113SOL    HW226976   3.419   4.357   2.269 -1.3335 -0.1848 -0.5292
 5114SOL     OW26977   4.535   1.943   0.247  0.8646 -0.0413  0.5076
 5114SOL    HW126978   4.596   1.999   0.199 -1.5465  1.4276 -0.8376
 5114SOL    HW226979   4.460   2.002   0.247  0.4209 -0.6024  0.8458
 5115SOL     OW26980   3.449   2.521  12.994 -0.4489  0.5523  0.1090
 5115SOL    HW126981   3.371   2.568  12.962 -0.0243  1.8023  0.9079
 5115SOL    HW226982   3.412   2.472  13.068 -1.1056  1.2084  0.2207
 5116SOL     OW26983   4.544   2.338  11.866 -0.4059 -0.1593 -0.1517
 5116SOL    HW126984   4.576   2.292  11.944 -0.1981 -0.0804 -0.1909
 5116SOL    HW226985   4.588   2.303  11.788 -1.5117 -1.3138 -0.2620
 5117SOL     OW26986   3.532   4.201   6.202 -0.4618 -0.0495 -0.0485
 5117SOL    HW126987   3.603   4.196   6.266 -0.2498 -0.4904 -0.3148
 5117SOL    HW226988   3.519   4.108   6.181  0.1202 -0.0842 -0.2407
 5118SOL     OW26989   3.385   4.706   1.411  0.0076  0.0708 -0.9845
 5118SOL    HW126990   3.393   4.613   1.435  1.2379  0.5975  0.6377
 5118SOL    HW226991   3.333   0.004   1.483  0.0977 -1.0794 -0.3452
 5119SOL     OW26992   4.066   2.219   3.651  0.6317 -0.1816 -0.0621
 5119SOL    HW126993   4.071   2.176   3.736 -1.4443  0.0276  0.1515
 5119SOL    HW226994   4.078   2.313   3.659 -3.2502  0.0350  2.7880
 5120SOL     OW26995   0.727   4.306   6.320 -0.2457  0.3268 -0.0147
 5120SOL    HW126996   0.818   4.277   6.319  0.1130  1.3718  0.8905
 5120SOL    HW226997   0.684   4.228   6.354 -2.6151  1.5144 -0.2886
 5121SOL     OW26998   0.534   1.662   3.243  0.1157  0.5922  0.4358
 5121SOL    HW126999   0.478   1.585   3.252  1.4026 -0.3598  0.3542
 5121SOL    HW227000   0.514   1.678   3.150 -0.4745  0.2698  0.5052
 5122SOL     OW27001   1.277   3.772   8.593  0.0901 -0.2193  0.1746
 5122SOL    HW127002   1.360   3.728   8.579  0.3730 -0.2732  1.9866
 5122SOL    HW227003   1.305   3.821   8.671 -0.8079 -1.3476  1.1975
 5123SOL     OW27004   3.030   1.064   6.748  0.0695 -0.1661 -0.2741
 5123SOL    HW127005   3.072   1.036   6.666  2.0052  0.0992  0.6522
 5123SOL    HW227006   3.092   1.125   6.787  0.0933  0.1781 -0.8429
 5124SOL     OW27007   2.359   2.595   8.648  0.1916  0.2793 -0.6815
 5124SOL    HW127008   2.447   2.632   8.638 -0.1525  0.6215 -2.5809
 5124SOL    HW227009   2.382   2.505   8.674  0.5528  0.6540  0.2828
 5125SOL     OW27010   0.122   4.308   5.571  1.0184  0.0529 -0.6937
 5125SOL    HW127011   0.164   4.246   5.631  1.6528 -0.1209 -1.3203
 5125SOL    HW227012   0.129   4.258   5.490 -0.4297 -0.0904 -0.7382
 5126SOL     OW27013   0.280   0.405   7.916 -0.0505 -0.0591 -0.2151
 5126SOL    HW127014   0.249   0.341   7.980 -1.5961 -0.7407 -1.6610
 5126SOL    HW227015   0.205   0.400   7.856 -0.3156  1.2283  0.0033
 5127SOL     OW27016   1.929   2.040   0.009 -0.5100  0.2052  0.1036
 5127SOL    HW127017   1.925   1.955   0.053  0.0506 -0.2524 -0.7377
 5127SOL    HW227018   1.835   2.061   0.013 -0.9215 -1.7698  0.9845
 5128SOL     OW27019   2.494   0.387   4.329 -0.3330 -0.1793 -0.2334
 5128SOL    HW127020   2.543   0.469   4.326 -1.9801  0.8404  0.5540
 5128SOL    HW227021   2.424   0.400   4.265  0.6381 -0.4598 -1.3334
 5129SOL     OW27022   1.664   0.943   8.238  0.4999  0.1193 -0.1467
 5129SOL    HW127023   1.689   0.859   8.276  1.0202  0.5751  0.5296
 5129SOL    HW227024   1.573   0.944   8.209  0.5339 -2.4894 -0.3643
 5130SOL     OW27025   4.123   3.989   6.752  0.0661 -0.3559 -0.1632
 5130SOL    HW127026   4.152   3.949   6.834  2.5566 -2.2428 -2.0126
 5130SOL    HW227027   4.203   4.019   6.709  0.5430  0.7904  1.5351
 5131SOL     OW27028   2.297   1.256  16.629 -0.4554 -0.4685  0.2930
 5131SOL    HW127029   2.258   1.253  16.542  0.8637  2.1220 -0.3783
 5131SOL    HW227030   2.300   1.349  16.648  0.5490 -0.4938  0.2639
 5132SOL     OW27031   0.906   0.271   6.687  0.0808 -0.2030  0.5961
 5132SOL    HW127032   0.820   0.254   6.649  0.5926 -0.1688 -0.5798
 5132SOL    HW227033   0.908   0.366   6.684 -0.2550 -0.2280 -0.2635
 5133SOL     OW27034   0.801   1.477   8.789  0.1133 -0.0623 -0.1877
 5133SOL    HW127035   0.722   1.532   8.785  1.2589  1.5513 -0.5062
 5133SOL    HW227036   0.875   1.537   8.793 -0.4827  0.6432  0.4186
 5134SOL     OW27037   3.987   2.443   9.413 -0.1750 -0.5150 -0.3105
 5134SOL    HW127038   3.959   2.516   9.468  0.5487  0.3246 -1.0508
 5134SOL    HW227039   4.081   2.452   9.433 -0.2246  0.1968 -0.3967
 5135SOL     OW27040   1.683   2.748  15.882  0.3143 -0.2900 -0.2248
 5135SOL    HW127041   1.683   2.831  15.834 -0.4913 -1.9717 -3.1153
 5135SOL    HW227042   1.596   2.712  15.868  0.7892 -1.0499 -1.2168
 5136SOL     OW27043   3.292   1.730   5.279  0.4165  0.1148 -0.1971
 5136SOL    HW127044   3.315   1.822   5.290  1.1721  0.0844 -1.4754
 5136SOL    HW227045   3.202   1.740   5.248 -0.8549 -0.7708  3.1783
 5137SOL     OW27046   4.651   0.578  13.317  0.0129 -0.2044  0.1000
 5137SOL    HW127047   4.650   0.619  13.403 -0.8992  2.4253 -1.1745
 5137SOL    HW227048   4.736   0.613  13.289 -1.0848  0.8621 -1.9653
 5138SOL     OW27049   1.540   2.813  17.195  0.4622  0.6288  0.1599
 5138SOL    HW127050   1.497   2.860  17.267  1.7542  1.0542  0.6642
 5138SOL    HW227051   1.505   2.724  17.207  1.7087  0.1996  0.6324
 5139SOL     OW27052   0.805   1.587   6.033 -0.6060 -0.1445  0.2064
 5139SOL    HW127053   0.839   1.674   6.056  1.1006 -1.0633  1.1269
 5139SOL    HW227054   0.733   1.559   6.090 -0.7697  0.0024  0.0753
 5140SOL     OW27055   2.533   3.931   5.248 -0.0060 -0.1149 -0.2019
 5140SOL    HW127056   2.505   3.872   5.179 -4.2332  2.5185 -0.7795
 5140SOL    HW227057   2.518   3.873   5.323  1.3389 -0.0009  0.1560
 5141SOL     OW27058   2.207   1.868  11.378  0.3387  0.5671  0.2126
 5141SOL    HW127059   2.288   1.851  11.329 -1.2967  0.6146 -2.5231
 5141SOL    HW227060   2.228   1.961  11.389 -0.1430  0.5796  1.0144
 5142SOL     OW27061   4.181   2.039  10.716  0.0141 -0.5149  0.1370
 5142SOL    HW127062   4.159   2.073  10.802  0.1069  0.8528 -0.3750
 5142SOL    HW227063   4.149   2.109  10.659  0.8184 -0.5643 -0.3736
 5143SOL     OW27064   3.701   1.995  10.025  0.2449 -0.5824 -0.1096
 5143SOL    HW127065   3.768   2.063  10.032 -0.2978 -0.3536  2.8032
 5143SOL    HW227066   3.724   1.961   9.938  0.8152  0.3540 -0.3244
 5144SOL     OW27067   0.799   0.518   4.439  0.2299  0.3858  0.6627
 5144SOL    HW127068   0.843   0.435   4.457  1.0602  1.0358  1.6348
 5144SOL    HW227069   0.739   0.491   4.369 -3.1775  0.9991  3.3853
 5145SOL     OW27070   3.392   0.474  16.143 -0.8180 -0.6175 -0.4629
 5145SOL    HW127071   3.359   0.397  16.097 -0.9730 -1.3002  0.8184
 5145SOL    HW227072   3.439   0.506  16.065  0.5891 -0.9059  0.2589
 5146SOL     OW27073   3.569   2.480   3.875  0.3163  0.3199  0.2829
 5146SOL    HW127074   3.648   2.531   3.863  0.7878 -0.1775  1.2408
 5146SOL    HW227075   3.615   2.403   3.909  0.1962  0.5242  0.9007
 5147SOL     OW27076   1.416   0.686  10.389  0.3778  0.0549  0.1913
 5147SOL    HW127077   1.429   0.697  10.294  1.1993  3.7189  0.7254
 5147SOL    HW227078   1.323   0.663  10.391 -0.3490  3.2650  2.7493
 5148SOL     OW27079   0.382   4.554   9.644 -0.1112 -0.0591  0.3654
 5148SOL    HW127080   0.318   4.483   9.642 -1.3782  1.0540  0.9198
 5148SOL    HW227081   0.397   4.562   9.739  2.2447 -1.1892  0.0907
 5149SOL     OW27082   3.553   2.353   7.423 -0.0076 -0.6822 -0.2298
 5149SOL    HW127083   3.503   2.385   7.349 -0.1348 -2.0023 -0.7079
 5149SOL    HW227084   3.606   2.429   7.449  0.3317 -1.3071  0.9094
 5150SOL     OW27085   2.999   4.545  13.750 -0.2213 -0.1241  0.3950
 5150SOL    HW127086   3.001   4.487  13.826 -0.1778 -2.3203 -1.2862
 5150SOL    HW227087   3.065   4.511  13.690 -0.2812  0.3858  0.0421
 5151SOL     OW27088   2.596   2.797   2.525 -0.3533  0.3461  0.0360
 5151SOL    HW127089   2.561   2.864   2.466 -0.3988  1.0299  0.8295
 5151SOL    HW227090   2.690   2.794   2.506 -0.4847 -2.8533 -0.0909
 5152SOL     OW27091   0.858   1.368  14.892  0.2414  0.1150 -0.2325
 5152SOL    HW127092   0.880   1.281  14.859  0.0777  0.4992 -1.3518
 5152SOL    HW227093   0.914   1.366  14.970  1.1817  1.3320 -0.8817
 5153SOL     OW27094   0.871   0.662  14.928 -0.5392  0.0472 -0.2793
 5153SOL    HW127095   0.873   0.572  14.894 -0.3589  1.4096 -3.8810
 5153SOL    HW227096   0.788   0.653  14.973 -1.0208 -0.3466 -1.2448
 5154SOL     OW27097   2.685   4.063   6.668 -0.1072 -0.5028  0.0011
 5154SOL    HW127098   2.596   4.037   6.692  0.4149 -2.0427  0.2856
 5154SOL    HW227099   2.739   4.014   6.731 -0.1929 -0.5339  0.0510
 5155SOL     OW27100   3.650   1.535  14.425  0.1721  0.5534  0.2713
 5155SOL    HW127101   3.698   1.464  14.468 -0.8681 -0.5192 -0.3566
 5155SOL    HW227102   3.610   1.573  14.503 -0.4369  3.7640 -1.6128
 5156SOL     OW27103   1.668   1.442   3.051 -0.3478  0.6108  0.5157
 5156SOL    HW127104   1.685   1.399   3.135 -1.0293 -1.1586 -0.2327
 5156SOL    HW227105   1.731   1.394   2.998  0.5555 -0.3314  2.4650
 5157SOL     OW27106   1.958   1.782   5.696 -0.1749  0.4319 -0.1098
 5157SOL    HW127107   1.876   1.798   5.743  1.0811  2.0561  1.5394
 5157SOL    HW227108   1.947   1.818   5.608 -1.2096 -0.8610 -0.5014
 5158SOL     OW27109   0.715   0.453   4.700  0.3978  0.6678  0.1244
 5158SOL    HW127110   0.708   0.496   4.615  1.6562 -0.3682 -0.5025
 5158SOL    HW227111   0.804   0.418   4.702  0.8808  1.9129  1.1907
 5159SOL     OW27112   0.300   1.788   6.210 -0.1023 -0.0433 -0.2176
 5159SOL    HW127113   0.256   1.858   6.162  1.7814 -0.6329 -2.7860
 5159SOL    HW227114   0.296   1.812   6.303  3.9266  0.0976 -0.0716
 5160SOL     OW27115   0.703   1.567   2.506 -0.4944 -0.6699 -0.1317
 5160SOL    HW127116   0.690   1.652   2.547 -1.9180  0.1152 -2.2392
 5160SOL    HW227117   0.794   1.544   2.528 -0.2037  0.4162 -0.2273
 5161SOL     OW27118   2.053   2.184   7.961  0.0263  0.2091 -0.0859
 5161SOL    HW127119   1.973   2.141   7.932  0.7786 -0.4756 -1.1453
 5161SOL    HW227120   2.091   2.109   8.006 -1.0619 -0.3107 -0.0415
 5162SOL     OW27121   3.046   3.852   1.645  0.5184  0.4723  0.4696
 5162SOL    HW127122   3.091   3.891   1.721  1.0307  1.6385 -0.4230
 5162SOL    HW227123   3.032   3.926   1.587  0.4563  0.2021  0.1432
 5163SOL     OW27124   1.370   4.595   3.344 -0.1294 -0.2360 -0.1695
 5163SOL    HW127125   1.303   4.529   3.359 -0.1543 -0.1199  0.2281
 5163SOL    HW227126   1.317   4.665   3.307 -0.3444  1.8915  4.1695
 5164SOL     OW27127   1.054   0.250   7.726  0.2975 -0.2053 -0.4931
 5164SOL    HW127128   1.145   0.259   7.699 -0.2403 -0.3997 -2.3073
 5164SOL    HW227129   1.068   0.199   7.806  0.3851  2.5739  1.2956
 5165SOL     OW27130   2.118   1.878  16.435 -0.4477  0.6198  0.6141
 5165SOL    HW127131   2.161   1.911  16.356  1.5880 -2.2566  0.4988
 5165SOL    HW227132   2.149   1.945  16.495  1.0747 -0.4826  1.0709
 5166SOL     OW27133   0.821   3.535   3.365  0.7255  0.2591  0.1393
 5166SOL    HW127134   0.884   3.472   3.398  0.2753 -0.1931  0.1284
 5166SOL    HW227135   0.785   3.566   3.448  0.0477  1.0734 -0.4502
 5167SOL     OW27136   4.656   2.000   8.318  0.0631  0.4794  0.2777
 5167SOL    HW127137   4.591   2.070   8.312 -0.6289 -0.2018 -0.1488
 5167SOL    HW227138   4.614   1.931   8.369 -0.4241 -0.1235 -0.9453
 5168SOL     OW27139   2.115   1.893   3.978 -0.3481  0.1810 -0.8705
 5168SOL    HW127140   2.176   1.857   4.043 -0.6412  1.7749  0.2762
 5168SOL    HW227141   2.029   1.867   4.011 -0.0925 -1.1710 -1.2873
 5169SOL     OW27142   2.590   1.373   9.505 -0.5618 -0.3362  0.3157
 5169SOL    HW127143   2.606   1.324   9.425  0.1645 -4.4932  3.0415
 5169SOL    HW227144   2.548   1.303   9.555 -0.4382 -1.6380 -1.4266
 5170SOL     OW27145   3.060   4.191   4.084 -0.1861  0.0783  0.5745
 5170SOL    HW127146   3.039   4.258   4.150  2.0977 -0.9656  2.3208
 5170SOL    HW227147   3.024   4.118   4.133  3.4675 -1.4179  0.9634
 5171SOL     OW27148   4.404   3.231  12.292 -0.8153 -0.7121  0.1166
 5171SOL    HW127149   4.347   3.210  12.217  1.6580  0.2184 -2.0220
 5171SOL    HW227150   4.464   3.158  12.303 -0.6177 -0.5724 -0.0325
 5172SOL     OW27151   1.177   4.535   9.951 -0.6044  0.1105  0.1530
 5172SOL    HW127152   1.247   4.576   9.900  0.9717 -0.9544  1.4476
 5172SOL    HW227153   1.225   4.453   9.966 -0.9376 -0.3719 -1.3496
 5173SOL     OW27154   4.230   1.676   6.051  0.0397 -0.7281  0.4738
 5173SOL    HW127155   4.277   1.599   6.019 -1.3785 -2.4828  2.6681
 5173SOL    HW227156   4.173   1.698   5.978  0.1199  0.2938  0.7177
 5174SOL     OW27157   4.415   1.648   7.227  0.2629 -0.0373 -0.5638
 5174SOL    HW127158   4.460   1.571   7.261  1.0941  0.4841 -0.5049
 5174SOL    HW227159   4.383   1.609   7.145 -0.7301 -1.4095  0.4694
 5175SOL     OW27160   4.343   3.224   7.740 -0.2305  0.0768  0.3652
 5175SOL    HW127161   4.307   3.309   7.765 -0.0421 -0.3990  2.2934
 5175SOL    HW227162   4.316   3.217   7.649  1.0310 -0.4330  0.0378
 5176SOL     OW27163   1.695   2.022   4.050 -0.2626  0.1481  0.1694
 5176SOL    HW127164   1.610   2.053   4.019  0.0945 -0.4135 -1.3766
 5176SOL    HW227165   1.695   2.065   4.135  0.5351 -1.5371  1.0235
 5177SOL     OW27166   0.605   0.600  12.239 -0.0849  0.3150  0.1726
 5177SOL    HW127167   0.625   0.530  12.177 -2.6588 -0.6051  0.3470
 5177SOL    HW227168   0.685   0.613  12.289  0.8064 -0.3296 -1.0891
 5178SOL     OW27169   3.858   4.070  13.640 -0.1713 -0.1476  0.3080
 5178SOL    HW127170   3.824   3.991  13.598 -1.4906  0.0346  1.0281
 5178SOL    HW227171   3.947   4.057  13.609 -0.3108 -0.8997  0.2200
 5179SOL     OW27172   3.487   1.459   8.466 -0.7487  0.2355 -0.4711
 5179SOL    HW127173   3.424   1.479   8.397 -2.0485 -1.1117  0.3257
 5179SOL    HW227174   3.487   1.363   8.465 -0.1577  0.2743 -3.9666
 5180SOL     OW27175   4.340   2.253   5.274  0.2930 -0.1885  0.0680
 5180SOL    HW127176   4.399   2.227   5.204 -0.7602  1.6596 -1.5260
 5180SOL    HW227177   4.262   2.214   5.234  0.1440 -0.6232  0.7876
 5181SOL     OW27178   3.014   3.284   4.004 -0.0292  0.4589 -0.2480
 5181SOL    HW127179   3.092   3.310   3.955 -0.4879 -1.7836 -2.1947
 5181SOL    HW227180   3.017   3.189   3.996  0.6516  0.3961  0.8837
 5182SOL     OW27181   0.162   2.659   2.002 -0.5221 -0.0952 -0.0325
 5182SOL    HW127182   0.135   2.584   1.950 -0.4954 -1.1877  1.5472
 5182SOL    HW227183   0.251   2.639   2.033 -0.0574  0.1052 -1.2466
 5183SOL     OW27184   1.217   1.471   6.518  0.3522  0.4386  0.2086
 5183SOL    HW127185   1.183   1.412   6.450 -0.1021 -0.2036  0.9918
 5183SOL    HW227186   1.143   1.532   6.517  0.0209  0.0159 -1.1432
 5184SOL     OW27187   3.461   4.654  13.090  0.1527 -0.0776 -0.1379
 5184SOL    HW127188   3.390   4.636  13.028 -1.4765  1.2617  1.3210
 5184SOL    HW227189   3.522   4.706  13.038  0.6824 -0.7181 -0.1517
 5185SOL     OW27190   1.806   3.034   6.582 -0.2963  0.3021 -0.6410
 5185SOL    HW127191   1.893   3.046   6.619  0.4327  0.7749 -2.4914
 5185SOL    HW227192   1.815   3.078   6.498  0.3944  1.5302  0.0775
 5186SOL     OW27193   1.032   2.478  12.197 -0.0232  0.6110  0.3358
 5186SOL    HW127194   0.944   2.515  12.206 -0.0277  0.2756  1.7272
 5186SOL    HW227195   1.034   2.421  12.274  1.5904 -0.3462 -0.4181
 5187SOL     OW27196   2.053   1.117  13.048 -0.1358  0.5887 -0.3909
 5187SOL    HW127197   2.050   1.077  12.960  0.2266  0.6887 -0.4484
 5187SOL    HW227198   2.131   1.171  13.032 -0.5812  1.3000 -0.1451
 5188SOL     OW27199   2.262   0.382   8.057  0.2627 -0.0551 -0.2890
 5188SOL    HW127200   2.302   0.436   7.988  2.2823 -1.1301  0.0460
 5188SOL    HW227201   2.326   0.311   8.064  0.2767 -0.0754 -0.6213
 5189SOL     OW27202   1.641   2.351   3.398 -0.2506 -0.3435  0.3060
 5189SOL    HW127203   1.662   2.272   3.448 -0.2128 -0.3205  0.3264
 5189SOL    HW227204   1.653   2.328   3.306  2.4577  3.9521 -0.4279
 5190SOL     OW27205   0.769   3.256  16.877 -0.4396 -0.0958 -0.3084
 5190SOL    HW127206   0.835   3.324  16.895 -1.8619  0.9321  0.9707
 5190SOL    HW227207   0.690   3.281  16.924 -0.0143 -0.6504  0.6872
 5191SOL     OW27208   4.086   2.776   0.120 -0.4916 -0.0465  0.0629
 5191SOL    HW127209   4.116   2.827   0.045 -0.6313  1.0780  0.7693
 5191SOL    HW227210   3.993   2.782   0.098 -0.8618 -0.2618  1.5787
 5192SOL     OW27211   0.561   1.667   6.942 -0.2912 -0.1067  0.1943
 5192SOL    HW127212   0.570   1.727   6.868 -1.5859 -1.8746 -1.4057
 5192SOL    HW227213   0.486   1.619   6.906  0.1695  0.0610 -0.9903
 5193SOL     OW27214   3.797   1.341   4.058 -0.0801 -0.0451  0.2130
 5193SOL    HW127215   3.887   1.317   4.034  0.3338 -0.4716  2.1203
 5193SOL    HW227216   3.819   1.420   4.109 -0.4855  0.6279 -0.6655
 5194SOL     OW27217   1.699   1.248   7.274 -0.4609  0.1760 -0.2181
 5194SOL    HW127218   1.748   1.168   7.291  1.4860  1.0852 -1.6317
 5194SOL    HW227219   1.654   1.225   7.192  1.7887  1.2766 -1.7702
 5195SOL     OW27220   3.307   2.895   9.456 -0.0137  0.0168 -0.2744
 5195SOL    HW127221   3.395   2.868   9.430  0.4184 -0.1541  1.3437
 5195SOL    HW227222   3.262   2.811   9.462 -2.5494  1.4368  0.4002
 5196SOL     OW27223   4.671   1.051   0.793 -0.0691  0.2711  0.3038
 5196SOL    HW127224   4.679   1.146   0.801 -1.4254  0.4171 -0.2337
 5196SOL    HW227225   4.677   1.030   0.886 -1.7484 -2.7721 -0.2662
 5197SOL     OW27226   3.153   1.106   5.896 -0.1308  0.1588  0.0190
 5197SOL    HW127227   3.104   1.184   5.871  1.6110  1.2421 -0.0113
 5197SOL    HW227228   3.093   1.054   5.949 -0.1821  0.1395 -0.0584
 5198SOL     OW27229   3.784   0.539   0.962  0.0920  0.0662 -0.3895
 5198SOL    HW127230   3.745   0.611   0.913  0.2217  0.6807  0.4156
 5198SOL    HW227231   3.706   0.486   0.976  1.5415 -1.9495  0.1968
 5199SOL     OW27232   0.520   3.505   8.600 -0.0137 -0.1802  0.0542
 5199SOL    HW127233   0.598   3.536   8.646  1.3567 -0.6917 -1.9426
 5199SOL    HW227234   0.473   3.467   8.674  0.2644  2.5583  1.6387
 5200SOL     OW27235   1.444   4.603   9.924  0.1945 -0.2846 -0.0293
 5200SOL    HW127236   1.454   4.685   9.876  0.1685  1.7252  3.4070
 5200SOL    HW227237   1.446   4.639  10.013  3.1939  0.7216 -0.4909
 5201SOL     OW27238   1.925   3.610  15.211 -0.2912 -0.2530 -0.2566
 5201SOL    HW127239   1.883   3.552  15.275  0.5856  0.5372  1.0378
 5201SOL    HW227240   1.856   3.667  15.180  1.6232  2.8628  1.2418
 5202SOL     OW27241   2.933   0.625   7.617  0.0709 -0.1347  0.5310
 5202SOL    HW127242   2.911   0.540   7.579 -0.5759 -0.0250  0.6579
 5202SOL    HW227243   2.945   0.682   7.541 -0.8638 -0.3133  0.2480
 5203SOL     OW27244   2.577   3.852  11.584  0.0518  0.2605 -0.6937
 5203SOL    HW127245   2.567   3.912  11.658 -0.3094 -0.6096 -0.0375
 5203SOL    HW227246   2.665   3.815  11.593 -0.9367 -1.3978  1.8794
 5204SOL     OW27247   0.338   4.580   4.389  0.1706 -0.1817 -0.2826
 5204SOL    HW127248   0.403   4.600   4.456 -2.0187  0.3761  1.6954
 5204SOL    HW227249   0.303   4.668   4.371 -2.6268 -1.3576 -0.5683
 5205SOL     OW27250   0.970   1.943   1.064 -0.4262  0.1782 -0.1250
 5205SOL    HW127251   0.909   1.986   1.005  2.3733  2.0221 -1.6729
 5205SOL    HW227252   0.959   1.849   1.049 -0.0585  0.5399 -2.6406
 5206SOL     OW27253   2.242   3.028   2.079 -0.3774  0.1926  0.5328
 5206SOL    HW127254   2.273   3.118   2.087 -1.3170  0.5621  0.0111
 5206SOL    HW227255   2.241   3.011   1.985  2.2958 -3.7870  1.2276
 5207SOL     OW27256   2.154   2.835   8.821  0.2655 -0.1256  0.1856
 5207SOL    HW127257   2.071   2.812   8.865  0.6539 -1.0664  0.4293
 5207SOL    HW227258   2.202   2.753   8.821  1.3522  0.5111  1.3618
 5208SOL     OW27259   0.818   3.191   6.892  0.0145 -0.1096  0.0774
 5208SOL    HW127260   0.840   3.136   6.817  0.1845 -0.1458  0.1544
 5208SOL    HW227261   0.752   3.138   6.935 -1.0393  1.1836  0.0749
 5209SOL     OW27262   0.792   4.554   4.391  0.7554  0.5906 -0.1298
 5209SOL    HW127263   0.851   4.617   4.349  0.2845  0.9864 -0.1963
 5209SOL    HW227264   0.837   4.522   4.469  0.2745 -1.3841 -0.6772
 5210SOL     OW27265   3.415   0.426  17.167 -0.2140 -0.5802  0.6191
 5210SOL    HW127266   3.471   0.368  17.218 -1.1665 -0.7868  1.4271
 5210SOL    HW227267   3.431   0.380  17.084  1.2056  2.6022 -0.8903
 5211SOL     OW27268   0.536   2.168  15.263 -0.0363 -0.4744  0.0055
 5211SOL    HW127269   0.531   2.147  15.170  1.1191 -1.4294  0.1589
 5211SOL    HW227270   0.625   2.141  15.284 -0.0864 -0.2513  0.4990
 5212SOL     OW27271   4.177   1.701  17.545  0.2829 -0.5188 -0.3456
 5212SOL    HW127272   4.105   1.764  17.537 -0.5119 -1.7772 -3.0217
 5212SOL    HW227273   4.126   1.650  17.608 -0.9408  1.1816  0.0618
 5213SOL     OW27274   2.084   1.063  12.787  0.5185  0.1502 -0.3694
 5213SOL    HW127275   2.083   0.968  12.776  0.9025 -0.0343  1.2799
 5213SOL    HW227276   2.160   1.079  12.731 -0.0499 -2.9616 -2.0808
 5214SOL     OW27277   2.440   0.869   3.764  0.1513  0.0579  0.5353
 5214SOL    HW127278   2.375   0.807   3.732  1.7201 -1.9684  1.2676
 5214SOL    HW227279   2.391   0.945   3.731  1.2168  0.1876 -0.7808
 5215SOL     OW27280   4.520   0.269   6.808  0.1345  0.1507  0.6281
 5215SOL    HW127281   4.492   0.360   6.798 -1.0073 -0.0773  1.7243
 5215SOL    HW227282   4.459   0.224   6.749  0.2293 -0.3158  0.8800
 5216SOL     OW27283   0.864   3.994   9.038 -0.0497 -0.4372 -0.6928
 5216SOL    HW127284   0.859   4.052   9.114 -2.1613  1.0444 -1.9849
 5216SOL    HW227285   0.816   3.918   9.072 -3.3182  1.6233 -0.7118
 5217SOL     OW27286   3.463   2.335   3.472  0.1299  0.1337  0.0645
 5217SOL    HW127287   3.530   2.276   3.437  0.1841 -0.2458  0.8024
 5217SOL    HW227288   3.439   2.292   3.555  2.3354  0.2026  0.7477
 5218SOL     OW27289   4.136   3.675   2.459 -0.9864 -0.0439 -0.3883
 5218SOL    HW127290   4.129   3.765   2.491  0.8991  0.2567 -0.8499
 5218SOL    HW227291   4.175   3.681   2.372 -0.2327  0.2558 -0.0209
 5219SOL     OW27292   1.295   1.005   6.514  0.2020  0.4260 -0.1398
 5219SOL    HW127293   1.277   0.911   6.510 -0.6551  0.6087 -0.6608
 5219SOL    HW227294   1.241   1.044   6.445  2.5127  1.1192 -1.5463
 5220SOL     OW27295   3.069   3.530  10.503 -0.4525  0.3080 -0.2148
 5220SOL    HW127296   3.112   3.527  10.589  1.1884  0.9713 -1.0230
 5220SOL    HW227297   3.006   3.458  10.505 -1.1206  0.8911 -0.3890
 5221SOL     OW27298   2.742   3.690   9.000  0.4728  0.0807  0.2995
 5221SOL    HW127299   2.663   3.711   8.950  0.4175  0.5174  0.5625
 5221SOL    HW227300   2.731   3.738   9.082 -1.1570  1.1775 -0.5598
 5222SOL     OW27301   1.487   1.979   3.742  0.2989 -0.3209  0.1568
 5222SOL    HW127302   1.425   1.996   3.813  0.3437  0.2810  0.0542
 5222SOL    HW227303   1.467   1.886   3.736  1.9993 -0.6367 -0.6404
 5223SOL     OW27304   3.004   2.205   1.901 -0.3470 -0.0959 -0.3314
 5223SOL    HW127305   3.005   2.109   1.908  1.0202 -0.0762 -0.2858
 5223SOL    HW227306   3.014   2.223   1.994  0.7318  0.4838 -0.5683
 5224SOL     OW27307   0.202   1.384  16.964  0.4832  0.0044  0.8182
 5224SOL    HW127308   0.217   1.342  16.879  1.6715 -0.2788  1.1739
 5224SOL    HW227309   0.132   1.329  16.999 -0.4573  0.4809 -0.2852
 5225SOL     OW27310   2.106   0.568   9.244  0.0373 -0.5703 -0.1641
 5225SOL    HW127311   2.138   0.649   9.204 -0.0566 -0.6075 -0.3130
 5225SOL    HW227312   2.015   0.562   9.215  0.4717  2.6482 -2.1721
 5226SOL     OW27313   0.932   0.799   2.080 -0.1075 -0.1090 -0.0910
 5226SOL    HW127314   0.939   0.711   2.044  2.1182  0.2694 -0.5955
 5226SOL    HW227315   1.020   0.830   2.103  0.0356 -0.2711 -0.4134
 5227SOL     OW27316   3.130   4.124   2.345  0.3553 -0.3667  0.0571
 5227SOL    HW127317   3.111   4.076   2.264  0.7706  0.6385 -0.6431
 5227SOL    HW227318   3.220   4.150   2.329  1.0197 -3.1922 -0.8270
 5228SOL     OW27319   0.896   2.669   5.396  0.4053  0.1292  0.4197
 5228SOL    HW127320   0.955   2.601   5.365 -0.6875 -0.8786  0.5536
 5228SOL    HW227321   0.941   2.743   5.354  1.6395  0.6673  2.6571
 5229SOL     OW27322   2.856   2.676   8.207  0.4107 -0.0873 -0.0583
 5229SOL    HW127323   2.946   2.642   8.210  0.1000 -0.6256  3.1633
 5229SOL    HW227324   2.832   2.667   8.115 -1.0405 -1.2220  0.4475
 5230SOL     OW27325   1.438   1.120   5.329  0.8435  0.1122 -0.3178
 5230SOL    HW127326   1.476   1.115   5.241  1.8377 -0.5883  0.1451
 5230SOL    HW227327   1.382   1.042   5.325  1.1448 -0.0603 -1.2837
 5231SOL     OW27328   0.628   0.690   1.992  0.1537  0.1461  0.1037
 5231SOL    HW127329   0.694   0.749   1.955  0.1715  0.9344  1.3867
 5231SOL    HW227330   0.569   0.757   2.027 -0.3968  0.5133 -1.5426
 5232SOL     OW27331   0.510   2.136   3.900 -0.3430 -0.0611 -0.5146
 5232SOL    HW127332   0.554   2.052   3.889  0.4365  0.2161  0.4991
 5232SOL    HW227333   0.479   2.122   3.989 -1.7003  0.4925 -0.8963
 5233SOL     OW27334   4.531   0.269   3.535 -0.4209 -0.0567  0.0876
 5233SOL    HW127335   4.591   0.317   3.593 -0.8772  1.7526 -0.9317
 5233SOL    HW227336   4.552   0.313   3.452 -1.4047 -0.5459 -0.4147
 5234SOL     OW27337   0.829   3.707   5.008  0.1431  0.6516 -0.6762
 5234SOL    HW127338   0.800   3.798   5.011  0.8693  0.7643  3.3142
 5234SOL    HW227339   0.922   3.716   4.989 -0.0177  2.9144 -0.3892
 5235SOL     OW27340   4.584   3.048   2.366  0.2901  0.2440 -0.0120
 5235SOL    HW127341   4.673   3.056   2.332  0.6552  1.6788  1.3109
 5235SOL    HW227342   4.595   3.024   2.457  0.7081 -0.8056 -0.3470
 5236SOL     OW27343   3.160   4.648   8.847 -0.0560  0.1382  0.2470
 5236SOL    HW127344   3.246   4.682   8.824 -1.3494  1.7138 -2.3571
 5236SOL    HW227345   3.166   4.560   8.810 -2.7702  0.8617 -1.9309
 5237SOL     OW27346   2.571   2.930  16.406 -0.6435  0.1477  0.5515
 5237SOL    HW127347   2.621   2.858  16.445 -2.2514 -1.0996  0.3340
 5237SOL    HW227348   2.591   2.910  16.315 -1.0317 -0.3101  0.5620
 5238SOL     OW27349   1.321   4.058   4.197  0.3893 -0.3238  0.1293
 5238SOL    HW127350   1.275   4.138   4.222 -0.8142 -1.2519  0.8510
 5238SOL    HW227351   1.281   4.043   4.112 -0.7480 -1.0073  0.7886
 5239SOL     OW27352   2.340   2.588   8.058  0.3648  0.2204 -0.0889
 5239SOL    HW127353   2.355   2.525   8.128 -0.3849 -0.3376 -0.4290
 5239SOL    HW227354   2.282   2.542   7.997  1.8305 -0.3794 -1.0189
 5240SOL     OW27355   3.353   4.242   1.549  0.0504 -0.1751 -0.2213
 5240SOL    HW127356   3.339   4.148   1.559 -1.1590 -0.0480 -0.7420
 5240SOL    HW227357   3.328   4.278   1.634  0.6537  1.2034 -0.6207
 5241SOL     OW27358   1.510   4.651   3.599  0.4218  0.0854  0.0827
 5241SOL    HW127359   1.446   4.704   3.647  0.7748  0.5676  0.0130
 5241SOL    HW227360   1.469   4.653   3.512 -0.3748 -0.3429  0.4436
 5242SOL     OW27361   3.133   0.343   6.982 -0.8553 -0.3390  0.4444
 5242SOL    HW127362   3.053   0.290   6.976 -1.4901  0.5834  0.8247
 5242SOL    HW227363   3.146   0.358   6.888 -0.4616 -1.0369  0.3873
 5243SOL     OW27364   0.779   2.219  10.281 -0.1917 -0.2262 -0.5335
 5243SOL    HW127365   0.737   2.239  10.197 -0.8155  0.9685  0.0588
 5243SOL    HW227366   0.745   2.293  10.332 -0.9470 -0.6784 -0.3849
 5244SOL     OW27367   3.652   0.041  16.879 -0.1213 -0.3117 -0.5354
 5244SOL    HW127368   3.644   4.727  16.799 -0.6591  0.7358 -1.1680
 5244SOL    HW227369   3.566   0.025  16.919  0.3167 -0.1421  0.4621
 5245SOL     OW27370   0.166   0.980   8.479 -0.0623 -0.3286  0.7156
 5245SOL    HW127371   0.100   0.958   8.545 -1.5907 -0.0606 -0.7424
 5245SOL    HW227372   0.103   1.006   8.412  0.0891  0.6500  0.9483
 5246SOL     OW27373   2.807   4.584   8.583  0.3324  0.2000 -0.3124
 5246SOL    HW127374   2.752   4.657   8.555 -0.4175 -1.0976 -2.1974
 5246SOL    HW227375   2.787   4.584   8.676 -1.1121 -0.3582 -0.6254
 5247SOL     OW27376   2.572   1.685   3.853 -1.0049 -0.0482 -0.5944
 5247SOL    HW127377   2.500   1.737   3.818 -0.9133 -0.7705 -1.8481
 5247SOL    HW227378   2.649   1.740   3.865 -0.7224 -0.1892 -1.7969
 5248SOL     OW27379   0.253   3.746   2.272 -0.2070 -0.0647  0.6598
 5248SOL    HW127380   0.297   3.709   2.349 -1.9205 -1.9498  0.7186
 5248SOL    HW227381   0.326   3.731   2.212  2.3637  1.0945  3.4855
 5249SOL     OW27382   3.522   0.866   6.483  0.1335 -0.2108 -0.1958
 5249SOL    HW127383   3.604   0.845   6.529 -0.1337  1.0409  0.8685
 5249SOL    HW227384   3.562   0.900   6.403 -0.5383  2.1433  0.4566
 5250SOL     OW27385   1.847   3.613   3.242 -0.1948 -0.1591 -0.0746
 5250SOL    HW127386   1.868   3.618   3.335  0.8664 -2.4811 -0.1736
 5250SOL    HW227387   1.907   3.542   3.219 -1.5625 -1.9303  1.8899
 5251SOL     OW27388   3.090   1.350   9.220 -0.0346 -0.4701 -0.2701
 5251SOL    HW127389   3.156   1.374   9.284 -0.3751  0.3643 -0.2224
 5251SOL    HW227390   3.014   1.366   9.277  0.6294  0.9732  0.1975
 5252SOL     OW27391   2.912   0.755   7.377  0.0566 -0.1755 -0.3854
 5252SOL    HW127392   2.868   0.821   7.323 -3.9597 -2.0581  0.5322
 5252SOL    HW227393   2.920   0.685   7.312  2.4346  0.6292 -0.9370
 5253SOL     OW27394   2.117   0.603   7.848  0.0352 -0.5942 -0.3498
 5253SOL    HW127395   2.163   0.671   7.896 -1.3140  0.6074 -0.7695
 5253SOL    HW227396   2.130   0.634   7.758 -1.9870  2.1276  0.3132
 5254SOL     OW27397   4.034   4.681   5.253 -0.4011  0.6510  0.0284
 5254SOL    HW127398   4.026   4.608   5.315 -2.8188  0.2527 -0.7409
 5254SOL    HW227399   3.947   4.676   5.213  1.0062 -2.0627 -2.7075
 5255SOL     OW27400   0.731   4.292  13.008  0.0442 -0.4565  0.0505
 5255SOL    HW127401   0.708   4.349  12.934  0.0443 -1.6083 -0.8250
 5255SOL    HW227402   0.646   4.261  13.039  0.1111 -0.3789  0.3073
 5256SOL     OW27403   3.273   2.196  11.131  0.3842  0.8080 -0.1532
 5256SOL    HW127404   3.274   2.266  11.065 -3.9576 -0.2859 -1.4594
 5256SOL    HW227405   3.193   2.145  11.114  1.2574  0.0631 -2.0235
 5257SOL     OW27406   0.497   3.169   6.820  0.6594 -0.3272  0.4138
 5257SOL    HW127407   0.557   3.097   6.837 -1.6168 -1.9649  1.4877
 5257SOL    HW227408   0.510   3.234   6.890 -0.2135 -0.8868  1.0980
 5258SOL     OW27409   0.480   3.750   5.941 -0.6642 -0.8329  0.2142
 5258SOL    HW127410   0.568   3.777   5.968 -0.3950 -2.7946  1.3089
 5258SOL    HW227411   0.510   3.669   5.902  0.5863  1.1204 -2.8516
 5259SOL     OW27412   2.553   1.977   4.716 -0.4446 -0.5526  0.1326
 5259SOL    HW127413   2.529   1.899   4.665 -1.7619 -0.2903  0.3611
 5259SOL    HW227414   2.506   1.968   4.799  0.8951  0.9774  1.0363
 5260SOL     OW27415   4.342   1.867   8.124 -0.0792  0.3876  0.2687
 5260SOL    HW127416   4.254   1.858   8.087  0.1290  1.0545 -0.3679
 5260SOL    HW227417   4.328   1.793   8.184 -1.8428  0.1704 -0.4081
 5261SOL     OW27418   4.047   4.348   5.901 -0.1044 -0.0822 -0.1604
 5261SOL    HW127419   3.983   4.384   5.963 -1.4637  2.6486 -3.1530
 5261SOL    HW227420   4.120   4.367   5.960 -0.6926  3.0414 -0.4013
 5262SOL     OW27421   4.612   2.998   6.179 -0.2027 -0.3321  0.0402
 5262SOL    HW127422   4.690   2.963   6.222  0.0624  1.9685  1.3999
 5262SOL    HW227423   4.553   2.924   6.199 -3.7905  3.0996  2.1560
 5263SOL     OW27424   1.229   2.620  12.589  0.6440  0.4006 -0.1659
 5263SOL    HW127425   1.264   2.672  12.517  0.4713 -0.0161 -0.5453
 5263SOL    HW227426   1.311   2.575  12.610  2.4082  2.9982 -1.4052
 5264SOL     OW27427   3.363   4.296   8.258  0.4134 -0.3581  0.2877
 5264SOL    HW127428   3.270   4.306   8.279  0.3673 -0.3410  0.0699
 5264SOL    HW227429   3.363   4.319   8.165  2.2434  0.0014  0.3801
 5265SOL     OW27430   1.345   0.932  16.431 -0.6901  0.4213  0.5400
 5265SOL    HW127431   1.295   0.959  16.355 -1.1340 -1.4581  0.1575
 5265SOL    HW227432   1.301   0.849  16.450  0.1748 -0.7609 -2.7012
 5266SOL     OW27433   1.286   0.702   3.000  0.1988  0.2980  0.4177
 5266SOL    HW127434   1.347   0.639   2.960  0.7767  0.3724  1.1820
 5266SOL    HW227435   1.318   0.786   2.967 -2.4311  0.8208 -0.8415
 5267SOL     OW27436   2.109   4.307   8.984 -0.0224  0.0262 -0.0531
 5267SOL    HW127437   2.132   4.254   9.060 -1.8924  0.4886  0.8302
 5267SOL    HW227438   2.015   4.316   8.994  0.1854  1.9028  0.1718
 5268SOL     OW27439   2.338   0.174   6.375 -0.2516  0.2464 -0.2982
 5268SOL    HW127440   2.310   0.148   6.288  0.6887  0.0314 -0.5397
 5268SOL    HW227441   2.281   0.137   6.443  2.0471 -1.9284  0.4344
 5269SOL     OW27442   0.986   0.758  12.366 -0.0736  0.1528  0.2174
 5269SOL    HW127443   1.016   0.849  12.371  1.4693 -0.5185  2.9782
 5269SOL    HW227444   0.899   0.758  12.405 -0.1354  0.2047  0.0805
 5270SOL     OW27445   3.657   3.383   7.555  0.2731 -0.5343  0.2305
 5270SOL    HW127446   3.630   3.398   7.465  0.9701 -0.0313  0.1015
 5270SOL    HW227447   3.698   3.468   7.572 -3.5338  0.5566  4.0002
 5271SOL     OW27448   0.533   1.639  12.373 -0.6025 -0.4189 -0.1305
 5271SOL    HW127449   0.557   1.688  12.451  1.3722 -0.3491 -0.7855
 5271SOL    HW227450   0.587   1.561  12.385  1.8983  1.1767 -1.0112
 5272SOL     OW27451   2.921   1.261   8.757 -0.0687 -0.2093 -0.2956
 5272SOL    HW127452   2.902   1.276   8.850  0.7509  1.0211 -0.3367
 5272SOL    HW227453   2.965   1.343   8.736  1.3616 -1.2168 -1.2450
 5273SOL     OW27454   1.496   0.511   7.059  0.1074 -0.2454 -0.6941
 5273SOL    HW127455   1.421   0.498   7.001 -1.5898 -0.4624  1.5970
 5273SOL    HW227456   1.523   0.599   7.031  2.2193 -1.0739 -1.2606
 5274SOL     OW27457   0.194   1.407  14.279 -0.2492 -0.4419  0.1824
 5274SOL    HW127458   0.221   1.319  14.252  0.3473 -0.3388  0.4497
 5274SOL    HW227459   0.191   1.454  14.195 -0.3316  0.1131  0.4966
 5275SOL     OW27460   0.509   4.009  13.316  0.7116  0.0296  0.4643
 5275SOL    HW127461   0.418   3.992  13.341  0.7551 -0.5242  0.2584
 5275SOL    HW227462   0.545   3.932  13.359  1.4390  0.7215  1.0928
 5276SOL     OW27463   3.493   0.954   3.610  0.4420 -0.0159  0.1831
 5276SOL    HW127464   3.503   1.044   3.642 -0.6819  0.0103  0.4892
 5276SOL    HW227465   3.565   0.907   3.651 -0.2782 -1.7419 -0.5470
 5277SOL     OW27466   3.900   2.819  15.544  0.7160  0.3346  0.4565
 5277SOL    HW127467   3.862   2.818  15.631  0.8969  1.0928  0.5391
 5277SOL    HW227468   3.927   2.727  15.539 -1.2466 -0.2403  0.2216
 5278SOL     OW27469   3.983   4.101   8.699  0.1002  0.2285 -0.0374
 5278SOL    HW127470   3.997   4.141   8.785  2.4997 -2.3751  0.8029
 5278SOL    HW227471   3.949   4.016   8.730  1.1562 -0.3903 -0.5629
 5279SOL     OW27472   1.091   0.432   0.906  0.6244  0.2032 -0.0547
 5279SOL    HW127473   1.140   0.393   0.834  2.6306 -2.1665  2.6146
 5279SOL    HW227474   1.050   0.509   0.865 -1.0238 -0.0833  1.0786
 5280SOL     OW27475   4.591   3.270   6.138 -0.3814  0.1105 -0.4106
 5280SOL    HW127476   4.666   3.299   6.086  1.0014 -1.9543  0.4573
 5280SOL    HW227477   4.623   3.182   6.157 -0.8501 -0.2445 -1.2436
 5281SOL     OW27478   1.143   1.714   5.429 -0.0523 -0.9647 -0.1071
 5281SOL    HW127479   1.209   1.759   5.377 -0.1143 -0.8996 -0.1285
 5281SOL    HW227480   1.088   1.675   5.361 -2.2207  1.9779 -0.0384
 5282SOL     OW27481   0.324   3.248   9.604 -0.5403  0.3069 -0.0247
 5282SOL    HW127482   0.310   3.174   9.546 -0.9579  2.0689 -2.1472
 5282SOL    HW227483   0.247   3.237   9.660 -1.5711  2.0675 -1.0857
 5283SOL     OW27484   0.169   0.718   5.379 -0.4517  0.0017  0.5548
 5283SOL    HW127485   0.184   0.681   5.292  0.0560  1.2803  0.0926
 5283SOL    HW227486   0.079   0.687   5.394  0.3169 -3.1174 -1.2648
 5284SOL     OW27487   1.475   2.482   2.436  0.4488 -0.0717 -0.6322
 5284SOL    HW127488   1.399   2.522   2.478  1.2017 -0.5024  1.1438
 5284SOL    HW227489   1.513   2.462   2.521 -0.0490 -0.4420 -0.5004
 5285SOL     OW27490   2.645   0.960   2.366 -0.2823  0.3264  0.3088
 5285SOL    HW127491   2.662   0.905   2.290 -2.2455  1.8123 -1.2178
 5285SOL    HW227492   2.591   1.032   2.334 -1.5058 -1.4815 -1.6415
 5286SOL     OW27493   0.232   3.970   4.692  0.0320 -0.1513  0.1218
 5286SOL    HW127494   0.223   3.944   4.601  0.9940  1.9585 -0.5739
 5286SOL    HW227495   0.219   3.886   4.736 -0.2515  0.3052  0.9056
 5287SOL     OW27496   1.132   4.567   8.914 -0.5704  0.2815  0.6234
 5287SOL    HW127497   1.220   4.588   8.883  0.1567 -1.6630  1.3248
 5287SOL    HW227498   1.138   4.620   8.993  1.4505 -2.7149  2.5252
 5288SOL     OW27499   3.745   2.495   9.077 -0.2638  0.5731 -0.0419
 5288SOL    HW127500   3.751   2.400   9.088 -0.2293  0.4213 -1.3871
 5288SOL    HW227501   3.683   2.496   9.004  1.4041  0.7183 -1.4450
 5289SOL     OW27502   0.027   2.613   8.794  0.1795 -0.4502  0.1967
 5289SOL    HW127503   4.707   2.638   8.721 -1.6847  0.6948  2.0703
 5289SOL    HW227504   0.007   2.520   8.797 -2.2925  0.0516 -0.5375
 5290SOL     OW27505   1.123   0.913   2.229 -0.2441  0.2859 -0.2631
 5290SOL    HW127506   1.118   0.988   2.289  2.8128  1.1787 -1.1297
 5290SOL    HW227507   1.216   0.910   2.210 -0.3608  1.4270 -1.0277
 5291SOL     OW27508   0.749   3.965   5.066 -0.0892 -0.7492  0.0472
 5291SOL    HW127509   0.679   3.952   5.130  1.1725  0.6569  1.7044
 5291SOL    HW227510   0.795   4.035   5.111  0.8762 -0.2335 -1.7514
 5292SOL     OW27511   3.468   4.294   6.903 -1.2668  0.8121  0.7604
 5292SOL    HW127512   3.399   4.331   6.958 -0.5045 -2.2624  3.8544
 5292SOL    HW227513   3.440   4.309   6.813  2.6623  2.4802 -0.1667
 5293SOL     OW27514   3.464   1.798  16.063 -0.1771  0.0330 -0.8004
 5293SOL    HW127515   3.446   1.869  16.125 -0.8121 -0.4270 -0.4590
 5293SOL    HW227516   3.545   1.757  16.094  0.0796 -0.4684 -2.1181
 5294SOL     OW27517   0.064   0.684   7.611  0.3789 -0.7238  0.2808
 5294SOL    HW127518   0.052   0.762   7.667  3.3504 -0.8037  1.0556
 5294SOL    HW227519   0.043   0.612   7.669 -0.9445  0.8405  1.7462
 5295SOL     OW27520   2.600   2.979   7.462  0.3980  0.1553 -0.1178
 5295SOL    HW127521   2.571   3.067   7.438  0.0058  0.6162  2.0178
 5295SOL    HW227522   2.594   2.986   7.557 -0.8276 -0.3911 -0.1634
 5296SOL     OW27523   4.380   1.136   7.660 -0.3512 -0.5520 -0.4769
 5296SOL    HW127524   4.325   1.210   7.685  0.6382  0.1134 -0.2784
 5296SOL    HW227525   4.310   1.071   7.651 -0.9933  0.3661 -1.9511
 5297SOL     OW27526   3.403   2.663   2.500 -0.3123  0.0398  0.2154
 5297SOL    HW127527   3.483   2.664   2.447 -1.4775  0.2590 -1.5548
 5297SOL    HW227528   3.385   2.756   2.514 -2.2378 -0.3583  0.4294
 5298SOL     OW27529   1.620   3.967  17.114 -0.1006 -0.8726 -0.1583
 5298SOL    HW127530   1.669   3.936  17.190 -0.0575 -0.3147  0.0410
 5298SOL    HW227531   1.589   3.890  17.066  0.3740 -0.6962 -0.7485
 5299SOL     OW27532   3.596   2.333   3.116 -0.3594 -0.1251  0.0462
 5299SOL    HW127533   3.577   2.357   3.026 -0.8853 -0.8654 -0.0354
 5299SOL    HW227534   3.666   2.268   3.119  0.7727  1.0914  0.1958
 5300SOL     OW27535   4.093   2.809   4.929 -0.0905 -0.4391  0.3575
 5300SOL    HW127536   4.045   2.850   4.857  0.6682  0.0527  0.1372
 5300SOL    HW227537   4.135   2.738   4.880 -0.0418  0.8463 -1.4542
 5301SOL     OW27538   0.505   0.055  16.779  0.2021  0.0215  0.2514
 5301SOL    HW127539   0.442   0.026  16.713 -1.2092  1.5270  0.9167
 5301SOL    HW227540   0.457   0.018  16.854 -0.4845  1.1831  0.3888
 5302SOL     OW27541   1.623   2.221   7.761 -0.3405  0.5592 -0.0561
 5302SOL    HW127542   1.569   2.160   7.710 -2.5890  0.7645  2.0326
 5302SOL    HW227543   1.569   2.300   7.762 -1.0299  0.1019 -1.3898
 5303SOL     OW27544   2.366   0.384   3.343 -0.1012  0.4070  0.0579
 5303SOL    HW127545   2.401   0.470   3.365 -2.2763  1.4137 -0.4786
 5303SOL    HW227546   2.284   0.384   3.391  0.2098  0.2348  0.5880
 5304SOL     OW27547   1.950   0.595   2.106 -0.1906 -0.0991 -0.4017
 5304SOL    HW127548   2.044   0.601   2.090  0.2534  0.6061  2.3638
 5304SOL    HW227549   1.942   0.628   2.196  0.0574  0.3480 -0.5424
 5305SOL     OW27550   2.224   4.723   4.360  0.3753  0.7120  0.1916
 5305SOL    HW127551   2.301   0.008   4.307  0.3183  1.0941  0.2734
 5305SOL    HW227552   2.157   0.031   4.310  0.1023 -0.4756 -0.5453
 5306SOL     OW27553   0.483   2.615   5.252 -0.2980 -0.2317 -0.3435
 5306SOL    HW127554   0.546   2.610   5.324 -0.4909  2.2761 -0.0031
 5306SOL    HW227555   0.538   2.665   5.191 -1.0037 -0.7690 -1.4304
 5307SOL     OW27556   4.682   2.311  14.436  0.4405  0.2612 -0.9552
 5307SOL    HW127557   0.008   2.245  14.464  0.2444  1.3026  1.9678
 5307SOL    HW227558   4.605   2.256  14.422  1.6175 -0.9008 -2.6937
 5308SOL     OW27559   0.186   3.527   3.103  0.2623  0.1140  0.2193
 5308SOL    HW127560   0.114   3.520   3.041  0.5374 -0.3981 -0.0390
 5308SOL    HW227561   0.185   3.620   3.128  1.2605 -0.2027  1.4908
 5309SOL     OW27562   2.937   1.600   9.816 -0.1176  0.1977 -1.0060
 5309SOL    HW127563   2.951   1.684   9.772 -1.5386  0.5054 -0.8760
 5309SOL    HW227564   3.028   1.574   9.824  0.1371  1.2112 -0.5897
 5310SOL     OW27565   3.967   2.776   5.200 -0.4102  0.3803  0.1647
 5310SOL    HW127566   4.032   2.783   5.131 -1.3733 -0.7959 -0.8431
 5310SOL    HW227567   4.023   2.821   5.264  1.1468 -2.9665  1.1846
 5311SOL     OW27568   0.052   1.467   2.145 -0.7153 -0.3491 -0.7602
 5311SOL    HW127569   0.089   1.539   2.094  0.4866  0.3003  1.0482
 5311SOL    HW227570   0.039   1.517   2.225  2.9870  0.9791 -0.9634
 5312SOL     OW27571   3.176   1.719   9.265 -0.1349  0.3776  0.2715
 5312SOL    HW127572   3.240   1.788   9.284  0.2188  0.6633 -1.9141
 5312SOL    HW227573   3.112   1.748   9.330  0.7162 -2.6118  2.4503
 5313SOL     OW27574   1.588   2.743  16.347 -0.1291 -0.0745 -0.8558
 5313SOL    HW127575   1.577   2.828  16.305 -0.5716 -0.5631 -1.7263
 5313SOL    HW227576   1.655   2.771  16.410 -0.2397  0.8028 -1.1298
 5314SOL     OW27577   4.549   0.410   9.617  0.0093  0.6452 -0.0858
 5314SOL    HW127578   4.497   0.482   9.582 -1.3118  0.1404  0.8622
 5314SOL    HW227579   4.608   0.460   9.674  0.5476 -0.9962  0.7860
 5315SOL     OW27580   0.467   2.558   7.533  0.5105  0.2462  0.0339
 5315SOL    HW127581   0.450   2.494   7.602 -0.5546  1.3748  0.8175
 5315SOL    HW227582   0.507   2.505   7.464  2.3107 -1.1413  2.1854
 5316SOL     OW27583   0.024   2.417   1.883 -0.0910  0.3575 -0.5930
 5316SOL    HW127584   0.042   2.403   1.790  0.6583  0.9202 -0.5352
 5316SOL    HW227585   4.673   2.382   1.896  0.2677  0.7458  2.9657
 5317SOL     OW27586   3.500   2.379   7.128  1.1052  0.3244  0.1062
 5317SOL    HW127587   3.436   2.317   7.093 -0.0685  1.3218  0.4977
 5317SOL    HW227588   3.572   2.369   7.065  0.4303 -1.2811 -0.3990
 5318SOL     OW27589   3.148   3.316   9.251 -0.9855 -0.3897 -0.1769
 5318SOL    HW127590   3.155   3.332   9.345  2.1149  0.2026 -0.5315
 5318SOL    HW227591   3.140   3.222   9.239  1.1190 -0.7319  1.1375
 5319SOL     OW27592   1.740   3.538   9.847  0.0122  0.0037 -0.5865
 5319SOL    HW127593   1.763   3.608   9.908  3.6429 -1.0657 -0.7038
 5319SOL    HW227594   1.826   3.530   9.806  0.0725  0.3817 -0.5306
 5320SOL     OW27595   1.491   1.009   7.356 -0.4515 -0.2602  0.4826
 5320SOL    HW127596   1.535   1.026   7.273  0.9468  0.7250  1.4399
 5320SOL    HW227597   1.566   1.016   7.414  0.2522 -0.5290 -0.3838
 5321SOL     OW27598   1.335   3.914   9.219  0.2431 -0.3507  0.4433
 5321SOL    HW127599   1.304   3.823   9.220 -0.9434  0.0956  3.7753
 5321SOL    HW227600   1.275   3.964   9.163  0.4284 -0.4663  0.1424
 5322SOL     OW27601   4.481   2.289  12.492 -0.1669  0.0325 -0.1807
 5322SOL    HW127602   4.449   2.379  12.503  1.3573  0.4823  0.5814
 5322SOL    HW227603   4.525   2.258  12.572 -0.5427 -0.1911 -0.0614
 5323SOL     OW27604   3.036   1.915   7.825 -0.2776 -0.1927 -0.5731
 5323SOL    HW127605   3.129   1.893   7.830 -0.0638  0.9026  0.2806
 5323SOL    HW227606   2.990   1.850   7.772  0.3730  0.2092 -1.6397
 5324SOL     OW27607   0.533   3.301  11.235  0.2727 -0.4047 -0.3287
 5324SOL    HW127608   0.557   3.213  11.263  0.4908 -0.0360  0.6476
 5324SOL    HW227609   0.499   3.337  11.318 -0.7831 -1.3034 -0.3621
 5325SOL     OW27610   3.890   0.712   1.184 -0.2853 -0.4720 -0.0059
 5325SOL    HW127611   3.975   0.752   1.203 -0.6853  1.3681 -2.0129
 5325SOL    HW227612   3.900   0.669   1.099 -0.0378  1.6864 -1.0663
 5326SOL     OW27613   0.742   3.599   9.707 -0.3812 -0.0913  0.4344
 5326SOL    HW127614   0.706   3.678   9.745 -1.2298  0.6019 -1.7817
 5326SOL    HW227615   0.810   3.586   9.773  1.5446  2.4266 -1.0544
 5327SOL     OW27616   2.371   4.600   2.861  0.4309 -0.4753  0.8966
 5327SOL    HW127617   2.378   4.506   2.882  0.3244 -0.2479  1.9395
 5327SOL    HW227618   2.297   4.623   2.917 -0.2544 -0.7710  0.1196
 5328SOL     OW27619   0.767   3.765   7.866 -0.0154  0.0973  0.3769
 5328SOL    HW127620   0.700   3.754   7.798  0.6807  2.4152 -0.6728
 5328SOL    HW227621   0.838   3.716   7.825  0.6232  0.0401  1.5539
 5329SOL     OW27622   2.875   0.111   3.529  0.0724  0.2300  0.0547
 5329SOL    HW127623   2.912   0.100   3.442  1.3540 -0.5188  0.6901
 5329SOL    HW227624   2.950   0.087   3.583 -0.4908 -4.5110 -1.3061
 5330SOL     OW27625   0.646   1.162  15.425 -0.3781  1.1762 -0.2789
 5330SOL    HW127626   0.671   1.228  15.491  3.3448 -1.0049  0.4524
 5330SOL    HW227627   0.574   1.120  15.472  0.1935  0.7941  0.2532
 5331SOL     OW27628   0.518   3.765   8.333 -0.1262  0.1311  0.1072
 5331SOL    HW127629   0.490   3.677   8.308  2.5968 -1.4217  2.6149
 5331SOL    HW227630   0.447   3.823   8.307 -0.2978  0.3530  1.0960
 5332SOL     OW27631   3.771   2.740  12.484 -0.2579  0.5977 -0.0691
 5332SOL    HW127632   3.721   2.780  12.413 -1.3021 -2.2152 -0.9036
 5332SOL    HW227633   3.785   2.652  12.451  0.4338  0.7582 -0.2047
 5333SOL     OW27634   2.578   4.305   2.162  0.1470  0.0168  0.0530
 5333SOL    HW127635   2.564   4.337   2.251 -0.1931 -1.9080  0.6709
 5333SOL    HW227636   2.555   4.213   2.154 -2.1831  0.4320  1.8533
 5334SOL     OW27637   0.606   0.954   8.244  0.1727 -0.1055  0.1544
 5334SOL    HW127638   0.568   1.040   8.262 -1.1472 -0.2948 -1.8577
 5334SOL    HW227639   0.549   0.900   8.298  1.4476 -2.4743 -0.8742
 5335SOL     OW27640   3.830   3.520   2.925 -0.2923  0.0264  0.3232
 5335SOL    HW127641   3.848   3.603   2.880 -0.4726 -0.6152 -0.9284
 5335SOL    HW227642   3.876   3.542   3.007 -1.2775  4.1864 -0.2249
 5336SOL     OW27643   0.294   2.458   3.986 -0.0382 -0.0580 -0.0974
 5336SOL    HW127644   0.344   2.519   3.933  1.0558 -0.3123  0.6578
 5336SOL    HW227645   0.318   2.491   4.072  2.8865 -1.4075 -0.3968
 5337SOL     OW27646   1.555   0.490   3.592 -0.0957 -0.3553  0.7238
 5337SOL    HW127647   1.606   0.450   3.521 -0.2413  1.1799 -0.2601
 5337SOL    HW227648   1.466   0.476   3.559  0.1123 -0.2015  0.0819
 5338SOL     OW27649   3.815   1.936   1.004  0.1850  0.2401  0.1785
 5338SOL    HW127650   3.833   2.018   1.050 -1.1473 -0.1063  1.3098
 5338SOL    HW227651   3.797   1.966   0.915  1.0838 -0.3866 -0.2164
 5339SOL     OW27652   3.997   0.787  15.470  0.1263 -0.2446  0.1012
 5339SOL    HW127653   4.017   0.846  15.398  0.0019 -1.4725 -0.9436
 5339SOL    HW227654   3.901   0.777  15.468  0.0068  1.1976 -1.2589
 5340SOL     OW27655   2.187   0.910   8.318 -0.2104  0.1572 -0.4023
 5340SOL    HW127656   2.210   0.999   8.292 -0.3005  0.0837 -0.7318
 5340SOL    HW227657   2.158   0.921   8.408 -1.7626  1.2264 -1.0381
 5341SOL     OW27658   1.771   1.130   9.154 -0.6658  0.1457 -0.2030
 5341SOL    HW127659   1.790   1.074   9.229  0.2307 -0.9887 -1.2729
 5341SOL    HW227660   1.837   1.098   9.092 -0.3016  0.1454  0.1850
 5342SOL     OW27661   0.096   3.496   5.618 -0.1499 -0.3041  0.3751
 5342SOL    HW127662   0.178   3.456   5.646 -0.0196 -0.2889  0.0110
 5342SOL    HW227663   0.041   3.420   5.635 -1.9404  1.3758  2.1896
 5343SOL     OW27664   1.620   0.064   3.126 -0.2577 -0.3973  0.3485
 5343SOL    HW127665   1.641   0.055   3.033  1.5866 -2.4767  0.9592
 5343SOL    HW227666   1.636   4.710   3.149 -1.9898 -0.3195  1.8240
 5344SOL     OW27667   2.542   3.877   7.375 -0.3085 -0.5480  0.0540
 5344SOL    HW127668   2.527   3.784   7.359 -1.1458 -0.6110  1.1688
 5344SOL    HW227669   2.536   3.892   7.469  1.0143  0.1062  0.0335
 5345SOL     OW27670   0.114   0.310   2.156  0.3166  0.4118  0.0466
 5345SOL    HW127671   0.144   0.384   2.103  1.4524 -0.4872 -0.5688
 5345SOL    HW227672   0.021   0.320   2.136  0.6756  3.5590 -0.1160
 5346SOL     OW27673   2.068   3.870   7.349  1.0719  0.2427  0.3546
 5346SOL    HW127674   2.068   3.808   7.422 -0.4570 -1.2401 -0.9231
 5346SOL    HW227675   1.980   3.859   7.315  0.8948  2.8778 -0.0556
 5347SOL     OW27676   1.816   2.767   5.750 -0.2477 -0.5192  0.2585
 5347SOL    HW127677   1.835   2.831   5.682  1.5867  0.4299  1.6904
 5347SOL    HW227678   1.787   2.816   5.827 -0.6853 -0.3678 -0.0004
 5348SOL     OW27679   3.250   4.060   0.338 -0.0915 -0.4233  0.2814
 5348SOL    HW127680   3.302   3.982   0.323  0.2279  0.0895 -1.2327
 5348SOL    HW227681   3.207   4.080   0.255 -0.7101  1.4712  1.0382
 5349SOL     OW27682   2.612   4.693   7.869 -0.1950 -0.1476  0.4317
 5349SOL    HW127683   2.699   4.660   7.846  0.3536  1.4009  0.3196
 5349SOL    HW227684   2.558   4.618   7.845  0.2926 -1.0973  2.2684
 5350SOL     OW27685   4.534   3.747  16.844 -0.7762 -0.0216  1.1831
 5350SOL    HW127686   4.457   3.794  16.876 -0.7430  1.2881 -0.6614
 5350SOL    HW227687   4.611   3.789  16.882  0.7812  0.0605 -2.0347
 5351SOL     OW27688   1.394   2.074  13.499 -0.0854 -0.3681 -0.4591
 5351SOL    HW127689   1.349   2.028  13.570  0.6838 -1.2029 -0.5243
 5351SOL    HW227690   1.326   2.126  13.456  0.2555  0.6140  0.1903
 5352SOL     OW27691   3.055   3.495  16.369  0.6048 -0.3422 -0.3204
 5352SOL    HW127692   2.996   3.566  16.393 -1.3124 -1.7089 -1.0128
 5352SOL    HW227693   3.022   3.484  16.280  0.0635 -0.6154 -0.0817
 5353SOL     OW27694   3.340   0.930   6.924  0.5007  0.5210 -0.8028
 5353SOL    HW127695   3.347   0.967   6.836  1.8914  1.0365 -0.4804
 5353SOL    HW227696   3.246   0.924   6.942  0.3398  3.1237 -0.7447
 5354SOL     OW27697   1.570   0.247   6.744  0.2502 -0.3494  0.2997
 5354SOL    HW127698   1.477   0.222   6.745 -0.0113  0.5753 -0.4483
 5354SOL    HW227699   1.565   0.313   6.675  0.3153  1.1798  1.7709
 5355SOL     OW27700   1.185   3.490  14.731 -0.5784  0.1843 -0.3106
 5355SOL    HW127701   1.143   3.544  14.797  0.6903  0.1366  0.5343
 5355SOL    HW227702   1.188   3.399  14.761 -0.6790 -0.4015 -2.0653
 5356SOL     OW27703   1.180   2.794   4.512  0.3223 -0.2587 -0.4210
 5356SOL    HW127704   1.194   2.729   4.443 -0.7781 -0.2653 -0.6527
 5356SOL    HW227705   1.099   2.757   4.547  0.1229  1.6551  1.1518
 5357SOL     OW27706   0.398   3.089   3.192 -0.9515 -0.1098 -0.4018
 5357SOL    HW127707   0.394   3.145   3.270 -1.9826  0.5921 -0.9599
 5357SOL    HW227708   0.358   3.147   3.128 -1.8571 -1.3338 -0.9303
 5358SOL     OW27709   1.650   3.802   4.645 -0.0750 -0.4934 -0.2025
 5358SOL    HW127710   1.581   3.743   4.677 -1.8297  0.8287 -1.5686
 5358SOL    HW227711   1.605   3.886   4.644  3.0087  1.1426 -2.0767
 5359SOL     OW27712   1.596   1.114   7.783  0.0700 -0.1041 -0.2355
 5359SOL    HW127713   1.553   1.197   7.766  0.8359  1.1910  4.3970
 5359SOL    HW227714   1.647   1.130   7.862 -0.0075 -0.0214 -0.2037
 5360SOL     OW27715   0.036   1.071   1.040 -0.2006  0.5940 -0.6023
 5360SOL    HW127716   0.038   1.095   1.133 -2.5928 -2.2494  0.1792
 5360SOL    HW227717   0.128   1.087   1.017  0.2014 -0.3748  0.2951
 5361SOL     OW27718   0.517   3.823  15.827 -0.3280  0.4513 -0.5427
 5361SOL    HW127719   0.568   3.754  15.786  0.0802 -0.0883  0.8858
 5361SOL    HW227720   0.429   3.787  15.819  0.9612 -2.3964 -1.7762
 5362SOL     OW27721   2.674   1.566  13.119 -0.0771  0.8171 -0.4151
 5362SOL    HW127722   2.585   1.587  13.145  0.0345  0.4066  0.2678
 5362SOL    HW227723   2.726   1.611  13.186 -1.6392  0.8657  0.7383
 5363SOL     OW27724   2.715   0.267  17.568  0.3413  0.2932  0.1985
 5363SOL    HW127725   2.741   0.184  17.609 -2.3106 -1.2371 -1.1587
 5363SOL    HW227726   2.751   0.244  17.482 -1.6890  0.5019 -0.7131
 5364SOL     OW27727   0.214   1.604   2.835 -0.1649 -0.1679  0.2423
 5364SOL    HW127728   0.160   1.671   2.878  2.1757  2.4908 -0.9713
 5364SOL    HW227729   0.166   1.528   2.868  2.3415 -3.0084 -2.6979
 5365SOL     OW27730   1.191   2.487   2.102 -0.2035  0.2574 -0.1073
 5365SOL    HW127731   1.130   2.556   2.128 -0.3596  0.3394 -0.6926
 5365SOL    HW227732   1.224   2.522   2.018  2.7861 -1.0694  0.5092
 5366SOL     OW27733   4.131   0.155   3.510  0.2145 -0.1996 -0.3750
 5366SOL    HW127734   4.080   0.084   3.549 -1.3109  1.2874  0.3597
 5366SOL    HW227735   4.070   0.187   3.444 -2.2031 -0.9743  1.4868
 5367SOL     OW27736   1.352   1.933   5.669  0.4700  0.0361 -0.5804
 5367SOL    HW127737   1.331   1.974   5.753 -0.0853 -0.0918 -0.6592
 5367SOL    HW227738   1.305   1.851   5.684 -1.6265  1.2409 -0.6497
 5368SOL     OW27739   2.088   0.548   4.583  0.1054 -0.2098 -0.2376
 5368SOL    HW127740   2.146   0.476   4.558  0.5374  0.3617 -0.8823
 5368SOL    HW227741   2.151   0.620   4.588 -0.0740 -0.1349  1.0441
 5369SOL     OW27742   1.148   4.180   6.703 -0.4388 -0.1862 -0.2964
 5369SOL    HW127743   1.117   4.091   6.716  3.5243 -1.6073 -0.5017
 5369SOL    HW227744   1.063   4.224   6.707 -0.4162 -0.4799  4.0186
 5370SOL     OW27745   4.291   4.346  10.982 -0.0771  0.3397  0.3199
 5370SOL    HW127746   4.224   4.388  11.037  1.8130  0.3076  2.6335
 5370SOL    HW227747   4.348   4.284  11.028 -0.8415 -1.6505 -1.3963
 5371SOL     OW27748   0.523   0.289   3.834 -0.3127 -0.0939 -0.3272
 5371SOL    HW127749   0.495   0.205   3.798 -0.2269 -0.6575  0.9285
 5371SOL    HW227750   0.530   0.336   3.751 -0.4085  1.7598  0.7143
 5372SOL     OW27751   0.124   1.387   9.413  0.0337  0.5550  0.0770
 5372SOL    HW127752   0.043   1.425   9.444 -1.2824 -1.2154 -1.1472
 5372SOL    HW227753   0.099   1.361   9.324 -1.5093 -1.7668  1.1901
 5373SOL     OW27754   2.787   1.826   5.843  0.2948  0.3397 -0.7999
 5373SOL    HW127755   2.753   1.807   5.756 -0.5719  0.9151 -0.5855
 5373SOL    HW227756   2.859   1.764   5.856  0.2748  0.7822  1.4503
 5374SOL     OW27757   3.952   3.705   5.271 -0.1831 -0.2886  0.5114
 5374SOL    HW127758   3.875   3.696   5.327 -1.8196  0.3263 -1.6539
 5374SOL    HW227759   3.929   3.639   5.206 -0.4467 -0.0510  0.3656
 5375SOL     OW27760   0.767   2.486  12.029  0.2326  0.5734 -0.0831
 5375SOL    HW127761   0.725   2.554  12.082 -1.5349  0.1113 -0.9049
 5375SOL    HW227762   0.794   2.541  11.956  0.9920  0.5733  0.1904
 5376SOL     OW27763   2.637   1.491   7.284 -0.1159 -0.5530  0.1832
 5376SOL    HW127764   2.643   1.573   7.333 -3.4969  0.8022 -1.6018
 5376SOL    HW227765   2.728   1.468   7.268  0.2216  0.9989 -0.1282
 5377SOL     OW27766   3.516   1.542  15.936 -0.3376  0.0028  0.1554
 5377SOL    HW127767   3.600   1.571  15.902 -1.4657 -0.8045 -3.3263
 5377SOL    HW227768   3.490   1.493  15.858  2.7656 -1.5222  0.1011
 5378SOL     OW27769   1.292   3.877  10.457  0.6058  0.3604 -0.4705
 5378SOL    HW127770   1.342   3.801  10.486 -1.1424 -1.3483 -1.9086
 5378SOL    HW227771   1.294   3.944  10.525  0.7163 -0.2802  0.1519
 5379SOL     OW27772   3.854   2.490   4.456 -0.4459  0.1081 -0.4255
 5379SOL    HW127773   3.796   2.547   4.506 -1.4883 -0.0937 -1.3880
 5379SOL    HW227774   3.908   2.462   4.530 -2.0335  0.8363  1.0114
 5380SOL     OW27775   2.342   0.304   5.154 -0.5031 -0.1273 -0.2630
 5380SOL    HW127776   2.328   0.263   5.068 -1.5944 -0.1742 -0.0645
 5380SOL    HW227777   2.422   0.355   5.139 -0.6207  0.7926  2.3239
 5381SOL     OW27778   3.073   1.143  15.646  0.3187 -0.1753  0.0841
 5381SOL    HW127779   3.110   1.065  15.686  1.9675 -0.5194 -2.0740
 5381SOL    HW227780   3.147   1.203  15.654 -1.3441  1.5034  2.7493
 5382SOL     OW27781   3.871   1.156   7.110 -0.0924 -0.3233  0.3441
 5382SOL    HW127782   3.877   1.158   7.205 -1.2231 -0.0056  0.4077
 5382SOL    HW227783   3.780   1.129   7.100  0.2806 -1.1007 -1.0249
 5383SOL     OW27784   0.536   2.385  14.838 -0.4228  0.1929 -0.3093
 5383SOL    HW127785   0.541   2.480  14.843  0.0024  0.0804  1.2695
 5383SOL    HW227786   0.596   2.350  14.903 -0.3373  1.1614  0.1278
 5384SOL     OW27787   3.740   1.662   2.225  0.2469  0.4874  0.5124
 5384SOL    HW127788   3.817   1.685   2.277 -0.1782  1.5419  0.6980
 5384SOL    HW227789   3.745   1.567   2.225  3.7254  0.6999 -3.2615
 5385SOL     OW27790   4.104   1.314  12.673  0.2702 -0.3162 -0.2477
 5385SOL    HW127791   4.181   1.297  12.619  0.9135  0.8641  0.3076
 5385SOL    HW227792   4.140   1.303  12.761 -0.9298  0.7143  0.3795
 5386SOL     OW27793   2.986   1.158   9.493 -0.8975 -0.3669  0.3959
 5386SOL    HW127794   2.985   1.254   9.491  0.3096 -0.3845 -0.7269
 5386SOL    HW227795   2.895   1.131   9.476 -1.3210  1.2935  0.0663
 5387SOL     OW27796   4.500   1.584   2.333 -0.5427  0.6510 -0.3690
 5387SOL    HW127797   4.596   1.584   2.338 -0.5379  0.4165 -0.4495
 5387SOL    HW227798   4.479   1.491   2.323  1.2231  0.1529  0.5870
 5388SOL     OW27799   2.267   1.743   2.792 -0.3637  0.7196 -0.0606
 5388SOL    HW127800   2.309   1.782   2.716 -0.4958  0.1207 -0.4455
 5388SOL    HW227801   2.285   1.810   2.858  0.5131 -0.2670  0.7104
 5389SOL     OW27802   1.762   4.548   6.287  0.4932 -0.3112  0.1248
 5389SOL    HW127803   1.702   4.552   6.212 -2.4011 -0.6820  2.4050
 5389SOL    HW227804   1.706   4.511   6.355 -0.8748  0.7685 -0.4108
 5390SOL     OW27805   0.474   0.780   6.449 -0.4006 -0.7856  0.4074
 5390SOL    HW127806   0.478   0.859   6.396 -1.8355 -0.2304  1.1211
 5390SOL    HW227807   0.407   0.730   6.403  1.6149 -2.5070 -0.6613
 5391SOL     OW27808   3.897   1.220   7.859  0.4714  0.0087 -0.2510
 5391SOL    HW127809   3.938   1.165   7.927 -2.6716 -1.6855  0.2713
 5391SOL    HW227810   3.805   1.213   7.882 -0.1639 -1.0784 -3.1186
 5392SOL     OW27811   2.659   3.787   1.200 -0.1480  0.0161 -0.1504
 5392SOL    HW127812   2.635   3.867   1.246  0.4520 -0.5439  1.1342
 5392SOL    HW227813   2.753   3.799   1.206 -0.0790 -1.4511  1.5846
 5393SOL     OW27814   0.726   0.555   8.798 -0.6328  0.0695  0.1312
 5393SOL    HW127815   0.775   0.524   8.874 -0.6731 -0.0602  0.1039
 5393SOL    HW227816   0.705   0.645   8.825 -1.8450 -0.2682  0.2976
 5394SOL     OW27817   0.015   0.755  11.652 -0.1433 -0.1278  0.3819
 5394SOL    HW127818   0.035   0.662  11.656 -2.7860 -0.7288 -0.3750
 5394SOL    HW227819   4.659   0.743  11.666 -0.3989  1.8049  0.3640
 5395SOL     OW27820   3.172   0.835  17.725  0.0476  0.1732 -0.0090
 5395SOL    HW127821   3.169   0.896   0.049  0.8722 -0.8434  0.8695
 5395SOL    HW227822   3.086   0.822  17.684  0.4575 -1.3582 -0.3959
 5396SOL     OW27823   4.168   0.557   7.360 -0.0214 -0.4358  0.6306
 5396SOL    HW127824   4.190   0.466   7.338  2.8092  0.6147 -0.8014
 5396SOL    HW227825   4.260   0.582   7.360 -0.0817 -0.2258 -0.6038
 5397SOL     OW27826   4.528   4.316   3.977 -0.2092 -0.0678 -0.7964
 5397SOL    HW127827   4.442   4.347   4.006 -0.9639 -0.2985 -2.7399
 5397SOL    HW227828   4.582   4.334   4.054  0.5367 -1.8772 -0.9069
 5398SOL     OW27829   2.389   1.169   0.830 -0.2515  0.0018  0.6352
 5398SOL    HW127830   2.318   1.208   0.882  1.6585  0.0792  3.1552
 5398SOL    HW227831   2.341   1.117   0.766 -1.6114  0.4204  1.3113
 5399SOL     OW27832   0.328   0.325  11.899  0.0229 -0.0155  0.1509
 5399SOL    HW127833   0.408   0.371  11.925 -0.2515  0.7660 -0.3769
 5399SOL    HW227834   0.281   0.402  11.866 -0.8971 -0.7669 -0.2894
 5400SOL     OW27835   2.156   1.004  11.136  0.1540  0.1616  0.2403
 5400SOL    HW127836   2.221   1.069  11.108 -0.5478  1.0595  0.7268
 5400SOL    HW227837   2.128   0.985  11.046 -1.2727  0.8078  0.5509
 5401SOL     OW27838   3.544   1.785   3.427 -0.2435 -0.3203  0.3349
 5401SOL    HW127839   3.520   1.715   3.488 -0.6278 -1.3965 -1.0415
 5401SOL    HW227840   3.464   1.836   3.435 -0.0794 -0.0566  0.2689
 5402SOL     OW27841   0.938   1.749   8.108 -0.2663 -0.3579 -0.0686
 5402SOL    HW127842   0.988   1.668   8.108  0.4046  0.0507 -0.6468
 5402SOL    HW227843   0.884   1.746   8.187 -1.7619  1.7403 -1.0035
 5403SOL     OW27844   0.647   0.293  13.494  0.0775  0.3524  0.0442
 5403SOL    HW127845   0.608   0.220  13.543  0.5857  0.9116  1.2908
 5403SOL    HW227846   0.740   0.268  13.499  0.3797  1.1957 -1.3459
 5404SOL     OW27847   0.175   0.015   2.083 -0.9004  0.5574  0.6391
 5404SOL    HW127848   0.211   4.731   2.169  1.2675  1.3692 -0.0504
 5404SOL    HW227849   0.145   0.104   2.102 -0.2834  1.0400 -0.6380
 5405SOL     OW27850   0.549   2.114   3.549  0.4461 -0.2927  0.3066
 5405SOL    HW127851   0.455   2.122   3.535  0.4266 -1.0993 -0.0375
 5405SOL    HW227852   0.563   2.022   3.525  0.2381  0.0339 -1.0823
 5406SOL     OW27853   1.623   4.543   3.253 -0.0722  0.9417 -0.2682
 5406SOL    HW127854   1.532   4.566   3.270 -0.0989 -1.8396  3.2843
 5406SOL    HW227855   1.626   4.448   3.241 -1.2432  0.8744 -0.0052
 5407SOL     OW27856   0.906   4.184   3.697  0.4588  0.1251 -0.1563
 5407SOL    HW127857   0.823   4.139   3.680  1.9315 -2.2853 -1.0045
 5407SOL    HW227858   0.901   4.192   3.792  0.1598 -0.2878 -0.1327
 5408SOL     OW27859   2.615   2.899   4.634  0.3199  0.2512 -0.4506
 5408SOL    HW127860   2.522   2.891   4.656  0.4910 -1.2850 -0.2854
 5408SOL    HW227861   2.619   2.881   4.540  1.5520  1.0609 -0.5602
 5409SOL     OW27862   3.183   4.463   6.183 -0.3673  0.3605  0.8289
 5409SOL    HW127863   3.117   4.394   6.184 -0.2073  0.2151  1.4317
 5409SOL    HW227864   3.135   4.534   6.226 -0.7149 -1.5030  3.5155
 5410SOL     OW27865   0.480   1.778  10.926 -0.1736  0.1639  0.3189
 5410SOL    HW127866   0.513   1.689  10.918 -2.7708 -0.4761 -3.4987
 5410SOL    HW227867   0.452   1.779  11.018 -0.4703 -1.7103  0.2467
 5411SOL     OW27868   1.457   2.990  11.518 -0.1888 -0.3942 -0.0378
 5411SOL    HW127869   1.527   2.924  11.521 -0.7564 -0.9978 -0.0444
 5411SOL    HW227870   1.380   2.941  11.489 -0.6352 -0.1314  0.7060
 5412SOL     OW27871   3.765   4.738   4.611  0.3489 -0.7480 -0.2685
 5412SOL    HW127872   3.859   4.722   4.600  1.3035  2.6931  3.1245
 5412SOL    HW227873   3.757   4.709   4.702  1.0132 -1.2246 -0.3580
 5413SOL     OW27874   4.689   1.021   8.307 -0.8371 -0.1300  0.1561
 5413SOL    HW127875   4.684   0.935   8.263  1.2439 -0.9177  1.4407
 5413SOL    HW227876   4.644   1.001   8.389 -0.2639  1.3035  0.8168
 5414SOL     OW27877   1.524   2.481  16.358 -0.1703 -0.2461 -0.4683
 5414SOL    HW127878   1.544   2.574  16.348  0.4487 -0.0976  2.0171
 5414SOL    HW227879   1.431   2.488  16.333  0.2188 -2.1400 -2.3652
 5415SOL     OW27880   4.727   2.768   3.939  0.2810 -0.1269 -0.8408
 5415SOL    HW127881   0.044   2.720   4.001  0.2433 -0.4620 -1.0665
 5415SOL    HW227882   4.735   2.709   3.864  1.3922 -0.1541 -0.7119
 5416SOL     OW27883   0.618   1.321   2.931 -0.3986  0.2197 -0.2850
 5416SOL    HW127884   0.641   1.408   2.900 -1.3955  0.0486 -1.4954
 5416SOL    HW227885   0.645   1.338   3.022 -1.0838  0.3673 -0.1045
 5417SOL     OW27886   3.266   1.378   3.253  1.0966  0.0907  0.5673
 5417SOL    HW127887   3.185   1.327   3.254  1.2313 -0.1170  0.7725
 5417SOL    HW227888   3.235   1.469   3.254 -2.9213 -1.2151 -2.2788
 5418SOL     OW27889   2.163   2.271   3.658  0.3358  0.4215 -0.2667
 5418SOL    HW127890   2.143   2.208   3.727  2.0702  0.6286  0.4162
 5418SOL    HW227891   2.254   2.297   3.670  0.0155  0.1854  2.7781
 5419SOL     OW27892   3.861   3.135   5.383 -0.0604 -0.4887 -0.6179
 5419SOL    HW127893   3.790   3.174   5.331  1.8629  0.2907 -2.6830
 5419SOL    HW227894   3.932   3.159   5.323  0.3421  0.8105  0.3733
 5420SOL     OW27895   2.311   3.581   9.854  0.0358  0.0226  0.5506
 5420SOL    HW127896   2.382   3.540   9.904  1.7095  0.4718 -1.4293
 5420SOL    HW227897   2.328   3.675   9.862  3.1258 -0.5593  1.1764
 5421SOL     OW27898   2.375   3.103   7.320 -0.0305  0.3280  0.1308
 5421SOL    HW127899   2.360   3.011   7.342 -2.1359  0.8666  0.9836
 5421SOL    HW227900   2.389   3.091   7.226  0.3206 -0.9979  0.3423
 5422SOL     OW27901   4.155   0.003   7.233  0.0276 -0.3185 -0.0201
 5422SOL    HW127902   4.080   0.041   7.188  0.2233 -0.2229 -0.2670
 5422SOL    HW227903   4.187   4.689   7.160  0.4475 -1.0555  0.6814
 5423SOL     OW27904   0.348   1.008  15.185  0.6677  0.8512  0.1930
 5423SOL    HW127905   0.332   0.943  15.254  1.7272 -1.0321 -1.3409
 5423SOL    HW227906   0.326   0.966  15.102 -0.6964 -1.3427  1.6393
 5424SOL     OW27907   3.067   3.237   5.841 -0.2359  0.2407  0.3371
 5424SOL    HW127908   3.110   3.153   5.825 -0.2887  0.6880 -2.1375
 5424SOL    HW227909   3.066   3.241   5.936  3.2923  0.8608  0.3566
 5425SOL     OW27910   3.737   1.696   4.687  0.1390 -0.1387  0.1816
 5425SOL    HW127911   3.751   1.743   4.604 -1.3161 -0.4204 -0.2127
 5425SOL    HW227912   3.648   1.663   4.681  0.3425 -0.5920 -0.3308
 5426SOL     OW27913   2.743   0.220  12.554  0.0690 -0.0238  0.3876
 5426SOL    HW127914   2.764   0.221  12.460 -3.4806 -1.1829 -0.4455
 5426SOL    HW227915   2.648   0.209  12.560 -0.1688  0.7756 -1.9642
 5427SOL     OW27916   1.449   4.685   2.885  0.0254 -0.2043  0.1698
 5427SOL    HW127917   1.482   4.602   2.849 -0.9456 -0.0780 -1.0369
 5427SOL    HW227918   1.441   0.007   2.810  0.5640 -0.3012  0.0306
 5428SOL     OW27919   2.904   0.247   7.073 -0.1781 -0.4134  0.1309
 5428SOL    HW127920   2.820   0.291   7.082  0.1423  0.1105  0.5467
 5428SOL    HW227921   2.894   0.176   7.136 -1.9161  0.5417  0.9161
 5429SOL     OW27922   3.759   0.835   8.876  0.0249 -0.3594  0.0201
 5429SOL    HW127923   3.683   0.784   8.905 -1.5520  1.4172 -1.0212
 5429SOL    HW227924   3.725   0.865   8.792  0.5204  1.7430  0.5706
 5430SOL     OW27925   1.237   2.893   4.162  0.1286 -0.2516  0.6008
 5430SOL    HW127926   1.187   2.909   4.082  0.2914 -0.6003  0.4306
 5430SOL    HW227927   1.322   2.856   4.138  1.4397  1.9397  1.8299
 5431SOL     OW27928   3.501   0.955   6.086  0.2076  0.2835  0.2158
 5431SOL    HW127929   3.440   1.014   6.131  1.6925  0.3169  2.2087
 5431SOL    HW227930   3.583   0.980   6.131  0.0362  2.5876 -0.7426
 5432SOL     OW27931   1.726   2.274   6.192  0.0089  0.6703 -0.0993
 5432SOL    HW127932   1.793   2.274   6.261 -1.3204 -0.9401  1.1728
 5432SOL    HW227933   1.680   2.192   6.209 -1.3900  1.1359 -1.7196
 5433SOL     OW27934   0.057   2.558  10.415  0.2840 -0.7993  0.0681
 5433SOL    HW127935   0.041   2.639  10.464  0.4661 -0.9188  0.3255
 5433SOL    HW227936   0.094   2.510  10.490  0.6694  2.5087  2.0087
 5434SOL     OW27937   3.958   0.561   6.085  0.2785  0.3587  0.0070
 5434SOL    HW127938   3.864   0.579   6.087  0.5569  1.8543 -0.9716
 5434SOL    HW227939   3.985   0.614   6.009  0.2571 -0.1569 -0.3639
 5435SOL     OW27940   1.839   4.311   6.620  0.5162 -0.0736  0.0729
 5435SOL    HW127941   1.839   4.224   6.581  0.1107 -0.4517  0.9295
 5435SOL    HW227942   1.928   4.328   6.589  1.4361 -1.7859  1.7993
 5436SOL     OW27943   2.146   2.196   6.614  0.2133  0.5684 -0.1351
 5436SOL    HW127944   2.124   2.127   6.677  2.8065 -0.7189 -0.6181
 5436SOL    HW227945   2.064   2.246   6.617  0.6979  1.2859  1.5156
 5437SOL     OW27946   4.642   2.420   7.608 -0.1741 -0.2131 -0.6719
 5437SOL    HW127947   4.581   2.469   7.553  0.0123  1.1756  0.3700
 5437SOL    HW227948   4.591   2.339   7.619 -1.6319  0.6586 -1.0453
 5438SOL     OW27949   3.432   3.340   9.048  0.2881 -0.5711  0.2252
 5438SOL    HW127950   3.432   3.375   8.959 -1.3552 -1.7296 -0.2164
 5438SOL    HW227951   3.341   3.313   9.051  0.0025  0.2462 -0.9301
 5439SOL     OW27952   1.709   0.745  13.720  0.4068  0.0852  0.4681
 5439SOL    HW127953   1.616   0.751  13.741 -0.4065  1.3067 -3.6752
 5439SOL    HW227954   1.752   0.798  13.788  0.3546  1.0748 -0.2759
 5440SOL     OW27955   2.983   3.582   4.904  0.1494  0.0880  0.3545
 5440SOL    HW127956   2.989   3.562   4.810  0.0507  2.9748 -0.2675
 5440SOL    HW227957   3.010   3.674   4.906 -2.0106  0.6903  1.3295
 5441SOL     OW27958   2.306   1.056  16.827  0.2511  0.1626 -0.3027
 5441SOL    HW127959   2.288   1.106  16.747 -1.7959 -1.6391 -0.9669
 5441SOL    HW227960   2.271   0.971  16.803  0.8504 -0.5197  1.2435
 5442SOL     OW27961   2.175   1.770   6.871 -0.4599 -0.4511  0.2723
 5442SOL    HW127962   2.085   1.736   6.864 -0.3967 -0.0228 -2.6658
 5442SOL    HW227963   2.197   1.730   6.955  1.3602 -0.2029 -0.0876
 5443SOL     OW27964   2.279   0.574   7.324  0.1220  0.3050 -0.0121
 5443SOL    HW127965   2.207   0.591   7.385  0.3611  0.1408  0.3172
 5443SOL    HW227966   2.230   0.593   7.244  0.2726 -0.9955 -0.4015
 5444SOL     OW27967   2.857   4.280   1.364 -0.3480  0.4113  0.1697
 5444SOL    HW127968   2.934   4.334   1.350 -1.1716  0.9403 -2.2810
 5444SOL    HW227969   2.800   4.337   1.416 -0.3739  1.2322 -0.7583
 5445SOL     OW27970   0.772   0.868  16.418 -0.5430 -0.5607 -0.5076
 5445SOL    HW127971   0.781   0.890  16.325 -0.5219  2.2919  0.1880
 5445SOL    HW227972   0.704   0.926  16.451 -1.5346 -1.2648 -1.3222
 5446SOL     OW27973   3.261   3.694   6.461 -0.6727 -0.0799  0.8264
 5446SOL    HW127974   3.308   3.626   6.510  0.1940 -1.4634 -1.9534
 5446SOL    HW227975   3.215   3.638   6.398 -1.0913 -0.4821  1.4917
 5447SOL     OW27976   1.150   0.553   7.906 -0.0207  0.0245  0.0124
 5447SOL    HW127977   1.202   0.559   7.986 -0.3934 -2.2359  0.4283
 5447SOL    HW227978   1.216   0.566   7.839  1.1200 -1.5211  0.8455
 5448SOL     OW27979   2.296   2.953  10.671 -0.0700  0.3407 -0.6809
 5448SOL    HW127980   2.224   2.890  10.665  0.6794 -0.5609 -0.1010
 5448SOL    HW227981   2.372   2.901  10.694 -1.1853  0.3207  2.9644
 5449SOL     OW27982   0.787   2.475   8.486  0.1315  0.5744 -0.9265
 5449SOL    HW127983   0.777   2.384   8.456  4.0410 -0.1798  0.0795
 5449SOL    HW227984   0.815   2.526   8.409 -1.1717  1.6185 -0.6999
 5450SOL     OW27985   3.863   3.767  15.106 -0.1114 -0.2622  0.0688
 5450SOL    HW127986   3.862   3.710  15.029  1.1801  0.3461 -0.4094
 5450SOL    HW227987   3.923   3.835  15.075  1.2574 -1.5096 -0.0101
 5451SOL     OW27988   2.717   3.041   1.367  0.3592 -0.0163 -0.5831
 5451SOL    HW127989   2.625   3.026   1.390  0.3757 -0.5220 -0.8526
 5451SOL    HW227990   2.756   2.955   1.378 -2.3364 -0.8775  2.1985
 5452SOL     OW27991   2.037   1.193   9.620  0.0867 -0.4146  0.4392
 5452SOL    HW127992   1.945   1.167   9.631 -0.2399 -0.2527 -1.8944
 5452SOL    HW227993   2.034   1.274   9.569 -2.1440 -1.5925 -1.3186
 5453SOL     OW27994   0.323   1.497   3.318 -0.0368  0.1124 -0.5426
 5453SOL    HW127995   0.241   1.532   3.353  1.1591  0.7580  1.6007
 5453SOL    HW227996   0.293   1.460   3.235 -1.7348 -2.0549  1.0126
 5454SOL     OW27997   0.070   0.919   7.355  0.4354  0.5623 -0.6524
 5454SOL    HW127998   0.106   0.966   7.431 -0.7031  1.9050 -0.9316
 5454SOL    HW227999   4.715   0.913   7.377  1.0193 -1.2440  1.2778
 5455SOL     OW28000   0.073   1.225   0.520  0.5064  0.0912  0.3231
 5455SOL    HW128001   0.130   1.302   0.517  0.2301  0.2301 -1.2342
 5455SOL    HW228002   0.144   1.165   0.541 -0.2351 -0.7193  0.5271
 5456SOL     OW28003   0.938   0.577   5.814  0.1300 -0.6569  0.6665
 5456SOL    HW128004   0.921   0.625   5.895 -0.3959  1.0348 -0.4402
 5456SOL    HW228005   1.002   0.639   5.778 -1.2560  0.6690  0.4886
 5457SOL     OW28006   3.740   0.141   8.653 -0.3102 -0.0093  0.1623
 5457SOL    HW128007   3.804   0.113   8.588 -2.0493  1.3153 -2.1024
 5457SOL    HW228008   3.674   0.072   8.650 -0.9958  0.5461  2.0343
 5458SOL     OW28009   3.531   1.322  16.146 -0.0330  0.4035  0.3334
 5458SOL    HW128010   3.546   1.397  16.089  3.2959  0.9856  1.9815
 5458SOL    HW228011   3.437   1.331  16.162 -0.2124  0.5993 -0.8250
 5459SOL     OW28012   0.145   2.571  10.163  0.1048 -0.5228 -1.0488
 5459SOL    HW128013   0.198   2.650  10.167 -0.7982  0.0579 -0.4283
 5459SOL    HW228014   0.124   2.550  10.255  2.2450 -0.5287 -0.5717
 5460SOL     OW28015   2.736   1.445   0.100 -0.1223 -0.1104  0.2284
 5460SOL    HW128016   2.743   1.540   0.112  1.0462 -0.0340 -1.1250
 5460SOL    HW228017   2.730   1.423   0.193 -0.8188 -0.5316  0.0855
 5461SOL     OW28018   3.008   4.399   8.489  0.3874  1.0240 -0.0793
 5461SOL    HW128019   2.924   4.445   8.496  0.5381  1.0559  1.5356
 5461SOL    HW228020   2.978   4.320   8.533 -0.4327  0.5289 -1.5297
 5462SOL     OW28021   3.539   2.557   3.302  0.3523 -0.3097  0.0143
 5462SOL    HW128022   3.548   2.485   3.238  1.9992  0.6464 -0.8184
 5462SOL    HW228023   3.516   2.514   3.385  0.6928 -3.2561 -1.3883
 5463SOL     OW28024   1.044   3.434  13.112  0.3508  0.2707  0.3673
 5463SOL    HW128025   1.051   3.340  13.129 -0.5833  0.3430  1.1881
 5463SOL    HW228026   1.135   3.459  13.128  0.1569  0.8762  0.5204
 5464SOL     OW28027   1.325   1.084   2.096 -0.6240 -0.3110  0.2631
 5464SOL    HW128028   1.346   0.992   2.085 -1.2998 -0.2785 -1.3001
 5464SOL    HW228029   1.413   1.121   2.088 -0.5464 -0.5227  0.1601
 5465SOL     OW28030   1.047   3.665   5.716 -0.9593 -0.2085  0.2757
 5465SOL    HW128031   1.025   3.639   5.627 -1.2401  0.6423  0.0981
 5465SOL    HW228032   1.097   3.590   5.748  0.3137 -0.8993 -3.3609
 5466SOL     OW28033   3.822   4.335  13.592 -0.1324 -0.2701  0.2927
 5466SOL    HW128034   3.917   4.348  13.584  0.1534 -1.7684  1.1291
 5466SOL    HW228035   3.821   4.242  13.615 -0.8322 -0.3859 -0.2190
 5467SOL     OW28036   0.666   0.382   4.212  0.3185 -0.0466  0.0989
 5467SOL    HW128037   0.690   0.289   4.200 -0.3121 -0.1858 -0.0444
 5467SOL    HW228038   0.604   0.364   4.283  1.6844 -0.8875  1.0960
 5468SOL     OW28039   2.554   1.764   7.631  0.3326 -0.1534 -0.1996
 5468SOL    HW128040   2.592   1.676   7.635 -1.1421 -0.6998  2.0314
 5468SOL    HW228041   2.622   1.813   7.586  0.4056 -1.8965 -2.0148
 5469SOL     OW28042   2.154   0.166   0.582  0.1283  0.2887  0.2354
 5469SOL    HW128043   2.155   0.096   0.647  0.0614 -0.9330 -1.0685
 5469SOL    HW228044   2.059   0.172   0.574 -0.0440 -0.5972  1.6655
 5470SOL     OW28045   0.500   1.894   0.396  0.1398  0.4027 -0.0306
 5470SOL    HW128046   0.482   1.886   0.302  0.5568  2.3051 -0.2786
 5470SOL    HW228047   0.409   1.898   0.427  0.2180  0.0162  0.2471
 5471SOL     OW28048   1.266   2.600   7.786  0.2524 -0.5099 -0.0552
 5471SOL    HW128049   1.178   2.588   7.821  0.4742 -1.1324  0.2924
 5471SOL    HW228050   1.261   2.672   7.723  1.8788 -0.2910  0.0485
 5472SOL     OW28051   0.221   2.320   1.427 -0.4276  0.0341 -0.0274
 5472SOL    HW128052   0.265   2.265   1.362 -0.1282  0.4161 -0.1482
 5472SOL    HW228053   0.217   2.408   1.389  1.4017  0.2689  0.3168
 5473SOL     OW28054   4.169   0.272   8.841 -0.5839 -0.4025  0.1432
 5473SOL    HW128055   4.090   0.223   8.863 -1.9140  1.8551  0.2946
 5473SOL    HW228056   4.193   0.229   8.758  2.1532 -1.7988  1.6403
 5474SOL     OW28057   0.011   3.242  12.349  0.0675  0.4987 -0.0761
 5474SOL    HW128058   0.048   3.195  12.274  0.3481 -1.1836  1.1399
 5474SOL    HW228059   0.040   3.202  12.430  0.3071  0.5458 -0.1381
 5475SOL     OW28060   0.313   1.910  14.844 -0.2192  0.3096 -0.2298
 5475SOL    HW128061   0.301   1.994  14.799  1.3379  1.6175  1.7562
 5475SOL    HW228062   0.408   1.911  14.835 -0.2468 -0.7785 -0.5515
 5476SOL     OW28063   2.768   0.395   1.284 -0.4359 -0.4135  0.1914
 5476SOL    HW128064   2.754   0.416   1.192 -3.7520 -0.1486  0.7360
 5476SOL    HW228065   2.846   0.340   1.283  0.3528  0.7190 -0.5766
 5477SOL     OW28066   0.711   2.912   5.991  0.4656 -0.3334  0.0951
 5477SOL    HW128067   0.649   2.948   6.054  1.8567  2.2935 -0.0521
 5477SOL    HW228068   0.694   2.818   5.990  3.2252 -0.8436  0.2999
 5478SOL     OW28069   0.192   3.131   6.018  0.4600  0.3660 -0.3087
 5478SOL    HW128070   0.242   3.060   6.058  1.7907  0.8265 -1.1587
 5478SOL    HW228071   0.134   3.088   5.956  2.0661 -0.5373 -1.1944
 5479SOL     OW28072   0.503   0.858   1.791  0.1674 -0.9571 -0.6198
 5479SOL    HW128073   0.568   0.895   1.851 -0.2147 -0.6827 -0.3775
 5479SOL    HW228074   0.475   0.936   1.744  2.1894  0.2288  0.1390
 5480SOL     OW28075   0.751   4.594   2.283 -0.3118  0.2860  0.4580
 5480SOL    HW128076   0.770   4.586   2.377  1.6622  0.5807  0.0905
 5480SOL    HW228077   0.814   4.660   2.256 -2.0081  1.8587  0.4100
 5481SOL     OW28078   0.858   2.651   2.611 -0.2631  0.0641 -0.2132
 5481SOL    HW128079   0.915   2.656   2.534 -0.1286  2.2903  0.0406
 5481SOL    HW228080   0.918   2.619   2.679 -0.7402  0.1206  0.2294
 5482SOL     OW28081   2.573   0.461   8.508 -0.3925 -0.2697 -0.6589
 5482SOL    HW128082   2.540   0.416   8.585 -1.5241 -0.5783 -1.3165
 5482SOL    HW228083   2.641   0.516   8.548 -1.9208  0.6674  0.6436
 5483SOL     OW28084   3.122   3.534   5.210 -0.3551 -0.5058 -0.0817
 5483SOL    HW128085   3.075   3.586   5.144  0.7263  0.4827 -0.0672
 5483SOL    HW228086   3.057   3.488   5.263 -0.8577 -1.2212 -1.3067
 5484SOL     OW28087   4.696   1.648   3.071  0.2963 -0.3802  0.2081
 5484SOL    HW128088   4.685   1.625   3.163  1.7937 -3.1568 -0.2917
 5484SOL    HW228089   0.001   1.733   3.066 -1.4664  0.3002 -2.9538
 5485SOL     OW28090   3.739   3.394   8.952 -0.5717  0.0533 -0.1481
 5485SOL    HW128091   3.773   3.368   9.038 -3.0804 -1.3279  0.4392
 5485SOL    HW228092   3.647   3.392   8.978 -0.9798  0.9388 -1.5053
 5486SOL     OW28093   4.655   0.610   0.126 -0.2700  0.2496  0.0999
 5486SOL    HW128094   4.687   0.554   0.197  0.4260  1.9590  1.1433
 5486SOL    HW228095   4.631   0.680   0.186  0.5288  1.4262 -0.9469
 5487SOL     OW28096   3.293   1.470   5.488 -0.3131  0.0019 -0.3978
 5487SOL    HW128097   3.333   1.390   5.453 -0.5674  0.0764 -0.8463
 5487SOL    HW228098   3.267   1.518   5.410 -1.4731  1.4602  0.8765
 5488SOL     OW28099   3.367   4.696   6.511 -0.1328  0.4376  0.4399
 5488SOL    HW128100   3.380   4.620   6.567  2.1674  0.4357 -0.0637
 5488SOL    HW228101   3.452   0.000   6.529  0.1862  0.2698 -0.6376
 5489SOL     OW28102   3.607   4.421   3.690  0.1512  0.1242 -0.2364
 5489SOL    HW128103   3.672   4.358   3.722  2.6222  1.9090 -1.6900
 5489SOL    HW228104   3.666   4.481   3.644  0.1769 -0.4736 -0.9797
 5490SOL     OW28105   0.789   2.904   4.703  0.4337 -0.3858  0.1692
 5490SOL    HW128106   0.742   2.899   4.619 -0.6948  0.0348  0.7716
 5490SOL    HW228107   0.786   2.814   4.736  3.1373 -0.3872  0.4196
 5491SOL     OW28108   2.964   2.948   3.055  0.4315  0.2706  0.0020
 5491SOL    HW128109   2.979   2.854   3.062  2.7230  0.8546  2.7500
 5491SOL    HW228110   3.019   2.987   3.122  0.0304 -1.5037  1.3667
 5492SOL     OW28111   4.717   2.997  13.853 -0.0820 -0.0822 -0.0803
 5492SOL    HW128112   4.683   2.923  13.903  0.3687  0.6580  1.3206
 5492SOL    HW228113   4.711   3.072  13.912  2.7532  1.0662 -1.2227
 5493SOL     OW28114   2.495   1.023   8.932 -0.4211 -0.3239  0.0686
 5493SOL    HW128115   2.434   1.071   8.876  0.0230  0.5628  0.3497
 5493SOL    HW228116   2.435   0.986   8.997  1.9862 -0.2019  2.3445
 5494SOL     OW28117   0.606   2.655  13.584 -0.0302  0.3373 -0.0905
 5494SOL    HW128118   0.700   2.651  13.602 -0.3692 -2.6580  0.9902
 5494SOL    HW228119   0.585   2.564  13.560  0.0842  0.2163  0.2704
 5495SOL     OW28120   3.494   1.993   0.245 -0.0050  0.1960  0.0844
 5495SOL    HW128121   3.485   2.083   0.275 -0.5460 -0.0439  0.6279
 5495SOL    HW228122   3.565   1.969   0.304  1.8423  1.5361 -1.5975
 5496SOL     OW28123   3.823   2.350   2.651  0.3635 -0.0936 -0.0770
 5496SOL    HW128124   3.829   2.445   2.655  0.6843 -0.0927 -0.6827
 5496SOL    HW228125   3.914   2.328   2.629  0.8543  1.4597  0.4459
 5497SOL     OW28126   4.117   2.240  12.567 -0.2085  0.2238 -0.5576
 5497SOL    HW128127   4.053   2.178  12.533  0.3676  0.0156 -1.2744
 5497SOL    HW228128   4.181   2.223  12.498  1.7294  1.4370  0.9522
 5498SOL     OW28129   1.603   2.996  14.869  0.2839 -0.1514 -0.2858
 5498SOL    HW128130   1.622   2.960  14.783 -1.5259  0.3323 -0.8861
 5498SOL    HW228131   1.687   3.015  14.911 -0.3422  2.4044 -0.1594
 5499SOL     OW28132   3.882   1.727  11.413 -0.2171 -0.5059  0.6094
 5499SOL    HW128133   3.897   1.815  11.378  1.6471 -0.8072  0.6679
 5499SOL    HW228134   3.938   1.678  11.353 -0.9890 -1.7372  0.8871
 5500SOL     OW28135   3.054   0.092   7.425  0.1334 -0.3920 -0.4405
 5500SOL    HW128136   3.103   0.169   7.396 -0.5293  0.0587 -0.3558
 5500SOL    HW228137   2.963   0.106   7.397 -0.6298 -0.8561  1.8358
 5501SOL     OW28138   1.616   2.101   9.851  0.4586 -0.0528  0.0551
 5501SOL    HW128139   1.700   2.123   9.891 -0.2561  0.4818  1.2439
 5501SOL    HW228140   1.605   2.012   9.885  0.3691  0.3404  1.0681
 5502SOL     OW28141   1.366   0.132   3.266 -0.3944  0.2624  0.2060
 5502SOL    HW128142   1.337   0.185   3.191 -2.6000 -0.2070  0.7215
 5502SOL    HW228143   1.458   0.121   3.243 -0.5325 -1.2829  0.3556
 5503SOL     OW28144   3.202   3.060  15.376 -0.4011  0.3695  0.0441
 5503SOL    HW128145   3.189   2.986  15.317 -1.3891  1.4220 -1.0490
 5503SOL    HW228146   3.117   3.102  15.362 -0.4220 -0.0928 -1.1890
 5504SOL     OW28147   3.934   2.313   7.732  0.0300  0.2109 -0.5913
 5504SOL    HW128148   3.925   2.245   7.800  1.6906 -0.5207 -1.1244
 5504SOL    HW228149   3.871   2.385   7.738  0.4710  0.5685 -0.2566
 5505SOL     OW28150   1.418   3.053  13.893  0.1134  0.0623  0.6150
 5505SOL    HW128151   1.420   3.097  13.977 -0.9145 -1.5150  1.4713
 5505SOL    HW228152   1.323   3.056  13.876  0.2644  0.9039 -0.0787
 5506SOL     OW28153   2.474   4.399  10.354  0.1852  0.0818  0.1201
 5506SOL    HW128154   2.431   4.349  10.285 -0.4360  0.1220  0.4721
 5506SOL    HW228155   2.489   4.483  10.312 -0.3751  0.0233 -0.1921
 5507SOL     OW28156   0.388   1.086   8.333 -0.3740 -0.2831  0.2563
 5507SOL    HW128157   0.325   1.064   8.402 -0.9473 -1.7454 -0.7201
 5507SOL    HW228158   0.362   1.177   8.317 -0.7606  0.2664  3.9471
 5508SOL     OW28159   0.248   0.193   8.839 -0.1100  0.3905 -0.1334
 5508SOL    HW128160   0.234   0.201   8.744 -1.5050 -0.8449 -0.0217
 5508SOL    HW228161   0.165   0.197   8.885 -0.4713 -0.3303 -0.7377
 5509SOL     OW28162   4.693   2.582   5.590 -0.1713 -0.2053  0.1718
 5509SOL    HW128163   4.697   2.675   5.566 -0.3850 -0.7978 -2.2027
 5509SOL    HW228164   4.655   2.545   5.510  0.0523 -0.9586  0.4117
 5510SOL     OW28165   2.322   4.151  11.430  0.1837 -0.3194  0.6036
 5510SOL    HW128166   2.392   4.123  11.370 -0.6883  0.5329 -0.8230
 5510SOL    HW228167   2.351   4.131  11.519 -0.6500 -0.3788  0.8556
 5511SOL     OW28168   0.858   0.995   4.193 -0.0565 -0.6130 -0.2362
 5511SOL    HW128169   0.885   1.066   4.252  1.6831 -1.6432  0.2174
 5511SOL    HW228170   0.806   0.950   4.259  0.4489 -0.1485  0.4771
 5512SOL     OW28171   2.949   2.250  11.424  0.0977  0.8551  0.1500
 5512SOL    HW128172   3.023   2.309  11.413  0.5885  0.3712  0.8427
 5512SOL    HW228173   2.896   2.304  11.484 -1.4953 -0.7256  0.1724
 5513SOL     OW28174   1.891   3.991  17.445  0.1971  0.6841 -0.0396
 5513SOL    HW128175   1.969   4.017  17.494  1.8008 -0.7541 -1.8823
 5513SOL    HW228176   1.821   4.051  17.474 -0.3847  1.1328 -2.4140
 5514SOL     OW28177   4.364   0.447   8.939 -0.2724  0.7142  0.3827
 5514SOL    HW128178   4.358   0.402   9.023  1.2314 -2.1281 -1.0230
 5514SOL    HW228179   4.296   0.399   8.892 -1.0283 -0.9021  3.1548
 5515SOL     OW28180   0.717   1.326  11.837  0.1387  0.4232  0.7683
 5515SOL    HW128181   0.689   1.373  11.759 -0.3752 -0.2608  0.5361
 5515SOL    HW228182   0.674   1.388  11.896  0.0241 -0.8607  2.0447
 5516SOL     OW28183   1.401   0.913   8.158  0.3826  0.0347  0.3917
 5516SOL    HW128184   1.349   0.929   8.237  0.7416  1.8434  0.2659
 5516SOL    HW228185   1.330   0.888   8.099 -0.5151 -0.4153  1.6715
 5517SOL     OW28186   4.641   0.681   5.385  1.0205 -0.2043  0.2491
 5517SOL    HW128187   4.605   0.630   5.313  1.0276  0.7408 -0.4324
 5517SOL    HW228188   4.639   0.767   5.343  0.0771 -0.4320 -0.1494
 5518SOL     OW28189   3.282   3.709   1.651  0.1664  0.1906  0.6025
 5518SOL    HW128190   3.269   3.651   1.576  0.2813 -2.7798  2.8529
 5518SOL    HW228191   3.194   3.740   1.673 -0.1796 -0.7514  0.5716
 5519SOL     OW28192   3.264   2.187   6.672 -0.2202 -0.5570  0.2296
 5519SOL    HW128193   3.255   2.168   6.579  1.2108  0.2431 -0.0679
 5519SOL    HW228194   3.332   2.122   6.691 -0.6770 -1.1800 -0.2687
 5520SOL     OW28195   0.171   4.136   1.838  0.2822  0.1021  0.2456
 5520SOL    HW128196   0.240   4.085   1.882  0.2327 -1.4592 -1.4775
 5520SOL    HW228197   0.204   4.225   1.847  0.6358  0.1143 -1.1955
 5521SOL     OW28198   1.663   2.178   9.152  0.5788 -0.7951  0.5749
 5521SOL    HW128199   1.608   2.234   9.207 -0.0060 -0.7792 -0.0184
 5521SOL    HW228200   1.597   2.111   9.133 -0.6910  0.6283 -0.0318
 5522SOL     OW28201   3.881   3.882   8.839 -1.1709  0.5214 -0.2489
 5522SOL    HW128202   3.846   3.793   8.835 -1.3705  0.5611  0.6022
 5522SOL    HW228203   3.891   3.895   8.934 -1.1869  1.1793 -0.3379
 5523SOL     OW28204   2.616   3.807   2.366  0.1503  0.6072  0.4143
 5523SOL    HW128205   2.606   3.804   2.461 -3.4884 -0.6232 -0.0182
 5523SOL    HW228206   2.661   3.888   2.342  0.4217  0.0627 -0.9407
 5524SOL     OW28207   2.156   3.476   4.261 -0.4492  0.5035  0.2608
 5524SOL    HW128208   2.078   3.421   4.251 -0.2978  0.1195  1.2638
 5524SOL    HW228209   2.168   3.473   4.356  0.3998  1.9638  0.1983
 5525SOL     OW28210   0.039   4.029  16.590 -0.3078  0.1401 -0.5788
 5525SOL    HW128211   0.021   4.040  16.683 -0.7879 -0.2543 -0.6283
 5525SOL    HW228212   4.713   3.962  16.566  0.6679 -0.0259 -2.7223
 5526SOL     OW28213   0.391   3.143  12.778 -0.2432 -0.5548 -0.0719
 5526SOL    HW128214   0.466   3.200  12.764 -0.0153 -1.8966 -4.4508
 5526SOL    HW228215   0.401   3.067  12.721 -1.8104  0.7218 -2.0835
 5527SOL     OW28216   1.838   0.392   9.699 -0.2158 -0.3907  0.1732
 5527SOL    HW128217   1.767   0.448   9.668 -0.4658  0.5081  2.3496
 5527SOL    HW228218   1.915   0.425   9.654  0.8909 -1.0228  1.5881
 5528SOL     OW28219   2.610   1.815   9.785  0.1313 -0.4936 -0.6158
 5528SOL    HW128220   2.587   1.807   9.878  0.5861 -0.7430 -0.5208
 5528SOL    HW228221   2.530   1.846   9.743  0.1261  0.0581 -0.2086
 5529SOL     OW28222   0.955   0.571   3.550 -0.3845  0.1308  0.7782
 5529SOL    HW128223   1.010   0.595   3.625  1.7647  0.1517 -0.8017
 5529SOL    HW228224   0.885   0.636   3.547  0.2573  0.8160  0.3893
 5530SOL     OW28225   1.466   3.969   4.401 -0.1168  0.2418  0.0320
 5530SOL    HW128226   1.407   4.008   4.337 -0.0524 -0.5092 -0.4816
 5530SOL    HW228227   1.468   3.881   4.363 -2.4944  0.0969  0.2707
 5531SOL     OW28228   4.558   0.332   3.968 -0.3298 -0.1337  0.1764
 5531SOL    HW128229   4.549   0.424   3.944  2.7249 -0.0245 -0.5394
 5531SOL    HW228230   4.507   0.318   4.047 -1.2418 -0.0027 -0.3927
 5532SOL     OW28231   0.184   0.193  14.893 -0.5418  0.3301  0.4789
 5532SOL    HW128232   0.203   0.208  14.800 -0.8639  1.3481  0.5742
 5532SOL    HW228233   0.156   0.102  14.890  0.7222 -0.0573  0.2056
 5533SOL     OW28234   2.052   1.697  13.377  0.2210 -0.0632  0.2582
 5533SOL    HW128235   1.976   1.731  13.425  0.4418  1.8817 -0.7750
 5533SOL    HW228236   2.020   1.609  13.359  0.2343  0.0320 -0.2191
 5534SOL     OW28237   0.141   3.683   5.419  0.1771 -0.4100 -0.3731
 5534SOL    HW128238   0.112   3.619   5.353 -0.9449  0.0491 -0.3233
 5534SOL    HW228239   0.127   3.639   5.502 -1.3417 -2.0177 -1.4669
 5535SOL     OW28240   3.458   0.995   5.442  0.6426  0.0147 -0.3043
 5535SOL    HW128241   3.549   0.980   5.469 -0.4286 -4.3187  0.8649
 5535SOL    HW228242   3.425   0.905   5.438  0.7105 -0.0100 -0.3121
 5536SOL     OW28243   1.693   4.424   7.823  0.6615  0.5286 -0.1772
 5536SOL    HW128244   1.635   4.348   7.808  2.7030 -1.2859  1.1449
 5536SOL    HW228245   1.713   4.445   7.732  2.2453 -0.3278 -0.0191
 5537SOL     OW28246   1.587   0.108   8.038 -0.0373 -0.1740  0.3446
 5537SOL    HW128247   1.542   0.032   8.001  0.8107  0.9952 -3.0918
 5537SOL    HW228248   1.538   0.101   8.119 -2.2640  0.6171 -0.9211
 5538SOL     OW28249   2.948   3.017  14.188  0.1331  0.4591 -0.0926
 5538SOL    HW128250   2.952   3.097  14.241  1.7072 -0.4501  1.1561
 5538SOL    HW228251   2.854   3.020  14.169 -0.3027  1.2184  2.1608
 5539SOL     OW28252   1.272   1.297   7.718 -0.1141 -0.1868  0.3487
 5539SOL    HW128253   1.287   1.279   7.625 -1.2573  3.7903 -0.5816
 5539SOL    HW228254   1.356   1.337   7.742 -0.1713 -1.0627  2.0501
 5540SOL     OW28255   1.737   0.343   7.065  0.0067  0.0994 -0.6165
 5540SOL    HW128256   1.643   0.362   7.070  0.3875  1.5664  1.0098
 5540SOL    HW228257   1.783   0.423   7.041 -0.8788  0.5494 -0.8376
 5541SOL     OW28258   1.402   4.333   6.057  0.0695  0.1371 -0.5641
 5541SOL    HW128259   1.410   4.428   6.043 -1.5617  0.3308 -0.1709
 5541SOL    HW228260   1.495   4.309   6.060 -0.1335 -0.6138 -0.2735
 5542SOL     OW28261   1.775   1.881  15.660 -0.2462  0.7030 -0.3030
 5542SOL    HW128262   1.746   1.832  15.583  0.5722  0.4299 -0.4391
 5542SOL    HW228263   1.798   1.798  15.703 -0.6166  0.6503 -0.2040
 5543SOL     OW28264   4.716   2.433  13.728  0.7176  0.0086  0.6787
 5543SOL    HW128265   4.737   2.380  13.805  1.4819 -0.6210  0.0370
 5543SOL    HW228266   4.620   2.428  13.729  0.7257 -0.0003  1.3889
 5544SOL     OW28267   4.456   3.793   5.486 -0.2848  0.1341  0.1373
 5544SOL    HW128268   4.400   3.804   5.564 -1.2753 -0.8191 -0.4476
 5544SOL    HW228269   4.483   3.884   5.471 -0.4114 -0.2444 -2.2597
 5545SOL     OW28270   3.398   4.605   6.238  0.3533  0.0560  0.9402
 5545SOL    HW128271   3.376   4.644   6.323 -0.2645  1.4026  0.1595
 5545SOL    HW228272   3.319   4.554   6.221 -0.3203  1.2312  0.5095
 5546SOL     OW28273   4.411   2.473  10.594  0.0425  0.3056  0.1257
 5546SOL    HW128274   4.393   2.556  10.550  1.9357 -0.5037 -2.1831
 5546SOL    HW228275   4.454   2.424  10.524  2.0637  0.9902  0.8923
 5547SOL     OW28276   2.395   1.058  10.739  0.1054  0.2590 -0.2733
 5547SOL    HW128277   2.395   0.963  10.728  0.7982  0.5548 -2.7622
 5547SOL    HW228278   2.360   1.065  10.828 -0.2829 -1.1537 -0.3054
 5548SOL     OW28279   2.842   1.183   8.191  0.1489 -0.4331 -0.2563
 5548SOL    HW128280   2.780   1.176   8.119  1.0972 -1.4119 -0.9693
 5548SOL    HW228281   2.880   1.095   8.196 -0.2093 -0.5919 -0.3284
 5549SOL     OW28282   0.780   0.608   0.978 -0.5724  0.6304 -0.0044
 5549SOL    HW128283   0.740   0.693   0.998 -0.9771 -0.3454  3.4175
 5549SOL    HW228284   0.860   0.638   0.936  0.4312 -1.8747  0.1454
 5550SOL     OW28285   3.449   2.406   0.610 -0.2371 -0.4475  0.7958
 5550SOL    HW128286   3.367   2.450   0.630 -0.1620  0.0727 -0.0742
 5550SOL    HW228287   3.440   2.386   0.517 -0.4153 -2.1688  1.1778
 5551SOL     OW28288   1.785   3.361  13.566 -0.5125  0.1821 -0.3329
 5551SOL    HW128289   1.752   3.309  13.492  1.7016  0.8255 -1.8101
 5551SOL    HW228290   1.705   3.370  13.617  0.5431  0.6574  1.2259
 5552SOL     OW28291   2.471   3.736   8.458  0.2295 -0.4509  0.0031
 5552SOL    HW128292   2.444   3.824   8.483 -0.4098 -0.5339 -0.4140
 5552SOL    HW228293   2.397   3.676   8.450 -1.0329  0.8436  2.3034
 5553SOL     OW28294   4.449   0.925   6.473 -0.2003 -0.5060 -0.3891
 5553SOL    HW128295   4.360   0.961   6.478  0.0668  0.0031  0.4859
 5553SOL    HW228296   4.471   0.937   6.565 -0.7168  0.2514 -0.3691
 5554SOL     OW28297   0.912   3.706   7.491 -0.3362  0.0258 -0.2263
 5554SOL    HW128298   0.847   3.769   7.459 -0.2866  0.4525  0.5263
 5554SOL    HW228299   0.982   3.762   7.523 -0.0373  0.4485 -1.6138
 5555SOL     OW28300   0.536   2.454  14.287  0.3075 -0.0954 -0.1592
 5555SOL    HW128301   0.451   2.413  14.271 -0.3529  0.7905  1.0600
 5555SOL    HW228302   0.517   2.534  14.238  0.8617  0.2479  0.1868
 5556SOL     OW28303   0.670   1.813   7.158  0.8817 -0.2253  0.0104
 5556SOL    HW128304   0.644   1.765   7.079 -0.4876  0.8359 -0.1690
 5556SOL    HW228305   0.725   1.875   7.110 -0.0323 -0.4235 -1.3003
 5557SOL     OW28306   1.978   2.157   4.752 -0.4432 -0.4111  0.2373
 5557SOL    HW128307   2.034   2.234   4.753 -0.8588 -0.0847 -1.5788
 5557SOL    HW228308   1.995   2.136   4.844 -3.0789  1.9015  1.2438
 5558SOL     OW28309   1.612   2.570   5.257 -0.0558  0.1099  0.2549
 5558SOL    HW128310   1.700   2.544   5.283  0.1381 -0.2800 -0.7696
 5558SOL    HW228311   1.565   2.545   5.336 -2.2680  0.9982 -0.7459
 5559SOL     OW28312   2.655   0.388   5.958 -0.2709  0.0252 -0.0305
 5559SOL    HW128313   2.591   0.325   5.990  0.3175 -0.3309  0.4489
 5559SOL    HW228314   2.701   0.330   5.897 -0.5536 -0.4463  0.1986
 5560SOL     OW28315   3.611   1.129  12.759  0.7392 -0.0064  0.2325
 5560SOL    HW128316   3.570   1.171  12.683  1.5785 -1.4757 -1.0199
 5560SOL    HW228317   3.702   1.131  12.730  0.2069 -1.4566 -1.5036
 5561SOL     OW28318   4.366   1.452   8.280  0.0660  0.1299 -0.5144
 5561SOL    HW128319   4.344   1.388   8.213 -0.0377  0.2025 -0.5494
 5561SOL    HW228320   4.454   1.468   8.247 -0.6933  0.6250 -2.3083
 5562SOL     OW28321   2.142   1.107   7.368  0.0548 -0.1358 -0.3388
 5562SOL    HW128322   2.225   1.153   7.352 -1.6615  3.0737  0.0934
 5562SOL    HW228323   2.128   1.143   7.455 -0.6709  0.0741 -0.5432
 5563SOL     OW28324   3.759   3.589   5.423 -0.2335 -0.5290 -0.2029
 5563SOL    HW128325   3.718   3.506   5.446 -2.8481  0.7292 -0.3695
 5563SOL    HW228326   3.824   3.600   5.493  0.0526 -1.4012 -0.3349
 5564SOL     OW28327   1.727   0.625   0.019  0.9270  0.0868 -0.0985
 5564SOL    HW128328   1.655   0.653  17.712  1.1135 -0.9078 -0.8368
 5564SOL    HW228329   1.684   0.565   0.080 -0.7835  0.7623 -0.6622
 5565SOL     OW28330   3.430   0.850   5.846  0.2059 -0.0789 -0.3080
 5565SOL    HW128331   3.483   0.882   5.918  0.4994  2.6724 -1.7603
 5565SOL    HW228332   3.470   0.903   5.777 -0.7263  1.4066  0.2957
 5566SOL     OW28333   3.517   4.162  14.408  0.4285  0.2748 -0.4080
 5566SOL    HW128334   3.552   4.247  14.382  1.5745  0.7588  2.6070
 5566SOL    HW228335   3.542   4.104  14.336 -0.3900 -0.0633 -0.4092
 5567SOL     OW28336   1.448   2.435   7.483 -0.0528 -0.1061  0.1055
 5567SOL    HW128337   1.399   2.513   7.458 -1.8755 -0.9944  0.8744
 5567SOL    HW228338   1.533   2.467   7.514 -0.3920  1.0278 -0.1354
 5568SOL     OW28339   4.152   0.847   9.288 -0.2999 -0.3530 -0.0466
 5568SOL    HW128340   4.175   0.922   9.234  0.9397 -0.4082  0.4040
 5568SOL    HW228341   4.076   0.814   9.241 -0.4268  0.2037 -0.2308
 5569SOL     OW28342   2.473   2.308   2.714 -0.2078 -0.1221  0.1271
 5569SOL    HW128343   2.489   2.388   2.764 -2.8626  0.4179  0.1232
 5569SOL    HW228344   2.380   2.322   2.699 -0.0280  1.9932  1.0589
 5570SOL     OW28345   4.024   2.625   8.804 -0.0043  0.3889 -0.0507
 5570SOL    HW128346   4.064   2.624   8.717 -2.3841 -0.1045 -1.1302
 5570SOL    HW228347   4.085   2.682   8.850  0.0695 -0.0273  0.3613
 5571SOL     OW28348   3.190   0.635  16.281  0.1480  0.2406  0.1626
 5571SOL    HW128349   3.242   0.591  16.215  1.2072  0.8893  0.5666
 5571SOL    HW228350   3.102   0.650  16.248  0.4410 -1.2177 -1.2665
 5572SOL     OW28351   0.753   3.475   3.751  0.2106 -0.4747  0.4519
 5572SOL    HW128352   0.750   3.379   3.754  1.0048 -0.5332 -0.4941
 5572SOL    HW228353   0.838   3.475   3.707  0.9849 -0.9471  1.9507
 5573SOL     OW28354   0.730   1.387  16.492  0.2216  0.6574  0.4770
 5573SOL    HW128355   0.788   1.316  16.465 -0.2960  0.2021  0.5609
 5573SOL    HW228356   0.791   1.456  16.515  2.3230 -1.1933  0.4639
 5574SOL     OW28357   1.208   2.185  10.947 -0.7815 -0.0189 -0.5572
 5574SOL    HW128358   1.277   2.251  10.949 -0.3704 -0.5181  1.6845
 5574SOL    HW228359   1.181   2.187  10.855 -2.1418 -0.5213 -0.1640
 5575SOL     OW28360   0.304   3.848   7.765 -0.4089  0.5303  0.4448
 5575SOL    HW128361   0.385   3.839   7.715 -0.7783 -0.4571  0.0167
 5575SOL    HW228362   0.242   3.797   7.713  1.3081 -0.4478 -0.6610
 5576SOL     OW28363   0.159   2.772  11.169  0.1274  0.4995 -0.0537
 5576SOL    HW128364   0.143   2.865  11.152  1.9388  0.6032 -1.1512
 5576SOL    HW228365   0.235   2.783  11.226 -0.9614  0.7242  1.3420
 5577SOL     OW28366   3.280   4.628   0.451 -0.3736 -0.5077 -0.1497
 5577SOL    HW128367   3.345   4.594   0.513 -0.7805  2.4069  1.8343
 5577SOL    HW228368   3.299   4.721   0.454  3.0735 -1.2152  0.2662
 5578SOL     OW28369   1.753   4.392   4.121  0.4734 -0.6924 -0.2503
 5578SOL    HW128370   1.798   4.399   4.037  0.3820 -0.6056 -0.2924
 5578SOL    HW228371   1.787   4.309   4.153 -0.7620 -1.9499 -2.2138
 5579SOL     OW28372   3.753   3.658   4.905 -0.1810  0.0977 -0.2977
 5579SOL    HW128373   3.747   3.610   4.988 -0.8556  2.1008  0.8231
 5579SOL    HW228374   3.659   3.671   4.891 -0.0985  0.3298 -0.6477
 5580SOL     OW28375   2.092   3.449   5.324 -0.1452  0.0053  0.1507
 5580SOL    HW128376   2.077   3.529   5.274 -1.1229 -0.4295 -0.2455
 5580SOL    HW228377   2.161   3.481   5.382 -0.4992 -0.4215  0.7997
 5581SOL     OW28378   1.788   1.095   1.328 -0.0941 -0.3674 -0.3475
 5581SOL    HW128379   1.730   1.057   1.262  1.4559  1.4146 -2.7664
 5581SOL    HW228380   1.730   1.115   1.402 -0.1901 -0.0209 -0.5145
 5582SOL     OW28381   1.552   1.224  12.554  1.1088  0.1286  0.0139
 5582SOL    HW128382   1.639   1.187  12.564  0.9523 -0.2829 -0.1428
 5582SOL    HW228383   1.576   1.313  12.581  0.8106  0.1185  0.3126
 5583SOL     OW28384   2.324   1.441   4.453  0.2919 -0.1633  0.0705
 5583SOL    HW128385   2.383   1.402   4.517  0.3358 -1.6828 -0.8972
 5583SOL    HW228386   2.282   1.508   4.506 -0.0555 -1.2568  1.1650
 5584SOL     OW28387   0.904   4.527   6.134 -0.7298 -0.2402  0.3168
 5584SOL    HW128388   0.950   4.461   6.186  0.2670  0.0436 -0.1943
 5584SOL    HW228389   0.848   4.563   6.203 -2.3057  1.3501 -1.7950
 5585SOL     OW28390   0.168   0.868   6.701 -0.7316  0.2394 -0.2085
 5585SOL    HW128391   0.096   0.844   6.642  0.0531 -1.8015 -0.3292
 5585SOL    HW228392   0.248   0.848   6.653 -0.9087 -0.7829 -0.0826
 5586SOL     OW28393   3.749   4.471   6.763 -0.0900  0.1080 -0.3539
 5586SOL    HW128394   3.691   4.453   6.690 -0.9724 -1.3313  0.6917
 5586SOL    HW228395   3.709   4.542   6.813 -0.3739  0.6251 -1.3196
 5587SOL     OW28396   4.214   1.082   6.507  0.3147  0.4582  0.2854
 5587SOL    HW128397   4.210   1.166   6.553 -2.0834  0.3506  0.2678
 5587SOL    HW228398   4.141   1.029   6.538 -0.5561  1.8931  0.6606
 5588SOL     OW28399   1.958   2.027   7.608  0.0752 -0.5229 -0.5701
 5588SOL    HW128400   1.988   2.117   7.590  2.5452 -1.4084 -0.9192
 5588SOL    HW228401   2.000   1.988   7.531 -0.0553 -1.7243 -0.0269
 5589SOL     OW28402   1.694   2.469  10.871 -0.2171  1.2135 -0.3107
 5589SOL    HW128403   1.778   2.479  10.916 -0.3927  3.6230 -0.5000
 5589SOL    HW228404   1.657   2.553  10.900  1.1116  1.6094  0.2264
 5590SOL     OW28405   4.535   1.185   9.063  0.1084 -0.1936 -0.8350
 5590SOL    HW128406   4.527   1.147   8.975 -2.4732  0.9807 -1.0958
 5590SOL    HW228407   4.457   1.240   9.065  0.2374  0.0485 -2.0937
 5591SOL     OW28408   0.061   2.641   0.294  0.2548  0.6798 -0.0538
 5591SOL    HW128409   0.138   2.684   0.258  1.6429 -0.2808  1.7766
 5591SOL    HW228410   0.053   2.557   0.249 -1.4356  1.0215 -0.4045
 5592SOL     OW28411   1.519   4.358   6.884 -0.3865  0.0698 -0.2149
 5592SOL    HW128412   1.511   4.296   6.811 -1.8259  1.9134 -1.6172
 5592SOL    HW228413   1.444   4.416   6.871  0.5720  1.0712 -1.0898
 5593SOL     OW28414   3.924   4.702  12.528  0.3570 -0.8396 -0.4993
 5593SOL    HW128415   3.912   4.609  12.542  2.4102 -0.7038  2.0784
 5593SOL    HW228416   3.892   4.702  12.438  3.3515 -1.1409 -1.5761
 5594SOL     OW28417   1.191   1.088  17.141  0.0233 -0.1170  0.2818
 5594SOL    HW128418   1.252   1.029  17.185  0.9514  0.6880  0.0744
 5594SOL    HW228419   1.151   1.031  17.075  0.3864  1.4245 -1.2856
 5595SOL     OW28420   2.880   3.171   9.580  0.1241 -0.8957  0.2062
 5595SOL    HW128421   2.790   3.189   9.555  0.4184  0.6173  0.2373
 5595SOL    HW228422   2.893   3.084   9.541  2.6231  0.1904 -1.3936
 5596SOL     OW28423   4.682   3.989   1.866  0.0053  0.3593 -0.6415
 5596SOL    HW128424   0.019   4.050   1.869 -0.9372  1.2903  4.2984
 5596SOL    HW228425   4.610   4.036   1.908  1.0067  1.1905  0.1553
 5597SOL     OW28426   2.462   2.825   8.081  0.0989  0.2416 -0.5732
 5597SOL    HW128427   2.529   2.796   8.019 -0.8618 -0.5959 -1.2219
 5597SOL    HW228428   2.419   2.740   8.082 -1.4195  1.0272  0.5452
 5598SOL     OW28429   4.299   4.658   6.382  0.1689 -0.1924 -0.1417
 5598SOL    HW128430   4.297   4.575   6.429  3.7570 -0.2884 -0.1392
 5598SOL    HW228431   4.262   4.726   6.438  0.2890 -0.2348 -0.0124
 5599SOL     OW28432   1.402   4.310   5.183 -0.0854 -0.5213  0.3584
 5599SOL    HW128433   1.494   4.298   5.158  0.6090  0.5487  2.5119
 5599SOL    HW228434   1.359   4.239   5.134  1.2457 -0.2856 -1.1772
 5600SOL     OW28435   2.713   3.496  16.002 -0.2377 -0.6850 -0.5790
 5600SOL    HW128436   2.678   3.525  15.918  2.1185 -0.5279 -1.5172
 5600SOL    HW228437   2.647   3.430  16.023 -1.2152 -0.6551 -3.5966
 5601SOL     OW28438   2.606   3.817   9.912  0.0203 -0.1519 -0.3195
 5601SOL    HW128439   2.606   3.771   9.996 -0.7414 -0.8057 -0.6885
 5601SOL    HW228440   2.513   3.838   9.905 -0.4880 -2.4578 -0.3717
 5602SOL     OW28441   1.598   2.279  12.181 -0.2897 -0.2270 -0.5697
 5602SOL    HW128442   1.533   2.286  12.110 -2.1373  2.5342  1.4028
 5602SOL    HW228443   1.538   2.283  12.255  1.8242  0.9601  1.0638
 5603SOL     OW28444   3.555   3.868  14.590 -0.3673 -0.1009 -0.6338
 5603SOL    HW128445   3.535   3.834  14.503 -0.6048  1.3099 -1.1400
 5603SOL    HW228446   3.463   3.884  14.609 -0.8160  1.0842 -3.7137
 5604SOL     OW28447   1.906   4.459  14.078  0.3139 -0.5075  0.0667
 5604SOL    HW128448   1.977   4.471  14.141 -1.0423  1.0683  1.2819
 5604SOL    HW228449   1.899   4.364  14.084 -0.6451 -0.4901 -0.8379
 5605SOL     OW28450   1.026   3.465   7.313  0.4647  0.0254  0.4856
 5605SOL    HW128451   1.015   3.547   7.362  2.3858 -0.9859  2.6235
 5605SOL    HW228452   1.050   3.490   7.224 -0.4702  1.6961  0.6895
 5606SOL     OW28453   0.661   1.584  11.946  0.1869 -0.1541  0.2138
 5606SOL    HW128454   0.723   1.655  11.929  0.1307 -0.4488 -1.1824
 5606SOL    HW228455   0.573   1.621  11.948 -0.3533 -1.5163  1.1737
 5607SOL     OW28456   1.170   2.079   8.415  0.6632 -0.2355 -0.0962
 5607SOL    HW128457   1.193   1.990   8.390 -2.0608 -1.0427  0.2831
 5607SOL    HW228458   1.133   2.119   8.336 -2.4159  0.1289  1.4983
 5608SOL     OW28459   4.429   1.835   7.546 -0.9474  0.0506 -0.1169
 5608SOL    HW128460   4.398   1.783   7.621  0.8471 -0.6872  0.1050
 5608SOL    HW228461   4.350   1.888   7.538 -0.8673  0.3722  1.1135
 5609SOL     OW28462   3.602   1.243   7.672  0.3126 -0.6258 -0.3016
 5609SOL    HW128463   3.622   1.287   7.590  0.3101  0.2862  0.1926
 5609SOL    HW228464   3.639   1.155   7.664  0.3432 -0.7616  1.4446
 5610SOL     OW28465   1.254   1.305   8.617 -0.1160  0.1203 -0.0791
 5610SOL    HW128466   1.332   1.303   8.561  0.9481 -0.7220  1.4395
 5610SOL    HW228467   1.191   1.327   8.547 -1.0457  0.6067  0.9128
 5611SOL     OW28468   0.862   0.068   5.965  0.0236 -0.4518  0.3064
 5611SOL    HW128469   0.866   0.063   6.061 -1.8273 -1.7615  0.3272
 5611SOL    HW228470   0.903   0.153   5.948  1.6091 -1.1467  0.7309
 5612SOL     OW28471   0.915   3.492   9.910 -0.5026 -0.2875 -0.0587
 5612SOL    HW128472   0.927   3.415   9.965 -0.3781  0.0901  0.4494
 5612SOL    HW228473   0.983   3.545   9.952  0.6482 -1.1517 -0.8541
 5613SOL     OW28474   1.483   1.714   4.443  0.2993 -0.2371 -0.1263
 5613SOL    HW128475   1.480   1.636   4.388  0.3544  0.8675 -1.6967
 5613SOL    HW228476   1.564   1.762   4.429  1.2592 -2.0739 -0.8054
 5614SOL     OW28477   3.090   1.834  12.231  0.5084  0.7678  0.0941
 5614SOL    HW128478   3.054   1.863  12.315 -0.6976  0.7084 -0.3939
 5614SOL    HW228479   3.032   1.883  12.172  1.0299  1.2198 -0.0403
 5615SOL     OW28480   4.312   1.382   5.546  0.5179  0.7495 -0.3443
 5615SOL    HW128481   4.224   1.399   5.580  0.6288  0.5015  0.0672
 5615SOL    HW228482   4.339   1.324   5.617 -0.0255 -2.3516 -2.6281
 5616SOL     OW28483   3.423   1.577   2.969 -0.3155  0.4650 -0.5048
 5616SOL    HW128484   3.490   1.605   3.032 -0.0487 -0.5257 -0.3528
 5616SOL    HW228485   3.413   1.484   2.989  1.2248  0.4643  0.2712
 5617SOL     OW28486   0.038   1.299   7.189 -0.5131 -0.7503 -0.0383
 5617SOL    HW128487   0.095   1.326   7.117  0.4586  0.1324  1.0588
 5617SOL    HW228488   0.037   1.203   7.182 -0.8584 -0.6868 -0.8359
 5618SOL     OW28489   3.395   4.370   7.974  0.0952 -0.1396  0.1698
 5618SOL    HW128490   3.325   4.395   7.914 -1.7090 -0.4865  2.1018
 5618SOL    HW228491   3.455   4.444   7.964 -2.5234  1.8656 -0.7896
 5619SOL     OW28492   3.044   3.422   2.351 -0.0141  0.3336 -0.0567
 5619SOL    HW128493   3.060   3.406   2.444  0.0019 -0.6757 -0.2271
 5619SOL    HW228494   2.965   3.368   2.342  0.1553  0.5721 -2.9582
 5620SOL     OW28495   4.535   0.866  11.381  0.3462  0.3986  0.2423
 5620SOL    HW128496   4.477   0.936  11.351  0.5860  0.9546  1.0932
 5620SOL    HW228497   4.474   0.798  11.411  0.2593  0.4492  0.1771
 5621SOL     OW28498   4.123   4.555   9.644  0.6178 -0.6875  0.1310
 5621SOL    HW128499   4.166   4.477   9.678 -2.3632 -1.1247  2.8903
 5621SOL    HW228500   4.107   4.538   9.551 -1.4872  1.7614  0.0538
 5622SOL     OW28501   1.473   1.419   2.448 -0.1071  0.3486 -0.4247
 5622SOL    HW128502   1.492   1.353   2.515  0.4194  0.8178 -0.1222
 5622SOL    HW228503   1.377   1.420   2.450 -0.1086 -0.5383 -0.0181
 5623SOL     OW28504   4.310   4.393   4.989 -0.3415  0.2568  0.4965
 5623SOL    HW128505   4.341   4.475   4.949  0.5168 -1.1151 -1.6381
 5623SOL    HW228506   4.352   4.335   4.926 -0.6334  0.8455 -0.2458
 5624SOL     OW28507   1.560   3.030   9.013 -0.4042  0.0824 -0.5573
 5624SOL    HW128508   1.575   3.018   8.919  0.4407 -0.1575 -0.3919
 5624SOL    HW228509   1.475   3.074   9.011 -0.3143  0.2643 -0.3951
 5625SOL     OW28510   1.603   4.217   9.030  0.3928  0.0462  0.2518
 5625SOL    HW128511   1.696   4.238   9.039  0.6798 -0.8951 -0.4228
 5625SOL    HW228512   1.587   4.155   9.102  1.7026 -2.2863 -1.4877
 5626SOL     OW28513   2.532   4.427  12.406 -0.0905  0.5602 -0.0528
 5626SOL    HW128514   2.523   4.373  12.484  0.5359 -0.5716 -0.7537
 5626SOL    HW228515   2.605   4.478  12.440  0.1148  0.7576 -0.7832
 5627SOL     OW28516   1.654   1.909   7.689 -0.6966  0.5697  0.0133
 5627SOL    HW128517   1.621   1.931   7.602 -1.3457 -0.0361  0.0978
 5627SOL    HW228518   1.613   1.822   7.697  1.1716 -0.4159 -1.2630
 5628SOL     OW28519   2.601   3.791  10.871  0.2570  0.4755 -0.5217
 5628SOL    HW128520   2.648   3.718  10.832  0.6211  1.5283 -2.0539
 5628SOL    HW228521   2.517   3.752  10.895  0.7886 -1.5754 -2.0496
 5629SOL     OW28522   0.621   2.242   7.691  0.5253 -0.3649  0.7341
 5629SOL    HW128523   0.527   2.255   7.681  0.3866 -1.7859  0.2099
 5629SOL    HW228524   0.629   2.250   7.786  4.3680 -1.8907  0.5422
 5630SOL     OW28525   1.462   2.926   3.227 -0.1859 -0.0450 -0.2482
 5630SOL    HW128526   1.427   2.838   3.209 -0.3086 -0.1784  0.6593
 5630SOL    HW228527   1.383   2.954   3.273  0.0471 -0.0766  0.1652
 5631SOL     OW28528   1.614   3.727   8.988  0.5781 -0.1758  0.2850
 5631SOL    HW128529   1.579   3.653   9.036  0.3769  0.1420  0.6288
 5631SOL    HW228530   1.652   3.776   9.062 -1.0784  0.9782  0.3628
 5632SOL     OW28531   1.919   0.301  16.052  0.4609  0.5129 -1.0045
 5632SOL    HW128532   1.987   0.365  16.071  0.8002 -0.5330  1.2948
 5632SOL    HW228533   1.859   0.315  16.126 -2.3905 -0.9432 -3.0173
 5633SOL     OW28534   2.717   1.114   9.431  0.1488  0.1632  0.0140
 5633SOL    HW128535   2.724   1.101   9.337 -1.4288 -2.4374  0.2568
 5633SOL    HW228536   2.664   1.039   9.460  0.5744 -1.0540 -2.3874
 5634SOL     OW28537   3.140   3.937  15.172 -0.2343  0.3660 -0.1721
 5634SOL    HW128538   3.222   3.980  15.194 -1.0037  1.6963  0.0926
 5634SOL    HW228539   3.157   3.853  15.215  0.4030  0.3427 -0.4638
 5635SOL     OW28540   4.230   1.686   0.642  0.5244  0.2087  0.0379
 5635SOL    HW128541   4.313   1.712   0.602 -0.0260 -1.3180 -2.1076
 5635SOL    HW228542   4.172   1.746   0.595  0.8467  1.8929  1.7850
 5636SOL     OW28543   0.040   0.400   1.632  0.4407  0.2485 -0.2306
 5636SOL    HW128544   0.134   0.409   1.648  0.1518  1.5614  0.7771
 5636SOL    HW228545   0.025   0.322   1.685  3.1209  0.6977  1.2009
 5637SOL     OW28546   1.588   2.479   5.933  0.1464  0.0967  0.0407
 5637SOL    HW128547   1.620   2.524   6.010 -0.4824 -1.4475  1.2037
 5637SOL    HW228548   1.644   2.402   5.919 -0.2318 -0.0188 -0.8464
 5638SOL     OW28549   0.088   2.168   7.679  0.4170  0.4070  1.1405
 5638SOL    HW128550   0.019   2.228   7.708 -0.6029  0.1644 -0.8081
 5638SOL    HW228551   0.032   2.095   7.655  1.0807  0.2622  0.0565
 5639SOL     OW28552   1.765   3.861   4.309  0.0430 -0.5363 -0.2232
 5639SOL    HW128553   1.779   3.810   4.229 -1.8758 -3.7144  1.4598
 5639SOL    HW228554   1.715   3.805   4.368 -0.0031 -2.9930 -2.5578
 5640SOL     OW28555   4.453   4.323   5.426 -0.2180  0.2030  0.7396
 5640SOL    HW128556   4.513   4.366   5.366 -0.5275 -0.7530 -0.2688
 5640SOL    HW228557   4.491   4.332   5.513  0.2111  2.1113  0.3509
 5641SOL     OW28558   1.702   2.266   7.323 -0.5906  0.4103 -0.0253
 5641SOL    HW128559   1.742   2.346   7.356 -0.2800 -0.3598  1.4778
 5641SOL    HW228560   1.785   2.231   7.290 -0.1736  2.4585 -1.1481
 5642SOL     OW28561   0.572   2.345   8.902 -0.8304 -0.0163 -0.4000
 5642SOL    HW128562   0.655   2.296   8.898 -1.4127 -0.9187 -1.4769
 5642SOL    HW228563   0.516   2.290   8.847 -1.1047  1.1817 -1.3198
 5643SOL     OW28564   1.351   0.683   5.944  0.0355  0.2854 -0.3980
 5643SOL    HW128565   1.304   0.600   5.953  1.6673 -0.3044  2.7516
 5643SOL    HW228566   1.279   0.744   5.956  0.0230 -0.1186  1.5044
 5644SOL     OW28567   1.826   4.247   2.348  0.1478 -0.7786 -0.0042
 5644SOL    HW128568   1.891   4.178   2.337  1.2974  0.1499  0.9500
 5644SOL    HW228569   1.828   4.264   2.442 -4.3856  0.4448 -0.1072
 5645SOL     OW28570   4.706   3.942   9.192  0.2986 -0.5180 -0.4626
 5645SOL    HW128571   4.733   4.017   9.139  1.4461  0.6533  1.7778
 5645SOL    HW228572   0.042   3.918   9.248  0.9212  3.5014  0.4731
 5646SOL     OW28573   0.552   3.017   6.200  0.4021  0.3311 -0.4616
 5646SOL    HW128574   0.552   3.101   6.154  0.0806  0.1667 -0.7683
 5646SOL    HW228575   0.459   2.993   6.199  0.0914  1.5118  0.3496
 5647SOL     OW28576   2.515   0.877   7.790 -0.6564  0.2734  0.1561
 5647SOL    HW128577   2.538   0.935   7.863 -1.5226 -0.4041  0.9726
 5647SOL    HW228578   2.523   0.789   7.826  0.6328  0.6480  0.7977
 5648SOL     OW28579   2.179   0.798   6.407 -0.2084 -0.3429 -0.0313
 5648SOL    HW128580   2.194   0.711   6.443 -2.5919 -1.0030 -0.6623
 5648SOL    HW228581   2.222   0.783   6.322 -1.1378  2.2567 -0.9677
 5649SOL     OW28582   2.099   0.130  11.223  0.0069  0.5911  0.2494
 5649SOL    HW128583   2.137   0.042  11.220  0.2393  0.7877 -2.4215
 5649SOL    HW228584   2.163   0.171  11.164  1.5183 -1.7355  0.2721
 5650SOL     OW28585   1.455   0.974   5.637 -0.0938 -0.5198  0.3936
 5650SOL    HW128586   1.445   1.068   5.621 -3.9440 -0.9371  0.4035
 5650SOL    HW228587   1.407   0.934   5.564  1.8343  0.8699 -1.6346
 5651SOL     OW28588   3.962   2.017  10.315 -0.4635 -0.2663 -0.0143
 5651SOL    HW128589   4.048   1.981  10.292 -1.2145 -0.2769 -2.7392
 5651SOL    HW228590   3.963   2.085  10.248 -1.8311  1.1228  1.3595
 5652SOL     OW28591   1.527   3.114   6.266 -0.3056 -0.0276 -0.6615
 5652SOL    HW128592   1.550   3.022   6.249  1.7866  0.4053 -0.1310
 5652SOL    HW228593   1.567   3.153   6.189  1.2942  0.8923  0.6522
 5653SOL     OW28594   1.035   4.677   8.173  0.2514 -0.2725 -0.1479
 5653SOL    HW128595   0.945   4.702   8.150  0.3601  1.9115  1.7200
 5653SOL    HW228596   1.057   4.619   8.100  1.5385 -0.1898  0.1799
 5654SOL     OW28597   0.444   3.013  14.808  0.1763 -0.4515  0.0966
 5654SOL    HW128598   0.369   3.024  14.867  1.3543  2.3053  1.1161
 5654SOL    HW228599   0.511   3.001  14.876  0.5081 -0.8560 -0.2998
 5655SOL     OW28600   1.883   2.617   1.758  0.3784  0.0790  0.1687
 5655SOL    HW128601   1.867   2.673   1.834 -2.5799 -0.6223  0.0685
 5655SOL    HW228602   1.849   2.664   1.682  2.0382 -3.0884 -2.5483
 5656SOL     OW28603   3.641   3.337   4.464  0.2673 -0.2864 -0.0080
 5656SOL    HW128604   3.604   3.361   4.380 -0.2976 -0.0459  0.3144
 5656SOL    HW228605   3.578   3.379   4.523  2.6759  2.2140  0.8114
 5657SOL     OW28606   0.294   4.001   3.013  0.4371  0.4340 -0.1478
 5657SOL    HW128607   0.384   3.971   3.022 -0.2408 -1.4196  0.2889
 5657SOL    HW228608   0.293   4.038   2.924  1.4859  1.5539  0.3230
 5658SOL     OW28609   2.062   1.518   7.446  0.8607 -0.3811 -0.0633
 5658SOL    HW128610   2.122   1.527   7.520 -0.2089  2.9766  0.3809
 5658SOL    HW228611   1.979   1.553   7.478  0.8514 -1.3010  0.9240
 5659SOL     OW28612   0.469   1.657   2.951  0.0467 -0.7041 -0.2524
 5659SOL    HW128613   0.396   1.604   2.917  0.6678  0.7649 -3.8897
 5659SOL    HW228614   0.436   1.744   2.928  0.2759 -0.9252 -1.4357
 5660SOL     OW28615   2.168   3.406  14.681  0.5161  0.0317 -0.2231
 5660SOL    HW128616   2.220   3.339  14.636 -1.4247  0.6545 -3.4362
 5660SOL    HW228617   2.242   3.458  14.711  2.8976 -4.5875  1.9861
 5661SOL     OW28618   0.896   3.552   2.290  0.4177  0.1158 -0.3170
 5661SOL    HW128619   0.968   3.615   2.296 -0.4387  1.0466  0.2938
 5661SOL    HW228620   0.942   3.469   2.296 -0.5231 -0.4189 -0.5132
 5662SOL     OW28621   4.734   0.808   9.735  0.1965  0.0304  0.0622
 5662SOL    HW128622   0.001   0.856   9.653 -1.3455  1.2856  0.7084
 5662SOL    HW228623   4.666   0.856   9.783 -0.5507 -0.1586 -0.8035
 5663SOL     OW28624   2.102   2.274   7.483 -0.2334 -0.3012  0.2817
 5663SOL    HW128625   2.047   2.353   7.488  0.7853  0.5308 -1.5684
 5663SOL    HW228626   2.187   2.318   7.486  0.4563 -1.6590  0.3496
 5664SOL     OW28627   0.412   0.292   1.993  0.0899  0.3172  0.0547
 5664SOL    HW128628   0.464   0.248   2.060 -0.7342 -0.3001  0.2863
 5664SOL    HW228629   0.390   0.218   1.937  2.9466  0.9030 -1.8474
 5665SOL     OW28630   2.267   0.553   6.488  0.1562  0.4856  0.0409
 5665SOL    HW128631   2.255   0.516   6.400  0.4522  1.2992 -0.3409
 5665SOL    HW228632   2.317   0.480   6.524 -1.1472 -1.1026 -1.3598
 5666SOL     OW28633   2.336   2.103  11.420  0.4277  0.1755 -0.7249
 5666SOL    HW128634   2.363   2.185  11.462 -0.6004 -0.3004  0.8980
 5666SOL    HW228635   2.404   2.048  11.457  1.4542  1.5584 -0.5447
 5667SOL     OW28636   0.843   1.749  17.536 -0.2491  0.3002  0.1000
 5667SOL    HW128637   0.878   1.686  17.599  1.4803  1.3312  0.1710
 5667SOL    HW228638   0.802   1.685  17.479 -1.0758  0.3924  0.5948
 5668SOL     OW28639   0.901   4.622   0.111 -0.1319  0.1714  0.0616
 5668SOL    HW128640   0.906   4.571   0.030  1.8899 -0.6345  0.6932
 5668SOL    HW228641   0.867   4.706   0.080  2.0805  1.2789  0.6583
 5669SOL     OW28642   3.646   0.013   6.586  0.0608  0.7344 -0.0304
 5669SOL    HW128643   3.717   4.711   6.535  0.1229  2.3999 -1.2518
 5669SOL    HW228644   3.684   0.052   6.664  0.4110  0.5762 -0.1190
 5670SOL     OW28645   2.869   2.565  15.620  0.4681  0.0639 -0.0290
 5670SOL    HW128646   2.838   2.487  15.574  1.3394  0.3988 -1.1956
 5670SOL    HW228647   2.806   2.573  15.691 -0.1281  0.4408 -0.5982
 5671SOL     OW28648   2.142   1.036  13.763  0.2802  0.4278 -0.0945
 5671SOL    HW128649   2.050   1.030  13.736 -0.1670  0.8018  1.3823
 5671SOL    HW228650   2.147   1.023  13.857 -0.4530  0.1838 -0.0904
 5672SOL     OW28651   3.493   0.627   2.331  0.0496  0.1211  0.0882
 5672SOL    HW128652   3.538   0.543   2.334 -1.0404 -0.5203 -1.6778
 5672SOL    HW228653   3.566   0.689   2.338 -0.2528  0.3419  1.2667
 5673SOL     OW28654   3.140   4.174  10.670  0.2820 -0.4236  0.3865
 5673SOL    HW128655   3.058   4.139  10.704 -1.5667  2.4513 -1.0150
 5673SOL    HW228656   3.191   4.096  10.650 -1.6567 -0.5801 -3.9364
 5674SOL     OW28657   0.824   1.939   3.372  0.4448 -0.0408 -1.1025
 5674SOL    HW128658   0.914   1.953   3.341  0.0430 -0.6537 -2.5503
 5674SOL    HW228659   0.800   1.847   3.364  1.2563 -0.2137 -1.5674
 5675SOL     OW28660   3.763   0.356   4.308  0.0946  0.8552  0.3076
 5675SOL    HW128661   3.737   0.348   4.400 -0.3952 -0.8120  0.0314
 5675SOL    HW228662   3.687   0.351   4.250  1.1144  0.4774 -1.0022
 5676SOL     OW28663   2.563   1.077   5.459 -0.1048  0.0574  0.0024
 5676SOL    HW128664   2.533   1.139   5.525  0.8804  0.2412  0.2747
 5676SOL    HW228665   2.481   1.055   5.414 -0.1739  1.0158 -0.3507
 5677SOL     OW28666   1.395   2.853   5.964  0.0155  0.1832 -0.1752
 5677SOL    HW128667   1.361   2.767   5.941 -1.5965  1.1368 -1.3600
 5677SOL    HW228668   1.320   2.912   5.977  0.1275  0.3282 -0.1851
 5678SOL     OW28669   0.109   3.705   3.741  0.2603  0.3101 -0.0779
 5678SOL    HW128670   0.195   3.719   3.780 -0.5649  0.5634  1.6370
 5678SOL    HW228671   0.124   3.759   3.663  1.4335  0.4407  0.2333
 5679SOL     OW28672   0.236   1.077   7.580 -0.4504 -0.3913 -0.0865
 5679SOL    HW128673   0.205   1.162   7.610 -0.2856 -0.8138  1.3146
 5679SOL    HW228674   0.320   1.102   7.542 -0.1045 -1.1174  0.2006
 5680SOL     OW28675   1.019   1.049   8.252 -0.0447  0.2080 -0.2233
 5680SOL    HW128676   1.068   1.036   8.171  2.8767 -0.7037  1.6704
 5680SOL    HW228677   0.942   0.993   8.242  0.7903 -1.3063  1.6773
 5681SOL     OW28678   2.235   2.132  12.105  0.2766  0.1637  0.2796
 5681SOL    HW128679   2.325   2.161  12.121  0.4812 -0.4705  0.2911
 5681SOL    HW228680   2.240   2.049  12.153 -3.0014 -0.7211 -0.9461
 5682SOL     OW28681   2.061   0.563   3.513 -0.0558  0.0864 -0.2566
 5682SOL    HW128682   2.010   0.583   3.592 -1.9366  1.5504 -1.8352
 5682SOL    HW228683   2.110   0.489   3.549 -2.1715 -1.1224  0.1129
 5683SOL     OW28684   4.215   0.330  14.727 -0.6362 -0.3267  0.0552
 5683SOL    HW128685   4.198   0.417  14.692 -0.1855 -0.7833 -1.3132
 5683SOL    HW228686   4.134   0.285  14.700 -0.1622  0.1529 -2.2154
 5684SOL     OW28687   0.063   3.488   8.288 -0.3531  0.5966 -0.2091
 5684SOL    HW128688   0.086   3.547   8.217 -1.3040 -0.4053 -1.3338
 5684SOL    HW228689   4.709   3.471   8.267 -0.1755 -1.2851  0.5327
 5685SOL     OW28690   2.275   4.000   7.691  1.2666 -0.0479 -0.1370
 5685SOL    HW128691   2.322   3.972   7.769  0.2987 -0.8134  0.1651
 5685SOL    HW228692   2.209   3.931   7.684  0.6604  0.6287 -1.0459
 5686SOL     OW28693   2.816   4.140  16.546  0.0033 -0.0036 -0.5477
 5686SOL    HW128694   2.793   4.073  16.482  0.7751  1.0237 -1.8994
 5686SOL    HW228695   2.902   4.176  16.521 -0.8359  0.7530 -2.3917
 5687SOL     OW28696   4.434   3.661   4.402  0.5412  0.5368 -0.1750
 5687SOL    HW128697   4.452   3.572   4.371  1.2930  0.0789  1.5458
 5687SOL    HW228698   4.377   3.637   4.475  1.7920  0.8017  0.8955
 5688SOL     OW28699   0.589   4.254   4.937 -0.2029  0.3718  0.2144
 5688SOL    HW128700   0.607   4.206   5.018 -1.5909 -0.9117 -0.2247
 5688SOL    HW228701   0.507   4.209   4.917  0.5556 -0.4965 -0.9587
 5689SOL     OW28702   4.365   4.671   6.751 -0.2956 -0.9331 -0.0295
 5689SOL    HW128703   4.451   4.656   6.791 -0.0171 -1.0905 -0.6784
 5689SOL    HW228704   4.379   4.729   6.676  0.2340 -1.4687 -0.3531
 5690SOL     OW28705   3.958   2.796   4.067  0.2981 -0.7499  0.1866
 5690SOL    HW128706   3.947   2.717   4.119  1.1964 -0.3736  0.9604
 5690SOL    HW228707   3.908   2.851   4.127  0.1178  2.1175 -2.5470
 5691SOL     OW28708   4.283   0.029   9.309 -0.1692 -0.3765  0.3080
 5691SOL    HW128709   4.197   0.071   9.302  0.0038  0.0363  0.6332
 5691SOL    HW228710   4.328   0.079   9.377 -0.5051 -0.5312  0.6422
 5692SOL     OW28711   1.825   2.682  10.449 -0.4164 -0.5426 -0.4893
 5692SOL    HW128712   1.823   2.591  10.477 -1.5616 -0.9418 -1.8959
 5692SOL    HW228713   1.745   2.701  10.499  0.4856  1.2657  0.2680
 5693SOL     OW28714   3.428   2.634   3.003 -0.1527 -0.2987  0.4691
 5693SOL    HW128715   3.383   2.719   3.007  0.4740  0.1006 -1.0052
 5693SOL    HW228716   3.473   2.623   3.087  3.4537  2.1754 -1.1171
 5694SOL     OW28717   2.891   1.947   4.050  0.3856 -0.3260 -0.2492
 5694SOL    HW128718   2.807   1.963   4.007  0.1754 -1.9635 -0.4402
 5694SOL    HW228719   2.864   1.888   4.120 -0.3825 -0.4405 -0.6391
 5695SOL     OW28720   1.080   0.737  17.584  0.0699 -0.1344  0.0158
 5695SOL    HW128721   1.102   0.820  17.542  1.0522 -1.5212 -2.2125
 5695SOL    HW228722   0.986   0.738  17.571  0.1074 -1.8992 -0.4204
 5696SOL     OW28723   1.189   0.418   4.384 -0.5530  0.0896 -0.4361
 5696SOL    HW128724   1.229   0.490   4.433  0.2055 -1.5855  1.4025
 5696SOL    HW228725   1.102   0.411   4.423 -0.8031  0.8506 -0.8604
 5697SOL     OW28726   3.915   1.606   3.306 -0.2003 -0.1574 -0.2703
 5697SOL    HW128727   3.856   1.644   3.371  0.2943  0.9683 -0.4834
 5697SOL    HW228728   4.000   1.607   3.351 -0.3680 -0.6821  0.0643
 5698SOL     OW28729   3.776   3.199   3.099 -0.4503  0.0394 -0.1483
 5698SOL    HW128730   3.869   3.206   3.117  0.1787 -0.0007 -3.4208
 5698SOL    HW228731   3.769   3.213   3.004 -0.3126 -1.3158 -0.3560
 5699SOL     OW28732   0.810   2.694  12.532  0.1435 -0.2388  0.0600
 5699SOL    HW128733   0.771   2.765  12.482 -1.4669 -1.3347 -0.2233
 5699SOL    HW228734   0.760   2.618  12.503  0.6703 -0.7137  0.3913
 5700SOL     OW28735   1.150   3.328   9.754 -0.2542 -0.1647  0.0009
 5700SOL    HW128736   1.084   3.285   9.699  1.3597 -2.2353 -0.3271
 5700SOL    HW228737   1.082   3.369   9.807 -0.5432  1.1783 -1.4006
 5701SOL     OW28738   0.325   2.452  17.030  0.1410  0.5172  0.2563
 5701SOL    HW128739   0.236   2.447  17.064  0.0288 -0.5259 -0.1959
 5701SOL    HW228740   0.348   2.360  17.049 -0.0044  0.8678  2.1047
 5702SOL     OW28741   3.699   4.705   7.844 -0.0451  0.0089 -0.2910
 5702SOL    HW128742   3.611   4.705   7.806 -0.0408  0.9133 -0.2977
 5702SOL    HW228743   3.755   4.675   7.772  0.0700  0.3131 -0.3292
 5703SOL     OW28744   0.760   3.811   6.750 -0.4530 -0.6065 -0.3045
 5703SOL    HW128745   0.707   3.855   6.683 -0.6717  3.2440  2.3595
 5703SOL    HW228746   0.690   3.766   6.797  1.2176 -1.5570  1.2462
 5704SOL     OW28747   2.695   3.388   7.291  0.1032 -0.2089  0.1353
 5704SOL    HW128748   2.775   3.376   7.240 -0.0182  2.9088 -0.7791
 5704SOL    HW228749   2.706   3.304   7.335  2.7664 -0.3572 -0.8114
 5705SOL     OW28750   0.273   1.281  17.591  0.5695 -0.4649  0.3312
 5705SOL    HW128751   0.297   1.369  17.565 -0.6326  0.5811  2.7559
 5705SOL    HW228752   0.290   1.277  17.686  0.3716 -0.2760  0.3746
 5706SOL     OW28753   2.810   0.210  17.320  0.1565  0.0719  0.3846
 5706SOL    HW128754   2.903   0.204  17.343 -0.4218  0.4193  2.8699
 5706SOL    HW228755   2.822   0.250  17.234 -2.4082 -2.5780 -1.1688
 5707SOL     OW28756   3.312   3.600   7.437 -0.4929  0.2288  0.0568
 5707SOL    HW128757   3.296   3.655   7.513 -1.3215  1.4178 -0.9790
 5707SOL    HW228758   3.222   3.602   7.406 -0.4762 -0.2093 -0.0236
 5708SOL     OW28759   3.943   1.814  11.069 -0.3852 -0.3146 -0.0636
 5708SOL    HW128760   3.908   1.801  10.981 -1.5842  4.3797 -0.3122
 5708SOL    HW228761   4.030   1.852  11.057 -1.2212  0.9822 -1.8948
 5709SOL     OW28762   0.546   0.077  12.524 -0.2911 -0.6181  0.6483
 5709SOL    HW128763   0.530   4.723  12.502  2.7825 -0.6030 -1.6944
 5709SOL    HW228764   0.467   0.119  12.490  0.8112 -0.3215 -1.5684
 5710SOL     OW28765   2.369   3.413   6.748 -0.1517  0.1785  0.0915
 5710SOL    HW128766   2.399   3.323   6.757 -0.7751 -0.2277 -2.1356
 5710SOL    HW228767   2.402   3.452   6.829 -1.1625 -1.9712  1.5257
 5711SOL     OW28768   1.502   0.710   4.473 -0.4795 -0.3517  0.1660
 5711SOL    HW128769   1.453   0.732   4.552 -0.3446 -2.6202  0.9028
 5711SOL    HW228770   1.509   0.785   4.414  0.2819  0.0498  0.7617
 5712SOL     OW28771   4.677   1.430   3.256 -0.6194 -0.1674 -0.1072
 5712SOL    HW128772   0.000   1.359   3.237 -0.0010 -0.4392  2.9007
 5712SOL    HW228773   4.689   1.442   3.350 -2.5755 -2.0679  0.3667
 5713SOL     OW28774   4.394   1.988   2.988  0.5002  0.7171  0.2140
 5713SOL    HW128775   4.484   1.974   3.017 -0.1612 -0.5376  1.6455
 5713SOL    HW228776   4.376   1.901   2.954 -0.0822  1.2358 -0.8058
 5714SOL     OW28777   2.672   0.643   4.561  0.0525  0.2586  0.1499
 5714SOL    HW128778   2.606   0.709   4.537 -1.0524  0.3552  3.3922
 5714SOL    HW228779   2.748   0.683   4.519 -0.3380 -0.9339 -1.6870
 5715SOL     OW28780   2.222   3.118   6.073  0.2910  0.1299  0.1065
 5715SOL    HW128781   2.315   3.143   6.067  0.9696 -2.5915 -0.6933
 5715SOL    HW228782   2.232   3.034   6.028  0.3003  0.4897 -0.5647
 5716SOL     OW28783   3.418   0.050   4.972 -0.3348  0.1677  0.2053
 5716SOL    HW128784   3.503   0.006   4.982 -1.0276 -0.8752  1.6511
 5716SOL    HW228785   3.410   0.038   4.878 -1.9720  1.1988  0.2124
 5717SOL     OW28786   2.447   0.222   6.029  0.3884 -0.1045 -0.0884
 5717SOL    HW128787   2.352   0.223   6.034  0.3762 -2.0285  0.0133
 5717SOL    HW228788   2.453   0.221   5.934 -1.0629 -0.8937 -0.1595
 5718SOL     OW28789   2.707   0.331   0.442 -0.8954  0.1287  0.2496
 5718SOL    HW128790   2.646   0.263   0.469 -0.0295 -0.4136  0.7945
 5718SOL    HW228791   2.754   0.287   0.372 -0.6259 -1.6886  1.5833
 5719SOL     OW28792   4.574   2.010  11.941  0.0817  0.9171 -0.4772
 5719SOL    HW128793   4.500   2.067  11.965 -0.4301  0.4895 -1.0398
 5719SOL    HW228794   4.528   1.929  11.965 -1.3054  1.8697  0.0853
 5720SOL     OW28795   0.783   2.649   6.588 -0.0758 -0.7094 -0.0084
 5720SOL    HW128796   0.722   2.690   6.527  1.5255  0.4367 -0.8571
 5720SOL    HW228797   0.839   2.602   6.527  0.0116  0.9589 -1.2214
 5721SOL     OW28798   1.428   3.385  15.909 -0.2770 -0.2188 -0.6994
 5721SOL    HW128799   1.384   3.457  15.865 -1.5625 -1.7577 -1.9489
 5721SOL    HW228800   1.519   3.417  15.907  0.0947 -1.1465  0.8676
 5722SOL     OW28801   4.482   1.868   4.567  0.2200  0.5253  0.0862
 5722SOL    HW128802   4.487   1.928   4.641  1.0671 -0.6666  1.0069
 5722SOL    HW228803   4.504   1.934   4.502  2.4648 -0.1134  0.2039
 5723SOL     OW28804   2.950   4.272   9.645  0.4594 -0.1784 -0.0963
 5723SOL    HW128805   3.017   4.257   9.578  3.3954  1.7865  2.3526
 5723SOL    HW228806   2.953   4.368   9.646  0.9704 -0.1971  1.0369
 5724SOL     OW28807   1.654   4.417   3.643 -0.0214  0.3814  0.0539
 5724SOL    HW128808   1.599   4.492   3.620 -1.5351 -0.2911  1.5200
 5724SOL    HW228809   1.620   4.404   3.731 -2.7242  2.5647 -0.7023
 5725SOL     OW28810   1.886   0.378  15.367  0.1796  0.3205  0.3681
 5725SOL    HW128811   1.828   0.427  15.424 -0.0535  1.4035 -0.7806
 5725SOL    HW228812   1.858   0.380  15.275 -0.5714  0.3685  0.5996
 5726SOL     OW28813   0.092   0.745   2.302 -0.5008  0.0322  0.0576
 5726SOL    HW128814   0.179   0.736   2.343 -1.4704 -0.4841  1.9964
 5726SOL    HW228815   0.108   0.797   2.223  1.7187 -1.2001 -0.3268
 5727SOL     OW28816   2.377   3.587  15.330  0.0479  0.1196 -0.2279
 5727SOL    HW128817   2.292   3.628  15.312 -0.1606  1.1746  3.0321
 5727SOL    HW228818   2.349   3.528  15.400  2.6015  1.3629  1.8295
 5728SOL     OW28819   1.188   0.089  17.113 -0.4561 -0.3209 -0.1775
 5728SOL    HW128820   1.231   0.013  17.073  1.0923  1.6792 -2.2900
 5728SOL    HW228821   1.114   0.039  17.148 -1.8308  2.1227  0.3365
 5729SOL     OW28822   2.042   1.657   8.723 -0.2169  0.1057  0.4233
 5729SOL    HW128823   2.099   1.583   8.703  0.6714  1.3193 -1.5317
 5729SOL    HW228824   2.038   1.693   8.634  2.0212  0.0068  0.2876
 5730SOL     OW28825   3.108   3.061   8.060 -0.1989  0.1248 -0.6228
 5730SOL    HW128826   3.101   3.027   8.149  2.9782  1.2558  0.0591
 5730SOL    HW228827   3.197   3.030   8.044 -0.3429 -1.2489  1.2717
 5731SOL     OW28828   1.933   0.269  11.713 -0.5035 -0.1196 -0.2317
 5731SOL    HW128829   1.873   0.326  11.666  0.4281  0.7330 -0.3833
 5731SOL    HW228830   1.948   0.190  11.660  0.1885  0.4215 -0.8383
 5732SOL     OW28831   2.085   1.435  17.613  0.0365  0.3039  0.0838
 5732SOL    HW128832   2.164   1.465  17.660 -1.0866  0.9885  1.5436
 5732SOL    HW228833   2.097   1.342  17.628  3.6504  0.6701 -0.3829
 5733SOL     OW28834   2.133   2.125  10.746 -0.3734  0.0756  0.3365
 5733SOL    HW128835   2.196   2.089  10.809 -0.0141  0.4349  0.1830
 5733SOL    HW228836   2.059   2.066  10.758 -0.9963  0.8622  0.3263
 5734SOL     OW28837   4.174   1.337  12.977 -0.2285  0.1904  0.4489
 5734SOL    HW128838   4.089   1.373  13.002 -0.2221  0.5532 -0.0597
 5734SOL    HW228839   4.159   1.243  12.986 -2.2907  0.8476  3.7691
 5735SOL     OW28840   0.488   0.387  14.721 -0.0630 -0.0994  0.1812
 5735SOL    HW128841   0.435   0.360  14.796 -0.2399 -0.9498 -0.2523
 5735SOL    HW228842   0.453   0.333  14.651 -1.8559  1.5621 -0.1912
 5736SOL     OW28843   2.334   0.440   4.124  0.9098  0.0731  0.2135
 5736SOL    HW128844   2.289   0.391   4.056  1.2935 -0.3355  0.2533
 5736SOL    HW228845   2.355   0.520   4.075  0.9747  0.7903  1.4059
 5737SOL     OW28846   0.942   3.694   3.792 -0.2793 -0.0075 -0.3924
 5737SOL    HW128847   0.900   3.618   3.831 -1.6324  0.7617 -0.3403
 5737SOL    HW228848   0.913   3.772   3.840 -0.3278 -0.4242  0.2442
 5738SOL     OW28849   0.963   4.210   7.921 -0.6385  0.0211 -0.1234
 5738SOL    HW128850   0.980   4.118   7.940 -1.0861 -0.1257 -0.4324
 5738SOL    HW228851   0.867   4.212   7.931 -0.4923  0.9759  0.9855
 5739SOL     OW28852   3.354   2.140   7.058  0.0539 -0.4495  0.0991
 5739SOL    HW128853   3.375   2.080   7.130 -2.2482  0.7408  1.7483
 5739SOL    HW228854   3.417   2.124   6.988  0.4514  0.3089  0.2882
 5740SOL     OW28855   1.501   1.450  16.365  0.0732 -0.5639  0.5593
 5740SOL    HW128856   1.464   1.454  16.277 -0.5887 -1.3591  0.7942
 5740SOL    HW228857   1.477   1.359  16.384  1.8122 -0.6336  2.3930
 5741SOL     OW28858   4.540   2.638   7.005 -0.3489  0.0207 -0.4271
 5741SOL    HW128859   4.462   2.583   6.995 -0.9931  0.7097  0.8042
 5741SOL    HW228860   4.518   2.705   6.941  1.9943  0.4931 -0.7297
 5742SOL     OW28861   1.338   1.370  16.828 -0.0906 -0.4923  0.7569
 5742SOL    HW128862   1.281   1.358  16.753 -0.5042 -1.4648  1.2210
 5742SOL    HW228863   1.408   1.429  16.800 -1.6190  1.8290  1.7830
 5743SOL     OW28864   1.378   2.533   8.768 -0.7751  0.1785  0.0952
 5743SOL    HW128865   1.472   2.514   8.775 -0.5822  0.3864 -1.8988
 5743SOL    HW228866   1.367   2.572   8.854 -2.1781 -1.9931  0.8940
 5744SOL     OW28867   3.300   2.943   6.198  0.1742  0.4007  0.0817
 5744SOL    HW128868   3.364   3.014   6.211 -0.5532  1.3755 -1.6881
 5744SOL    HW228869   3.353   2.871   6.233 -0.1069  0.5019  0.7331
 5745SOL     OW28870   1.153   0.167  10.290 -0.0785  0.3426 -0.4189
 5745SOL    HW128871   1.105   0.084  10.290 -0.8289  0.7674 -1.9899
 5745SOL    HW228872   1.090   0.235  10.263  0.2325  0.8738  0.1877
 5746SOL     OW28873   3.537   2.564   4.332 -0.2454 -0.9315 -0.1641
 5746SOL    HW128874   3.445   2.539   4.339 -0.0017 -1.7820 -0.0938
 5746SOL    HW228875   3.535   2.660   4.324 -0.0364 -1.0286 -1.3538
 5747SOL     OW28876   0.931   3.598   7.731 -0.2159 -0.4639 -0.3511
 5747SOL    HW128877   0.973   3.512   7.724  1.4612  0.1521  2.0470
 5747SOL    HW228878   0.930   3.603   7.635 -0.0500  3.4748 -0.1600
 5748SOL     OW28879   0.381   1.456  17.161 -0.7468  0.2249 -0.3704
 5748SOL    HW128880   0.393   1.363  17.181 -0.4543  0.6408  1.3689
 5748SOL    HW228881   0.326   1.447  17.083 -2.2888 -1.6284  0.9384
 5749SOL     OW28882   0.589   0.870   9.523  0.0919  0.2739  0.2050
 5749SOL    HW128883   0.521   0.804   9.534 -0.3389  0.6559 -0.1985
 5749SOL    HW228884   0.666   0.820   9.550  0.5696  0.0029 -1.6859
 5750SOL     OW28885   0.395   3.208   9.034  0.1134 -0.4454  0.5001
 5750SOL    HW128886   0.457   3.135   9.038  1.7565  0.9714  1.3890
 5750SOL    HW228887   0.318   3.171   8.992 -0.7890 -0.5832  2.2801
 5751SOL     OW28888   1.248   2.281   4.950 -0.7345 -0.1289  0.0768
 5751SOL    HW128889   1.217   2.275   5.041  0.1220  1.2398  0.4578
 5751SOL    HW228890   1.343   2.289   4.961 -0.8603  2.3432 -0.6866
 5752SOL     OW28891   2.374   3.057  13.992  0.7208  0.4151 -0.1021
 5752SOL    HW128892   2.399   3.148  13.977 -0.4338  0.8944  0.8865
 5752SOL    HW228893   2.363   3.026  13.902  0.1903 -0.1676  0.1611
 5753SOL     OW28894   1.647   3.213   6.043 -0.3454  0.4708  0.2160
 5753SOL    HW128895   1.593   3.256   5.976 -0.4440 -0.4361 -0.2887
 5753SOL    HW228896   1.723   3.197   5.986 -1.1214 -0.8795 -0.4334
 5754SOL     OW28897   3.295   1.309   7.441  0.3130  0.4817  0.0032
 5754SOL    HW128898   3.202   1.298   7.421  0.5149 -1.4818  0.2127
 5754SOL    HW228899   3.312   1.376   7.374 -1.1868  1.7313  0.8632
 5755SOL     OW28900   2.700   0.707   1.401  0.1370  0.1361  0.2810
 5755SOL    HW128901   2.735   0.737   1.317 -2.2594  2.1197 -0.0174
 5755SOL    HW228902   2.751   0.628   1.416 -0.0030 -0.0569 -0.2646
 5756SOL     OW28903   1.210   1.323   9.564  0.3004  0.1272  0.0288
 5756SOL    HW128904   1.128   1.301   9.608  0.1910  0.8124  0.1572
 5756SOL    HW228905   1.182   1.319   9.473 -1.8167 -0.4286  0.6972
 5757SOL     OW28906   3.307   0.165   5.506 -0.4140 -0.2153  0.2935
 5757SOL    HW128907   3.400   0.146   5.502 -0.0621  1.8647 -1.2424
 5757SOL    HW228908   3.312   0.239   5.566 -0.3117 -1.3054  1.6412
 5758SOL     OW28909   2.392   2.310   4.884 -0.1925 -0.3589 -0.1097
 5758SOL    HW128910   2.386   2.359   4.966  0.1833  0.1602 -0.3885
 5758SOL    HW228911   2.454   2.246   4.920  1.4464  0.3153 -1.7027
 5759SOL     OW28912   3.444   0.527  13.530  0.2282 -0.0562  0.7538
 5759SOL    HW128913   3.495   0.560  13.604 -0.5700 -0.9411  1.7140
 5759SOL    HW228914   3.374   0.588  13.550 -0.7507 -1.9018  2.9937
 5760SOL     OW28915   2.290   4.525   5.696  0.1222 -0.3486  0.0466
 5760SOL    HW128916   2.237   4.504   5.619  0.4888  0.5895 -0.4699
 5760SOL    HW228917   2.346   4.447   5.695 -0.3816 -0.7000 -0.8391
 5761SOL     OW28918   3.812   2.210  14.856 -0.7460 -0.3140  0.4262
 5761SOL    HW128919   3.895   2.245  14.822  0.0184 -1.2768  1.3084
 5761SOL    HW228920   3.841   2.119  14.869  0.1142 -0.0052  0.6567
 5762SOL     OW28921   4.380   4.374   0.889 -0.2297 -0.1776 -0.5420
 5762SOL    HW128922   4.312   4.386   0.823  0.2230 -0.4869 -1.0593
 5762SOL    HW228923   4.442   4.445   0.872  0.0069  0.6055  3.3912
 5763SOL     OW28924   3.629   0.526   7.478  0.2783 -0.2349 -0.0752
 5763SOL    HW128925   3.647   0.478   7.396 -2.9090  0.2159 -1.0399
 5763SOL    HW228926   3.556   0.575   7.440  1.4482  0.8201 -0.9233
 5764SOL     OW28927   1.511   0.632   7.526 -0.3423 -0.1379 -0.2942
 5764SOL    HW128928   1.426   0.622   7.570 -1.1962  3.7410 -1.0435
 5764SOL    HW228929   1.492   0.709   7.473 -0.2859 -0.1299 -0.3029
 5765SOL     OW28930   0.599   2.292   2.140 -0.0805  0.0646 -0.0504
 5765SOL    HW128931   0.645   2.351   2.080  1.1100 -0.3167  0.4914
 5765SOL    HW228932   0.524   2.267   2.086  0.5003 -1.2305 -0.2627
 5766SOL     OW28933   3.816   3.238  11.602 -0.1638 -0.5110  0.0573
 5766SOL    HW128934   3.744   3.176  11.607 -0.1746 -0.4401  0.6995
 5766SOL    HW228935   3.863   3.206  11.679 -1.5957 -0.0867  1.1044
 5767SOL     OW28936   3.517   2.524   8.812  0.4977  0.3987 -0.3093
 5767SOL    HW128937   3.605   2.562   8.814  1.0562 -0.8916  0.6294
 5767SOL    HW228938   3.554   2.440   8.840  1.6210  0.7353 -0.7787
 5768SOL     OW28939   3.225   4.556   7.849 -0.3110  0.1169 -0.0045
 5768SOL    HW128940   3.165   4.501   7.800  0.1489 -0.9806  0.6499
 5768SOL    HW228941   3.229   4.640   7.803  0.6187 -1.5086 -2.9091
 5769SOL     OW28942   4.190   2.304   9.110 -0.2259  0.4870  0.8548
 5769SOL    HW128943   4.175   2.399   9.106 -4.5485 -0.1815  0.6348
 5769SOL    HW228944   4.158   2.271   9.027  1.1339  0.4046  0.3663
 5770SOL     OW28945   1.998   1.388   4.581  0.4177 -0.2484 -0.1819
 5770SOL    HW128946   1.990   1.298   4.611  0.9210 -0.4384 -0.6131
 5770SOL    HW228947   2.092   1.404   4.589  0.1825  1.1175 -0.1444
 5771SOL     OW28948   4.066   3.778   4.500 -0.3678  0.5500 -0.2589
 5771SOL    HW128949   4.115   3.785   4.418 -0.4557 -0.8657 -0.4433
 5771SOL    HW228950   4.019   3.696   4.484  0.4013  0.0055  0.2732
 5772SOL     OW28951   3.369   0.188   0.918  0.3515 -0.3017 -0.2455
 5772SOL    HW128952   3.425   0.133   0.864  0.3293 -0.4423 -0.1231
 5772SOL    HW228953   3.392   0.148   1.002 -2.4606  2.5427  1.9252
 5773SOL     OW28954   2.671   4.308   5.065 -0.2635 -0.8126  0.6561
 5773SOL    HW128955   2.676   4.339   4.975  2.7956  2.8981  2.0701
 5773SOL    HW228956   2.589   4.258   5.067 -0.1137 -1.0854 -0.6495
 5774SOL     OW28957   1.510   1.118   0.512 -0.2228 -0.1499  0.3026
 5774SOL    HW128958   1.417   1.107   0.535 -0.3074  0.2067  0.1400
 5774SOL    HW228959   1.498   1.201   0.467 -1.1025  0.0136  0.8200
 5775SOL     OW28960   3.846   3.087   3.699  0.1718  0.2738  0.0587
 5775SOL    HW128961   3.787   3.037   3.755  0.3540  0.6189  0.5559
 5775SOL    HW228962   3.872   3.017   3.639  0.2075  1.1300 -0.9406
 5776SOL     OW28963   1.868   2.493   4.742 -0.0526  0.4349  0.3729
 5776SOL    HW128964   1.849   2.519   4.832  1.6323 -0.6646  1.0250
 5776SOL    HW228965   1.825   2.408   4.736 -0.7141  0.8034 -0.1831
 5777SOL     OW28966   1.933   1.818   5.427 -0.0393  0.3970  0.3062
 5777SOL    HW128967   1.840   1.795   5.419  0.3396 -0.8957 -0.4773
 5777SOL    HW228968   1.975   1.751   5.373  2.0873  0.8926  1.3668
 5778SOL     OW28969   1.512   3.917  11.250 -0.6584 -0.6106  0.2413
 5778SOL    HW128970   1.548   3.965  11.324  0.9836  0.7849 -1.4773
 5778SOL    HW228971   1.479   3.990  11.196 -0.6283 -1.0980 -0.4398
 5779SOL     OW28972   0.973   4.033   0.930  0.1141  0.4161  0.4802
 5779SOL    HW128973   0.948   4.073   1.014 -2.4217  0.8934 -0.4954
 5779SOL    HW228974   1.021   3.958   0.965  0.9746  0.4974 -0.5344
 5780SOL     OW28975   0.449   3.617   6.565 -0.1718 -0.0201 -0.2230
 5780SOL    HW128976   0.495   3.630   6.482 -0.3254 -0.3761 -0.3608
 5780SOL    HW228977   0.422   3.526   6.554  1.1041 -0.4764  0.4139
 5781SOL     OW28978   3.373   0.533   7.899  0.3744 -0.4619  0.2161
 5781SOL    HW128979   3.336   0.448   7.922 -1.6703 -0.3583 -2.7451
 5781SOL    HW228980   3.295   0.586   7.886  0.8116 -0.0246 -0.6070
 5782SOL     OW28981   1.777   2.355  12.827 -0.3720 -0.3588 -0.1965
 5782SOL    HW128982   1.746   2.272  12.790  1.7671 -0.2654 -2.1986
 5782SOL    HW228983   1.724   2.410  12.770 -0.9124 -0.6094  0.0608
 5783SOL     OW28984   2.776   0.355  10.307 -0.5375 -0.1512  0.2734
 5783SOL    HW128985   2.705   0.379  10.366 -0.8087 -0.6695  0.1658
 5783SOL    HW228986   2.733   0.350  10.221 -1.8113  1.7285  0.8006
 5784SOL     OW28987   3.849   3.995   6.611 -0.2120  0.0296 -0.4002
 5784SOL    HW128988   3.839   4.062   6.679  0.8641 -0.2713  0.0631
 5784SOL    HW228989   3.941   3.968   6.619 -0.5041 -0.3572  1.7673
 5785SOL     OW28990   2.682   1.792   5.549 -1.1778 -0.3053 -1.1592
 5785SOL    HW128991   2.591   1.785   5.578 -0.9844 -2.6335 -1.0955
 5785SOL    HW228992   2.700   1.886   5.547 -1.3391 -0.2403  1.3037
 5786SOL     OW28993   1.664   1.482   5.805 -0.1279  0.4486 -0.3190
 5786SOL    HW128994   1.679   1.516   5.717 -1.2235  2.5474  0.2913
 5786SOL    HW228995   1.574   1.451   5.802  0.7561 -1.9657 -1.4864
 5787SOL     OW28996   0.105   1.445   8.573  0.5776 -0.7387  0.0704
 5787SOL    HW128997   0.139   1.356   8.575  1.3158 -0.4769 -0.8054
 5787SOL    HW228998   0.021   1.423   8.613  0.2520 -0.8754 -0.6903
 5788SOL     OW28999   2.656   4.384   8.940  0.2742 -0.7962 -0.6387
 5788SOL    HW129000   2.571   4.342   8.928  0.0868 -0.7241  0.4621
 5788SOL    HW229001   2.723   4.323   8.972  0.2893  0.1288  1.0846
 5789SOL     OW29002   2.262   3.323   7.430  0.2871  0.0483  0.9250
 5789SOL    HW129003   2.296   3.236   7.408  1.1433  0.2037  1.6651
 5789SOL    HW229004   2.286   3.354   7.342  2.1018 -0.7963  1.1192
 5790SOL     OW29005   0.221   1.846   3.468 -0.9296  0.0427  0.1624
 5790SOL    HW129006   0.213   1.865   3.561  4.7735 -1.1311  0.9075
 5790SOL    HW229007   0.313   1.863   3.449 -0.8997  0.8466  1.0500
 5791SOL     OW29008   2.234   4.282  10.975 -0.2164  0.5812  0.0134
 5791SOL    HW129009   2.300   4.346  11.002  0.6212 -1.4359  2.8783
 5791SOL    HW229010   2.154   4.332  10.988  0.2287  0.9151  1.4595
 5792SOL     OW29011   1.616   0.900  16.566 -1.3273  0.3599  0.2349
 5792SOL    HW129012   1.634   0.823  16.620  0.2335 -1.0975 -2.4020
 5792SOL    HW229013   1.521   0.900  16.553 -1.2901  2.2241 -0.0807
 5793SOL     OW29014   3.848   0.909   8.235  0.0165 -0.0531  0.1035
 5793SOL    HW129015   3.860   0.883   8.326  3.0801 -0.4917 -0.4448
 5793SOL    HW229016   3.761   0.949   8.226  1.5845  2.8457 -2.3273
 5794SOL     OW29017   0.423   0.069  15.219  0.5010  0.5170 -0.3131
 5794SOL    HW129018   0.433   0.154  15.175 -1.9856  2.3990  2.7700
 5794SOL    HW229019   0.338   0.083  15.261 -0.8667 -1.0341 -2.5334
 5795SOL     OW29020   4.099   3.598   6.805  0.3457 -0.0582  0.1953
 5795SOL    HW129021   4.080   3.618   6.897 -1.9037 -0.1087 -0.2608
 5795SOL    HW229022   4.166   3.533   6.825  1.2205  0.7896  0.0237
 5796SOL     OW29023   1.931   3.544  13.421 -0.2334  0.3364  0.1074
 5796SOL    HW129024   1.973   3.593  13.492 -0.4740  0.5749  0.0886
 5796SOL    HW229025   1.880   3.485  13.477  0.3692 -0.0509  0.2372
 5797SOL     OW29026   0.841   2.046   6.719 -0.3267 -0.2335  0.0225
 5797SOL    HW129027   0.900   2.010   6.785 -0.8710  0.1991  0.7438
 5797SOL    HW229028   0.767   1.986   6.730 -1.0529  0.8930  1.3260
 5798SOL     OW29029   1.631   3.049   8.154  0.1016  0.4839 -0.3269
 5798SOL    HW129030   1.656   2.976   8.211 -0.5650  1.6715  1.4493
 5798SOL    HW229031   1.719   3.074   8.129  0.1233 -0.9918 -1.7619
 5799SOL     OW29032   1.914   3.411   6.431 -0.2122 -0.3265 -0.0987
 5799SOL    HW129033   1.819   3.422   6.427  0.2134  2.9779 -0.8414
 5799SOL    HW229034   1.931   3.319   6.410 -1.5086 -0.6194  0.0894
 5800SOL     OW29035   0.320   2.134  14.314 -0.1946  0.0949  0.4704
 5800SOL    HW129036   0.305   2.224  14.341  0.8594 -0.0318  1.4683
 5800SOL    HW229037   0.231   2.108  14.340  0.5056 -0.8272  1.9646
 5801SOL     OW29038   1.369   4.251   8.147 -0.0159  0.1202  0.0232
 5801SOL    HW129039   1.280   4.251   8.182 -0.5833 -1.4969 -1.4210
 5801SOL    HW229040   1.423   4.223   8.221 -3.1519 -2.7013  1.2016
 5802SOL     OW29041   3.991   0.881   5.653  0.1430 -0.8899 -0.0691
 5802SOL    HW129042   3.986   0.793   5.691 -1.7097  0.2458  2.3488
 5802SOL    HW229043   4.071   0.918   5.690  0.2495  0.1155 -1.3168
 5803SOL     OW29044   2.829   1.663   9.346  0.0303  0.0045 -0.3165
 5803SOL    HW129045   2.763   1.688   9.409 -2.0857  1.5295 -3.1340
 5803SOL    HW229046   2.910   1.693   9.387  0.1650 -0.6262 -0.1136
 5804SOL     OW29047   0.019   1.699   2.285 -0.0559  0.3804 -0.3471
 5804SOL    HW129048   0.087   1.758   2.319 -0.4061 -0.1774  1.3231
 5804SOL    HW229049   4.698   1.764   2.247  0.5716  1.0446 -0.1874
 5805SOL     OW29050   2.114   2.120   5.736  0.0055  0.4482  0.1878
 5805SOL    HW129051   2.041   2.177   5.712 -1.0061 -1.3904 -1.0921
 5805SOL    HW229052   2.132   2.145   5.827 -2.1330 -0.6125  0.8935
 5806SOL     OW29053   2.392   4.244   6.474 -0.1798 -0.5822 -0.1995
 5806SOL    HW129054   2.398   4.157   6.434  0.5758 -1.5464  2.0056
 5806SOL    HW229055   2.399   4.221   6.566  0.6580  1.8554  0.3349
 5807SOL     OW29056   1.483   0.728  17.682  0.0115  0.4879 -0.0799
 5807SOL    HW129057   1.473   0.791   0.004 -1.6536 -0.3161  0.4074
 5807SOL    HW229058   1.468   0.789  17.610  0.1095 -0.8412 -1.2257
 5808SOL     OW29059   0.764   2.462   2.003  0.2974 -0.0356  0.5218
 5808SOL    HW129060   0.802   2.508   1.928 -0.6973  0.0227  0.0483
 5808SOL    HW229061   0.750   2.532   2.067  2.6027  0.7133  0.1944
 5809SOL     OW29062   2.777   2.279  14.837 -0.4836  0.1275 -0.3176
 5809SOL    HW129063   2.762   2.282  14.743 -3.8191  0.2422  0.2263
 5809SOL    HW229064   2.869   2.260  14.859 -0.1965  0.1384 -1.5030
 5810SOL     OW29065   2.731   1.155   6.132 -0.2790  0.3621 -0.2236
 5810SOL    HW129066   2.723   1.195   6.046  0.1338  1.0255  0.0470
 5810SOL    HW229067   2.647   1.177   6.173 -0.7387 -0.7209 -0.5762
 5811SOL     OW29068   2.591   4.421   4.766 -0.1448  0.4840 -0.2654
 5811SOL    HW129069   2.509   4.449   4.726 -0.5418 -2.3475 -1.4679
 5811SOL    HW229070   2.611   4.497   4.820  1.0707 -2.0462  2.8661
 5812SOL     OW29071   4.231   2.583   6.031  0.6504 -0.1484  0.1482
 5812SOL    HW129072   4.181   2.572   6.111 -0.1092 -2.3792 -0.6434
 5812SOL    HW229073   4.164   2.581   5.963 -0.0194 -3.6973  0.9454
 5813SOL     OW29074   0.453   1.426  14.894 -0.2532  0.5025  0.4695
 5813SOL    HW129075   0.455   1.464  14.806  0.2372  1.9987  1.1336
 5813SOL    HW229076   0.483   1.336  14.884 -0.4251  0.6305 -1.2710
 5814SOL     OW29077   3.156   2.157  16.427 -0.0421  0.4214 -0.4853
 5814SOL    HW129078   3.198   2.235  16.461  0.7706 -1.2942  2.5233
 5814SOL    HW229079   3.113   2.121  16.505  0.3647 -1.3606 -1.0786
 5815SOL     OW29080   3.354   3.395   5.499  0.1681  0.2337  0.4462
 5815SOL    HW129081   3.286   3.416   5.562  0.3690  3.7937 -0.5418
 5815SOL    HW229082   3.337   3.301   5.497 -0.6704  0.4084 -0.5181
 5816SOL     OW29083   3.670   4.101   8.342  0.5452  0.1310  0.1513
 5816SOL    HW129084   3.707   4.136   8.423 -0.2723  0.2916  0.4463
 5816SOL    HW229085   3.600   4.055   8.389  0.7060  0.5914  0.8358
 5817SOL     OW29086   0.669   2.069   6.161 -0.1868 -0.0444  0.4048
 5817SOL    HW129087   0.664   1.990   6.107  1.5628  0.4628 -0.5136
 5817SOL    HW229088   0.631   2.136   6.104  3.2277  2.4944  1.0683
 5818SOL     OW29089   1.355   3.678   5.368  0.8255 -0.3322  0.0781
 5818SOL    HW129090   1.293   3.747   5.347 -0.2408 -0.4939  2.7350
 5818SOL    HW229091   1.295   3.618   5.412  0.0896  0.9909  0.8386
 5819SOL     OW29092   3.356   3.019  12.861  0.0204 -0.2473  0.1302
 5819SOL    HW129093   3.413   2.994  12.934  1.2494  1.2948 -0.3063
 5819SOL    HW229094   3.426   3.040  12.800 -1.2801 -0.7473 -1.5127
 5820SOL     OW29095   0.975   0.519   7.681 -0.0228  0.4053  0.6291
 5820SOL    HW129096   0.983   0.430   7.717 -2.6033 -0.1579 -0.2360
 5820SOL    HW229097   1.019   0.569   7.750 -0.9689  1.7425  0.2619
 5821SOL     OW29098   1.223   2.070   4.322  0.1831 -0.7413  0.1063
 5821SOL    HW129099   1.209   1.980   4.350 -2.9834 -0.4109 -0.3709
 5821SOL    HW229100   1.318   2.079   4.308  0.2212 -1.2859  0.0297
 5822SOL     OW29101   2.517   4.682   5.356 -0.0197 -0.3916 -0.6952
 5822SOL    HW129102   2.455   0.010   5.389  0.5606 -1.0654  1.7923
 5822SOL    HW229103   2.575   4.693   5.432 -0.1476  1.4827 -0.8631
 5823SOL     OW29104   0.614   2.499   6.351  0.0280 -0.1339  0.1678
 5823SOL    HW129105   0.558   2.510   6.428  1.7803  1.2723  1.2688
 5823SOL    HW229106   0.669   2.424   6.373 -0.5649 -0.7089 -0.3259
 5824SOL     OW29107   2.684   2.835   4.373 -0.2887  0.2686  0.1256
 5824SOL    HW129108   2.719   2.881   4.297 -1.7933 -0.4920 -1.0075
 5824SOL    HW229109   2.748   2.773   4.407 -0.4560  0.2002  0.3162
 5825SOL     OW29110   3.016   0.625  12.110 -0.1277 -0.2678  0.4090
 5825SOL    HW129111   3.083   0.592  12.168  0.0404  0.7032  0.7708
 5825SOL    HW229112   3.064   0.644  12.029  2.3050  1.1265  2.2065
 5826SOL     OW29113   3.571   4.030   4.796  0.2488 -0.6627 -0.2784
 5826SOL    HW129114   3.546   3.939   4.808  0.0951 -0.8663 -2.2431
 5826SOL    HW229115   3.494   4.052   4.847  0.2567  0.2989 -0.6723
 5827SOL     OW29116   1.720   1.399  12.656  0.3419  0.1877  0.3703
 5827SOL    HW129117   1.784   1.329  12.650 -0.0958 -0.0227 -1.8310
 5827SOL    HW229118   1.675   1.363  12.733  0.6832  1.7301  1.2876
 5828SOL     OW29119   2.111   3.745  17.510  0.5414 -0.8018  0.3429
 5828SOL    HW129120   2.199   3.773  17.538  0.6211  0.8424 -1.5831
 5828SOL    HW229121   2.066   3.723  17.592 -0.6375  0.3556 -0.0042
 5829SOL     OW29122   0.211   1.260   6.971  0.1993 -0.3015 -0.3476
 5829SOL    HW129123   0.272   1.330   6.949 -1.7202  1.3377 -0.4544
 5829SOL    HW229124   0.194   1.221   6.886 -0.9681 -1.2537  0.3230
 5830SOL     OW29125   4.148   4.628   0.201  0.0529 -0.3990 -0.3854
 5830SOL    HW129126   4.243   4.639   0.213  0.0316  2.3525 -2.7260
 5830SOL    HW229127   4.152   4.544   0.156  0.4960 -0.2812 -0.5753
 5831SOL     OW29128   2.322   1.892   3.379  0.0544  0.1651 -0.3141
 5831SOL    HW129129   2.326   1.972   3.327  2.1077  0.3005  0.0499
 5831SOL    HW229130   2.265   1.915   3.453  1.2266 -0.2262  0.7083
 5832SOL     OW29131   0.781   1.372  12.108  0.4602  0.0707 -0.0324
 5832SOL    HW129132   0.767   1.416  12.192  0.4922 -0.2684  0.1507
 5832SOL    HW229133   0.772   1.443  12.045  1.4379 -0.9102 -1.2809
 5833SOL     OW29134   1.938   1.122  16.511  0.3857 -0.0405  0.1235
 5833SOL    HW129135   1.978   1.197  16.466 -2.1801  1.2016 -0.0805
 5833SOL    HW229136   1.848   1.153  16.522 -0.6689 -1.9517 -2.8547
 5834SOL     OW29137   2.335   0.687   5.509  0.3225  0.1610 -0.1924
 5834SOL    HW129138   2.340   0.654   5.419  1.9886 -1.5502  0.5337
 5834SOL    HW229139   2.428   0.674   5.528 -0.3243 -1.1799  2.0201
 5835SOL     OW29140   1.877   0.150  15.827  0.4213  0.1537  0.0237
 5835SOL    HW129141   1.932   0.195  15.763  1.0374 -1.1731 -0.3884
 5835SOL    HW229142   1.886   0.217  15.895 -1.8386  1.2167 -0.7404
 5836SOL     OW29143   4.013   2.242   6.988  0.1869  0.1527 -0.1220
 5836SOL    HW129144   4.058   2.161   7.009 -1.1111 -1.2313 -2.6861
 5836SOL    HW229145   3.974   2.217   6.905  0.1754  0.8861 -0.3402
 5837SOL     OW29146   3.355   4.021   7.031  0.1287 -0.4488 -0.2371
 5837SOL    HW129147   3.283   4.018   6.967 -2.1955 -0.7042  2.3791
 5837SOL    HW229148   3.431   4.029   6.974  0.5555  0.7801  0.5078
 5838SOL     OW29149   2.218   2.026   1.852 -0.2881 -0.0534  0.5730
 5838SOL    HW129150   2.162   2.039   1.775 -1.3378 -1.0124  1.1803
 5838SOL    HW229151   2.168   2.072   1.919  0.2890  1.6655 -0.1862
 5839SOL     OW29152   0.612   3.773   0.049 -0.4467 -0.3344  0.8500
 5839SOL    HW129153   0.648   3.690   0.083 -0.1548 -0.6417 -0.2289
 5839SOL    HW229154   0.613   3.812   0.136  1.2798 -0.6154  0.9573
 5840SOL     OW29155   0.389   3.408   7.552 -0.3978 -0.5208  0.0260
 5840SOL    HW129156   0.472   3.449   7.576 -1.2246  1.2170 -0.1076
 5840SOL    HW229157   0.374   3.340   7.617  0.2653  1.1764  1.9439
 5841SOL     OW29158   1.187   3.680   9.114  0.1199 -0.6286  0.2389
 5841SOL    HW129159   1.130   3.653   9.042 -0.0386 -0.7117  0.3923
 5841SOL    HW229160   1.238   3.599   9.119  0.7781 -0.2863 -0.9449
 5842SOL     OW29161   3.810   3.607   2.585 -0.0565  0.1964 -0.3060
 5842SOL    HW129162   3.898   3.611   2.546  0.6553  1.6392  1.4692
 5842SOL    HW229163   3.811   3.674   2.654 -2.6965 -1.3301  1.1867
 5843SOL     OW29164   2.126   2.043   3.524  0.9705  0.3802  0.0274
 5843SOL    HW129165   2.184   2.115   3.550 -0.2146  1.3163  0.0800
 5843SOL    HW229166   2.071   2.084   3.457 -3.2406 -0.1135  3.2067
 5844SOL     OW29167   1.777   1.194  15.081  0.2626  0.0791 -0.3924
 5844SOL    HW129168   1.742   1.213  14.994 -0.1105  2.5369  0.2989
 5844SOL    HW229169   1.811   1.275  15.117 -0.9784  0.9287 -1.1490
 5845SOL     OW29170   3.724   4.239   4.914  0.0611  0.7234  0.1684
 5845SOL    HW129171   3.736   4.205   5.003  0.1029  0.7566  0.1754
 5845SOL    HW229172   3.699   4.154   4.878 -0.1415  0.5224  0.7751
 5846SOL     OW29173   0.092   4.358   4.532  0.0260  0.1215 -0.4448
 5846SOL    HW129174   0.041   4.278   4.519  1.1322 -0.9155  1.5598
 5846SOL    HW229175   0.168   4.339   4.477 -0.3542  2.1908 -1.7053
 5847SOL     OW29176   3.518   1.248   9.654  0.1289 -0.5573  0.0789
 5847SOL    HW129177   3.525   1.154   9.636  0.2693 -0.2973 -1.2800
 5847SOL    HW229178   3.593   1.276   9.707 -0.7838 -0.0295  1.0687
 5848SOL     OW29179   2.134   4.269   3.845  0.1264  0.3500  0.2899
 5848SOL    HW129180   2.130   4.175   3.826  0.1653 -0.2660  3.3207
 5848SOL    HW229181   2.227   4.284   3.832  0.3278 -0.2450  1.0707
 5849SOL     OW29182   3.214   3.013   5.732  0.1081 -0.6183  0.5598
 5849SOL    HW129183   3.158   2.936   5.743  1.1718 -1.4541  0.0525
 5849SOL    HW229184   3.299   2.982   5.761  0.0738 -0.7235  0.5504
 5850SOL     OW29185   0.580   4.361   5.419  0.5382 -0.0559  0.0795
 5850SOL    HW129186   0.598   4.267   5.419  1.4876  0.1264 -0.9374
 5850SOL    HW229187   0.665   4.389   5.387 -0.0747 -0.1431 -1.6440
 5851SOL     OW29188   0.142   1.181   0.115  0.2322  0.3791 -0.4632
 5851SOL    HW129189   0.053   1.183   0.079  0.2543  2.0036 -0.4145
 5851SOL    HW229190   0.190   1.141   0.042 -0.5921  0.2087 -0.9156
 5852SOL     OW29191   1.434   2.268   3.700 -0.3239  0.6485 -0.4154
 5852SOL    HW129192   1.506   2.219   3.660 -0.8180 -0.9776  0.6621
 5852SOL    HW229193   1.367   2.199   3.693  3.2435 -2.6389 -2.0518
 5853SOL     OW29194   4.596   4.326   5.656 -0.0069 -0.5418  0.3115
 5853SOL    HW129195   4.690   4.309   5.655  0.1840  0.6578 -1.9750
 5853SOL    HW229196   4.593   4.344   5.750  0.1448  0.3174  0.1580
 5854SOL     OW29197   4.300   3.285   8.334 -0.0205  0.2089  0.1745
 5854SOL    HW129198   4.239   3.358   8.335  0.0330  0.2338  1.0025
 5854SOL    HW229199   4.266   3.217   8.392  0.5169 -0.0720  0.1611
 5855SOL     OW29200   4.271   2.191  14.859 -0.3854 -0.3240 -0.4901
 5855SOL    HW129201   4.255   2.157  14.947 -2.2219  1.1951 -0.2321
 5855SOL    HW229202   4.360   2.223  14.871 -1.5386  2.4416  0.6466
 5856SOL     OW29203   2.037   4.363   7.711  0.1252  0.2914 -0.3111
 5856SOL    HW129204   2.013   4.338   7.621 -0.0203 -1.1554  0.1201
 5856SOL    HW229205   2.006   4.452   7.724 -0.6232  0.0931 -0.7229
 5857SOL     OW29206   2.534   0.647   2.605 -0.0850  0.1711  0.5652
 5857SOL    HW129207   2.565   0.631   2.515  1.3186 -1.5197  1.3489
 5857SOL    HW229208   2.591   0.586   2.653 -1.1027 -0.8029  0.5344
 5858SOL     OW29209   3.246   1.693   7.606 -0.2659  0.7340 -0.1852
 5858SOL    HW129210   3.224   1.719   7.695  1.1168 -0.3221  0.4625
 5858SOL    HW229211   3.248   1.600   7.629 -0.6872  0.6463 -0.4978
 5859SOL     OW29212   0.462   2.587   3.109 -0.2256  0.4302 -0.0456
 5859SOL    HW129213   0.487   2.679   3.121 -2.3157  0.7852  1.5514
 5859SOL    HW229214   0.499   2.543   3.185 -0.8614  2.4737  1.4590
 5860SOL     OW29215   0.182   1.767  10.458 -0.1907  0.2553  0.0651
 5860SOL    HW129216   0.234   1.772  10.378  0.7151  2.1006  0.7622
 5860SOL    HW229217   0.213   1.681  10.486 -0.7312  0.2762  0.7409
 5861SOL     OW29218   1.369   1.237   5.563 -0.5582  0.1061  0.2072
 5861SOL    HW129219   1.389   1.214   5.473  2.2974  0.6376  0.7045
 5861SOL    HW229220   1.281   1.271   5.550 -0.9027 -0.8581  0.0801
 5862SOL     OW29221   2.880   2.432   6.907  0.4440  0.5905  0.1553
 5862SOL    HW129222   2.947   2.447   6.839 -1.4215 -3.1595 -2.4853
 5862SOL    HW229223   2.936   2.372   6.956 -0.9664 -0.8559 -0.0098
 5863SOL     OW29224   2.964   2.955   1.539 -0.1334  0.1704  0.0047
 5863SOL    HW129225   2.989   3.000   1.459 -1.2234  0.5587 -0.1233
 5863SOL    HW229226   2.897   2.895   1.506  0.2008  0.2839 -0.8863
 5864SOL     OW29227   1.521   1.664   8.714 -0.2640  0.2782  0.6123
 5864SOL    HW129228   1.458   1.626   8.775 -0.2155 -0.0480  0.4577
 5864SOL    HW229229   1.592   1.705   8.765  0.5661  1.7110 -1.6637
 5865SOL     OW29230   2.163   3.708  15.270  0.4573  0.0280  0.6197
 5865SOL    HW129231   2.146   3.802  15.271  1.7588  0.2530  1.3390
 5865SOL    HW229232   2.074   3.679  15.249  1.2700 -0.9354 -1.5299
 5866SOL     OW29233   0.668   3.373  13.307  0.4702  0.3435  0.2412
 5866SOL    HW129234   0.712   3.410  13.230  1.7228 -0.5604  0.5280
 5866SOL    HW229235   0.686   3.281  13.293 -2.2468 -0.3120  1.0153
 5867SOL     OW29236   2.111   0.306   0.305 -0.1922  0.1836  0.3264
 5867SOL    HW129237   2.038   0.367   0.318 -0.6262 -0.4623  0.9436
 5867SOL    HW229238   2.101   0.260   0.388  1.6117  0.6427  0.8017
 5868SOL     OW29239   4.049   3.080   7.240 -0.3217 -0.2003 -0.2704
 5868SOL    HW129240   3.988   3.090   7.313 -1.3208 -0.3465 -1.0681
 5868SOL    HW229241   4.080   3.170   7.237 -0.0579 -0.3402 -1.9127
 5869SOL     OW29242   1.078   3.668  13.269  0.4459  0.2216  0.3063
 5869SOL    HW129243   1.064   3.586  13.221  0.2733  1.9679 -2.6754
 5869SOL    HW229244   1.173   3.676  13.279  0.4269  1.8218 -0.7588
 5870SOL     OW29245   1.058   3.757  11.307 -0.2552 -0.1856  0.3127
 5870SOL    HW129246   1.144   3.715  11.304 -0.0142  0.4054 -1.2571
 5870SOL    HW229247   0.997   3.684  11.318  1.0455 -1.4384 -0.7744
 5871SOL     OW29248   3.200   3.279   7.611  0.5546  0.4449  0.1046
 5871SOL    HW129249   3.145   3.201   7.605 -0.3723  1.2038 -1.6057
 5871SOL    HW229250   3.274   3.243   7.659  1.1030  2.6284  0.8762
 5872SOL     OW29251   0.312   2.734   0.231  0.1172  0.5178  0.4475
 5872SOL    HW129252   0.384   2.672   0.225  1.2186  2.0909 -2.4669
 5872SOL    HW229253   0.297   2.742   0.137  1.0083  0.4670  0.2951
 5873SOL     OW29254   3.592   3.125   7.089 -0.4971 -0.4175 -0.4185
 5873SOL    HW129255   3.660   3.173   7.136 -0.3326  0.0008 -1.0869
 5873SOL    HW229256   3.518   3.184   7.102  3.3660  3.9934  1.4613
 5874SOL     OW29257   0.584   1.212   3.219  0.3861 -0.3654 -0.1688
 5874SOL    HW129258   0.495   1.241   3.242  0.1562  0.1947 -1.7264
 5874SOL    HW229259   0.571   1.131   3.170 -0.3754 -0.2055 -0.2305
 5875SOL     OW29260   0.773   1.003   8.541 -0.2081 -0.0488  0.8630
 5875SOL    HW129261   0.804   0.961   8.621  2.6619 -1.6273 -1.0966
 5875SOL    HW229262   0.744   0.924   8.496 -0.4310  1.3022 -1.3435
 5876SOL     OW29263   2.293   3.858   6.920  0.0248  0.6361 -0.0961
 5876SOL    HW129264   2.265   3.920   6.987 -0.7533  1.8948 -1.5910
 5876SOL    HW229265   2.237   3.780   6.926  1.0780 -0.2905 -2.4442
 5877SOL     OW29266   3.794   4.249   5.561 -0.4562 -0.1697 -0.0903
 5877SOL    HW129267   3.865   4.185   5.566 -0.4734 -0.0435  1.7990
 5877SOL    HW229268   3.734   4.200   5.505 -0.5791  0.0257 -0.1285
 5878SOL     OW29269   1.578   3.232  11.464 -0.1652 -0.6114 -0.4474
 5878SOL    HW129270   1.641   3.213  11.534  1.2827  0.4501 -1.4531
 5878SOL    HW229271   1.518   3.160  11.484 -2.2668  1.1474 -0.4268
 5879SOL     OW29272   2.703   0.008  14.577 -0.2365 -0.6593  0.5448
 5879SOL    HW129273   2.704   0.019  14.672  0.1632  0.4921  0.4005
 5879SOL    HW229274   2.658   0.086  14.546 -0.7412 -2.2505 -2.7057
 5880SOL     OW29275   1.361   0.607   0.894 -0.4613 -0.1206 -0.3371
 5880SOL    HW129276   1.283   0.554   0.909 -0.1951 -0.1418  0.9476
 5880SOL    HW229277   1.352   0.661   0.973  0.3990 -3.4089  1.9880
 5881SOL     OW29278   2.929   3.920  11.625  0.0854 -0.4282  0.0900
 5881SOL    HW129279   2.977   3.861  11.567 -0.9549 -0.8974 -0.2853
 5881SOL    HW229280   2.923   3.871  11.707  0.1223 -1.2844 -0.4157
 5882SOL     OW29281   1.965   1.531   1.217 -0.1723  0.6799  0.1950
 5882SOL    HW129282   2.018   1.558   1.142 -0.0609  0.7756  0.3090
 5882SOL    HW229283   2.029   1.471   1.256 -0.5893  1.7558  2.5116
 5883SOL     OW29284   2.435   1.573   4.761 -0.8257  0.0889  0.1088
 5883SOL    HW129285   2.431   1.637   4.690  0.7399 -3.0146 -2.8022
 5883SOL    HW229286   2.504   1.611   4.816  0.0883 -2.2997  0.6117
 5884SOL     OW29287   3.055   4.513   2.951 -0.0256 -0.0531 -0.0377
 5884SOL    HW129288   3.036   4.500   3.044 -1.5904  0.7662 -0.2448
 5884SOL    HW229289   3.140   4.471   2.938  0.3142  0.1281  1.6026
 5885SOL     OW29290   3.086   3.944  12.486 -0.1415 -0.0665  0.3288
 5885SOL    HW129291   3.050   3.932  12.398 -1.8401  1.0206  0.8673
 5885SOL    HW229292   3.179   3.959  12.467  0.1648 -1.4830  0.7629
 5886SOL     OW29293   3.281   1.757  11.075 -0.2838 -0.3775 -0.5704
 5886SOL    HW129294   3.332   1.830  11.111  0.2067 -0.4042 -1.1967
 5886SOL    HW229295   3.326   1.738  10.992 -0.5261 -1.0822 -0.5347
 5887SOL     OW29296   3.995   0.676   9.493  0.0444 -0.1131  0.1242
 5887SOL    HW129297   4.065   0.611   9.498  1.8553  1.6362 -2.3667
 5887SOL    HW229298   4.056   0.744   9.464  0.2000  0.3612  1.5747
 5888SOL     OW29299   3.750   1.841   5.527 -0.5535 -0.0250 -0.3406
 5888SOL    HW129300   3.786   1.854   5.615 -2.2368  0.2926  0.2918
 5888SOL    HW229301   3.761   1.747   5.512 -3.7443 -0.6174  1.0981
 5889SOL     OW29302   2.941   3.089  10.346  0.2672 -0.0509 -0.3079
 5889SOL    HW129303   2.947   3.040  10.264  0.8601  1.4842 -1.1901
 5889SOL    HW229304   2.943   3.019  10.412 -2.0230 -1.9871 -2.3077
 5890SOL     OW29305   0.069   4.557   1.938 -0.2269 -0.1156  0.1305
 5890SOL    HW129306   0.093   4.634   1.989 -2.8749  0.4404  0.5472
 5890SOL    HW229307   4.714   4.567   1.958  0.3660  2.5211  1.5789
 5891SOL     OW29308   1.533   1.988   5.479 -0.2500 -0.1016 -0.0385
 5891SOL    HW129309   1.555   1.928   5.408  0.1379 -0.6094  0.5049
 5891SOL    HW229310   1.475   1.943   5.541  1.4075 -0.9793  0.8582
 5892SOL     OW29311   0.671   1.682   3.597  0.0315  0.2424  0.0911
 5892SOL    HW129312   0.744   1.620   3.597  0.1923  0.4368  2.4524
 5892SOL    HW229313   0.712   1.765   3.623  1.0917 -0.3798  0.4191
 5893SOL     OW29314   3.270   0.828   4.969  0.1461 -0.0357  0.1326
 5893SOL    HW129315   3.349   0.776   4.983 -0.6485 -1.3346 -0.2501
 5893SOL    HW229316   3.213   0.804   5.042 -0.8706  0.7865 -0.3939
 5894SOL     OW29317   1.378   0.999   8.566 -0.0564 -0.0743  0.0454
 5894SOL    HW129318   1.316   0.978   8.495 -0.7109  1.3682  0.1821
 5894SOL    HW229319   1.322   1.056   8.619  1.7938  0.3365  1.5398
 5895SOL     OW29320   2.600   1.167   4.827  0.4567 -0.4288  0.3185
 5895SOL    HW129321   2.617   1.236   4.891 -3.7642 -0.1307  1.1221
 5895SOL    HW229322   2.554   1.104   4.882 -1.4498 -0.5426 -1.3675
 5896SOL     OW29323   0.888   3.750   1.775  0.1320 -0.5326  0.1153
 5896SOL    HW129324   0.881   3.669   1.724  0.4452 -0.4932  0.0138
 5896SOL    HW229325   0.936   3.803   1.712  0.3668 -1.3066 -0.3655
 5897SOL     OW29326   1.632   3.151   7.171 -0.1068  0.2010 -0.2828
 5897SOL    HW129327   1.718   3.147   7.130  0.3669 -0.2613  0.7591
 5897SOL    HW229328   1.609   3.244   7.180  1.0002  0.5076 -0.6739
 5898SOL     OW29329   4.131   0.595   2.500 -0.7500  0.1714  0.3873
 5898SOL    HW129330   4.147   0.572   2.408 -0.9352 -1.0365  0.6526
 5898SOL    HW229331   4.219   0.626   2.523 -0.5712  1.3150 -1.8361
 5899SOL     OW29332   3.780   3.680  13.947  0.0912  0.2743 -0.3639
 5899SOL    HW129333   3.737   3.718  14.024  1.8944  0.3014  0.6144
 5899SOL    HW229334   3.718   3.711  13.881  0.4870  0.9150 -0.4299
 5900SOL     OW29335   2.529   1.400   6.440 -0.3620  0.2877  0.1922
 5900SOL    HW129336   2.477   1.362   6.511 -0.9549  1.9105  0.6496
 5900SOL    HW229337   2.497   1.490   6.428 -1.4390 -0.3187 -1.3997
 5901SOL     OW29338   3.727   2.234   9.160 -0.3574 -0.4509  0.7856
 5901SOL    HW129339   3.658   2.185   9.205  0.2090 -1.9602  0.0128
 5901SOL    HW229340   3.807   2.208   9.205  0.7922  1.1502 -0.3262
 5902SOL     OW29341   0.552   3.295   8.265 -0.4021  0.1618 -0.5743
 5902SOL    HW129342   0.527   3.344   8.343 -0.9630 -0.8620 -0.1087
 5902SOL    HW229343   0.491   3.221   8.266 -0.6464  0.3953  3.3500
 5903SOL     OW29344   1.598   1.497   8.484  0.6412  0.4155  0.3566
 5903SOL    HW129345   1.541   1.529   8.555  2.7505 -0.4732  2.4515
 5903SOL    HW229346   1.667   1.563   8.493  1.6919 -0.6777  0.2613
 5904SOL     OW29347   1.353   3.270   2.289  0.3363 -0.5180 -0.0113
 5904SOL    HW129348   1.315   3.182   2.283 -0.7556  0.0563 -1.6553
 5904SOL    HW229349   1.427   3.270   2.229  0.7302  0.7194  0.4745
 5905SOL     OW29350   0.539   1.563   8.783 -0.5946 -0.0203 -0.0168
 5905SOL    HW129351   0.517   1.537   8.694 -1.6931  1.9419 -0.3190
 5905SOL    HW229352   0.482   1.638   8.798 -0.0747  0.1993  0.8399
 5906SOL     OW29353   1.558   2.736   7.229  0.3289 -0.0196 -0.4313
 5906SOL    HW129354   1.565   2.790   7.150  1.2229  0.0209 -0.3189
 5906SOL    HW229355   1.604   2.655   7.208 -1.5618 -1.3341  0.4692
 5907SOL     OW29356   1.540   4.115   7.978  0.1818  0.3643  0.1292
 5907SOL    HW129357   1.478   4.158   8.038 -1.7715  0.4579 -1.9650
 5907SOL    HW229358   1.526   4.172   7.903 -0.6762  0.3069  0.2496
 5908SOL     OW29359   4.660   0.482   8.586  0.1937  0.0530  0.1024
 5908SOL    HW129360   4.621   0.397   8.605 -2.0969  0.3085 -3.5101
 5908SOL    HW229361   0.017   0.479   8.600  0.5181  0.3336 -2.0561
 5909SOL     OW29362   0.077   3.223   5.643  0.0158 -0.4406 -0.5781
 5909SOL    HW129363   0.154   3.192   5.595 -0.5510  0.8701 -2.3706
 5909SOL    HW229364   0.065   3.155   5.709  1.7315 -0.0892  0.0904
 5910SOL     OW29365   0.473   2.609  14.498 -0.0172  0.6872  0.2713
 5910SOL    HW129366   0.531   2.681  14.472  3.2346 -3.1735 -3.0818
 5910SOL    HW229367   0.501   2.545  14.433 -1.2010 -0.7351  1.1355
 5911SOL     OW29368   3.070   0.685   5.900 -0.2730 -0.7301 -0.2816
 5911SOL    HW129369   3.132   0.719   5.836  1.2575  1.1685  2.2119
 5911SOL    HW229370   3.126   0.648   5.969  0.1864  1.7921  0.7001
 5912SOL     OW29371   2.819   1.952   4.635  0.6890  0.2426 -0.0014
 5912SOL    HW129372   2.812   2.026   4.574  1.0206  1.6461  1.6873
 5912SOL    HW229373   2.726   1.952   4.656  0.8809 -2.4175  0.7924
 5913SOL     OW29374   1.223   3.482   7.517 -0.8979  0.1177 -0.3529
 5913SOL    HW129375   1.171   3.454   7.592 -2.7218 -0.4329 -1.8198
 5913SOL    HW229376   1.173   3.434   7.451  0.8895 -0.4378 -1.3073
 5914SOL     OW29377   2.641   4.004   4.026  0.2482 -0.0495  0.3691
 5914SOL    HW129378   2.605   3.976   3.941  0.7082  0.1076  0.1199
 5914SOL    HW229379   2.556   4.019   4.067  1.4513  0.1543  2.7274
 5915SOL     OW29380   3.595   4.402   6.519 -0.9941  0.1251 -0.4566
 5915SOL    HW129381   3.513   4.417   6.565 -1.3899 -0.8539 -0.8496
 5915SOL    HW229382   3.579   4.313   6.489  1.8113 -0.7973  0.7838
 5916SOL     OW29383   0.575   2.999  13.572 -0.0666 -0.0134  0.0325
 5916SOL    HW129384   0.597   2.906  13.572 -0.3915 -0.0924  0.7571
 5916SOL    HW229385   0.490   2.999  13.616  0.5546  0.9453  1.2312
 5917SOL     OW29386   0.657   0.940  15.948  0.1877  0.8080  0.1305
 5917SOL    HW129387   0.589   1.006  15.934 -0.5896 -0.2731 -1.1120
 5917SOL    HW229388   0.645   0.881  15.874 -1.7831  0.9098  0.3723
 5918SOL     OW29389   1.649   2.563   5.661 -0.3950 -0.4137  0.0440
 5918SOL    HW129390   1.740   2.594   5.668 -1.1266  1.6575  0.1899
 5918SOL    HW229391   1.621   2.567   5.753 -1.3586 -1.5227 -0.2127
 5919SOL     OW29392   2.471   2.163   8.075  0.3468 -0.0563 -0.1587
 5919SOL    HW129393   2.446   2.250   8.106  0.4896 -0.2235  0.4420
 5919SOL    HW229394   2.559   2.184   8.043  0.4471 -1.9296 -1.1588
 5920SOL     OW29395   1.799   2.536   2.152 -0.1041 -0.0228 -0.1504
 5920SOL    HW129396   1.826   2.610   2.098 -2.2973  1.8408  1.2925
 5920SOL    HW229397   1.882   2.517   2.196 -0.7861 -2.0322  0.2671
 5921SOL     OW29398   3.748   2.019  11.442  0.2366 -0.5376  0.1950
 5921SOL    HW129399   3.688   2.010  11.516 -0.9709  0.4769 -0.6640
 5921SOL    HW229400   3.832   2.021  11.489  0.4109  2.5627 -0.2758
 5922SOL     OW29401   4.080   1.173  12.261  0.1726 -0.1121 -0.4607
 5922SOL    HW129402   4.073   1.265  12.290  1.0456 -0.6023  1.3130
 5922SOL    HW229403   4.144   1.191  12.192  1.1092  2.6937  1.1109
 5923SOL     OW29404   1.476   3.688   4.292 -0.0615  0.2329 -0.3698
 5923SOL    HW129405   1.406   3.623   4.297  1.1140 -0.8292  2.2585
 5923SOL    HW229406   1.486   3.677   4.197 -0.3001 -0.9084 -0.2612
 5924SOL     OW29407   1.261   0.457   6.658  0.1217  0.1337  0.0254
 5924SOL    HW129408   1.330   0.521   6.669 -2.4730  2.7478  1.0372
 5924SOL    HW229409   1.259   0.420   6.747 -0.4973 -0.0337 -0.0548
 5925SOL     OW29410   0.730   0.745  15.470  0.4230 -0.1875 -0.8861
 5925SOL    HW129411   0.676   0.689  15.414 -0.0345 -1.0272  0.4124
 5925SOL    HW229412   0.703   0.833  15.444  1.2132 -0.0103 -1.1063
 5926SOL     OW29413   0.310   4.271   4.417  0.1542 -0.0196 -0.3161
 5926SOL    HW129414   0.392   4.319   4.428  0.6174 -0.9691  0.3857
 5926SOL    HW229415   0.339   4.181   4.432 -0.4244 -0.3238 -1.0411
 5927SOL     OW29416   2.532   4.243   1.605 -0.0677  0.3765  0.8164
 5927SOL    HW129417   2.461   4.298   1.639  0.5048  1.9749 -0.5593
 5927SOL    HW229418   2.597   4.305   1.571 -2.1684  3.0053  1.6218
 5928SOL     OW29419   2.254   3.592   8.410 -0.0050  0.0679 -0.4196
 5928SOL    HW129420   2.255   3.511   8.359  0.4988  0.6960 -1.4076
 5928SOL    HW229421   2.176   3.581   8.465  0.3964  1.5180  0.4498
 5929SOL     OW29422   1.952   1.287   3.315  0.4114  0.2149  0.4392
 5929SOL    HW129423   1.858   1.275   3.305  0.6845 -0.6699 -1.0632
 5929SOL    HW229424   1.979   1.278   3.224 -0.3944 -1.1059  0.3378
 5930SOL     OW29425   0.743   3.038  12.368  0.4059  0.4790 -0.0718
 5930SOL    HW129426   0.790   3.046  12.451  0.3145  0.1720  0.0079
 5930SOL    HW229427   0.681   2.967  12.382 -0.0947  1.3330  1.9201
 5931SOL     OW29428   0.032   1.750   9.287  0.0886  0.5678 -0.5281
 5931SOL    HW129429   0.029   1.841   9.257  0.7109  0.8042  0.1328
 5931SOL    HW229430   4.720   1.751   9.369  1.9501 -0.2409  0.6232
 5932SOL     OW29431   4.128   1.598  10.911  0.5120  0.1494 -1.1012
 5932SOL    HW129432   4.133   1.686  10.875 -0.2352  0.0604 -1.4305
 5932SOL    HW229433   4.035   1.588  10.932 -0.0288  1.9064 -2.6269
 5933SOL     OW29434   3.667   1.126   4.725 -0.8686  0.0464 -0.2761
 5933SOL    HW129435   3.672   1.221   4.735  1.2290 -0.1183  0.1426
 5933SOL    HW229436   3.617   1.096   4.801  0.3355 -0.7661  0.1977
 5934SOL     OW29437   3.002   2.502   5.537 -0.6535  0.5558 -0.0159
 5934SOL    HW129438   2.971   2.425   5.585  0.3126  1.3541  1.8822
 5934SOL    HW229439   2.965   2.480   5.451 -0.7469 -0.6596  0.3286
 5935SOL     OW29440   4.243   0.143   2.909 -0.3297  0.0280 -0.0766
 5935SOL    HW129441   4.257   0.129   3.002  2.2010 -0.6186 -0.5379
 5935SOL    HW229442   4.330   0.176   2.888 -0.4531  0.8154  0.6630
 5936SOL     OW29443   4.318   3.797   3.459 -0.5623  0.1219 -0.1197
 5936SOL    HW129444   4.336   3.838   3.374 -0.4890 -0.1277 -0.2245
 5936SOL    HW229445   4.383   3.836   3.516 -0.6588 -0.7967  0.6211
 5937SOL     OW29446   0.562   2.924   2.077  0.1601 -0.1677 -0.4177
 5937SOL    HW129447   0.498   2.899   2.011 -0.4623  0.0892  0.0914
 5937SOL    HW229448   0.600   3.009   2.053 -1.9970 -0.1434 -3.7254
 5938SOL     OW29449   0.551   0.238  13.964  0.5314 -0.4717 -0.4706
 5938SOL    HW129450   0.532   0.199  13.879 -2.4958 -0.2521  0.1135
 5938SOL    HW229451   0.624   0.292  13.932 -0.1324  0.2396 -0.7707
 5939SOL     OW29452   0.000   0.925  17.677  0.5391  0.2116 -0.0862
 5939SOL    HW129453   4.653   0.914  17.719 -0.0989  1.9068 -0.8818
 5939SOL    HW229454   4.730   1.018  17.653 -0.1342  0.8317  2.4961
 5940SOL     OW29455   0.561   0.246  10.101 -0.2300  0.4678 -0.3400
 5940SOL    HW129456   0.580   0.245  10.007 -0.5634  2.6070 -0.4406
 5940SOL    HW229457   0.595   0.161  10.126 -0.2466 -0.5203 -3.6839
 5941SOL     OW29458   4.291   0.303   7.306 -0.1748  0.1567  0.0448
 5941SOL    HW129459   4.362   0.330   7.248 -1.6098  2.6047 -0.5793
 5941SOL    HW229460   4.269   0.217   7.272 -1.0498 -0.0272  1.0575
 5942SOL     OW29461   2.667   3.843   7.623  0.4820  0.1714  0.6617
 5942SOL    HW129462   2.754   3.869   7.592  0.2348  0.4339  0.1888
 5942SOL    HW229463   2.666   3.747   7.618 -0.3168  0.3021 -2.0751
 5943SOL     OW29464   1.391   1.196  16.518 -0.2837  0.0560  0.3643
 5943SOL    HW129465   1.374   1.113  16.474  2.2149 -1.0958  1.5937
 5943SOL    HW229466   1.320   1.199  16.582 -0.8782  0.8045 -0.3241
 5944SOL     OW29467   0.882   2.820  10.502  0.2526 -0.5814  0.1473
 5944SOL    HW129468   0.804   2.875  10.506 -0.9571 -2.3589  0.7758
 5944SOL    HW229469   0.864   2.755  10.434 -1.9601 -3.4622  3.5352
 5945SOL     OW29470   3.508   0.635  11.821 -0.3791 -0.0621 -0.3438
 5945SOL    HW129471   3.506   0.719  11.868  2.5890 -1.1132  1.6808
 5945SOL    HW229472   3.459   0.579  11.880  0.9734 -0.2195  0.6299
 5946SOL     OW29473   0.868   4.463   7.360 -0.2307  0.0975 -0.0653
 5946SOL    HW129474   0.906   4.466   7.272 -0.6589  1.6958 -0.1979
 5946SOL    HW229475   0.818   4.544   7.374  2.4347  1.9153 -1.1941
 5947SOL     OW29476   3.852   3.121  15.749 -0.5368  0.4142 -0.2650
 5947SOL    HW129477   3.821   3.041  15.792  2.6730 -0.5352  0.2933
 5947SOL    HW229478   3.836   3.181  15.822 -3.2031  0.9415 -1.2820
 5948SOL     OW29479   2.109   3.404   5.776 -0.7305 -1.0951  0.1922
 5948SOL    HW129480   2.079   3.345   5.706  0.6407 -0.4499 -0.9383
 5948SOL    HW229481   2.140   3.477   5.722 -1.4331 -1.9705 -1.4118
 5949SOL     OW29482   2.882   0.502   6.489 -0.5953  0.0590 -0.5346
 5949SOL    HW129483   2.794   0.532   6.515 -0.0578  0.5540  0.7320
 5949SOL    HW229484   2.907   0.565   6.422 -0.7619  1.2611  0.5326
 5950SOL     OW29485   3.929   4.607   3.044  0.1947 -0.3356 -0.4577
 5950SOL    HW129486   3.844   4.641   3.018 -0.2937 -1.5008 -0.3812
 5950SOL    HW229487   3.982   4.635   2.970 -1.1900 -2.2729 -2.1701
 5951SOL     OW29488   0.451   0.254   9.173  0.1981  0.3805 -0.0479
 5951SOL    HW129489   0.536   0.238   9.133 -0.0148 -0.4783 -0.1681
 5951SOL    HW229490   0.393   0.177   9.171  0.5539  0.0589  2.3492
 5952SOL     OW29491   1.216   2.243   5.209  0.2958 -0.5329  0.0876
 5952SOL    HW129492   1.257   2.215   5.291 -0.9954  4.0495  2.3219
 5952SOL    HW229493   1.138   2.189   5.201 -0.6127  0.7478  0.3094
 5953SOL     OW29494   0.950   0.009   5.072  0.2730  0.2340  0.3549
 5953SOL    HW129495   0.924   0.083   5.016 -3.0808 -1.2945 -0.0969
 5953SOL    HW229496   1.044   0.004   5.054 -0.2980  0.1954 -2.6749
 5954SOL     OW29497   4.525   1.283  16.468 -0.2303 -0.1443 -0.0601
 5954SOL    HW129498   4.458   1.215  16.461  1.2364 -1.5852  0.1115
 5954SOL    HW229499   4.473   1.325  16.537  1.8953  1.2123  0.7212
 5955SOL     OW29500   3.237   2.194   8.499 -0.9095  0.5679  0.3349
 5955SOL    HW129501   3.323   2.170   8.533  0.0543 -1.0044 -3.2577
 5955SOL    HW229502   3.247   2.147   8.416 -0.2806  0.1905  0.6318
 5956SOL     OW29503   1.825   3.808   6.846  0.2601 -0.3758  0.4931
 5956SOL    HW129504   1.775   3.887   6.868  2.2755  1.4650 -1.6059
 5956SOL    HW229505   1.892   3.844   6.788  0.7675 -0.1849  1.1942
 5957SOL     OW29506   4.647   1.448   7.371  0.0283  0.4662  0.0021
 5957SOL    HW129507   4.714   1.409   7.315 -0.4113  1.9408 -1.5476
 5957SOL    HW229508   4.578   1.383   7.363 -0.5584  1.2370 -1.2803
 5958SOL     OW29509   0.938   3.525  11.374 -0.2767 -0.4144 -0.6178
 5958SOL    HW129510   0.846   3.501  11.382 -1.0569  2.4228 -0.8601
 5958SOL    HW229511   0.977   3.471  11.443 -0.8024 -0.6664 -0.5272
 5959SOL     OW29512   2.111   2.122   8.884  0.7429 -0.6014 -0.1127
 5959SOL    HW129513   2.194   2.073   8.888  0.5832 -0.8332  0.4734
 5959SOL    HW229514   2.099   2.130   8.979 -0.4638  3.2141 -0.5964
 5960SOL     OW29515   2.898   0.767   1.111  0.3853  0.1319  0.0762
 5960SOL    HW129516   2.972   0.809   1.067  0.6765 -1.8384 -1.2881
 5960SOL    HW229517   2.945   0.696   1.155  0.6593 -1.7415 -3.2770
 5961SOL     OW29518   3.966   1.510   8.415 -0.6847  0.2438  0.2389
 5961SOL    HW129519   3.889   1.470   8.454 -1.0833  0.6966 -0.0923
 5961SOL    HW229520   4.027   1.437   8.432 -0.5916  0.8378  2.4950
 5962SOL     OW29521   0.661   4.156   1.854  0.6530 -0.7818  0.2180
 5962SOL    HW129522   0.755   4.161   1.870  0.0668  2.3555  2.6357
 5962SOL    HW229523   0.658   4.201   1.770  3.1751 -1.2517 -0.1092
 5963SOL     OW29524   1.389   1.805   3.293  0.0658 -0.8638 -0.3586
 5963SOL    HW129525   1.459   1.745   3.266 -0.3954 -0.9344 -1.4368
 5963SOL    HW229526   1.313   1.746   3.297  0.3023 -1.1016  0.5388
 5964SOL     OW29527   4.715   1.553   9.084  0.2992  0.0848 -0.2346
 5964SOL    HW129528   0.000   1.618   9.150  0.5904 -0.1022 -0.1529
 5964SOL    HW229529   4.717   1.473   9.137 -0.0760  0.3951  0.2535
 5965SOL     OW29530   2.584   1.936  12.179  0.0797 -0.2889  0.1262
 5965SOL    HW129531   2.550   2.025  12.188 -2.6712 -1.2919 -0.5157
 5965SOL    HW229532   2.671   1.957  12.213  1.3346 -0.7736 -2.7033
 5966SOL     OW29533   0.869   2.403   6.186 -0.4390 -0.0909  0.0613
 5966SOL    HW129534   0.824   2.352   6.254  1.8507  0.2383  1.8196
 5966SOL    HW229535   0.914   2.335   6.136 -0.1435 -0.0509  0.2692
 5967SOL     OW29536   0.712   1.228   8.859 -0.3539 -0.1936 -0.3449
 5967SOL    HW129537   0.723   1.323   8.862 -2.6377  0.0920 -1.1182
 5967SOL    HW229538   0.753   1.197   8.940  0.0455  0.4771 -0.2943
 5968SOL     OW29539   2.050   4.081   7.499  0.2095 -0.4065  0.0261
 5968SOL    HW129540   2.121   4.051   7.555  1.5179 -0.2876 -1.5665
 5968SOL    HW229541   2.051   4.006   7.439  1.4440 -2.1449  2.2543
 5969SOL     OW29542   0.901   0.558   5.522 -0.2469 -0.1002  0.1727
 5969SOL    HW129543   0.865   0.646   5.528  0.0966 -0.0799  1.7798
 5969SOL    HW229544   0.916   0.541   5.615 -1.9431  1.5168  0.7451
 5970SOL     OW29545   1.065   4.372   6.343 -0.1276 -0.7475 -0.1924
 5970SOL    HW129546   1.105   4.286   6.330 -2.1171 -2.0451  2.2315
 5970SOL    HW229547   1.059   4.376   6.439 -0.1638  1.0659 -0.2680
 5971SOL     OW29548   3.418   2.948   6.806  0.2750 -0.1301  0.4887
 5971SOL    HW129549   3.500   2.988   6.777 -0.2673 -1.0169 -2.2468
 5971SOL    HW229550   3.443   2.911   6.891  1.8361  0.4730  0.2929
 5972SOL     OW29551   1.736   4.479   6.807  0.1837 -0.0154 -0.0290
 5972SOL    HW129552   1.761   4.427   6.731  1.5647  1.9261 -0.9251
 5972SOL    HW229553   1.649   4.442   6.822  0.1671  0.0590  0.0580
 5973SOL     OW29554   1.594   1.141   2.052  0.2199 -0.4274  0.7347
 5973SOL    HW129555   1.653   1.138   2.126  0.1679  1.8626  0.8782
 5973SOL    HW229556   1.616   1.222   2.005  1.4317 -0.3279  1.4954
 5974SOL     OW29557   0.655   2.048   5.140 -0.2316  0.5777 -0.3534
 5974SOL    HW129558   0.598   1.971   5.131  0.6120 -0.0068 -0.7532
 5974SOL    HW229559   0.619   2.109   5.076  2.0428 -0.4520 -2.6205
 5975SOL     OW29560   0.099   2.680   8.206 -0.2304  0.6590  0.2528
 5975SOL    HW129561   0.147   2.762   8.220  0.7401  0.2034 -0.3500
 5975SOL    HW229562   0.041   2.688   8.129  1.7023 -1.8164 -1.4625
 5976SOL     OW29563   2.295   1.936  16.209  0.0217  0.2591 -0.6470
 5976SOL    HW129564   2.364   1.927  16.144  0.2531  0.0333 -0.3662
 5976SOL    HW229565   2.303   2.030  16.225  1.9467 -0.1407  0.7318
 5977SOL     OW29566   3.900   4.018   4.209 -0.2672 -0.0047 -0.4227
 5977SOL    HW129567   3.845   4.094   4.230  1.1304  1.0905 -0.7472
 5977SOL    HW229568   3.992   4.037   4.230 -0.3030 -0.9038  0.5410
 5978SOL     OW29569   3.475   0.593   5.781 -0.6827  0.3913 -0.5676
 5978SOL    HW129570   3.569   0.609   5.782 -0.7906  0.9722  1.5558
 5978SOL    HW229571   3.446   0.684   5.786  0.5426  0.7674 -0.4377
 5979SOL     OW29572   4.114   0.042   8.120  0.0140  0.3518 -0.1849
 5979SOL    HW129573   4.030   0.050   8.076 -0.4403  1.4079  0.8704
 5979SOL    HW229574   4.099   4.709   8.183 -0.5742  1.2519  0.6764
 5980SOL     OW29575   1.811   4.103   4.524 -0.0176 -0.7021 -0.5153
 5980SOL    HW129576   1.764   4.113   4.606  1.4108  0.1086  0.2076
 5980SOL    HW229577   1.839   4.012   4.515 -2.9750 -1.7061  0.8606
 5981SOL     OW29578   3.958   3.215   6.612 -0.1016  0.6867 -0.5344
 5981SOL    HW129579   4.029   3.182   6.558 -1.4061  0.7088 -2.2400
 5981SOL    HW229580   3.912   3.275   6.554 -0.4654  0.4827 -0.4523
 5982SOL     OW29581   0.640   4.037  15.498  0.2110 -0.0810 -0.6569
 5982SOL    HW129582   0.697   4.029  15.575  2.5160 -2.0053 -2.5684
 5982SOL    HW229583   0.614   3.946  15.485  3.1975 -0.8136 -1.5586
 5983SOL     OW29584   1.456   2.094   8.736  0.1004  0.2829 -0.2472
 5983SOL    HW129585   1.375   2.136   8.707 -0.8647  0.1175  2.2019
 5983SOL    HW229586   1.424   2.006   8.753  0.6350 -0.0594 -1.0136
 5984SOL     OW29587   2.085   1.257   1.757  0.5013  1.1182 -0.1570
 5984SOL    HW129588   2.164   1.203   1.752 -0.1662 -0.0273  1.3704
 5984SOL    HW229589   2.065   1.286   1.668  1.5812  2.7287  0.1259
 5985SOL     OW29590   0.338   1.093  11.260 -0.1189 -0.2569 -0.3477
 5985SOL    HW129591   0.274   1.059  11.197  0.4593  1.1083 -1.6669
 5985SOL    HW229592   0.356   1.012  11.307  0.3422  1.5513  2.5505
 5986SOL     OW29593   1.060   0.090   3.747  0.1298 -0.0729 -0.5060
 5986SOL    HW129594   0.976   0.135   3.744  0.0731 -0.0046  2.2226
 5986SOL    HW229595   1.065   0.034   3.670 -2.0845  0.0226 -0.7008
 5987SOL     OW29596   3.183   2.157   2.124  0.2225  0.0267  0.1204
 5987SOL    HW129597   3.135   2.186   2.201  0.6587  0.5100  0.2067
 5987SOL    HW229598   3.227   2.082   2.166 -1.4913 -1.4125 -0.6414
 5988SOL     OW29599   4.053   4.367   8.021 -0.0773  0.6132 -0.1582
 5988SOL    HW129600   3.998   4.295   7.989  1.0884  0.0845 -0.9964
 5988SOL    HW229601   3.990   4.429   8.059 -0.5050  0.1623 -0.1367
 5989SOL     OW29602   1.730   2.651   3.971 -0.1259  0.1987  0.3792
 5989SOL    HW129603   1.766   2.733   4.004 -1.2046  0.5164  0.7560
 5989SOL    HW229604   1.783   2.633   3.893 -0.2011  0.9004  0.1616
 5990SOL     OW29605   2.366   3.522   7.862 -0.2477  0.6039 -0.1335
 5990SOL    HW129606   2.277   3.509   7.830 -0.8717 -1.3976  2.4616
 5990SOL    HW229607   2.416   3.505   7.782 -0.2647  2.3330 -0.5199
 5991SOL     OW29608   4.012   0.561   6.836 -0.6247  0.0588  0.4523
 5991SOL    HW129609   4.050   0.499   6.898 -1.1521  1.4064  2.1272
 5991SOL    HW229610   3.922   0.568   6.866 -1.3272  0.1429 -1.6780
 5992SOL     OW29611   2.871   3.125   1.166 -0.1053 -0.0245 -0.1179
 5992SOL    HW129612   2.824   3.200   1.128  1.1934  0.2800 -1.1325
 5992SOL    HW229613   2.823   3.117   1.248 -0.8759 -2.2693 -0.7940
 5993SOL     OW29614   3.642   1.551   4.391  0.4781 -0.7339 -0.3802
 5993SOL    HW129615   3.635   1.457   4.381 -2.0299 -1.0075  3.9654
 5993SOL    HW229616   3.556   1.586   4.368 -0.3511 -2.5994 -0.1041
 5994SOL     OW29617   4.195   3.058  10.345 -0.2117 -0.4825 -0.1910
 5994SOL    HW129618   4.193   2.991  10.413  1.4642 -2.2224 -1.8610
 5994SOL    HW229619   4.129   3.033  10.281  1.9114 -1.3001 -2.0510
 5995SOL     OW29620   1.791   3.470  10.159 -0.6401 -0.5715  0.6521
 5995SOL    HW129621   1.775   3.559  10.130 -1.2306 -0.1039  2.4301
 5995SOL    HW229622   1.748   3.415  10.094 -1.4401  1.6554 -0.6798
 5996SOL     OW29623   3.709   1.019   9.374  0.4150  0.0629 -0.1330
 5996SOL    HW129624   3.633   1.043   9.427 -1.1915 -1.3395 -1.8047
 5996SOL    HW229625   3.719   0.926   9.394  1.3349 -0.5419 -3.3785
 5997SOL     OW29626   1.116   2.968   3.111  0.1089  0.5457 -0.1322
 5997SOL    HW129627   1.129   3.002   3.022 -0.1222 -0.3941 -0.5279
 5997SOL    HW229628   1.120   3.051   3.158 -0.3435  1.1129 -1.0809
 5998SOL     OW29629   4.482   1.749   5.242  0.0329  0.4857  0.4733
 5998SOL    HW129630   4.429   1.800   5.304 -1.2670  0.8072 -0.9138
 5998SOL    HW229631   4.565   1.745   5.289  0.5164  0.9640 -0.3376
 5999SOL     OW29632   1.970   4.360  10.669  0.1365 -0.1697 -0.0379
 5999SOL    HW129633   1.895   4.412  10.640 -0.8176 -0.9656  0.9781
 5999SOL    HW229634   1.993   4.408  10.749 -0.7974  1.7935 -0.9670
 6000SOL     OW29635   4.028   2.440   1.310 -0.3200  0.0360 -0.3872
 6000SOL    HW129636   4.016   2.388   1.390 -2.2272 -1.8957 -1.8968
 6000SOL    HW229637   3.941   2.429   1.270 -0.9699 -1.8992  1.5108
 6001SOL     OW29638   4.459   2.197   7.583 -0.2271 -0.5670  0.6588
 6001SOL    HW129639   4.368   2.218   7.561 -0.1269  0.2720  1.0596
 6001SOL    HW229640   4.451   2.145   7.662 -1.2167 -1.6059 -0.1209
 6002SOL     OW29641   0.772   3.479  13.061  0.2831  0.1453 -0.2659
 6002SOL    HW129642   0.865   3.489  13.082 -0.4653  0.1596  3.1396
 6002SOL    HW229643   0.779   3.426  12.982  0.2696 -1.9660  1.1366
 6003SOL     OW29644   4.574   2.268  11.028 -0.2592  0.1222  0.0249
 6003SOL    HW129645   4.530   2.336  11.079 -2.4536 -0.4735 -1.1236
 6003SOL    HW229646   4.504   2.246  10.967 -0.7676  0.8775  0.3410
 6004SOL     OW29647   0.649   3.669   4.116 -0.1373 -0.0786 -0.1205
 6004SOL    HW129648   0.674   3.578   4.132  0.1178  0.1617  0.8212
 6004SOL    HW229649   0.728   3.715   4.145  1.7760 -1.5680 -2.9003
 6005SOL     OW29650   0.295   0.024   9.176 -0.0811 -0.1196  0.2741
 6005SOL    HW129651   0.372   4.732   9.128 -0.9530 -0.8217 -0.6761
 6005SOL    HW229652   0.227   0.007   9.111  0.6919  2.2956 -1.1578
 6006SOL     OW29653   3.838   0.191   7.662  0.2557 -0.3989 -0.1299
 6006SOL    HW129654   3.860   0.099   7.650  1.3512 -0.1298 -0.1883
 6006SOL    HW229655   3.748   0.200   7.633 -0.1408  0.8603  1.4684
 6007SOL     OW29656   1.838   1.982   1.692 -0.1942  0.2163 -0.1797
 6007SOL    HW129657   1.889   1.904   1.713  0.9147  1.1206  0.5302
 6007SOL    HW229658   1.750   1.946   1.701 -0.0867  0.1793  0.7356
 6008SOL     OW29659   1.647   3.469   5.289  0.4660  0.1723  0.5710
 6008SOL    HW129660   1.608   3.468   5.376  0.3447 -2.7763  0.4778
 6008SOL    HW229661   1.668   3.376   5.279  2.1378  0.8081 -1.8075
 6009SOL     OW29662   1.526   3.420  13.659 -0.6927 -0.0404  0.2899
 6009SOL    HW129663   1.432   3.408  13.642 -0.3835  0.1272 -1.4954
 6009SOL    HW229664   1.531   3.515  13.673 -0.0332 -0.0512  0.1010
 6010SOL     OW29665   2.578   3.394   8.758  0.1470  0.0670  0.4736
 6010SOL    HW129666   2.616   3.467   8.709  0.4517 -1.0641 -0.9760
 6010SOL    HW229667   2.514   3.449   8.804 -1.0056 -0.7359 -0.1719
 6011SOL     OW29668   0.921   4.167  11.399  0.0003 -0.0410  0.4521
 6011SOL    HW129669   0.855   4.110  11.439 -0.1916 -0.6917 -0.7977
 6011SOL    HW229670   0.944   4.234  11.464  0.1100  0.5672 -0.2190
 6012SOL     OW29671   1.776   4.737   4.713 -0.1749 -0.1883 -0.0009
 6012SOL    HW129672   1.816   0.016   4.799  0.2344  1.6197 -0.5444
 6012SOL    HW229673   1.685   0.026   4.721 -0.5052 -2.1201  2.7980
 6013SOL     OW29674   2.834   1.886   5.163 -0.3619 -0.2488 -0.0117
 6013SOL    HW129675   2.862   1.941   5.090  1.3369 -1.1992 -0.0870
 6013SOL    HW229676   2.757   1.938   5.186 -1.0957 -1.8917  1.2581
 6014SOL     OW29677   2.516   2.972   2.355 -0.2403 -0.4228  0.0569
 6014SOL    HW129678   2.553   2.980   2.267 -0.0764  0.3552  0.2014
 6014SOL    HW229679   2.517   3.062   2.385  0.1196 -1.1354  2.1825
 6015SOL     OW29680   0.737   2.057   1.515  0.6768 -0.5896 -0.4783
 6015SOL    HW129681   0.785   2.139   1.529  0.1008 -0.2012 -0.7601
 6015SOL    HW229682   0.793   2.032   1.441  1.5682  2.5464 -0.8608
 6016SOL     OW29683   0.576   2.152   2.618 -0.9401 -0.4418 -0.4606
 6016SOL    HW129684   0.516   2.078   2.624 -0.3069 -1.0119 -1.1392
 6016SOL    HW229685   0.572   2.168   2.524  0.6576 -0.3602 -0.5199
 6017SOL     OW29686   4.564   0.880   0.583 -0.2435  0.3763 -0.5882
 6017SOL    HW129687   4.623   0.949   0.615 -0.9683  0.7323 -0.0199
 6017SOL    HW229688   4.479   0.921   0.597 -0.3222 -0.5718  1.6637
 6018SOL     OW29689   2.892   4.341   4.801  0.4786 -0.1879  0.3928
 6018SOL    HW129690   2.950   4.398   4.750 -0.7095 -1.2972 -2.2258
 6018SOL    HW229691   2.806   4.357   4.762 -0.0747  0.0695  1.7242
 6019SOL     OW29692   4.511   1.989   6.501  0.2567 -0.3301 -0.0233
 6019SOL    HW129693   4.550   1.901   6.496  0.7199 -0.0221 -1.7959
 6019SOL    HW229694   4.535   2.032   6.419 -1.2724 -0.7385 -0.6819
 6020SOL     OW29695   1.113   3.928   3.677 -0.2744 -0.0434 -0.3032
 6020SOL    HW129696   1.184   3.958   3.733 -0.0612 -1.3769  0.1323
 6020SOL    HW229697   1.050   3.901   3.744  2.2604 -2.7684  0.9572
 6021SOL     OW29698   2.534   0.437   2.782  0.2045  0.4513  0.1810
 6021SOL    HW129699   2.559   0.397   2.865 -1.5376 -1.1360 -0.0521
 6021SOL    HW229700   2.453   0.479   2.812 -0.2757 -1.4992  1.6351
 6022SOL     OW29701   0.229   4.570  10.126  0.1682  0.2335 -0.2763
 6022SOL    HW129702   0.239   4.530  10.212 -2.1615  0.1308 -0.0517
 6022SOL    HW229703   0.289   4.513  10.077 -0.2372  0.1808 -0.7067
 6023SOL     OW29704   0.209   3.856   2.678 -0.8430  0.5742 -0.3547
 6023SOL    HW129705   0.217   3.915   2.603  2.3096  1.1362  0.4462
 6023SOL    HW229706   0.250   3.915   2.742  1.0836 -1.2635  0.0729
 6024SOL     OW29707   2.179   0.088   7.139  0.5074  0.0616 -0.0780
 6024SOL    HW129708   2.250   0.103   7.076  1.3544  1.1246  1.1260
 6024SOL    HW229709   2.190   4.731   7.147 -0.3196 -0.1423 -1.3469
 6025SOL     OW29710   0.705   1.966   8.871  0.2778  0.0891 -0.9844
 6025SOL    HW129711   0.665   1.883   8.897  2.5600 -1.5465 -2.6545
 6025SOL    HW229712   0.770   1.998   8.933 -0.7569  2.2029 -0.9962
 6026SOL     OW29713   2.179   4.730   7.564 -0.1708 -0.0806  0.1097
 6026SOL    HW129714   2.112   4.711   7.630 -1.0467 -2.0434 -1.3348
 6026SOL    HW229715   2.262   4.737   7.612 -0.4337 -1.1439  0.7255
 6027SOL     OW29716   0.833   1.117   3.641  0.3227  0.3265  0.7219
 6027SOL    HW129717   0.889   1.132   3.565  0.6048 -1.5893  0.5481
 6027SOL    HW229718   0.743   1.145   3.622  0.9312  2.8329  1.4634
 6028SOL     OW29719   0.400   3.032   8.700 -0.3726 -0.3661  0.3023
 6028SOL    HW129720   0.448   3.113   8.719  1.3078 -0.7620 -2.2772
 6028SOL    HW229721   0.329   3.035   8.764 -0.4261 -0.0621  0.2299
 6029SOL     OW29722   2.072   3.000  10.008 -0.0575 -0.7265  0.1886
 6029SOL    HW129723   2.136   2.931  10.029 -0.1774 -1.2769 -1.2091
 6029SOL    HW229724   2.100   3.042   9.927 -0.0925  0.3140  0.7248
 6030SOL     OW29725   0.659   0.444   2.949 -0.1107 -0.0402 -0.0667
 6030SOL    HW129726   0.604   0.497   3.006  0.2552 -1.4731  1.5993
 6030SOL    HW229727   0.730   0.431   3.012  0.4260  1.7287 -0.2960
 6031SOL     OW29728   4.146   1.667   6.875 -0.4167  0.0265 -0.1019
 6031SOL    HW129729   4.093   1.729   6.825 -1.3762 -0.0917  0.7705
 6031SOL    HW229730   4.075   1.639   6.933 -0.0006  2.0061  1.3637
 6032SOL     OW29731   2.182   2.565   6.654  0.3940 -0.0823 -0.3663
 6032SOL    HW129732   2.230   2.506   6.595  0.4024 -0.1789 -0.2643
 6032SOL    HW229733   2.215   2.532   6.738 -1.1493 -1.3838 -0.2709
 6033SOL     OW29734   2.303   4.288   7.788 -0.4332  0.0512 -0.3718
 6033SOL    HW129735   2.220   4.292   7.741  0.1311  0.0856 -1.3582
 6033SOL    HW229736   2.302   4.200   7.826 -2.9506  0.0482 -0.4908
 6034SOL     OW29737   3.165   4.228   7.473  0.1040 -0.3007 -0.2036
 6034SOL    HW129738   3.132   4.271   7.552 -0.9861 -0.1528 -0.7361
 6034SOL    HW229739   3.115   4.271   7.403  0.8015  0.6517 -0.1109
 6035SOL     OW29740   4.276   3.955   9.133  0.4345 -0.6233  0.8878
 6035SOL    HW129741   4.185   3.927   9.132  0.4698 -0.7053 -0.9560
 6035SOL    HW229742   4.319   3.893   9.074  3.0758 -0.0416  2.1818
 6036SOL     OW29743   3.692   0.796   7.172 -0.2417  0.3145  0.3951
 6036SOL    HW129744   3.663   0.757   7.090 -2.3512 -0.3951  1.4674
 6036SOL    HW229745   3.785   0.779   7.181 -0.0904  1.0609  0.2421
 6037SOL     OW29746   3.622   4.257   1.510 -0.2088  0.5653 -0.3959
 6037SOL    HW129747   3.526   4.254   1.507 -0.1997 -0.9412  0.6588
 6037SOL    HW229748   3.644   4.223   1.597  1.6217  1.6284 -0.4542
 6038SOL     OW29749   2.536   0.906   6.287 -0.1346 -0.4335 -0.3416
 6038SOL    HW129750   2.485   0.982   6.258  1.1988  0.4944 -0.2248
 6038SOL    HW229751   2.559   0.882   6.198  2.6011  0.2673  0.1951
 6039SOL     OW29752   1.691   3.436  16.878  0.3902  0.4390  0.3344
 6039SOL    HW129753   1.661   3.352  16.843  0.8448  0.4265 -0.0317
 6039SOL    HW229754   1.645   3.432  16.962  0.5877  0.5375  0.4465
 6040SOL     OW29755   4.282   4.185  16.209  0.4078 -0.5822  0.1854
 6040SOL    HW129756   4.341   4.260  16.212 -0.1038 -0.1300 -0.9853
 6040SOL    HW229757   4.337   4.123  16.160 -0.1435 -0.2757 -0.8092
 6041SOL     OW29758   1.184   0.224  13.915  0.1302 -1.0623  0.4323
 6041SOL    HW129759   1.272   0.203  13.883 -0.5115 -2.1398 -0.6379
 6041SOL    HW229760   1.172   0.144  13.967 -0.3438 -1.2212  0.0774
 6042SOL     OW29761   3.791   2.111   0.570 -0.7385  0.7148  0.2296
 6042SOL    HW129762   3.856   2.171   0.605 -0.4178  0.2613  0.4051
 6042SOL    HW229763   3.772   2.067   0.653 -2.4608 -2.7434 -2.0120
 6043SOL     OW29764   2.809   3.821   9.490  0.5457  0.5762 -0.2533
 6043SOL    HW129765   2.746   3.840   9.560 -1.1726  0.3796 -1.7347
 6043SOL    HW229766   2.891   3.861   9.518  0.2116  1.3320 -0.3536
 6044SOL     OW29767   4.185   0.314   7.863  0.1312  0.0933  0.0472
 6044SOL    HW129768   4.225   0.236   7.825  2.1657  0.6984  0.8846
 6044SOL    HW229769   4.264   0.348   7.907  0.8112 -1.3990 -0.0070
 6045SOL     OW29770   0.543   3.904   3.105 -0.6000 -0.0426  0.7179
 6045SOL    HW129771   0.625   3.903   3.056 -1.5413  1.7766 -0.9000
 6045SOL    HW229772   0.579   3.886   3.192  1.2902 -1.3797 -0.3555
 6046SOL     OW29773   2.317   3.410   6.396 -0.0541 -0.2691  0.1229
 6046SOL    HW129774   2.256   3.483   6.403 -1.6507 -1.7922  2.2864
 6046SOL    HW229775   2.387   3.444   6.341  0.2808 -1.3212 -0.1116
 6047SOL     OW29776   1.908   1.151   1.081  0.2896 -0.2415 -0.3852
 6047SOL    HW129777   1.858   1.154   1.162  1.6113  0.2327  0.4200
 6047SOL    HW229778   1.864   1.220   1.031 -0.6912 -0.7638 -0.2281
 6048SOL     OW29779   3.341   0.717   2.138  0.2118 -0.5531  0.1286
 6048SOL    HW129780   3.398   0.789   2.110 -0.7343  1.0237  2.2928
 6048SOL    HW229781   3.400   0.672   2.198  1.2746 -2.1042 -2.0534
 6049SOL     OW29782   4.685   0.972  13.298  0.3097 -0.4587  0.5694
 6049SOL    HW129783   4.610   0.912  13.293  0.3375 -0.5050  0.7048
 6049SOL    HW229784   4.646   1.055  13.269  0.7995 -0.5378 -0.3038
 6050SOL     OW29785   2.396   1.609  12.927 -0.0779 -0.5454 -0.1002
 6050SOL    HW129786   2.421   1.577  13.014 -0.9672  0.4903  0.5354
 6050SOL    HW229787   2.318   1.664  12.940 -0.8119 -1.2904 -1.3333
 6051SOL     OW29788   0.417   1.627   3.671 -0.0794  0.4241  0.1565
 6051SOL    HW129789   0.501   1.637   3.624  0.0449 -1.4651 -0.0197
 6051SOL    HW229790   0.394   1.719   3.681 -0.7269  0.1211  1.4200
 6052SOL     OW29791   4.623   0.670   2.057 -0.3843  0.0027  0.2484
 6052SOL    HW129792   4.672   0.594   2.087  2.0504  0.7201 -1.9144
 6052SOL    HW229793   4.657   0.688   1.970 -2.7553 -1.7140 -1.0538
 6053SOL     OW29794   4.238   3.949   3.110 -0.2850  0.7920 -0.3005
 6053SOL    HW129795   4.310   3.985   3.162 -0.8047 -1.0472  1.6668
 6053SOL    HW229796   4.281   3.928   3.027  0.6528  0.5234  0.2500
 6054SOL     OW29797   0.831   4.554  17.383  0.0626  0.0159  0.1541
 6054SOL    HW129798   0.792   4.475  17.346  0.6643 -1.1848  2.0751
 6054SOL    HW229799   0.852   4.600  17.302  1.1295 -0.8412 -0.0480
 6055SOL     OW29800   3.944   1.511   0.262 -0.0942 -0.3706 -0.1165
 6055SOL    HW129801   3.983   1.477   0.343 -1.2985  2.2311  1.5259
 6055SOL    HW229802   3.935   1.601   0.291  1.3593 -0.3281  0.2196
 6056SOL     OW29803   2.701   2.977  14.456 -0.6946  0.3378 -0.4854
 6056SOL    HW129804   2.769   2.922  14.495  0.3137  2.7805  1.1649
 6056SOL    HW229805   2.722   2.983  14.363  0.4265  0.6184 -0.2064
 6057SOL     OW29806   1.697   3.700  11.319  0.0077  0.1852  0.2497
 6057SOL    HW129807   1.624   3.758  11.299  1.0918  0.8019 -1.9103
 6057SOL    HW229808   1.650   3.617  11.331 -0.7759  0.2850 -2.1881
 6058SOL     OW29809   1.980   1.013   2.835  0.2928 -0.7486 -0.1606
 6058SOL    HW129810   1.910   0.968   2.881  0.4079 -0.6209  0.1385
 6058SOL    HW229811   1.935   1.084   2.788 -0.9878 -0.1597  1.9755
 6059SOL     OW29812   4.007   3.292   2.773  0.0963  0.3208 -0.1983
 6059SOL    HW129813   4.033   3.325   2.688  0.3822 -0.4468 -0.4147
 6059SOL    HW229814   3.919   3.329   2.763  0.8093  1.2919 -2.6843
 6060SOL     OW29815   4.461   3.576   7.804  0.1963  0.2222  0.8131
 6060SOL    HW129816   4.460   3.651   7.745  1.4498 -0.1996  0.2720
 6060SOL    HW229817   4.368   3.554   7.808  0.3810 -0.8170 -0.6868
 6061SOL     OW29818   1.684   0.092   4.238  0.9906 -0.5117 -0.1488
 6061SOL    HW129819   1.710   0.183   4.248 -0.0751  0.0846 -2.7097
 6061SOL    HW229820   1.762   0.048   4.273  1.7118 -0.0349 -1.1594
 6062SOL     OW29821   0.834   2.033   9.967  0.0924 -0.2261 -0.1059
 6062SOL    HW129822   0.916   2.078   9.987  0.3419  0.0173 -1.7406
 6062SOL    HW229823   0.777   2.109   9.957 -4.8228 -3.9202 -0.2651
 6063SOL     OW29824   3.530   3.122   5.907 -0.1976  0.3154  0.6717
 6063SOL    HW129825   3.480   3.167   5.839  1.5644  1.0005 -0.1611
 6063SOL    HW229826   3.600   3.186   5.920 -0.6501  1.1288 -0.9757
 6064SOL     OW29827   3.043   2.253   2.335  0.3980  0.0138  0.4827
 6064SOL    HW129828   3.025   2.211   2.419  2.8413 -1.3661  0.3149
 6064SOL    HW229829   3.075   2.336   2.371 -2.0769  0.8735  0.7232
 6065SOL     OW29830   2.445   3.064   1.440  0.9554 -0.3307 -0.3556
 6065SOL    HW129831   2.352   3.087   1.439  0.5254 -1.9955  1.2025
 6065SOL    HW229832   2.482   3.124   1.504  1.3387  0.9733 -1.8147
 6066SOL     OW29833   4.704   2.693   3.662  0.3009  0.8251  0.0089
 6066SOL    HW129834   4.647   2.758   3.622  0.6920  2.0682  1.4962
 6066SOL    HW229835   0.051   2.709   3.621 -0.4356  1.1747 -1.3734
 6067SOL     OW29836   3.011   1.714  14.160 -0.2755 -0.8557  0.5409
 6067SOL    HW129837   3.063   1.660  14.100  2.0285 -0.0336  1.7974
 6067SOL    HW229838   3.047   1.694  14.246 -1.6970 -0.3350  1.2406
 6068SOL     OW29839   3.464   4.208  17.196  0.2101  0.0995 -0.5756
 6068SOL    HW129840   3.425   4.158  17.268  0.1410  1.7103  0.4880
 6068SOL    HW229841   3.442   4.151  17.122 -1.0127 -0.0433 -0.1119
 6069SOL     OW29842   1.897   2.247   5.630  0.3691  0.1497  0.5665
 6069SOL    HW129843   1.847   2.317   5.588 -0.3933 -0.6398  0.1597
 6069SOL    HW229844   1.822   2.206   5.673  0.1673 -1.0286 -0.8878
 6070SOL     OW29845   2.766   2.583   2.294  0.2000 -0.4144 -0.0945
 6070SOL    HW129846   2.690   2.627   2.255  1.4762  0.3014 -1.8066
 6070SOL    HW229847   2.842   2.611   2.242  1.6022 -0.9310  1.6613
 6071SOL     OW29848   3.701   4.520  10.238 -0.6554  0.5378  0.5242
 6071SOL    HW129849   3.651   4.565  10.305 -3.5568 -3.0026  0.7338
 6071SOL    HW229850   3.794   4.526  10.261 -0.4962  1.1160 -0.2567
 6072SOL     OW29851   2.262   4.361   4.773  0.1064  0.7410  0.0682
 6072SOL    HW129852   2.309   4.297   4.720 -0.0418 -0.3043  1.1963
 6072SOL    HW229853   2.268   4.440   4.720 -1.1531  0.6740 -0.1823
 6073SOL     OW29854   3.692   2.513   9.682 -0.4177  0.1842 -0.1224
 6073SOL    HW129855   3.598   2.529   9.684 -0.3301  0.4057  2.5035
 6073SOL    HW229856   3.715   2.491   9.773 -2.4059  0.0512  0.3457
 6074SOL     OW29857   3.937   1.285   9.603  0.3388  0.2904 -0.3178
 6074SOL    HW129858   3.943   1.205   9.654  0.4426 -0.4305 -1.4631
 6074SOL    HW229859   4.032   1.297   9.599  0.4673 -0.6382 -0.0025
 6075SOL     OW29860   3.272   2.079  13.272 -0.6506  0.2411  0.1071
 6075SOL    HW129861   3.297   2.172  13.268 -1.1144  0.3455 -0.3623
 6075SOL    HW229862   3.312   2.064  13.186 -2.2390 -3.7152  0.0805
 6076SOL     OW29863   1.621   0.305   5.709  0.5754  0.4343  0.1357
 6076SOL    HW129864   1.578   0.257   5.780 -0.0623 -1.9026 -1.8367
 6076SOL    HW229865   1.602   0.397   5.724 -0.1058  0.0812  1.4541
 6077SOL     OW29866   1.425   0.407   1.895  0.7732  0.2985  0.7459
 6077SOL    HW129867   1.460   0.463   1.825 -0.5367 -0.3240 -0.4103
 6077SOL    HW229868   1.473   0.325   1.885 -2.5380 -1.4664 -0.6420
 6078SOL     OW29869   0.934   3.063   3.546 -0.4771  0.1862  0.1859
 6078SOL    HW129870   0.873   3.023   3.485  0.0951 -0.4273  0.0211
 6078SOL    HW229871   0.996   2.994   3.571 -1.2021 -0.1721  0.9873
 6079SOL     OW29872   4.376   2.502   8.826  0.1777  0.0884 -0.6151
 6079SOL    HW129873   4.330   2.570   8.875  1.0992  0.0674  0.2688
 6079SOL    HW229874   4.461   2.503   8.869  1.4048  0.3104 -3.0382
 6080SOL     OW29875   1.962   0.579  16.783 -0.5779 -0.6425 -0.1659
 6080SOL    HW129876   2.003   0.529  16.854  0.5759  1.5396  0.6982
 6080SOL    HW229877   2.022   0.576  16.709 -0.7797 -2.3209 -0.2818
 6081SOL     OW29878   4.500   2.730   6.468 -0.0301  0.2997 -0.2059
 6081SOL    HW129879   4.570   2.790   6.494 -0.7277  0.0795  2.1510
 6081SOL    HW229880   4.522   2.654   6.521 -2.5011 -1.4938 -1.7794
 6082SOL     OW29881   4.077   0.993   0.668 -0.6777  0.3723  0.3017
 6082SOL    HW129882   4.050   1.085   0.662  2.5657  1.2417 -1.0124
 6082SOL    HW229883   4.049   0.950   0.587 -0.1819  2.0158 -0.7337
 6083SOL     OW29884   2.474   0.650  13.592  0.4071 -0.2112 -0.1169
 6083SOL    HW129885   2.459   0.703  13.670  1.2952 -1.2170  0.7369
 6083SOL    HW229886   2.528   0.587  13.640  0.5848  0.2102  0.2363
 6084SOL     OW29887   0.587   3.280  16.212  0.0512 -0.3043  0.0679
 6084SOL    HW129888   0.569   3.221  16.285 -1.0290 -0.4526 -0.3097
 6084SOL    HW229889   0.675   3.259  16.181  0.7724  1.7144  0.7463
 6085SOL     OW29890   3.133   2.563   7.205  0.9160  0.1957  0.3430
 6085SOL    HW129891   3.217   2.564   7.250 -0.0693  1.1247  2.1511
 6085SOL    HW229892   3.067   2.556   7.273  0.4744  1.6836  0.0604
 6086SOL     OW29893   4.249   4.399   0.119  0.0112  0.2560 -0.0065
 6086SOL    HW129894   4.321   4.424   0.061  1.3019  0.4115  1.6662
 6086SOL    HW229895   4.304   4.395   0.197 -1.0165  2.0609  0.8212
 6087SOL     OW29896   4.377   1.162   9.335  0.4102 -0.4592 -0.1515
 6087SOL    HW129897   4.447   1.105   9.302  1.0594  0.3535 -0.1712
 6087SOL    HW229898   4.387   1.138   9.427  1.5860  0.0966 -0.1357
 6088SOL     OW29899   0.474   2.711   4.960 -0.3634 -0.2781 -0.8867
 6088SOL    HW129900   0.484   2.755   4.875 -2.3279  0.5664 -0.6749
 6088SOL    HW229901   0.525   2.764   5.021 -0.6039  0.1041 -1.0160
 6089SOL     OW29902   1.702   4.275   6.080  0.5286 -0.0102 -0.2390
 6089SOL    HW129903   1.727   4.274   5.988  0.1010 -1.7054 -0.3326
 6089SOL    HW229904   1.760   4.346   6.108  0.4549 -0.1944  0.3735
 6090SOL     OW29905   1.916   3.968   1.450  0.0849 -0.6819 -0.2715
 6090SOL    HW129906   1.941   4.058   1.473  0.4618 -0.2678 -2.3233
 6090SOL    HW229907   1.824   3.990   1.432  0.8045  0.5730 -2.3910
 6091SOL     OW29908   2.038   3.675   0.043 -0.0662 -0.1135  0.0353
 6091SOL    HW129909   2.042   3.735   0.118 -3.2433 -1.0404  0.9641
 6091SOL    HW229910   2.087   3.602   0.082 -0.5821 -0.9097 -0.8060
 6092SOL     OW29911   2.905   2.784   5.525  0.4717 -0.3587  0.4292
 6092SOL    HW129912   2.950   2.704   5.550  1.5323 -0.0332 -0.4797
 6092SOL    HW229913   2.831   2.787   5.587  0.0940  0.4626 -0.0604
 6093SOL     OW29914   2.005   1.879   7.116  0.2597  0.1253  0.2321
 6093SOL    HW129915   2.091   1.852   7.150 -0.5484 -1.2925  1.1648
 6093SOL    HW229916   1.958   1.796   7.123  0.2450  0.2923  2.2973
 6094SOL     OW29917   4.205   3.850   3.809  0.1134  0.0560  0.1731
 6094SOL    HW129918   4.173   3.815   3.892  0.8628  0.9322  0.8353
 6094SOL    HW229919   4.273   3.901   3.853 -0.1120  0.1904  0.3626
 6095SOL     OW29920   3.885   4.062   6.340 -0.6378  0.2223 -0.2945
 6095SOL    HW129921   3.829   4.035   6.412 -3.1813  0.8552 -2.0464
 6095SOL    HW229922   3.876   3.994   6.273  1.3611  0.7462 -1.0963
 6096SOL     OW29923   1.922   1.496   5.484  0.1866 -0.7515 -0.0166
 6096SOL    HW129924   1.975   1.527   5.411  0.0828 -0.4815  0.0221
 6096SOL    HW229925   1.992   1.466   5.541 -0.2678 -2.0129 -0.1247
 6097SOL     OW29926   3.379   3.227  11.466  0.4729  0.8169  0.2020
 6097SOL    HW129927   3.407   3.196  11.380  1.9716 -0.2762  1.0749
 6097SOL    HW229928   3.439   3.184  11.527  0.2294 -0.4439 -0.4470
 6098SOL     OW29929   2.935   3.513   8.874  0.1122  0.1094  0.0629
 6098SOL    HW129930   2.987   3.492   8.952 -1.6060 -0.5509  1.0460
 6098SOL    HW229931   2.863   3.558   8.918 -0.9069 -1.7797  0.3502
 6099SOL     OW29932   2.635   3.918  17.448  0.1773 -0.4727 -0.2939
 6099SOL    HW129933   2.676   3.860  17.511 -0.1928  0.0626  0.4428
 6099SOL    HW229934   2.664   3.887  17.363 -2.8747 -2.6004 -0.5639
 6100SOL     OW29935   4.606   2.917   6.787 -0.1523  0.1769  0.1018
 6100SOL    HW129936   4.637   3.003   6.815  2.3890 -0.5373 -0.5369
 6100SOL    HW229937   4.548   2.937   6.713 -1.2645 -0.5607  0.7767
 6101SOL     OW29938   0.214   0.984   9.240 -0.1615  0.0263  0.5765
 6101SOL    HW129939   0.203   0.951   9.150 -1.6187  0.7938  0.4726
 6101SOL    HW229940   0.241   1.075   9.228 -1.9103  0.3273 -1.1610
 6102SOL     OW29941   2.710   2.637   6.514  0.3145  0.0896 -0.2012
 6102SOL    HW129942   2.774   2.567   6.498  0.8450  0.9479 -1.8380
 6102SOL    HW229943   2.670   2.614   6.598  1.7399  1.4873  0.8589
 6103SOL     OW29944   1.676   0.281   9.225  0.0570 -0.1941  0.2730
 6103SOL    HW129945   1.583   0.269   9.211  0.1828 -1.1565  0.2518
 6103SOL    HW229946   1.693   0.362   9.177  0.4696  0.9851  2.4164
 6104SOL     OW29947   4.692   3.070   3.907 -0.5215 -0.3240 -0.8407
 6104SOL    HW129948   4.721   2.985   3.941  0.3272 -0.1987 -1.2577
 6104SOL    HW229949   4.657   3.108   3.988 -0.0653  0.0779 -0.8348
 6105SOL     OW29950   3.443   4.057   4.530 -0.0652  0.0244  0.4659
 6105SOL    HW129951   3.477   4.071   4.619 -0.1001  0.6752  0.3754
 6105SOL    HW229952   3.499   3.988   4.496 -0.6054 -0.5051  0.6521
 6106SOL     OW29953   0.267   2.396   4.759 -0.1681 -0.0197 -0.2019
 6106SOL    HW129954   0.215   2.340   4.816  1.7202 -0.2543  1.2868
 6106SOL    HW229955   0.215   2.476   4.752  0.4401  0.3556 -0.4015
 6107SOL     OW29956   3.625   1.197   6.434  0.0750  0.2780  0.5044
 6107SOL    HW129957   3.578   1.245   6.502 -0.4967 -0.2283  0.4709
 6107SOL    HW229958   3.681   1.269   6.405 -0.3489  0.0515 -0.8751
 6108SOL     OW29959   2.605   3.374   9.877  0.2498  0.1859  0.5027
 6108SOL    HW129960   2.546   3.406   9.945 -0.0039  0.9710 -0.0913
 6108SOL    HW229961   2.621   3.452   9.825 -1.5435  0.1241 -0.1655
 6109SOL     OW29962   2.006   2.024   2.858 -0.9756 -0.1894 -0.3893
 6109SOL    HW129963   1.979   2.099   2.911 -1.4643 -0.2400 -0.5693
 6109SOL    HW229964   2.018   1.951   2.919  0.3383 -0.7378 -1.2981
 6110SOL     OW29965   2.849   4.600   2.803  0.1341  0.1132 -0.6330
 6110SOL    HW129966   2.776   4.582   2.863 -0.3590  1.0247 -0.9602
 6110SOL    HW229967   2.914   4.536   2.832 -0.2740 -0.3450 -0.7238
 6111SOL     OW29968   0.453   2.225   4.642 -0.1765 -0.0400 -0.1803
 6111SOL    HW129969   0.535   2.244   4.686 -1.7043  0.5764  2.3786
 6111SOL    HW229970   0.387   2.268   4.696 -0.7967  0.7757 -1.5878
 6112SOL     OW29971   2.514   1.655   9.346 -0.2736  0.2058 -0.1215
 6112SOL    HW129972   2.435   1.677   9.395 -0.7994 -1.3616 -0.2715
 6112SOL    HW229973   2.558   1.621   9.425 -0.5502  0.1209 -0.0047
 6113SOL     OW29974   3.832   2.197   7.247  0.3376 -0.2805 -0.2956
 6113SOL    HW129975   3.881   2.152   7.178  2.6030 -1.0311  1.8255
 6113SOL    HW229976   3.769   2.249   7.197  1.5420  1.5243  0.1008
 6114SOL     OW29977   3.008   1.633   5.829  0.0389  0.2992 -0.1747
 6114SOL    HW129978   2.972   1.556   5.874  1.6260  1.3922  3.0279
 6114SOL    HW229979   3.035   1.591   5.748  3.5945  1.9796  0.1314
 6115SOL     OW29980   0.653   2.016   2.360 -0.2463  0.1259 -0.0884
 6115SOL    HW129981   0.709   1.978   2.429 -0.7988  1.4919  1.1152
 6115SOL    HW229982   0.591   1.946   2.340  2.3794 -2.8074  1.8997
 6116SOL     OW29983   0.672   3.341   9.745  0.2834  0.1316  0.4092
 6116SOL    HW129984   0.689   3.429   9.714  2.4024  0.2499  1.9272
 6116SOL    HW229985   0.593   3.359   9.796  1.6818  0.6190  2.3864
 6117SOL     OW29986   2.466   1.397   7.095  0.2109  0.4037  0.4600
 6117SOL    HW129987   2.541   1.373   7.039  0.2863 -0.2870  0.8618
 6117SOL    HW229988   2.516   1.428   7.170 -0.4090  0.5481  0.8047
 6118SOL     OW29989   4.276   1.032  12.839  0.1982 -0.4311 -0.1706
 6118SOL    HW129990   4.344   1.053  12.903 -1.0143  2.6279  0.0685
 6118SOL    HW229991   4.238   0.950  12.872 -0.9806  0.4251  0.5669
 6119SOL     OW29992   3.595   1.925   7.121 -0.0650  0.4867 -0.1516
 6119SOL    HW129993   3.634   1.951   7.038  0.9380  0.8973  0.4477
 6119SOL    HW229994   3.675   1.911   7.172 -1.5306 -0.8002  1.7712
 6120SOL     OW29995   4.447   1.390   0.516  0.3691 -0.3154  0.0773
 6120SOL    HW129996   4.452   1.328   0.444 -0.6108 -4.2838  3.4628
 6120SOL    HW229997   4.479   1.466   0.466  1.1741 -0.7053 -0.0103
 6121SOL     OW29998   4.345   0.799   2.383 -0.4098 -0.0355 -0.1356
 6121SOL    HW129999   4.435   0.832   2.383  1.4752 -5.2553 -0.5446
 6121SOL    HW230000   4.360   0.725   2.326 -1.7568  0.2802 -0.9036
 6122SOL     OW30001   2.773   0.620  16.695 -0.0250  0.6400 -0.4640
 6122SOL    HW130002   2.854   0.619  16.645 -0.9600  0.5911 -1.9795
 6122SOL    HW230003   2.782   0.555  16.765  0.9456  1.2392 -0.0339
 6123SOL     OW30004   3.713   0.966  15.573  0.4035 -0.2649 -0.1823
 6123SOL    HW130005   3.734   1.020  15.497 -0.8438 -0.8458 -0.9461
 6123SOL    HW230006   3.796   0.921  15.587  0.2931 -0.8557 -1.4918
 6124SOL     OW30007   3.301   1.661   4.608  0.2229  0.7302  0.3825
 6124SOL    HW130008   3.234   1.606   4.649  1.1503  1.5352  2.9707
 6124SOL    HW230009   3.383   1.621   4.634  0.3048  0.7096  0.0967
 6125SOL     OW30010   3.392   3.581  12.517 -0.3265 -0.1694  0.5884
 6125SOL    HW130011   3.327   3.609  12.453  1.3353  1.7087 -0.2803
 6125SOL    HW230012   3.472   3.619  12.481  0.0842 -1.2609  0.3553
 6126SOL     OW30013   4.388   4.434   2.310 -0.5218  0.7885 -0.1498
 6126SOL    HW130014   4.305   4.456   2.267 -0.0440  0.3454 -1.2998
 6126SOL    HW230015   4.385   4.339   2.322  2.6406  0.7488  0.2128
 6127SOL     OW30016   0.112   4.130   6.775  0.0714 -0.1825 -0.4470
 6127SOL    HW130017   0.074   4.087   6.698 -0.4292  0.7981 -0.7404
 6127SOL    HW230018   0.091   4.069   6.846  0.2976  0.9785  0.6225
 6128SOL     OW30019   3.165   1.827   5.867 -0.0181  0.2579  0.1277
 6128SOL    HW130020   3.124   1.742   5.886  1.0292 -0.8386 -2.4462
 6128SOL    HW230021   3.104   1.890   5.905 -0.6488 -0.0525 -0.3751
 6129SOL     OW30022   2.053   3.720   6.970  0.3396 -0.2399 -0.8539
 6129SOL    HW130023   2.016   3.736   7.057  0.0669  1.6846 -1.3119
 6129SOL    HW230024   1.978   3.743   6.916  0.0865 -1.2391 -0.9208
 6130SOL     OW30025   4.359   0.198   0.757 -0.3361 -0.2463  0.6663
 6130SOL    HW130026   4.372   0.290   0.780 -0.7958  0.2930 -1.2244
 6130SOL    HW230027   4.373   0.151   0.839  0.3717  1.5692  1.5665
 6131SOL     OW30028   2.714   0.670  15.972 -0.1578  0.6891 -0.2211
 6131SOL    HW130029   2.683   0.640  15.886  1.2440 -0.7635 -0.2202
 6131SOL    HW230030   2.659   0.619  16.032  1.2897  2.3343  2.4858
 6132SOL     OW30031   0.171   0.779   8.740 -0.2084 -0.3357  0.7601
 6132SOL    HW130032   0.216   0.861   8.720 -1.4682  0.7896  2.5504
 6132SOL    HW230033   0.140   0.807   8.826 -0.5804  0.4336  0.3682
 6133SOL     OW30034   3.792   2.509   6.625 -0.4868  0.2139 -0.2749
 6133SOL    HW130035   3.732   2.447   6.666 -0.2255 -0.1989 -0.5222
 6133SOL    HW230036   3.748   2.521   6.541 -2.0593  1.3395  0.7079
 6134SOL     OW30037   0.224   2.887   7.371  0.1567 -0.5904 -0.2674
 6134SOL    HW130038   0.212   2.794   7.392 -0.4864 -0.2733  0.7809
 6134SOL    HW230039   0.314   2.886   7.338  0.2477 -0.4210 -0.0249
 6135SOL     OW30040   0.458   4.659   7.798 -0.4018 -0.4115 -0.4468
 6135SOL    HW130041   0.495   4.693   7.879 -0.3504 -1.0840 -0.1959
 6135SOL    HW230042   0.515   4.582   7.798 -1.3454 -1.1082  2.8645
 6136SOL     OW30043   2.483   3.960   9.622 -0.0845 -0.5397 -0.6116
 6136SOL    HW130044   2.495   4.049   9.654 -2.2307  0.6228 -2.9955
 6136SOL    HW230045   2.478   3.969   9.527 -1.1097  1.9371 -0.3421
 6137SOL     OW30046   4.529   2.110  11.374  0.9022  0.2889  0.6130
 6137SOL    HW130047   4.549   2.141  11.463 -0.6010  0.1949  0.9995
 6137SOL    HW230048   4.454   2.169  11.366  1.4439  1.1018  1.4908
 6138SOL     OW30049   4.678   0.612   3.539 -0.0679  0.1713 -0.0701
 6138SOL    HW130050   4.603   0.671   3.533 -0.4751 -0.3017  0.3024
 6138SOL    HW230051   4.681   0.597   3.634 -0.1993 -1.1645 -0.2773
 6139SOL     OW30052   3.333   1.094   8.224  0.3649  0.1747  0.1337
 6139SOL    HW130053   3.358   1.002   8.212 -1.0155  0.0505 -1.7792
 6139SOL    HW230054   3.391   1.131   8.290  0.8137 -1.2459  0.5387
 6140SOL     OW30055   2.096   2.104   1.603 -0.1492 -0.1651  0.0695
 6140SOL    HW130056   2.099   2.175   1.539  1.6188  0.4460  0.8306
 6140SOL    HW230057   2.021   2.057   1.565  0.2169 -0.1131 -0.7187
 6141SOL     OW30058   1.506   3.270   8.522  0.2701 -0.3379 -0.2555
 6141SOL    HW130059   1.447   3.235   8.455  0.7846 -0.8548 -0.4427
 6141SOL    HW230060   1.543   3.348   8.482 -2.3643  1.5251  0.9346
 6142SOL     OW30061   2.411   1.637  14.587 -0.2372  0.1000 -0.3329
 6142SOL    HW130062   2.498   1.666  14.561  0.2052  0.3389  1.3963
 6142SOL    HW230063   2.425   1.542  14.593 -1.4248 -0.0941 -0.5391
 6143SOL     OW30064   2.026   1.038  14.508  0.1581 -0.4075 -0.2618
 6143SOL    HW130065   2.066   1.036  14.595 -1.2089  0.6939  0.3914
 6143SOL    HW230066   1.968   1.113  14.516 -0.1063 -0.7051  0.5933
 6144SOL     OW30067   4.148   2.233   8.866 -0.3249  0.2742 -0.1685
 6144SOL    HW130068   4.085   2.169   8.831  1.4218 -0.4921 -1.8866
 6144SOL    HW230069   4.127   2.303   8.804  2.4780  1.4906  0.2766
 6145SOL     OW30070   0.713   3.752   2.939 -0.6349  0.0573 -0.6691
 6145SOL    HW130071   0.720   3.663   2.905 -0.6015 -0.2730  0.2019
 6145SOL    HW230072   0.768   3.801   2.877  0.2535 -0.0682  0.0196
 6146SOL     OW30073   4.085   2.831   4.447  0.6173  0.1148 -0.0473
 6146SOL    HW130074   4.075   2.921   4.477 -2.2908  0.2954 -1.5737
 6146SOL    HW230075   4.024   2.822   4.374  2.4009  0.1243 -1.5161
 6147SOL     OW30076   0.736   4.009  14.744 -0.1682  0.4465  0.5052
 6147SOL    HW130077   0.786   3.956  14.806 -1.5099 -0.2314  1.0075
 6147SOL    HW230078   0.712   3.953  14.670 -0.2074  0.9341  0.1497
 6148SOL     OW30079   0.862   3.228   9.441 -0.0506 -0.0238  0.1431
 6148SOL    HW130080   0.840   3.320   9.455  3.2080  0.3977  2.4248
 6148SOL    HW230081   0.784   3.192   9.399 -2.0472  2.3628  1.7989
 6149SOL     OW30082   0.472   2.075   1.561 -0.4579 -0.0834  0.1283
 6149SOL    HW130083   0.450   2.165   1.586 -1.7918  0.0919 -1.6753
 6149SOL    HW230084   0.562   2.083   1.531 -0.3285 -1.7406  0.0757
 6150SOL     OW30085   1.763   0.091  12.262 -0.3753 -0.2876 -0.6946
 6150SOL    HW130086   1.714   0.084  12.344 -1.2440  1.8449 -1.0287
 6150SOL    HW230087   1.709   0.136  12.197  0.9616  0.1329 -1.5133
 6151SOL     OW30088   1.806   4.144   8.043 -0.5777 -0.5075  0.2776
 6151SOL    HW130089   1.714   4.126   8.025 -0.5514 -0.8663  0.4920
 6151SOL    HW230090   1.840   4.055   8.055 -1.5979 -0.5503  2.9969
 6152SOL     OW30091   0.147   2.256  13.018  0.2466  0.1352 -0.0719
 6152SOL    HW130092   0.150   2.351  13.010 -0.1811 -0.0463 -2.3125
 6152SOL    HW230093   0.068   2.232  12.969  1.0308 -0.9878 -0.7832
 6153SOL     OW30094   3.548   0.395   0.958  0.1081  0.6562 -0.1859
 6153SOL    HW130095   3.501   0.471   0.923 -0.9463  0.3692  0.6103
 6153SOL    HW230096   3.477   0.331   0.956 -0.6577  1.5493 -1.8770
 6154SOL     OW30097   1.731   1.499  16.158 -0.1682 -0.0724 -0.1053
 6154SOL    HW130098   1.725   1.420  16.213 -0.6864  0.7603  1.0202
 6154SOL    HW230099   1.732   1.574  16.217  3.2151 -1.2728  1.3608
 6155SOL     OW30100   3.121   2.610   8.419  0.0889  0.1481  0.4089
 6155SOL    HW130101   3.206   2.612   8.464 -0.7798 -2.4795  2.1470
 6155SOL    HW230102   3.085   2.539   8.472 -0.0005  1.2022  1.7459
 6156SOL     OW30103   0.264   2.588  11.632 -0.7142 -0.0042 -0.5037
 6156SOL    HW130104   0.180   2.622  11.661 -0.7517 -1.5544  1.1430
 6156SOL    HW230105   0.323   2.613  11.703 -0.2422  0.4552 -1.0518
 6157SOL     OW30106   1.972   4.117   5.476 -1.0639  0.2190  0.3067
 6157SOL    HW130107   1.877   4.103   5.480 -1.2982  0.7903 -3.0694
 6157SOL    HW230108   1.977   4.151   5.386 -2.2614  0.2797  0.2529
 6158SOL     OW30109   2.282   1.577   6.243 -0.1156  0.2963 -0.0035
 6158SOL    HW130110   2.243   1.501   6.286  0.2742 -1.2463 -2.3549
 6158SOL    HW230111   2.356   1.589   6.302 -1.0991 -2.1889  1.7563
 6159SOL     OW30112   2.940   2.749   9.530  0.0326 -0.4647 -0.1671
 6159SOL    HW130113   2.850   2.778   9.547 -0.3474 -1.7984  0.1632
 6159SOL    HW230114   2.986   2.798   9.598  1.8429 -0.4074 -1.4307
 6160SOL     OW30115   2.542   2.965  12.924 -0.0348 -0.6732  0.3946
 6160SOL    HW130116   2.450   2.946  12.941 -0.7658 -0.0163 -2.9520
 6160SOL    HW230117   2.533   3.033  12.857  0.4194  0.0618  1.0715
 6161SOL     OW30118   4.509   1.439   5.816  0.1473 -0.2129  0.1575
 6161SOL    HW130119   4.527   1.533   5.824  4.2775 -0.7782 -2.5407
 6161SOL    HW230120   4.414   1.433   5.806  0.0687 -2.1988  1.9696
 6162SOL     OW30121   3.081   2.375   8.852  0.5087 -0.2363 -1.0004
 6162SOL    HW130122   3.058   2.282   8.857 -0.2582 -0.1939 -3.4323
 6162SOL    HW230123   3.069   2.396   8.759  0.8823 -1.1385 -1.2562
 6163SOL     OW30124   0.725   0.829   4.375 -0.0398 -0.2658 -0.1014
 6163SOL    HW130125   0.744   0.830   4.469 -1.0803  2.0981  0.0844
 6163SOL    HW230126   0.629   0.837   4.380  0.0950  1.1851  0.1768
 6164SOL     OW30127   0.215   1.132   3.738 -0.0909  1.0920  0.3963
 6164SOL    HW130128   0.187   1.102   3.824 -2.6503  1.9738 -0.1340
 6164SOL    HW230129   0.255   1.210   3.776  2.2935 -0.9414  1.9995
 6165SOL     OW30130   0.381   3.360  16.460 -0.2532 -0.6157  0.2287
 6165SOL    HW130131   0.438   3.300  16.412 -1.3602 -0.5780 -1.1382
 6165SOL    HW230132   0.445   3.431  16.470 -1.7333  0.6247  0.9288
 6166SOL     OW30133   0.667   3.815  13.432 -0.1995 -0.0912 -0.1389
 6166SOL    HW130134   0.678   3.727  13.468  0.7966  0.0409 -0.1196
 6166SOL    HW230135   0.729   3.862  13.487  0.3073 -0.3858 -0.4596
 6167SOL     OW30136   1.178   3.239  13.572 -0.6000 -0.0342  0.4543
 6167SOL    HW130137   1.135   3.245  13.657 -0.3407 -0.4560  0.6136
 6167SOL    HW230138   1.113   3.180  13.535 -0.0202  0.4377 -1.3167
 6168SOL     OW30139   0.613   4.212   8.450  0.3575 -0.2094 -0.7582
 6168SOL    HW130140   0.616   4.146   8.381 -0.9279 -2.3552  1.2073
 6168SOL    HW230141   0.544   4.271   8.421  1.8878 -0.4390 -4.7794
 6169SOL     OW30142   1.227   2.529  17.699  0.3516 -0.2794  0.0565
 6169SOL    HW130143   1.289   2.550   0.019 -0.5863  0.4861  0.6746
 6169SOL    HW230144   1.150   2.564  17.744  0.4322  1.4783 -1.1824
 6170SOL     OW30145   1.402   0.169  11.871  0.2834  0.0152 -0.4138
 6170SOL    HW130146   1.336   0.102  11.852 -0.0938  0.6349 -1.2935
 6170SOL    HW230147   1.359   0.245  11.831 -2.6554 -0.7387  1.2776
 6171SOL     OW30148   4.085   0.980  13.253 -0.3497  0.0784  0.0014
 6171SOL    HW130149   4.134   0.979  13.335 -2.2217 -1.9272  1.0864
 6171SOL    HW230150   4.062   0.888  13.244 -2.1100  0.5714 -0.6118
 6172SOL     OW30151   2.347   1.371   2.202 -0.2270 -0.1231 -0.4978
 6172SOL    HW130152   2.252   1.372   2.197 -0.2878 -2.4943  0.5564
 6172SOL    HW230153   2.369   1.392   2.111  0.7450 -2.9899 -0.9241
 6173SOL     OW30154   2.436   0.595   8.791  0.7860  0.6956 -0.1707
 6173SOL    HW130155   2.525   0.603   8.758  0.0386  1.5447 -1.9851
 6173SOL    HW230156   2.394   0.674   8.755 -2.3606 -0.9907 -0.2057
 6174SOL     OW30157   4.526   1.554   8.818  0.2056 -0.2710 -0.4434
 6174SOL    HW130158   4.452   1.535   8.761 -0.9041 -3.2255  2.0153
 6174SOL    HW230159   4.499   1.506   8.896 -0.2307 -0.6501 -0.8287
 6175SOL     OW30160   0.042   0.362   8.164 -0.0258 -0.8712 -0.0307
 6175SOL    HW130161   4.703   0.335   8.215  0.5769 -0.4774  1.0800
 6175SOL    HW230162   0.014   0.453   8.156  0.0426 -0.6201  2.5386
 6176SOL     OW30163   2.181   0.761   3.143 -0.1320  0.6898  0.4063
 6176SOL    HW130164   2.096   0.770   3.102  1.1216  3.5342 -1.5412
 6176SOL    HW230165   2.153   0.752   3.234 -1.7930 -0.4146 -0.2079
 6177SOL     OW30166   3.725   1.870   2.046  0.0715 -0.2257  0.7221
 6177SOL    HW130167   3.746   1.785   2.084 -0.1351  0.0510  1.4563
 6177SOL    HW230168   3.676   1.913   2.116 -1.0877  0.9589 -0.8180
 6178SOL     OW30169   0.773   1.187  12.397 -0.1068  0.6472 -0.2816
 6178SOL    HW130170   0.865   1.201  12.376  0.0281 -0.6436 -0.5725
 6178SOL    HW230171   0.752   1.267  12.446  2.2389 -0.2923  2.2704
 6179SOL     OW30172   2.749   3.375   3.948 -0.0178 -0.2443 -0.4849
 6179SOL    HW130173   2.832   3.340   3.980  0.7195  0.0336 -2.0637
 6179SOL    HW230174   2.713   3.313   3.884 -1.8664 -0.0586  0.3774
 6180SOL     OW30175   4.191   1.856  15.495  0.3075  0.1333  0.0247
 6180SOL    HW130176   4.151   1.795  15.557  1.5049  0.2810  0.9395
 6180SOL    HW230177   4.262   1.893  15.548 -1.3731  0.7888  1.8405
 6181SOL     OW30178   1.427   1.493  12.788 -0.6002 -0.0500 -0.4100
 6181SOL    HW130179   1.339   1.516  12.817 -0.5192 -0.5601  0.2544
 6181SOL    HW230180   1.440   1.417  12.845 -1.0054  0.4342  0.3343
 6182SOL     OW30181   0.734   4.237   7.300 -0.3251 -0.7856 -0.0161
 6182SOL    HW130182   0.783   4.306   7.345 -1.5617  0.5478 -0.6957
 6182SOL    HW230183   0.650   4.279   7.279 -0.5582 -0.0797  2.3427
 6183SOL     OW30184   2.145   0.879   1.289 -0.3203  0.2239  0.3022
 6183SOL    HW130185   2.106   0.949   1.340 -1.7662 -0.8859  0.7452
 6183SOL    HW230186   2.226   0.914   1.252  0.5924  0.4970  2.5735
 6184SOL     OW30187   0.412   0.979   2.625  0.5789  0.2180 -0.3014
 6184SOL    HW130188   0.442   0.989   2.535 -3.2388 -0.0210 -1.6011
 6184SOL    HW230189   0.439   1.063   2.660  1.7770 -0.7423  1.1045
 6185SOL     OW30190   0.317   2.442  14.648  0.4963 -0.4223  0.5928
 6185SOL    HW130191   0.397   2.421  14.697  0.3371 -0.3813  0.8701
 6185SOL    HW230192   0.338   2.519  14.596 -0.9168 -1.0941 -0.9738
 6186SOL     OW30193   3.960   0.208   5.320  0.0128  0.4942 -0.0645
 6186SOL    HW130194   4.012   0.129   5.304 -0.2251 -0.3249  3.1180
 6186SOL    HW230195   3.872   0.173   5.332  0.1693 -0.1953 -0.9408
 6187SOL     OW30196   1.301   3.335  11.254  0.0587 -0.4235 -0.0035
 6187SOL    HW130197   1.266   3.419  11.284  1.7103 -0.2258  1.3946
 6187SOL    HW230198   1.278   3.274  11.324  2.8812 -1.4374  0.0283
 6188SOL     OW30199   0.893   2.397   3.791 -0.5099 -0.2969  0.4356
 6188SOL    HW130200   0.815   2.444   3.762  0.8931  1.6524 -0.1938
 6188SOL    HW230201   0.869   2.327   3.852  2.4055 -1.1961  0.5453
 6189SOL     OW30202   1.347   3.989   3.883 -0.5439 -0.2656 -0.1192
 6189SOL    HW130203   1.396   4.036   3.817  0.9135 -1.1801  0.3190
 6189SOL    HW230204   1.299   4.062   3.922  1.9362  0.4525  1.6075
 6190SOL     OW30205   0.900   3.287   2.700 -0.0521  0.0419  0.3799
 6190SOL    HW130206   0.819   3.314   2.657 -0.1689 -0.5453  0.2378
 6190SOL    HW230207   0.945   3.264   2.619  0.0682  1.5255  0.0150
 6191SOL     OW30208   0.156   2.776   5.768  0.5303  0.2121  1.1232
 6191SOL    HW130209   0.245   2.745   5.749  0.3178 -0.0753  0.6116
 6191SOL    HW230210   0.137   2.691   5.807  1.2381  0.3296  1.7296
 6192SOL     OW30211   1.783   1.858   4.476  0.5698  0.3273 -0.1496
 6192SOL    HW130212   1.830   1.831   4.397  0.9476 -1.7305  0.7748
 6192SOL    HW230213   1.860   1.866   4.532  0.7591  2.0940 -0.6528
 6193SOL     OW30214   4.224   2.020   5.185 -0.4078  0.9657 -0.1506
 6193SOL    HW130215   4.168   1.970   5.126  0.8047 -0.6447  0.0319
 6193SOL    HW230216   4.181   2.002   5.268  0.9399  0.0578  0.3548
 6194SOL     OW30217   1.236   2.475   1.814 -0.0445  0.1087 -0.5179
 6194SOL    HW130218   1.249   2.462   1.720 -0.0930 -0.2718 -0.4700
 6194SOL    HW230219   1.231   2.386   1.848  0.1126  0.5099  0.5559
 6195SOL     OW30220   1.380   2.573   6.995  0.1780 -0.0087  0.4514
 6195SOL    HW130221   1.295   2.606   6.965 -1.0679 -1.6220  2.2222
 6195SOL    HW230222   1.358   2.513   7.066  0.8176  0.5722  1.1341
 6196SOL     OW30223   4.163   4.286   2.477  0.1799  0.3258 -0.0017
 6196SOL    HW130224   4.238   4.283   2.418 -0.6485  0.5370 -1.0706
 6196SOL    HW230225   4.093   4.326   2.424  0.7837  2.9219  1.2153
 6197SOL     OW30226   4.266   2.860   5.111 -0.5499  0.4727  0.0996
 6197SOL    HW130227   4.325   2.785   5.120 -1.7624 -0.6392 -1.0953
 6197SOL    HW230228   4.214   2.858   5.031  0.2728  2.6767 -0.4755
 6198SOL     OW30229   0.505   4.423  11.780 -0.0862  0.0608  0.0676
 6198SOL    HW130230   0.469   4.360  11.843  0.6234 -0.2501  0.1662
 6198SOL    HW230231   0.525   4.364  11.706 -1.4388 -1.8299  1.2002
 6199SOL     OW30232   2.109   4.073  10.598  0.4964 -0.6382 -0.2200
 6199SOL    HW130233   2.153   4.146  10.557  1.1461 -0.0081  1.5884
 6199SOL    HW230234   2.035   4.121  10.636  1.2916  0.6497 -0.3406
 6200SOL     OW30235   2.041   2.925   7.927  0.2740  1.1194  0.0707
 6200SOL    HW130236   1.984   2.887   7.994  0.0260  0.2196 -0.6482
 6200SOL    HW230237   2.121   2.921   7.980  1.7274  0.9875 -2.1372
 6201SOL     OW30238   3.467   2.816  14.909 -0.2766 -0.5010  0.1613
 6201SOL    HW130239   3.539   2.868  14.944  1.2042 -3.0562  0.9700
 6201SOL    HW230240   3.497   2.815  14.818  1.5793 -1.6245  0.7887
 6202SOL     OW30241   0.279   4.675   8.295  0.1567 -0.5760 -0.1410
 6202SOL    HW130242   0.298   4.623   8.216 -0.3787 -1.9996  0.6674
 6202SOL    HW230243   0.318   0.021   8.271  1.3577 -1.6419 -2.0246
 6203SOL     OW30244   0.060   2.446   2.217  0.1858 -0.5440  0.3561
 6203SOL    HW130245   0.042   2.417   2.127 -1.9908  1.6501  0.1047
 6203SOL    HW230246   0.038   2.537   2.199 -2.1197 -0.8464  1.6539
 6204SOL     OW30247   0.617   3.236   7.738 -0.1826 -0.1332 -0.0597
 6204SOL    HW130248   0.569   3.167   7.784 -0.5115 -2.3251 -3.7104
 6204SOL    HW230249   0.606   3.306   7.803  1.7323  1.1753 -1.1237
 6205SOL     OW30250   1.448   0.040   4.519  0.6328  0.7431  0.2116
 6205SOL    HW130251   1.455   0.006   4.430 -1.8211 -0.4188  0.4814
 6205SOL    HW230252   1.483   0.129   4.525 -1.8180  1.6894  0.4099
 6206SOL     OW30253   1.435   3.544  13.009  0.1587 -0.1830 -0.0309
 6206SOL    HW130254   1.408   3.549  12.917 -0.3785 -0.3619  0.1161
 6206SOL    HW230255   1.419   3.633  13.039  0.6534 -0.8578  2.2036
 6207SOL     OW30256   3.897   0.867   9.103 -0.3500 -0.2641  0.7580
 6207SOL    HW130257   3.863   0.867   9.013 -0.4929  2.6534  0.7938
 6207SOL    HW230258   3.852   0.787   9.129  1.7900 -2.5664 -2.5928
 6208SOL     OW30259   0.143   0.539  16.241  0.2569 -0.2110  0.5085
 6208SOL    HW130260   0.202   0.464  16.246 -1.4841 -1.5513  1.3588
 6208SOL    HW230261   0.062   0.490  16.256 -0.4514  1.1628  1.1850
 6209SOL     OW30262   4.206   4.054   3.984  0.1776  0.0060  0.5758
 6209SOL    HW130263   4.110   4.047   3.980  0.1852  0.6690 -0.5814
 6209SOL    HW230264   4.223   4.109   4.060 -0.3893  2.1590 -0.8766
 6210SOL     OW30265   2.255   1.278  14.014  0.1817  0.1212 -0.3916
 6210SOL    HW130266   2.266   1.268  14.109  0.0066 -1.2534 -0.5144
 6210SOL    HW230267   2.343   1.272  13.976  0.3520 -0.6412  0.1063
 6211SOL     OW30268   2.366   0.171   4.894  0.1320  0.1114 -0.0949
 6211SOL    HW130269   2.299   0.124   4.844  0.3122  0.1128 -0.3362
 6211SOL    HW230270   2.440   0.112   4.881 -1.8753 -1.7934 -2.8183
 6212SOL     OW30271   0.875   0.764  14.591  0.5896 -0.2349 -0.1796
 6212SOL    HW130272   0.947   0.753  14.529 -0.3197 -2.5408 -0.8157
 6212SOL    HW230273   0.805   0.802  14.538 -0.3549  1.0979  2.0113
 6213SOL     OW30274   3.354   2.807  12.490  0.3759 -0.2551  0.0016
 6213SOL    HW130275   3.342   2.759  12.573  0.7753  1.9701  1.3424
 6213SOL    HW230276   3.318   2.892  12.514  1.2401  0.7828 -2.4321
 6214SOL     OW30277   1.831   2.415   8.494  0.6721  0.1518 -0.4026
 6214SOL    HW130278   1.911   2.397   8.543 -0.3910 -0.3276  1.1599
 6214SOL    HW230279   1.808   2.499   8.534 -1.1711 -1.0888  1.1521
 6215SOL     OW30280   0.273   4.167  14.838  0.2383  0.1048  0.0645
 6215SOL    HW130281   0.187   4.202  14.861 -0.5793 -1.5192 -0.5872
 6215SOL    HW230282   0.255   4.111  14.763  1.7737  0.7763 -0.8057
 6216SOL     OW30283   3.111   2.266   7.590 -0.0756  0.7597  0.0477
 6216SOL    HW130284   3.203   2.289   7.593 -0.2629  1.3256  1.5816
 6216SOL    HW230285   3.087   2.280   7.682  0.0375  1.5948 -0.0524
 6217SOL     OW30286   2.221   1.087   4.626  0.1163  0.2854 -0.0939
 6217SOL    HW130287   2.215   1.105   4.533  0.1415  0.9299  0.0264
 6217SOL    HW230288   2.285   1.150   4.658 -0.4019  0.5470  0.4307
 6218SOL     OW30289   3.145   2.863   2.010 -0.4691 -0.3382 -0.8823
 6218SOL    HW130290   3.094   2.883   1.932 -1.0436  0.9875 -0.1631
 6218SOL    HW230291   3.211   2.802   1.976 -0.4411  0.3617 -2.0924
 6219SOL     OW30292   0.313   1.231   3.992  0.4405  0.1911 -0.1876
 6219SOL    HW130293   0.315   1.170   4.065 -0.0173 -0.3582 -0.6356
 6219SOL    HW230294   0.398   1.216   3.950  0.8425  0.9055  0.3666
 6220SOL     OW30295   0.673   3.092   8.863 -0.2763  0.3046 -0.1419
 6220SOL    HW130296   0.665   3.187   8.857  1.5355  0.5982  1.9568
 6220SOL    HW230297   0.748   3.076   8.920  0.5237 -0.7428 -1.4833
 6221SOL     OW30298   4.598   0.902   2.326 -0.3103  0.2456 -0.3816
 6221SOL    HW130299   4.606   0.967   2.395 -0.0473 -0.1703 -0.0161
 6221SOL    HW230300   4.683   0.862   2.345 -0.6270 -0.3026 -0.0909
 6222SOL     OW30301   1.790   4.168   4.265  0.0735 -0.1780 -0.0849
 6222SOL    HW130302   1.780   4.074   4.255 -1.0345 -0.1432  0.6955
 6222SOL    HW230303   1.781   4.166   4.361 -1.8281 -2.9139 -0.3310
 6223SOL     OW30304   3.209   0.295   3.612  0.3909 -1.1379  0.0330
 6223SOL    HW130305   3.189   0.300   3.519  0.9430  1.9253  0.0634
 6223SOL    HW230306   3.257   0.375   3.635 -0.3720 -0.4416 -0.7618
 6224SOL     OW30307   2.047   2.262  16.119  0.5511 -0.1380 -0.5587
 6224SOL    HW130308   2.002   2.341  16.088 -1.4644 -0.8187  0.6221
 6224SOL    HW230309   1.979   2.195  16.130  2.0125 -1.9840 -2.8177
 6225SOL     OW30310   1.781   3.100  12.625  0.2183 -0.3328  0.4314
 6225SOL    HW130311   1.821   3.072  12.542  2.4179 -0.3914  1.4951
 6225SOL    HW230312   1.692   3.113  12.594  0.1286 -1.2967  0.2589
 6226SOL     OW30313   3.530   0.280   2.574 -0.3320 -0.2360  0.3080
 6226SOL    HW130314   3.553   0.202   2.522 -1.4861  1.5293 -2.8855
 6226SOL    HW230315   3.608   0.335   2.573 -0.4683 -0.0398  0.9307
 6227SOL     OW30316   0.472   1.381  10.563  0.4310  0.4523 -0.1742
 6227SOL    HW130317   0.393   1.422  10.528  0.3713  0.6853  0.2316
 6227SOL    HW230318   0.433   1.299  10.594 -0.7826  1.4923  1.0380
 6228SOL     OW30319   0.362   0.322  10.846 -0.1556  0.6901 -0.0290
 6228SOL    HW130320   0.314   0.256  10.796 -0.7546  1.1193 -0.0310
 6228SOL    HW230321   0.444   0.328  10.798 -0.0914 -0.6023 -0.0781
 6229SOL     OW30322   0.714   3.798   9.185 -0.3551  0.5050  0.1563
 6229SOL    HW130323   0.798   3.823   9.223 -0.3215 -0.4939  0.7399
 6229SOL    HW230324   0.662   3.812   9.265  1.9689 -0.6176  1.8414
 6230SOL     OW30325   1.316   0.156   9.297 -0.5434 -0.0778 -0.8654
 6230SOL    HW130326   1.257   0.160   9.372  0.3272  4.0857 -0.3708
 6230SOL    HW230327   1.287   0.236   9.253 -1.6404  1.3586  2.4708
 6231SOL     OW30328   0.861   2.551  11.628  0.7972 -0.3974 -0.1740
 6231SOL    HW130329   0.955   2.549  11.645  0.9034  2.3992 -0.4024
 6231SOL    HW230330   0.854   2.469  11.580 -1.9003 -0.1463 -0.1932
 6232SOL     OW30331   0.984   0.316   5.921 -0.7895 -0.0993  0.0784
 6232SOL    HW130332   0.973   0.385   5.855 -0.2598  0.9458  1.0908
 6232SOL    HW230333   0.911   0.331   5.981 -0.7789  2.6623 -0.6068
 6233SOL     OW30334   0.896   3.183   9.706 -0.5695 -0.2713 -0.0678
 6233SOL    HW130335   0.827   3.233   9.749 -0.3613  1.3361 -1.6286
 6233SOL    HW230336   0.866   3.188   9.616 -2.9470  0.1641  0.7421
 6234SOL     OW30337   3.365   0.569   7.110  0.2235  0.8305  0.1517
 6234SOL    HW130338   3.287   0.517   7.094  1.3897 -1.7615  2.8391
 6234SOL    HW230339   3.367   0.587   7.204  0.5846 -0.7701  0.4446
 6235SOL     OW30340   4.132   2.591  14.939 -0.0778  0.1857 -0.2907
 6235SOL    HW130341   4.104   2.546  14.860  1.1509 -0.5888 -0.2763
 6235SOL    HW230342   4.047   2.584  14.981  0.2609  0.2548  0.4122
 6236SOL     OW30343   4.307   1.100   2.727  0.3374  0.2264  0.1362
 6236SOL    HW130344   4.357   1.058   2.797 -1.6335 -1.5467  0.5121
 6236SOL    HW230345   4.339   1.190   2.722  1.8019 -0.3386 -0.5627
 6237SOL     OW30346   4.119   2.963  15.516  0.3763  0.2872 -0.0268
 6237SOL    HW130347   4.182   2.892  15.512  1.9719  1.6475  1.1133
 6237SOL    HW230348   4.035   2.919  15.503  0.1232  1.0069 -0.8947
 6238SOL     OW30349   3.407   0.556  16.502  0.4210 -0.1665 -0.7278
 6238SOL    HW130350   3.337   0.520  16.449 -0.8101 -0.3038  1.0005
 6238SOL    HW230351   3.436   0.488  16.564  0.4487  0.8455  0.3756
 6239SOL     OW30352   0.194   4.349   3.923  0.1067 -0.0762 -0.1950
 6239SOL    HW130353   0.178   4.437   3.958 -0.4054 -0.1462 -0.2542
 6239SOL    HW230354   0.153   4.295   3.990 -1.2389 -1.3029 -2.0153
 6240SOL     OW30355   3.060   0.220   8.230 -0.1302 -0.0130  0.4068
 6240SOL    HW130356   3.132   0.161   8.253  0.5308  0.0153 -1.5889
 6240SOL    HW230357   3.077   0.301   8.279 -1.7239 -0.1208  1.1579
 6241SOL     OW30358   3.734   3.880   5.558 -0.3106  0.1406 -0.2680
 6241SOL    HW130359   3.817   3.924   5.573 -0.1790 -0.0149 -0.5374
 6241SOL    HW230360   3.672   3.945   5.592 -2.4701 -0.8104 -2.3521
 6242SOL     OW30361   0.566   1.068   4.694 -0.3551 -0.1981  0.5492
 6242SOL    HW130362   0.571   1.162   4.682  1.5446 -0.4572 -0.6120
 6242SOL    HW230363   0.505   1.069   4.768 -0.5704  1.1225  0.3455
 6243SOL     OW30364   3.096   3.092   4.475  0.2342 -0.5752 -0.3147
 6243SOL    HW130365   3.048   3.157   4.528  2.8631  0.3641  0.9467
 6243SOL    HW230366   3.089   3.016   4.533  0.6696 -0.6450 -0.3503
 6244SOL     OW30367   4.254   0.832  13.987  0.1979 -0.3333  0.0002
 6244SOL    HW130368   4.309   0.890  14.040  2.7829 -1.9682 -0.8852
 6244SOL    HW230369   4.303   0.750  13.988  0.1920 -0.3750 -2.2382
 6245SOL     OW30370   0.714   2.456   4.566  0.0862  0.1353  0.1034
 6245SOL    HW130371   0.653   2.478   4.636 -0.3004  1.4757 -0.6527
 6245SOL    HW230372   0.665   2.453   4.484 -1.2522  1.5241  0.8626
 6246SOL     OW30373   1.760   4.319   4.979  0.1406 -0.2798  0.5276
 6246SOL    HW130374   1.722   4.234   4.956  0.5244  0.1916 -1.8127
 6246SOL    HW230375   1.855   4.304   4.984  0.5444  1.0472 -3.1525
 6247SOL     OW30376   1.264   0.940  11.393  1.0407  0.0473  0.1391
 6247SOL    HW130377   1.223   0.929  11.307  0.1413  0.5951  0.5021
 6247SOL    HW230378   1.284   1.034  11.388  2.9641 -0.3388  0.4700
 6248SOL     OW30379   0.503   0.385   2.335  0.2276  0.0314 -0.0937
 6248SOL    HW130380   0.549   0.467   2.320  0.6754 -0.3306 -0.7037
 6248SOL    HW230381   0.472   0.374   2.245  2.4009 -0.5990 -0.7650
 6249SOL     OW30382   4.696   0.296  15.014 -0.0151  0.0428  0.0018
 6249SOL    HW130383   0.019   0.231  14.980 -0.4595 -0.4054  0.0737
 6249SOL    HW230384   4.616   0.283  14.964  0.1018  1.9336 -0.7003
 6250SOL     OW30385   3.740   4.623  14.698  0.2373  0.0893 -0.1534
 6250SOL    HW130386   3.759   4.620  14.604 -2.7796 -0.4699 -0.7306
 6250SOL    HW230387   3.751   4.532  14.726 -0.1421  0.0776 -0.0481
 6251SOL     OW30388   1.078   0.573  14.695 -0.2765  0.2206  0.1860
 6251SOL    HW130389   1.095   0.560  14.602 -0.6982 -1.0649  0.2906
 6251SOL    HW230390   0.995   0.620  14.694 -0.7979 -0.7420 -1.0464
 6252SOL     OW30391   2.335   3.185  10.578  0.8165 -0.5232  0.3088
 6252SOL    HW130392   2.314   3.095  10.602  1.6725 -0.4217  1.4391
 6252SOL    HW230393   2.306   3.230  10.658  1.0292  1.2165 -0.5850
 6253SOL     OW30394   1.297   1.240   0.874  0.0884 -0.1376  0.3042
 6253SOL    HW130395   1.382   1.201   0.893  1.6806  2.1155 -2.1193
 6253SOL    HW230396   1.227   1.183   0.907 -0.8078  0.0436 -1.2703
 6254SOL     OW30397   2.781   1.969   7.506  0.3187  0.8051  0.0024
 6254SOL    HW130398   2.756   2.011   7.589  2.7767  2.0358  0.1208
 6254SOL    HW230399   2.869   2.004   7.490  1.5048 -1.7467  0.8502
 6255SOL     OW30400   2.980   3.896   7.421 -0.2191  0.7758  0.1018
 6255SOL    HW130401   2.924   3.974   7.418 -0.7763  0.3524 -0.6621
 6255SOL    HW230402   2.994   3.885   7.515 -0.6683 -1.3249 -0.0880
 6256SOL     OW30403   3.991   4.334   7.500 -0.5041  0.7494 -0.5858
 6256SOL    HW130404   4.047   4.409   7.482  0.5007 -0.2283 -1.5475
 6256SOL    HW230405   3.911   4.371   7.463 -0.8333  0.2075 -0.4078
 6257SOL     OW30406   4.368   4.163   5.719 -0.9042  0.4194 -0.2697
 6257SOL    HW130407   4.410   4.109   5.652  2.4080  1.0627  1.3051
 6257SOL    HW230408   4.427   4.239   5.721 -0.7207  0.2132  1.3429
 6258SOL     OW30409   0.052   1.651  17.662 -0.1621  0.6922  0.3076
 6258SOL    HW130410   0.045   1.746  17.671  1.0662  0.7965  0.2251
 6258SOL    HW230411   0.121   1.653  17.596 -2.3788 -1.7231 -2.0482
 6259SOL     OW30412   4.378   0.169  16.304  0.3910  0.0054  0.3609
 6259SOL    HW130413   4.290   0.202  16.286  1.1635  0.4552 -2.6602
 6259SOL    HW230414   4.401   0.231  16.373 -0.3661  1.2373 -0.4825
 6260SOL     OW30415   2.564   4.661   2.684 -0.2296 -0.1174 -0.3944
 6260SOL    HW130416   2.652   4.659   2.722  0.1981 -1.7864 -1.4950
 6260SOL    HW230417   2.517   4.617   2.755  0.6116 -0.2461  0.0870
 6261SOL     OW30418   3.154   0.928  10.805 -0.0645 -0.0282  0.3251
 6261SOL    HW130419   3.196   0.997  10.857  0.7073 -0.9857  0.9801
 6261SOL    HW230420   3.209   0.918  10.727 -1.2701  2.1090 -0.7954
 6262SOL     OW30421   4.577   2.924   5.896 -0.0864 -0.1063 -0.1548
 6262SOL    HW130422   4.569   2.975   5.977  0.2978  1.3529 -1.0264
 6262SOL    HW230423   4.493   2.881   5.886  0.4928 -1.1936 -0.3530
 6263SOL     OW30424   2.053   1.410   2.113 -0.2511  0.4610 -0.2638
 6263SOL    HW130425   2.066   1.409   2.019  0.0053  1.4381 -0.2429
 6263SOL    HW230426   2.008   1.326   2.115 -1.0045  0.8262 -3.1723
 6264SOL     OW30427   2.325   1.930   4.476 -1.1283 -0.0908 -0.2040
 6264SOL    HW130428   2.338   2.003   4.536  3.3953 -0.5491 -0.6578
 6264SOL    HW230429   2.234   1.909   4.498 -0.5426 -0.6997  1.5942
 6265SOL     OW30430   0.190   2.398   2.443 -0.1828  0.3488 -0.2007
 6265SOL    HW130431   0.131   2.418   2.370  0.4541  0.0380 -0.7978
 6265SOL    HW230432   0.261   2.345   2.406 -1.5623 -1.5589 -0.1703
 6266SOL     OW30433   3.845   1.520   1.052  0.0739 -0.1364  0.8438
 6266SOL    HW130434   3.760   1.477   1.045  0.5271 -0.6001 -1.6691
 6266SOL    HW230435   3.835   1.572   1.132 -0.9756  1.3513 -0.2720
 6267SOL     OW30436   1.124   3.589   8.221 -0.1462  0.0538 -0.5895
 6267SOL    HW130437   1.092   3.611   8.134  0.0066  2.1881 -0.1206
 6267SOL    HW230438   1.042   3.566   8.265  0.8458  0.0741  1.2669
 6268SOL     OW30439   4.707   0.380   3.738  0.1935 -0.5596 -0.1771
 6268SOL    HW130440   0.056   0.391   3.777  0.0366  3.7671 -0.9620
 6268SOL    HW230441   4.654   0.387   3.817  0.7621  0.5194  0.1142
 6269SOL     OW30442   1.446   4.652   4.282 -0.2014  0.2807  0.3834
 6269SOL    HW130443   1.380   4.711   4.245  0.8627  1.8513  1.0060
 6269SOL    HW230444   1.530   4.671   4.240  0.2174  2.4161  2.1930
 6270SOL     OW30445   4.289   0.229   4.117  0.1236  0.2709 -0.9499
 6270SOL    HW130446   4.334   0.309   4.142 -2.0107  1.6427 -1.5705
 6270SOL    HW230447   4.228   0.274   4.059 -0.3632 -2.4067 -2.5402
 6271SOL     OW30448   1.576   1.587  11.681  0.1103  0.3426 -0.2035
 6271SOL    HW130449   1.483   1.564  11.684  0.2514 -0.5076 -2.0460
 6271SOL    HW230450   1.613   1.519  11.738 -0.9230 -0.2724 -0.2680
 6272SOL     OW30451   1.183   2.374   6.474 -0.2779  0.1428  0.3080
 6272SOL    HW130452   1.149   2.462   6.464  0.9659  0.4757 -0.9592
 6272SOL    HW230453   1.191   2.368   6.570  0.9502  1.5283  0.2963
 6273SOL     OW30454   1.246   4.003   2.020  0.3552 -0.0622 -0.3645
 6273SOL    HW130455   1.242   4.015   1.925  1.2039  0.1136 -0.3802
 6273SOL    HW230456   1.204   4.086   2.044 -0.7178 -1.7007  3.3408
 6274SOL     OW30457   4.499   2.774   4.885 -0.0976  0.2616  0.2048
 6274SOL    HW130458   4.521   2.693   4.839  0.9556  0.3956  0.4623
 6274SOL    HW230459   4.542   2.775   4.971  0.2321  1.5427  0.0271
 6275SOL     OW30460   3.041   4.429  10.648 -0.0088  0.0712 -0.4362
 6275SOL    HW130461   3.086   4.347  10.627  0.6128  0.4297 -0.5230
 6275SOL    HW230462   2.995   4.449  10.566  0.2096  1.1875 -0.2855
 6276SOL     OW30463   4.076   3.104   8.039 -0.4116 -0.1194 -0.2111
 6276SOL    HW130464   4.112   3.043   7.975 -1.7471  0.0136 -1.1024
 6276SOL    HW230465   4.149   3.153   8.076 -0.8876  0.4433 -0.0244
 6277SOL     OW30466   0.772   2.282   7.442 -0.2691  0.5785 -0.5468
 6277SOL    HW130467   0.711   2.344   7.401 -1.8475 -2.1856 -2.3339
 6277SOL    HW230468   0.722   2.241   7.513  1.2417  0.0198  0.1877
 6278SOL     OW30469   0.797   2.985  12.117 -0.0516  0.6044 -0.7014
 6278SOL    HW130470   0.772   2.988  12.210 -2.6878  3.2587 -1.4821
 6278SOL    HW230471   0.890   2.966  12.125 -0.2428 -2.0696 -5.0471
 6279SOL     OW30472   2.851   0.579   5.784 -0.0117  0.3566  0.1965
 6279SOL    HW130473   2.922   0.618   5.836  0.5642 -1.2701  0.6364
 6279SOL    HW230474   2.834   0.498   5.830  0.9200 -1.4567 -2.6579
 6280SOL     OW30475   1.411   0.917   7.676  0.1764  0.1404  0.4126
 6280SOL    HW130476   1.468   0.989   7.703  1.4294 -0.0104 -1.8770
 6280SOL    HW230477   1.451   0.851   7.733 -0.6680 -0.5023  0.2690
 6281SOL     OW30478   2.442   2.295   3.615 -0.2484  0.3098 -0.5097
 6281SOL    HW130479   2.500   2.367   3.641 -0.0652  0.2228 -0.6826
 6281SOL    HW230480   2.480   2.282   3.528 -1.3103  1.1025 -1.1118
 6282SOL     OW30481   1.134   3.135   3.992  0.7350  0.3261 -0.1412
 6282SOL    HW130482   1.127   3.072   3.921 -1.4396 -1.2432  1.4305
 6282SOL    HW230483   1.177   3.207   3.947 -2.4043  1.4403 -1.3673
 6283SOL     OW30484   0.449   2.198  14.067 -0.2088  0.4956  0.3033
 6283SOL    HW130485   0.369   2.207  14.118 -1.0328  0.1287 -0.9107
 6283SOL    HW230486   0.503   2.137  14.116 -1.4864 -2.9323 -2.5367
 6284SOL     OW30487   1.440   2.838   2.575 -0.0321  0.3716  0.2078
 6284SOL    HW130488   1.450   2.930   2.553 -0.1621  0.0496 -1.1713
 6284SOL    HW230489   1.530   2.807   2.562  0.3056  0.2653  2.6698
 6285SOL     OW30490   3.741   0.467  17.035 -0.3653 -0.0752 -0.0921
 6285SOL    HW130491   3.819   0.470  16.980 -0.8911  0.4813 -0.8078
 6285SOL    HW230492   3.724   0.374  17.052  2.8074 -0.7970 -0.8835
 6286SOL     OW30493   3.454   2.934   0.658 -0.1894  0.4260  0.0159
 6286SOL    HW130494   3.455   3.001   0.726 -0.6023  0.7432 -0.2914
 6286SOL    HW230495   3.376   2.882   0.680 -0.0211  0.2153  0.1131
 6287SOL     OW30496   1.956   0.202   7.580  0.1597  0.8377  0.0976
 6287SOL    HW130497   2.010   0.211   7.501 -0.5856  0.3364 -0.4543
 6287SOL    HW230498   2.009   0.255   7.640 -2.8251  0.5273  2.9663
 6288SOL     OW30499   2.039   0.002   6.779 -0.1418  0.0157 -0.0233
 6288SOL    HW130500   1.954   4.717   6.742 -0.8017 -0.0415  1.5094
 6288SOL    HW230501   2.027   4.721   6.872  0.5944  3.9182  0.8706
 6289SOL     OW30502   0.584   2.814  12.038  0.2669 -0.3794 -0.1788
 6289SOL    HW130503   0.590   2.762  12.119  0.8529 -1.3376 -0.8335
 6289SOL    HW230504   0.646   2.885  12.055  0.6115 -0.4541 -1.1246
 6290SOL     OW30505   3.442   0.146   7.249  0.4479  0.3988  0.0561
 6290SOL    HW130506   3.396   0.062   7.254  2.1143 -0.4539  0.9242
 6290SOL    HW230507   3.421   0.199   7.326 -3.0834  1.0387 -1.3390
 6291SOL     OW30508   0.662   4.574   9.551 -0.2194  0.5375 -0.1353
 6291SOL    HW130509   0.575   4.566   9.590  0.1215 -0.1262  0.4829
 6291SOL    HW230510   0.635   4.584   9.460 -0.0734 -1.5845 -0.4092
 6292SOL     OW30511   0.823   3.785   7.180  0.0966 -1.0935  0.7772
 6292SOL    HW130512   0.772   3.863   7.201  0.7756 -0.9530  1.9215
 6292SOL    HW230513   0.758   3.714   7.180 -0.3737 -0.6649  2.1713
 6293SOL     OW30514   0.380   0.034   5.969 -0.4003 -0.0371 -0.5275
 6293SOL    HW130515   0.369   0.074   5.883  3.2968  0.9573 -0.5076
 6293SOL    HW230516   0.435   4.699   5.941  2.7230  1.9617  0.4487
 6294SOL     OW30517   3.960   0.114   6.544 -0.1449 -0.4706  0.1271
 6294SOL    HW130518   4.051   0.141   6.528 -0.4288  0.7650  0.6548
 6294SOL    HW230519   3.927   0.098   6.456 -1.0389  1.1337  0.1870
 6295SOL     OW30520   0.736   4.140  13.712 -0.5854  0.2033 -0.0167
 6295SOL    HW130521   0.726   4.205  13.643 -3.2592 -0.1238  0.0731
 6295SOL    HW230522   0.778   4.066  13.668 -1.3337 -0.7874  0.9302
 6296SOL     OW30523   0.740   1.919  13.846  0.1942 -0.2576  0.1281
 6296SOL    HW130524   0.761   1.851  13.910  2.3316 -0.2769 -0.5849
 6296SOL    HW230525   0.823   1.963  13.826 -1.5220  3.9757  2.4482
 6297SOL     OW30526   4.347   1.372   8.974  0.3075 -0.2703  0.0492
 6297SOL    HW130527   4.264   1.398   9.012 -0.2417 -2.3088  0.2441
 6297SOL    HW230528   4.327   1.349   8.883  0.5945  0.0862 -0.1041
 6298SOL     OW30529   2.537   0.972   8.147 -0.2274 -0.2950  0.1349
 6298SOL    HW130530   2.592   0.896   8.128  0.7054  0.0738  1.3162
 6298SOL    HW230531   2.589   1.005   8.221 -0.8673 -1.1757  0.9856
 6299SOL     OW30532   1.537   0.982   6.620  0.1176  0.1464  0.1922
 6299SOL    HW130533   1.447   0.995   6.593  1.2182  1.0361 -3.0959
 6299SOL    HW230534   1.588   1.045   6.568  0.2373 -2.4991 -2.9101
 6300SOL     OW30535   2.799   1.208   2.870 -0.3435 -0.0021  0.5098
 6300SOL    HW130536   2.786   1.284   2.926 -3.2026 -1.1514  1.3876
 6300SOL    HW230537   2.717   1.162   2.889 -0.6621  1.1489  1.8944
 6301SOL     OW30538   0.257   0.783   9.821 -0.0806  0.0090 -0.0894
 6301SOL    HW130539   0.263   0.833   9.903 -1.1320 -1.4144  0.8718
 6301SOL    HW230540   0.162   0.788   9.807 -0.1041 -0.5777 -0.1353
 6302SOL     OW30541   4.548   1.265   6.683  0.1434 -0.6125 -0.2562
 6302SOL    HW130542   4.469   1.267   6.737  0.2813 -1.5574 -0.0126
 6302SOL    HW230543   4.577   1.355   6.700  0.2340 -1.2613  3.0346
 6303SOL     OW30544   4.718   0.558   6.680  0.2214  0.2822  0.0233
 6303SOL    HW130545   4.710   0.642   6.636  0.5309 -0.5929 -1.7155
 6303SOL    HW230546   4.625   0.546   6.697  0.5133 -2.1989 -0.1103
 6304SOL     OW30547   3.121   2.613  17.670  0.5105  0.2332  0.0030
 6304SOL    HW130548   3.146   2.584   0.008  2.3870 -1.2547 -1.0265
 6304SOL    HW230549   3.039   2.565  17.661 -0.0711  0.8555  1.9955
 6305SOL     OW30550   0.053   4.670   5.555  0.5005 -0.2517 -0.0292
 6305SOL    HW130551   0.049   4.608   5.481 -0.2163  1.8651 -1.7734
 6305SOL    HW230552   0.105   4.610   5.607 -0.2676 -0.3391  0.6392
 6306SOL     OW30553   0.456   0.992  13.204  0.0466  0.2212 -0.2023
 6306SOL    HW130554   0.494   0.956  13.284 -0.4308  1.3500  0.5235
 6306SOL    HW230555   0.387   1.041  13.248  1.1197 -1.5752  3.4576
 6307SOL     OW30556   1.673   1.157  16.544 -0.2776  0.3644 -0.4537
 6307SOL    HW130557   1.662   1.063  16.552 -1.5651  0.4350 -1.3081
 6307SOL    HW230558   1.583   1.187  16.534 -0.3996 -0.6084 -2.3848
 6308SOL     OW30559   1.603   2.036   4.551  0.7196 -0.1295  0.0011
 6308SOL    HW130560   1.533   1.984   4.589  1.7838 -0.1517  1.9567
 6308SOL    HW230561   1.676   1.976   4.537  0.5619 -0.4254  0.4537
 6309SOL     OW30562   2.853   2.098  13.661  0.4701  0.3114 -0.2240
 6309SOL    HW130563   2.876   2.186  13.693 -0.6747 -0.4446  2.6603
 6309SOL    HW230564   2.875   2.100  13.568 -3.7247 -0.1245 -1.2147
 6310SOL     OW30565   2.892   3.622   9.297  0.6090  0.3001 -0.0928
 6310SOL    HW130566   2.830   3.623   9.224  0.0332  3.2690  0.4537
 6310SOL    HW230567   2.848   3.680   9.359  0.0971  0.8163 -0.9388
 6311SOL     OW30568   0.309   2.906   6.114  0.6243 -0.4014 -0.1300
 6311SOL    HW130569   0.229   2.879   6.159  2.0138  0.7673  3.0458
 6311SOL    HW230570   0.348   2.823   6.086  0.9567  0.2522 -1.5926
 6312SOL     OW30571   0.730   0.761   5.942 -0.3476 -0.2055 -0.0759
 6312SOL    HW130572   0.726   0.822   5.868  1.0435 -0.9403 -0.7552
 6312SOL    HW230573   0.656   0.701   5.929  0.0123 -0.9553  1.4125
 6313SOL     OW30574   0.352   1.791   8.820 -0.2055  0.7726  0.0286
 6313SOL    HW130575   0.271   1.810   8.868  0.3861 -1.9783  2.1061
 6313SOL    HW230576   0.329   1.825   8.733 -1.0924 -0.8501 -0.3753
 6314SOL     OW30577   1.891   4.417   8.016  0.9140 -0.2606 -0.8426
 6314SOL    HW130578   1.832   4.481   7.976  0.3923  0.6376  1.4255
 6314SOL    HW230579   1.846   4.333   8.012 -1.0367  0.8597 -2.8041
 6315SOL     OW30580   3.352   3.978   1.641  0.4750 -0.3640  0.2182
 6315SOL    HW130581   3.339   3.994   1.734  1.1762  1.2423  0.0534
 6315SOL    HW230582   3.341   3.883   1.645  0.9927 -0.4982 -1.5164
 6316SOL     OW30583   2.751   3.349   6.881  0.1855 -0.0862 -0.5531
 6316SOL    HW130584   2.772   3.259   6.905  2.0823  0.8176  1.1790
 6316SOL    HW230585   2.838   3.376   6.910  0.9423 -1.4927 -1.5196
 6317SOL     OW30586   3.209   0.443   6.150  0.0178 -0.0523  0.6637
 6317SOL    HW130587   3.213   0.349   6.163 -2.3589 -0.0536  1.5367
 6317SOL    HW230588   3.301   0.461   6.166 -0.1214  2.3787 -1.2376
 6318SOL     OW30589   0.609   2.446   9.153 -0.7745 -0.0260 -0.0832
 6318SOL    HW130590   0.674   2.402   9.208  0.2266  0.8702 -0.5527
 6318SOL    HW230591   0.625   2.407   9.068  1.4119  0.4009  0.1431
 6319SOL     OW30592   4.457   2.029   9.101 -0.1183 -0.0929  0.2297
 6319SOL    HW130593   4.550   2.018   9.081 -0.5957  0.2450 -2.2330
 6319SOL    HW230594   4.435   1.936   9.090  2.7621 -0.8214  0.4858
 6320SOL     OW30595   0.765   1.889   2.039  0.5142 -0.3307 -0.0312
 6320SOL    HW130596   0.777   1.913   1.948 -1.7371  0.0726 -0.2136
 6320SOL    HW230597   0.797   1.799   2.039  0.6035 -0.3011  0.2183
 6321SOL     OW30598   2.555   1.886   8.145 -0.0932  0.2949 -0.8475
 6321SOL    HW130599   2.554   1.860   8.052 -0.3438 -0.9180 -0.5043
 6321SOL    HW230600   2.540   1.979   8.131  1.6326  0.6604 -0.2818
 6322SOL     OW30601   1.528   4.590   6.087  0.3055 -1.1156 -0.6300
 6322SOL    HW130602   1.596   4.617   6.026  0.0822 -2.1108 -1.3014
 6322SOL    HW230603   1.468   4.665   6.082  1.5078 -0.1530 -0.6950
 6323SOL     OW30604   4.200   0.336   4.901  0.1393  0.1073 -0.1740
 6323SOL    HW130605   4.174   0.411   4.954  2.0136  0.6987 -0.1036
 6323SOL    HW230606   4.125   0.327   4.843  1.0823  1.2385 -1.5525
 6324SOL     OW30607   2.943   4.173   6.265  0.1440 -0.2441  0.5795
 6324SOL    HW130608   2.886   4.250   6.259  1.5988  0.7714 -0.0992
 6324SOL    HW230609   2.864   4.121   6.280 -2.1023  3.2024  0.7375
 6325SOL     OW30610   2.080   4.145   3.395 -0.0908 -0.1025  0.0655
 6325SOL    HW130611   2.130   4.208   3.446  0.7252 -0.4536 -0.2989
 6325SOL    HW230612   1.995   4.183   3.416 -0.6415 -0.8231 -0.8542
 6326SOL     OW30613   2.882   4.140   0.492  0.5907  1.0734 -0.1248
 6326SOL    HW130614   2.831   4.122   0.413 -0.7750 -1.0645  1.2424
 6326SOL    HW230615   2.910   4.050   0.503 -0.1778  0.8820  0.2726
 6327SOL     OW30616   2.731   2.654   8.762  0.2374 -0.4468  0.1964
 6327SOL    HW130617   2.754   2.708   8.687  0.3566 -2.7903 -1.4609
 6327SOL    HW230618   2.743   2.563   8.734 -0.9829 -1.1684  2.0125
 6328SOL     OW30619   2.692   1.886   1.255  0.0885 -0.2500 -0.2724
 6328SOL    HW130620   2.684   1.822   1.184 -2.7287 -1.8462  1.4982
 6328SOL    HW230621   2.634   1.858   1.326  0.8178 -1.2103 -0.0594
 6329SOL     OW30622   3.602   4.135   4.053 -0.4747 -0.0928 -0.1058
 6329SOL    HW130623   3.581   4.192   3.980  0.4310  0.4393  0.0469
 6329SOL    HW230624   3.526   4.155   4.108 -1.1549  1.4096 -1.6132
 6330SOL     OW30625   3.068   2.723   1.092 -0.0306  0.0725 -0.1698
 6330SOL    HW130626   3.042   2.646   1.142  0.5148  0.1104  0.1729
 6330SOL    HW230627   2.994   2.782   1.109 -0.1882 -0.5294  1.2371
 6331SOL     OW30628   0.626   2.456  11.772 -0.3145 -0.2215  0.6197
 6331SOL    HW130629   0.683   2.510  11.718 -0.9028 -1.5075 -1.2825
 6331SOL    HW230630   0.575   2.522  11.819  0.3107 -0.4039  1.5661
 6332SOL     OW30631   1.239   2.654  17.270  0.1393 -0.1116  0.2878
 6332SOL    HW130632   1.168   2.597  17.241 -0.2824  1.5906 -2.0316
 6332SOL    HW230633   1.321   2.614  17.243  1.4673  1.7902  1.4861
 6333SOL     OW30634   3.872   1.552   4.210 -0.0558 -0.3205 -0.3962
 6333SOL    HW130635   3.778   1.546   4.225  0.1110 -0.5186  0.5720
 6333SOL    HW230636   3.895   1.580   4.299 -1.6407  1.6984 -0.6348
 6334SOL     OW30637   1.565   1.743  14.069 -0.4989 -0.2362  0.8440
 6334SOL    HW130638   1.481   1.742  14.115 -0.4344  0.0690  0.9674
 6334SOL    HW230639   1.575   1.648  14.065 -0.4172 -0.2755  1.9200
 6335SOL     OW30640   0.976   3.601   9.324 -0.7166 -0.1771 -0.0903
 6335SOL    HW130641   0.967   3.696   9.331  0.1942 -0.1565  0.7632
 6335SOL    HW230642   0.895   3.576   9.369 -1.0846 -1.5258 -1.4890
 6336SOL     OW30643   0.032   4.214   8.727 -0.1363  0.8211 -0.3006
 6336SOL    HW130644   0.090   4.164   8.785 -1.3198 -0.6386 -0.3918
 6336SOL    HW230645   0.096   4.263   8.675 -0.2019  0.4287 -0.7557
 6337SOL     OW30646   3.298   2.451   5.665  0.2727 -0.3681  0.5239
 6337SOL    HW130647   3.239   2.378   5.684 -1.6433  1.5603  1.9780
 6337SOL    HW230648   3.234   2.507   5.621 -0.3865 -1.5925 -0.0808
 6338SOL     OW30649   2.029   0.069  16.333  0.5177  0.8840  0.2799
 6338SOL    HW130650   1.955   0.015  16.303  0.6378 -0.5844  2.6491
 6338SOL    HW230651   1.989   0.137  16.386  0.3569  0.9747  0.0427
 6339SOL     OW30652   2.553   0.238   9.505  0.0839  0.3922  0.6430
 6339SOL    HW130653   2.580   0.289   9.428 -2.7411  2.8076  1.2330
 6339SOL    HW230654   2.484   0.188   9.461  0.0795  0.5369  0.4816
 6340SOL     OW30655   2.721   2.640   7.489 -0.1587  0.2790 -0.2010
 6340SOL    HW130656   2.804   2.591   7.488  1.2787  2.7305 -1.3621
 6340SOL    HW230657   2.651   2.575   7.498 -0.7864  1.3869  2.7516
 6341SOL     OW30658   1.712   2.745   1.971  0.1326  0.6321  0.3972
 6341SOL    HW130659   1.651   2.797   1.919  0.6149  0.2980 -0.5067
 6341SOL    HW230660   1.664   2.664   1.992  1.4328 -0.0806  0.6573
 6342SOL     OW30661   1.677   1.329   3.298  0.1807 -0.1011 -0.9594
 6342SOL    HW130662   1.684   1.240   3.332  1.2652  0.9149  1.4974
 6342SOL    HW230663   1.628   1.360   3.375  0.3047  0.1955 -0.9970
 6343SOL     OW30664   2.990   2.744   3.481 -0.4353 -0.1188 -0.4740
 6343SOL    HW130665   3.026   2.671   3.430  0.5404 -1.1843  1.7027
 6343SOL    HW230666   3.004   2.825   3.432 -0.6195 -0.6670 -1.4353
 6344SOL     OW30667   1.317   4.735   6.055  0.7291 -0.0145  0.6711
 6344SOL    HW130668   1.257   4.674   6.012 -0.1212  1.6092 -0.4461
 6344SOL    HW230669   1.264   0.023   6.130 -1.4048  1.2070 -1.2553
 6345SOL     OW30670   4.647   0.845   1.106  0.2688 -0.1020  0.7856
 6345SOL    HW130671   4.705   0.910   1.068 -0.4432 -0.2826 -0.6096
 6345SOL    HW230672   4.564   0.875   1.068  0.6872  0.8975  0.6884
 6346SOL     OW30673   1.031   3.934   8.555  0.4167 -0.1076 -0.5200
 6346SOL    HW130674   1.078   3.851   8.557  1.8849  0.7882  2.1015
 6346SOL    HW230675   0.998   3.941   8.645  1.6328 -0.3278 -0.0604
 6347SOL     OW30676   1.842   4.027  10.824  0.2945 -0.6065  0.2696
 6347SOL    HW130677   1.778   3.967  10.862  1.0721  0.7850  3.7718
 6347SOL    HW230678   1.929   3.992  10.842  0.8231  0.5127 -0.0734
 6348SOL     OW30679   3.550   1.435   3.300  0.2751  0.1103 -0.2924
 6348SOL    HW130680   3.464   1.403   3.274  0.8287 -0.4461 -1.4336
 6348SOL    HW230681   3.541   1.527   3.275 -2.8409 -0.6984 -2.2410
 6349SOL     OW30682   1.437   3.079   4.199  0.1281 -0.0258 -0.0384
 6349SOL    HW130683   1.350   3.056   4.166 -0.0707 -1.0861  1.2131
 6349SOL    HW230684   1.490   3.045   4.126 -1.6225 -1.9857 -0.3998
 6350SOL     OW30685   3.730   3.821   9.583 -0.4729  0.0523 -0.8860
 6350SOL    HW130686   3.779   3.752   9.627  1.2074  1.2715 -0.8595
 6350SOL    HW230687   3.771   3.899   9.621  0.2207 -1.3537  1.2457
 6351SOL     OW30688   4.404   2.386   7.989 -0.4068  0.3166  0.1887
 6351SOL    HW130689   4.384   2.299   8.023 -0.5634 -0.0286 -0.7794
 6351SOL    HW230690   4.490   2.372   7.947 -1.1161 -2.2075 -0.4256
 6352SOL     OW30691   2.494   2.625   7.235 -0.1412  0.0736  0.0610
 6352SOL    HW130692   2.567   2.585   7.188 -2.6154 -0.4855 -3.3875
 6352SOL    HW230693   2.540   2.669   7.305 -1.0263  1.1393 -0.0289
 6353SOL     OW30694   2.662   0.116   3.718  0.5096  0.2257 -0.1803
 6353SOL    HW130695   2.700   0.118   3.631 -1.2707  2.1073 -0.9035
 6353SOL    HW230696   2.726   0.055   3.756 -0.4432 -1.0720 -0.6559
 6354SOL     OW30697   0.635   2.445  12.403 -0.1882  0.0750 -0.2170
 6354SOL    HW130698   0.634   2.351  12.417 -0.0900 -0.0708 -1.1697
 6354SOL    HW230699   0.586   2.465  12.483  1.0994  0.2014  0.5391
 6355SOL     OW30700   3.838   1.197  17.698  0.1809 -0.0374 -0.5634
 6355SOL    HW130701   3.910   1.175   0.008 -1.2991 -0.3814  1.1231
 6355SOL    HW230702   3.816   1.110  17.665 -0.9048 -0.9800  2.6096
 6356SOL     OW30703   4.350   3.875   5.747  0.4528  0.9668  0.3195
 6356SOL    HW130704   4.408   3.846   5.818  0.6313 -1.0481 -0.6653
 6356SOL    HW230705   4.338   3.969   5.760 -1.3937  0.8409 -0.5357
 6357SOL     OW30706   3.729   1.162  10.479 -0.1765  0.7208  0.4096
 6357SOL    HW130707   3.779   1.081  10.493 -2.7142 -0.8936  0.0655
 6357SOL    HW230708   3.648   1.129  10.441  2.1331 -2.0140 -2.1278
 6358SOL     OW30709   4.429   2.231   3.272  0.0265 -0.1479  0.4173
 6358SOL    HW130710   4.496   2.215   3.206  0.9704  1.6835  0.9118
 6358SOL    HW230711   4.410   2.145   3.310 -1.3617 -0.6105 -1.3430
 6359SOL     OW30712   2.216   1.647   1.051 -0.5249 -0.4554 -0.2546
 6359SOL    HW130713   2.272   1.604   1.115 -1.5522 -1.7020 -0.1899
 6359SOL    HW230714   2.271   1.661   0.973 -0.6418 -0.1473 -0.2847
 6360SOL     OW30715   2.817   0.152   4.792  0.7052  0.1164 -0.4041
 6360SOL    HW130716   2.874   0.093   4.841 -0.9960 -0.6860  0.5808
 6360SOL    HW230717   2.866   0.233   4.777 -0.1481  0.2801 -2.3441
 6361SOL     OW30718   1.295   1.826   6.351 -0.4042 -0.2683  0.2724
 6361SOL    HW130719   1.273   1.915   6.380  1.4645 -0.6114  2.7338
 6361SOL    HW230720   1.375   1.817   6.404  1.2169  0.7000 -2.0306
 6362SOL     OW30721   0.562   0.221   7.576  0.4325  0.1445 -0.1180
 6362SOL    HW130722   0.555   0.252   7.486 -0.4248 -0.0063 -0.0998
 6362SOL    HW230723   0.657   0.215   7.587  0.2793 -0.7795  0.7334
 6363SOL     OW30724   2.797   1.825   8.566  0.0994 -0.0702  0.2038
 6363SOL    HW130725   2.726   1.793   8.622 -1.3302  1.2346 -0.8557
 6363SOL    HW230726   2.779   1.918   8.578 -2.0671 -0.4122 -0.4143
 6364SOL     OW30727   2.755   3.811   1.844 -0.7786 -0.7005 -0.1850
 6364SOL    HW130728   2.779   3.814   1.937  0.0040  0.6143 -0.4329
 6364SOL    HW230729   2.660   3.813   1.852 -0.7166  1.8210 -0.2979
 6365SOL     OW30730   0.189   1.002   0.712 -0.1786  0.0488 -0.0144
 6365SOL    HW130731   0.109   1.041   0.746 -0.9289 -0.8392 -0.7567
 6365SOL    HW230732   0.154   0.919   0.680  1.9021 -1.3970  1.4559
 6366SOL     OW30733   0.426   4.193  12.746  0.3223 -0.4188 -0.1469
 6366SOL    HW130734   0.355   4.166  12.687 -0.1036  0.6382 -0.1226
 6366SOL    HW230735   0.442   4.115  12.799 -1.6401  0.2802  1.4661
 6367SOL     OW30736   2.558   1.761  13.526  0.0378  0.0465 -0.2540
 6367SOL    HW130737   2.472   1.720  13.519 -0.0525 -0.3381  2.7942
 6367SOL    HW230738   2.599   1.710  13.597  0.4216  1.1707  0.3442
 6368SOL     OW30739   1.973   1.077   2.443  0.0430 -0.8114 -0.1346
 6368SOL    HW130740   1.932   1.128   2.514  0.9515  0.0120 -0.2069
 6368SOL    HW230741   2.059   1.117   2.446 -0.5410  0.2781  2.0606
 6369SOL     OW30742   2.505   4.630   9.311  0.2828 -0.2126  0.1561
 6369SOL    HW130743   2.571   4.645   9.379 -0.8619 -0.3385  1.3117
 6369SOL    HW230744   2.434   4.691   9.333 -0.1778 -0.1057 -1.6547
 6370SOL     OW30745   0.901   2.208   8.513 -0.7012  0.1388  0.6534
 6370SOL    HW130746   0.955   2.228   8.589  0.5225  1.3955 -0.5454
 6370SOL    HW230747   0.857   2.130   8.547 -0.6349 -0.2414 -0.1299
 6371SOL     OW30748   2.774   1.016   3.459  0.3705 -0.3180 -0.4926
 6371SOL    HW130749   2.721   0.997   3.381 -1.2104 -1.3413  0.8343
 6371SOL    HW230750   2.857   0.976   3.432  0.1128  0.2173 -2.0967
 6372SOL     OW30751   3.559   4.599  15.926 -0.0231 -0.1361  0.0281
 6372SOL    HW130752   3.467   4.624  15.934  0.7479  1.6870  3.1225
 6372SOL    HW230753   3.600   4.681  15.953  1.3064 -0.7843 -0.0331
 6373SOL     OW30754   3.769   3.417  10.317  0.3561  0.0520 -0.3635
 6373SOL    HW130755   3.692   3.388  10.366  1.2637 -0.4750  0.7422
 6373SOL    HW230756   3.830   3.418  10.391 -0.1942  0.1499  0.0865
 6374SOL     OW30757   1.634   3.189  13.796  0.0175  0.6354 -0.1293
 6374SOL    HW130758   1.589   3.270  13.770 -3.6664 -1.0156  1.1974
 6374SOL    HW230759   1.562   3.132  13.821  0.0987 -0.2740 -1.9976
 6375SOL     OW30760   2.055   2.151   9.155  0.0866 -0.5920  0.0388
 6375SOL    HW130761   2.095   2.166   9.241 -3.2036  1.5031  1.2256
 6375SOL    HW230762   1.984   2.215   9.154  1.3243  0.8389  2.0400
 6376SOL     OW30763   1.161   2.373  17.132  0.1550 -0.3569 -0.4347
 6376SOL    HW130764   1.245   2.333  17.108 -0.3986 -1.8949  0.2020
 6376SOL    HW230765   1.137   2.315  17.204  0.6435 -2.0993 -1.6839
 6377SOL     OW30766   4.409   3.554   3.866 -0.2968  0.0144  0.7114
 6377SOL    HW130767   4.345   3.590   3.805 -1.1141  2.1352  2.8419
 6377SOL    HW230768   4.454   3.482   3.822 -0.9913  0.1355 -0.2043
 6378SOL     OW30769   1.095   3.946   4.731  0.1552  0.8914 -0.0578
 6378SOL    HW130770   1.116   4.039   4.727  3.1273  0.0691 -3.2499
 6378SOL    HW230771   1.001   3.947   4.748  0.2109  1.6836  0.1675
 6379SOL     OW30772   2.539   1.610  10.807  0.3911 -0.6685  0.4359
 6379SOL    HW130773   2.597   1.539  10.780  1.3926  1.0200 -1.8397
 6379SOL    HW230774   2.580   1.676  10.750  0.9582 -1.8664 -0.5366
 6380SOL     OW30775   0.910   4.660   6.838  0.2790 -0.2404  0.4047
 6380SOL    HW130776   0.919   4.583   6.894 -1.6711 -0.6502  0.1479
 6380SOL    HW230777   0.822   4.639   6.806  0.5098 -0.4643 -0.0787
 6381SOL     OW30778   4.233   4.136   0.018 -0.8526 -0.3453  0.0177
 6381SOL    HW130779   4.164   4.140  17.702 -1.8224 -0.8338  1.0106
 6381SOL    HW230780   4.234   4.225   0.055 -1.4498 -0.1228 -0.5219
 6382SOL     OW30781   2.196   3.817   6.335 -0.3339 -0.2081  0.5369
 6382SOL    HW130782   2.192   3.732   6.290 -2.8606  0.5123 -0.5680
 6382SOL    HW230783   2.139   3.792   6.408  1.5251 -0.5892  1.8633
 6383SOL     OW30784   1.085   0.988   9.061 -0.0142  0.5669  0.1503
 6383SOL    HW130785   1.147   0.932   9.014  0.9627  2.3427 -0.6634
 6383SOL    HW230786   1.101   1.070   9.015  1.4300 -1.0019 -2.1422
 6384SOL     OW30787   1.758   4.404  17.050 -0.2893  0.3483 -0.5364
 6384SOL    HW130788   1.741   4.426  16.958 -0.7469 -1.0190 -0.7818
 6384SOL    HW230789   1.702   4.463  17.100  0.2262 -0.8186  1.4142
 6385SOL     OW30790   2.692   0.819  12.850 -0.2508 -0.2214  0.1940
 6385SOL    HW130791   2.737   0.791  12.771 -2.7079 -1.4722 -0.7708
 6385SOL    HW230792   2.652   0.899  12.817 -2.9913 -1.1045  1.3168
 6386SOL     OW30793   1.135   2.624   8.668 -0.2276  0.1779  0.2525
 6386SOL    HW130794   1.214   2.573   8.685 -0.5055 -0.1556  0.5495
 6386SOL    HW230795   1.058   2.574   8.697 -0.9578  1.7516  1.0502
 6387SOL     OW30796   1.302   0.771  17.363  0.0021  0.1256 -0.0998
 6387SOL    HW130797   1.233   0.748  17.300  1.3717 -3.4759 -0.3043
 6387SOL    HW230798   1.321   0.693  17.415 -0.8101 -1.3654 -1.9920
 6388SOL     OW30799   0.426   3.094   8.037 -0.0643 -0.5689 -0.4110
 6388SOL    HW130800   0.375   3.112   8.116 -0.3427 -2.1190 -0.2400
 6388SOL    HW230801   0.505   3.060   8.079 -0.3739 -2.0617 -1.0300
 6389SOL     OW30802   4.325   1.350   4.217 -0.1951 -0.0364  0.2173
 6389SOL    HW130803   4.286   1.273   4.175 -1.5900  0.2986  0.8967
 6389SOL    HW230804   4.355   1.394   4.138  0.6371  0.6268  0.8893
 6390SOL     OW30805   0.811   2.724  11.879  0.1318  0.0775 -0.3583
 6390SOL    HW130806   0.801   2.745  11.786 -0.8592 -2.5792 -0.8440
 6390SOL    HW230807   0.749   2.779  11.927  1.2698  0.1311  1.0662
 6391SOL     OW30808   4.405   3.989  16.075 -0.1415  0.4351  0.0376
 6391SOL    HW130809   4.335   3.925  16.062  2.1277 -1.9383 -0.5607
 6391SOL    HW230810   4.483   3.934  16.088  0.8575  1.9522  0.4613
 6392SOL     OW30811   4.204   0.149   1.459  0.4648 -0.0211 -0.1823
 6392SOL    HW130812   4.149   0.218   1.421  0.0510 -1.0693 -1.4660
 6392SOL    HW230813   4.238   0.181   1.543 -1.1882  1.3708 -0.0332
 6393SOL     OW30814   0.685   4.244  15.314 -0.5705  0.2520 -0.3990
 6393SOL    HW130815   0.713   4.296  15.389 -0.2850  0.5665 -0.7230
 6393SOL    HW230816   0.676   4.156  15.351 -0.4828  1.7833  3.2395
 6394SOL     OW30817   0.838   3.259   7.255 -0.5805 -0.6769 -0.2651
 6394SOL    HW130818   0.805   3.229   7.339  0.1915 -1.6205 -0.2980
 6394SOL    HW230819   0.901   3.331   7.266 -0.5351 -0.8389  0.5079
 6395SOL     OW30820   4.609   2.427   5.807 -0.8038  0.7864  0.2617
 6395SOL    HW130821   4.636   2.497   5.747 -1.8980  1.0369  0.0573
 6395SOL    HW230822   4.633   2.347   5.760 -0.8842 -1.1979  3.5680
 6396SOL     OW30823   0.011   0.066   1.617 -0.7499 -0.7912 -0.4577
 6396SOL    HW130824   4.676   0.022   1.573 -0.0603 -1.2872 -1.1063
 6396SOL    HW230825   0.058   0.104   1.543 -1.9483 -1.1904 -1.4121
 6397SOL     OW30826   3.296   4.126   9.249  0.7825  0.0662 -0.2102
 6397SOL    HW130827   3.357   4.167   9.188 -0.5583 -0.8616 -2.1748
 6397SOL    HW230828   3.309   4.033   9.230 -0.8699 -0.4857  1.3419
 6398SOL     OW30829   1.754   0.486   3.242 -0.5764  0.3094 -0.2702
 6398SOL    HW130830   1.778   0.440   3.323  0.5386 -0.6960 -1.1744
 6398SOL    HW230831   1.673   0.527   3.272 -1.6679 -2.3095  0.3546
 6399SOL     OW30832   3.741   4.395   7.442 -0.4479  0.4379  0.5832
 6399SOL    HW130833   3.652   4.402   7.476 -0.4896 -1.9592  1.0207
 6399SOL    HW230834   3.726   4.346   7.361 -1.6505  0.3664  0.8498
 6400SOL     OW30835   3.888   3.522   1.897  0.0950 -0.0362 -0.4437
 6400SOL    HW130836   3.871   3.594   1.835  0.2300 -0.3846 -0.8852
 6400SOL    HW230837   3.854   3.442   1.857  0.6198 -0.6903  0.4212
 6401SOL     OW30838   3.665   1.033   5.160 -0.1113 -0.4091  0.3301
 6401SOL    HW130839   3.585   1.032   5.108  3.1292  0.8537 -4.7204
 6401SOL    HW230840   3.712   1.104   5.117 -0.6523  0.0928  0.5766
 6402SOL     OW30841   4.095   1.032  17.439 -0.1070  0.5331  0.3862
 6402SOL    HW130842   4.056   1.117  17.419  2.1571  1.2478 -0.9780
 6402SOL    HW230843   4.022   0.976  17.414  0.6685 -0.5190  0.4655
 6403SOL     OW30844   1.226   1.084   0.501  0.2469 -0.2590  0.3402
 6403SOL    HW130845   1.195   1.034   0.426  0.3251  0.8446 -0.4403
 6403SOL    HW230846   1.195   1.172   0.476 -0.6647 -1.1891 -1.7980
 6404SOL     OW30847   1.463   1.181  14.977 -0.3717  0.0488  0.2639
 6404SOL    HW130848   1.386   1.125  14.971 -0.6954  0.1046  3.9680
 6404SOL    HW230849   1.450   1.242  14.904 -1.3146 -0.2024  0.2309
 6405SOL     OW30850   4.140   3.674   2.151  0.6039 -0.1281  0.6052
 6405SOL    HW130851   4.077   3.746   2.162  3.0582  2.0396  0.4402
 6405SOL    HW230852   4.216   3.726   2.125  0.3587  1.5272  3.0841
 6406SOL     OW30853   1.494   0.649  16.300  0.1177  0.4484 -0.6886
 6406SOL    HW130854   1.415   0.608  16.266  0.5728 -0.2761 -0.8721
 6406SOL    HW230855   1.561   0.620  16.237  1.1121 -1.0686  1.0755
 6407SOL     OW30856   3.244   0.768   8.459 -0.1240  0.0022  0.0161
 6407SOL    HW130857   3.306   0.762   8.532 -2.1175 -4.3820  1.3391
 6407SOL    HW230858   3.163   0.749   8.506 -1.0987  2.4186 -0.6988
 6408SOL     OW30859   0.872   3.634   4.435 -0.1468 -0.4544 -0.1149
 6408SOL    HW130860   0.924   3.651   4.514 -0.6408 -2.3582  0.6050
 6408SOL    HW230861   0.792   3.599   4.475  0.2769 -1.3712 -0.0857
 6409SOL     OW30862   2.574   4.086  10.102  0.0863 -0.3833  0.4769
 6409SOL    HW130863   2.591   4.020  10.035  2.0005  0.3297  0.2851
 6409SOL    HW230864   2.655   4.106  10.149  0.8228 -1.9745 -0.1124
 6410SOL     OW30865   3.678   4.032  16.268 -0.0474 -0.9664 -0.3976
 6410SOL    HW130866   3.648   4.115  16.302 -0.8042 -1.3290 -0.1934
 6410SOL    HW230867   3.607   3.976  16.298 -0.5613 -1.0020 -1.6865
 6411SOL     OW30868   0.659   4.094   3.695 -0.7336  0.4091  0.3589
 6411SOL    HW130869   0.591   4.028   3.681  0.7872 -1.1042  0.1795
 6411SOL    HW230870   0.600   4.170   3.690 -0.4721  0.6741  1.4258
 6412SOL     OW30871   2.771   1.825   6.309  0.5044 -0.6464 -0.2331
 6412SOL    HW130872   2.727   1.904   6.340  0.2391 -1.0546  0.4365
 6412SOL    HW230873   2.865   1.838   6.323  0.7772  1.5786 -4.1880
 6413SOL     OW30874   3.420   3.594   9.277  0.8835 -0.0852 -0.6097
 6413SOL    HW130875   3.418   3.609   9.182 -0.6116 -0.9548 -0.7003
 6413SOL    HW230876   3.475   3.516   9.288  2.7286  1.2149 -0.5804
 6414SOL     OW30877   0.717   0.517   8.538 -0.2656 -0.0818  0.1117
 6414SOL    HW130878   0.635   0.564   8.524 -2.2399 -2.3963  4.0353
 6414SOL    HW230879   0.731   0.546   8.629 -1.9577  1.9772 -0.2741
 6415SOL     OW30880   2.262   0.776  11.371 -0.1525 -0.0796  0.1945
 6415SOL    HW130881   2.294   0.763  11.282  2.1556 -0.7092  1.1361
 6415SOL    HW230882   2.312   0.709  11.417  0.5324 -0.6766 -1.4312
 6416SOL     OW30883   2.663   4.724   1.057  0.1624  0.4442  0.1048
 6416SOL    HW130884   2.593   4.710   0.993  0.1174  2.2659 -0.2602
 6416SOL    HW230885   2.725   4.660   1.022 -1.6162 -0.9123 -0.5473
 6417SOL     OW30886   4.075   4.383   3.022 -0.1558  0.0834  0.0546
 6417SOL    HW130887   4.045   4.467   2.987  2.4735  1.7152  1.6600
 6417SOL    HW230888   3.993   4.341   3.047  0.5055  0.2713  2.5993
 6418SOL     OW30889   1.957   4.055   5.736 -0.9484  0.2915 -0.0600
 6418SOL    HW130890   1.988   4.112   5.665  3.0735 -2.6269 -0.6525
 6418SOL    HW230891   1.933   3.970   5.698  2.7549  0.5218 -2.9701
 6419SOL     OW30892   0.257   4.421   9.152  0.3137 -0.1614 -0.0102
 6419SOL    HW130893   0.210   4.423   9.236  1.0108  1.6263  0.3245
 6419SOL    HW230894   0.230   4.505   9.115 -0.6226 -0.7456 -0.6576
 6420SOL     OW30895   0.184   0.411   6.163  0.2561  0.2537 -0.1334
 6420SOL    HW130896   0.185   0.317   6.183 -1.1182 -0.0076 -1.2664
 6420SOL    HW230897   0.219   0.418   6.074 -0.2679  1.6886 -0.2292
 6421SOL     OW30898   1.347   3.573   7.253 -0.4237  0.8765 -0.5063
 6421SOL    HW130899   1.278   3.592   7.189  0.0609  3.1594 -0.3663
 6421SOL    HW230900   1.300   3.504   7.300 -1.0648 -0.4959 -3.1775
 6422SOL     OW30901   3.099   3.337   8.126 -0.2662  0.3343  0.0327
 6422SOL    HW130902   3.184   3.380   8.118  0.1403 -0.4450  0.1914
 6422SOL    HW230903   3.103   3.251   8.083  1.0707 -0.5599  1.9367
 6423SOL     OW30904   1.660   2.513   9.697 -0.1118  0.6156  0.4233
 6423SOL    HW130905   1.616   2.597   9.710  1.1310  0.7848  3.4841
 6423SOL    HW230906   1.750   2.538   9.719  0.4440 -0.0821 -1.0724
 6424SOL     OW30907   2.200   2.848   7.350 -0.1171 -0.1007 -0.0150
 6424SOL    HW130908   2.146   2.916   7.389 -1.5053  0.1062 -2.2677
 6424SOL    HW230909   2.132   2.797   7.307  1.0637 -0.3338 -1.6387
 6425SOL     OW30910   4.037   2.351  13.222  0.2211  0.0752  0.3791
 6425SOL    HW130911   4.109   2.338  13.284  0.4552 -0.1554  0.0580
 6425SOL    HW230912   3.968   2.377  13.283 -0.6409 -0.8361 -0.2189
 6426SOL     OW30913   1.385   3.658   0.063  0.0930 -0.2354 -0.0429
 6426SOL    HW130914   1.357   3.567   0.076  0.6478 -0.3752  0.1668
 6426SOL    HW230915   1.474   3.638   0.035  0.5313  0.4951  0.8341
 6427SOL     OW30916   0.915   4.183   5.987 -0.0798 -0.7265  0.0353
 6427SOL    HW130917   0.980   4.173   5.918 -0.9076  2.2376 -1.2033
 6427SOL    HW230918   0.837   4.228   5.953  2.3810  2.6077 -1.1773
 6428SOL     OW30919   0.802   2.857   7.248  0.0201 -0.0833  0.2351
 6428SOL    HW130920   0.824   2.822   7.162  0.5140  0.1756  0.2564
 6428SOL    HW230921   0.782   2.948   7.225 -0.8653 -0.2190  0.4541
 6429SOL     OW30922   2.536   0.946   0.355  0.5119 -0.0863 -0.5248
 6429SOL    HW130923   2.503   0.954   0.265  0.6398 -1.0896 -0.6553
 6429SOL    HW230924   2.502   0.858   0.372  0.5335  0.0193  0.0402
 6430SOL     OW30925   4.314   3.281   6.222 -1.0842 -0.1537 -0.0741
 6430SOL    HW130926   4.402   3.285   6.186  0.2580  1.7578  3.4813
 6430SOL    HW230927   4.262   3.246   6.149  0.4999 -0.3507 -1.0849
 6431SOL     OW30928   0.775   0.565   6.951  0.0278 -0.5802  0.3313
 6431SOL    HW130929   0.687   0.546   6.917  0.4423 -0.4710 -0.7993
 6431SOL    HW230930   0.765   0.587   7.044 -2.7921 -0.9353  0.1106
 6432SOL     OW30931   4.733   4.706   8.004  0.0077 -0.2174 -0.0108
 6432SOL    HW130932   4.664   4.644   8.028  0.5124 -1.4750 -1.8056
 6432SOL    HW230933   4.680   0.043   7.975  1.4484  0.7807 -0.0328
 6433SOL     OW30934   2.294   3.425   6.046 -0.8166  0.0567  0.3019
 6433SOL    HW130935   2.309   3.370   5.969 -0.4843 -0.7132  0.9075
 6433SOL    HW230936   2.201   3.448   6.041 -0.5342  0.8103 -1.3539
 6434SOL     OW30937   0.750   2.385   1.318 -0.0881 -0.0916 -0.5733
 6434SOL    HW130938   0.713   2.470   1.342  0.0302  1.3686 -5.7083
 6434SOL    HW230939   0.792   2.370   1.403 -2.3563 -3.6797 -0.0998
 6435SOL     OW30940   0.220   0.402   3.857  1.2496  0.4457 -0.1731
 6435SOL    HW130941   0.258   0.335   3.914  1.8707  0.3277 -0.7244
 6435SOL    HW230942   0.247   0.483   3.900  1.4825 -1.1367  2.6934
 6436SOL     OW30943   2.349   1.501  17.319 -0.2602  0.1370  0.1419
 6436SOL    HW130944   2.398   1.573  17.358  1.3004  0.1963 -1.9166
 6436SOL    HW230945   2.420   1.446  17.284 -0.0032  0.3293  0.3648
 6437SOL     OW30946   0.352   0.160   2.943  0.1257 -0.2237 -0.0387
 6437SOL    HW130947   0.324   0.094   3.007 -0.9513 -1.5596 -1.8858
 6437SOL    HW230948   0.370   0.237   2.997 -0.7306 -0.9405  1.2872
 6438SOL     OW30949   2.522   0.049   4.593 -0.2159  0.6020  0.3343
 6438SOL    HW130950   2.574   0.129   4.588  1.4925 -0.3784  2.3707
 6438SOL    HW230951   2.534   0.008   4.679  0.2495  0.2847  0.1183
 6439SOL     OW30952   4.598   3.676   4.980  0.4270  0.2993 -0.2490
 6439SOL    HW130953   4.640   3.750   5.024 -0.3747 -0.6660  2.1503
 6439SOL    HW230954   4.540   3.649   5.051  0.9345 -0.6279 -0.1899
 6440SOL     OW30955   1.173   0.841   2.525  0.0501  0.8264 -0.2019
 6440SOL    HW130956   1.092   0.815   2.482  0.5708 -1.9936  0.5000
 6440SOL    HW230957   1.214   0.755   2.535  1.4178  1.6740  1.5877
 6441SOL     OW30958   2.761   2.171   3.065 -0.2289 -0.1376  0.0802
 6441SOL    HW130959   2.783   2.143   2.976 -0.5281  3.0516 -0.9934
 6441SOL    HW230960   2.667   2.182   3.059 -0.1688 -0.5525 -1.7176
 6442SOL     OW30961   0.819   1.160  10.806 -0.6033 -0.0157 -0.6945
 6442SOL    HW130962   0.750   1.095  10.795  1.9671 -3.1950  1.9951
 6442SOL    HW230963   0.782   1.230  10.752  0.9321 -0.7264 -2.6576
 6443SOL     OW30964   0.583   3.035  15.394  0.3601  0.5007 -0.0167
 6443SOL    HW130965   0.659   3.027  15.337  1.3193  1.3571  1.1427
 6443SOL    HW230966   0.624   3.067  15.475  0.1647  1.1474 -0.1742
 6444SOL     OW30967   2.124   1.534   7.955  0.4367 -0.1510  0.0775
 6444SOL    HW130968   2.099   1.449   7.991 -1.2542  0.2755 -0.1055
 6444SOL    HW230969   2.154   1.588   8.028  0.6307  0.3218 -0.3539
 6445SOL     OW30970   3.934   2.360   8.387  0.2885  0.3994 -0.3896
 6445SOL    HW130971   3.952   2.385   8.477  1.1684 -2.2096  0.1899
 6445SOL    HW230972   4.023   2.342   8.354  0.9198  0.9007  1.0312
 6446SOL     OW30973   0.500   2.821   4.648 -0.1535 -0.0053 -0.0355
 6446SOL    HW130974   0.569   2.848   4.587 -0.5314 -1.8164 -1.2709
 6446SOL    HW230975   0.419   2.845   4.603  0.0168 -0.2805 -0.4867
 6447SOL     OW30976   0.390   0.150   4.914  0.3066 -0.4027 -0.0162
 6447SOL    HW130977   0.371   0.058   4.934 -0.6291 -0.5850 -1.7002
 6447SOL    HW230978   0.309   0.185   4.951  1.9693 -0.5507  3.7723
 6448SOL     OW30979   1.548   2.541   1.986  0.1387  0.2990  0.7741
 6448SOL    HW130980   1.518   2.499   2.066  0.3177  0.6140  1.0071
 6448SOL    HW230981   1.536   2.461   1.934 -0.2382 -1.2289  3.2262
 6449SOL     OW30982   3.963   0.962   6.669  0.3258  0.2628 -0.0864
 6449SOL    HW130983   4.010   0.910   6.735  3.3907  1.9933 -0.9182
 6449SOL    HW230984   3.964   1.036   6.729  0.7254 -1.5962  2.2132
 6450SOL     OW30985   3.648   2.580  14.847  0.4798  0.0841 -0.9237
 6450SOL    HW130986   3.606   2.620  14.923 -2.1061 -0.6485 -1.9585
 6450SOL    HW230987   3.635   2.486  14.858  1.9780 -0.0898 -0.6770
 6451SOL     OW30988   2.817   0.599   9.194  0.4275  0.1571  0.3616
 6451SOL    HW130989   2.723   0.593   9.211  0.1746 -1.3033 -1.5666
 6451SOL    HW230990   2.836   0.506   9.187  0.7956  0.1704  1.1419
 6452SOL     OW30991   4.608   1.534   6.831 -0.8138  0.7100 -0.0419
 6452SOL    HW130992   4.525   1.527   6.878  0.3213 -1.3091  1.6988
 6452SOL    HW230993   4.643   1.621   6.851 -0.4858  0.6091 -0.1825
 6453SOL     OW30994   3.118   0.783   0.461  0.4377 -0.1537 -0.0960
 6453SOL    HW130995   3.057   0.710   0.449  0.5799 -0.4256  0.7977
 6453SOL    HW230996   3.099   0.807   0.552  0.0144 -1.8204  0.2624
 6454SOL     OW30997   2.611   1.538   4.089  0.4192  0.3720 -0.6511
 6454SOL    HW130998   2.595   1.583   4.007  1.5601  0.3041 -0.9107
 6454SOL    HW230999   2.618   1.449   4.053 -3.0359  0.4640 -1.4523
 6455SOL     OW31000   2.072   0.691  16.332 -0.0606 -0.0507 -0.3539
 6455SOL    HW131001   2.041   0.778  16.306 -0.8368  0.1625  1.2845
 6455SOL    HW231002   2.149   0.714  16.385 -0.3176  0.8588 -0.3723
 6456SOL     OW31003   2.452   3.455   7.602  0.4722 -0.7035  0.0634
 6456SOL    HW131004   2.405   3.373   7.589  1.2741 -0.8349 -1.8711
 6456SOL    HW231005   2.442   3.506   7.522  0.1735 -0.2147  0.4115
 6457SOL     OW31006   2.822   1.037   4.369 -0.2822 -0.4516 -0.2457
 6457SOL    HW131007   2.782   1.120   4.344  1.1233 -0.1459 -1.4479
 6457SOL    HW231008   2.788   1.025   4.458  1.1593 -0.5893  0.3005
 6458SOL     OW31009   0.318   1.889   3.736 -0.4288  0.0953  0.6383
 6458SOL    HW131010   0.413   1.901   3.747 -0.0232 -2.0164 -0.6673
 6458SOL    HW231011   0.302   1.959   3.673  2.7889  0.1472 -0.1546
 6459SOL     OW31012   3.693   0.979   7.381 -0.4466 -0.0474 -0.3063
 6459SOL    HW131013   3.707   0.905   7.323 -1.3292  0.1842 -0.8221
 6459SOL    HW231014   3.598   0.987   7.369 -0.4801 -0.1766 -0.1298
 6460SOL     OW31015   4.192   1.651   8.199 -0.1156 -0.2035 -0.5031
 6460SOL    HW131016   4.232   1.574   8.240  2.2133  0.5787 -1.3371
 6460SOL    HW231017   4.105   1.628   8.165 -0.8796  0.8684  0.7320
 6461SOL     OW31018   4.596   0.534   4.591 -0.1964 -0.2727  0.2089
 6461SOL    HW131019   4.532   0.519   4.661 -0.2375 -0.2264  0.1811
 6461SOL    HW231020   4.539   0.584   4.533 -1.9000 -1.3319  0.9550
 6462SOL     OW31021   0.951   2.262   7.218 -0.4435  0.4291 -0.3005
 6462SOL    HW131022   1.030   2.261   7.273  0.1846 -1.6582 -1.2652
 6462SOL    HW231023   0.891   2.261   7.293  0.9392  0.6381  0.8134
 6463SOL     OW31024   2.867   2.379   4.014 -0.1578 -0.3078  0.1053
 6463SOL    HW131025   2.823   2.364   4.098  0.1322 -1.1410  0.1090
 6463SOL    HW231026   2.950   2.331   4.019 -0.0092 -0.0324  0.2686
 6464SOL     OW31027   3.360   2.592  11.498 -0.3800  0.8528 -0.1427
 6464SOL    HW131028   3.279   2.630  11.465 -1.6524 -2.4663 -0.8953
 6464SOL    HW231029   3.427   2.650  11.462  0.1451  0.2434 -0.1649
 6465SOL     OW31030   3.390   2.195   4.360  0.0541  0.0978 -0.7055
 6465SOL    HW131031   3.313   2.148   4.390  0.1395  1.5395  1.8288
 6465SOL    HW231032   3.437   2.133   4.304  1.1179 -0.6516  1.0100
 6466SOL     OW31033   2.408   1.825   1.846  0.0765 -0.1193 -0.3935
 6466SOL    HW131034   2.367   1.797   1.928  2.1368  0.6606  0.8834
 6466SOL    HW231035   2.343   1.889   1.816 -0.0454 -0.7757 -1.5545
 6467SOL     OW31036   0.560   1.176   3.580 -0.2861 -0.0676  1.0032
 6467SOL    HW131037   0.496   1.245   3.568 -0.0270  0.4107  2.3438
 6467SOL    HW231038   0.575   1.145   3.491 -2.0902  0.4669  0.5086
 6468SOL     OW31039   4.612   1.675   0.662 -0.8875  0.1638  0.1985
 6468SOL    HW131040   4.621   1.589   0.701  0.3730 -0.0701 -0.6042
 6468SOL    HW231041   4.598   1.738   0.732  1.4783  1.7670 -0.7769
 6469SOL     OW31042   1.401   4.386  14.673 -0.6030  0.2293 -0.5618
 6469SOL    HW131043   1.335   4.434  14.724 -1.8573 -2.4054  0.3097
 6469SOL    HW231044   1.382   4.434  14.592  2.3990  1.2627 -0.6344
 6470SOL     OW31045   2.038   2.568   0.677 -0.1134  0.2721 -0.3500
 6470SOL    HW131046   1.958   2.619   0.688 -2.0323 -2.8761  0.3654
 6470SOL    HW231047   2.086   2.582   0.758  0.0775  0.1263 -0.4380
 6471SOL     OW31048   0.497   1.017  17.699  0.2655 -0.6205 -0.2948
 6471SOL    HW131049   0.414   0.975  17.723  0.1586  0.2715  0.8731
 6471SOL    HW231050   0.514   1.071   0.026  2.3201 -0.1690 -1.0694
 6472SOL     OW31051   3.009   4.063   6.001  0.0603 -0.3276  0.2740
 6472SOL    HW131052   3.001   4.142   5.947  0.6096 -1.3524 -1.3099
 6472SOL    HW231053   2.986   4.095   6.089 -0.8692 -1.0884  0.3093
 6473SOL     OW31054   0.288   1.121  14.498 -0.4292  0.0858 -0.2388
 6473SOL    HW131055   0.220   1.136  14.434  0.1401 -0.1292 -0.8911
 6473SOL    HW231056   0.267   1.192  14.559 -0.5931 -0.1252 -0.0491
 6474SOL     OW31057   1.210   0.383   8.221 -0.3716 -0.1903  0.3989
 6474SOL    HW131058   1.175   0.353   8.137  0.4890 -1.5156  0.5188
 6474SOL    HW231059   1.235   0.299   8.260 -3.7248 -1.6182 -0.5805
 6475SOL     OW31060   3.674   4.391   9.515  0.2488 -0.1998 -0.5583
 6475SOL    HW131061   3.731   4.319   9.542 -0.6269 -0.3549  0.8524
 6475SOL    HW231062   3.617   4.340   9.457 -0.3975 -1.9961  1.6393
 6476SOL     OW31063   3.161   3.425   5.679 -0.7721  0.3237  0.0019
 6476SOL    HW131064   3.103   3.370   5.732  0.0372 -1.7388 -1.2191
 6476SOL    HW231065   3.206   3.475   5.746  1.7361 -2.2395  0.2494
 6477SOL     OW31066   3.372   2.249   3.752 -0.1674  0.3884 -0.0183
 6477SOL    HW131067   3.286   2.208   3.759 -0.4075  0.6937 -1.2941
 6477SOL    HW231068   3.354   2.328   3.803 -0.9990  0.3315 -0.2320
 6478SOL     OW31069   1.445   2.799   6.422  0.2694  0.7046  0.3707
 6478SOL    HW131070   1.495   2.828   6.498  2.3821 -0.2305 -0.6424
 6478SOL    HW231071   1.504   2.833   6.354  0.8704  3.0883  2.0881
 6479SOL     OW31072   1.435   1.145  13.848 -0.6937  0.1429 -1.0944
 6479SOL    HW131073   1.497   1.203  13.893 -1.3516 -1.3533  1.7053
 6479SOL    HW231074   1.495   1.113  13.780 -0.1850 -1.8666  0.3183
 6480SOL     OW31075   1.386   3.795   2.568 -0.3628  0.8965  0.0528
 6480SOL    HW131076   1.321   3.793   2.639 -2.0022 -0.7298 -1.4929
 6480SOL    HW231077   1.426   3.708   2.573  1.1355  1.7268  2.3007
 6481SOL     OW31078   1.175   4.652   6.757 -0.9210  0.5783  0.5693
 6481SOL    HW131079   1.177   4.635   6.851  2.4677  0.6989  0.5318
 6481SOL    HW231080   1.085   4.681   6.771 -1.0053  0.4228  0.3390
 6482SOL     OW31081   2.112   4.127   6.011  0.0896 -0.6176 -0.3563
 6482SOL    HW131082   2.189   4.073   5.997  0.8150 -0.1693  1.9695
 6482SOL    HW231083   2.050   4.115   5.938  1.1738  1.3000 -1.5996
 6483SOL     OW31084   1.015   0.458  15.277  0.6382 -0.1393  0.1253
 6483SOL    HW131085   0.959   0.472  15.353 -1.2413  2.4949 -1.7380
 6483SOL    HW231086   1.077   0.531  15.276 -0.8111  1.1242  1.6016
 6484SOL     OW31087   1.766   1.094  10.080 -0.5077  0.0110  0.1550
 6484SOL    HW131088   1.778   1.159  10.150  0.7629  0.3907 -0.4258
 6484SOL    HW231089   1.700   1.134  10.024  2.7879  2.2200 -2.1662
 6485SOL     OW31090   4.048   4.694   2.832  0.0481 -0.2044  0.3232
 6485SOL    HW131091   4.098   0.035   2.853  0.0697  0.0172 -0.5543
 6485SOL    HW231092   4.081   4.674   2.744  3.0424 -0.3650  1.4758
 6486SOL     OW31093   2.388   4.519   2.364 -0.3164 -0.1930 -0.0347
 6486SOL    HW131094   2.475   4.485   2.386 -1.1065 -2.1377  0.0343
 6486SOL    HW231095   2.344   4.516   2.449  0.5005 -0.5194  0.3787
 6487SOL     OW31096   3.988   0.567  12.999  0.0846 -0.0789  0.1042
 6487SOL    HW131097   4.081   0.557  13.019  0.4278 -0.9086 -1.9401
 6487SOL    HW231098   3.958   0.477  13.005  0.3728 -0.1046  1.3360
 6488SOL     OW31099   3.608   3.323   9.275  0.2622  0.6041  0.4568
 6488SOL    HW131100   3.560   3.319   9.193  1.3103 -0.7309 -0.0975
 6488SOL    HW231101   3.638   3.232   9.271 -0.4479  0.5076 -2.6374
 6489SOL     OW31102   0.931   1.423   5.598  0.1860  0.5311  0.6790
 6489SOL    HW131103   0.871   1.430   5.673 -0.5799  0.1253  0.1147
 6489SOL    HW231104   0.863   1.426   5.530  0.5036 -1.1882  0.2807
 6490SOL     OW31105   1.077   2.475   5.229  0.2786  0.0187 -0.3462
 6490SOL    HW131106   1.007   2.431   5.181  1.0948 -3.1781  1.4236
 6490SOL    HW231107   1.129   2.398   5.252  0.9954  0.8165  0.7053
 6491SOL     OW31108   4.452   0.095   1.023  0.8325  0.2782  0.8569
 6491SOL    HW131109   4.530   0.148   1.042  0.5767  0.6057  0.9810
 6491SOL    HW231110   4.405   0.097   1.106  0.0101  0.1836  0.3896
 6492SOL     OW31111   0.821   0.516   6.680 -0.4065 -0.0805  0.1738
 6492SOL    HW131112   0.830   0.550   6.769  0.3933 -1.0110  0.4549
 6492SOL    HW231113   0.726   0.507   6.676 -0.3391 -0.7680  0.1539
 6493SOL     OW31114   3.228   2.376   9.925 -0.0262 -0.3516 -0.4731
 6493SOL    HW131115   3.308   2.427   9.930 -0.9904  1.1510 -0.4175
 6493SOL    HW231116   3.170   2.449   9.902 -0.7083 -0.3088  1.4603
 6494SOL     OW31117   1.576   4.247   7.121 -0.1490  0.2000  0.4720
 6494SOL    HW131118   1.483   4.260   7.140 -0.7740 -1.1948 -1.6975
 6494SOL    HW231119   1.576   4.295   7.038  2.5404 -2.2056 -0.9088
 6495SOL     OW31120   1.798   4.017   9.871 -0.2821 -0.0633 -0.8159
 6495SOL    HW131121   1.705   4.027   9.892 -0.5765 -0.5530 -1.8690
 6495SOL    HW231122   1.807   4.047   9.780  2.5814  2.2026  0.2095
 6496SOL     OW31123   0.345   1.082  10.260  0.3096  0.5561  0.5512
 6496SOL    HW131124   0.288   1.117  10.328 -3.6908 -2.7879 -1.1246
 6496SOL    HW231125   0.416   1.147  10.261 -1.2225  2.2144  0.7732
 6497SOL     OW31126   0.846   1.978   0.820 -0.0631  0.3999 -0.0669
 6497SOL    HW131127   0.766   2.013   0.860  0.3092 -0.4322  1.4280
 6497SOL    HW231128   0.891   2.052   0.779  2.2698  0.2111  2.1424
 6498SOL     OW31129   2.681   3.810   2.822 -0.4252  0.1299  0.9520
 6498SOL    HW131130   2.737   3.830   2.897  0.9402  1.5223 -0.4174
 6498SOL    HW231131   2.647   3.726   2.852  1.5155 -0.9265  0.2187
 6499SOL     OW31132   3.055   1.041   8.650  0.0812 -0.3771  0.2161
 6499SOL    HW131133   3.019   1.106   8.711  1.0012 -1.5418  1.9916
 6499SOL    HW231134   3.131   1.008   8.698 -0.8846 -0.7623  1.4574
 6500SOL     OW31135   4.001   3.878   9.197  0.1791  0.4458 -0.3728
 6500SOL    HW131136   4.016   3.958   9.248  3.3129  0.4798 -1.3665
 6500SOL    HW231137   3.939   3.840   9.260  0.6985 -1.1596 -0.8441
 6501SOL     OW31138   1.744   0.003   8.872 -0.6070  0.0674 -0.1552
 6501SOL    HW131139   1.764   4.717   8.781  0.4828 -2.0452  0.6249
 6501SOL    HW231140   1.832   4.734   8.910 -0.2976  1.1073 -0.6841
 6502SOL     OW31141   4.122   4.673  10.448  0.1444 -0.5419  0.2225
 6502SOL    HW131142   4.107   4.598  10.391  3.1022  0.1391 -1.4604
 6502SOL    HW231143   4.045   4.675  10.505  1.1775 -3.1437  1.7051
 6503SOL     OW31144   1.955   3.592  16.777 -0.1091  0.4813 -0.2778
 6503SOL    HW131145   2.022   3.525  16.787  0.4650  0.7559 -2.2587
 6503SOL    HW231146   1.941   3.613  16.869  3.8490  2.8227 -0.2456
 6504SOL     OW31147   2.695   2.952   4.881 -0.0618 -0.2910 -0.3093
 6504SOL    HW131148   2.682   3.045   4.901  0.4954  0.0705 -1.5933
 6504SOL    HW231149   2.694   2.951   4.785  2.3115 -2.8342 -0.3279
 6505SOL     OW31150   4.109   3.623   3.269  0.0126  0.3451 -0.3102
 6505SOL    HW131151   4.158   3.680   3.328  1.4629 -1.4900  0.2685
 6505SOL    HW231152   4.167   3.547   3.261  0.1842  0.3287  1.1376
 6506SOL     OW31153   0.696   1.343   9.994 -0.1016 -0.0621 -0.5271
 6506SOL    HW131154   0.700   1.354   9.899  0.4088  1.7070 -0.2978
 6506SOL    HW231155   0.737   1.425  10.020 -1.8022  0.2224  1.2621
 6507SOL     OW31156   3.264   4.444   5.640 -0.1682  0.4553  0.5608
 6507SOL    HW131157   3.216   4.397   5.572 -0.8818  1.2576  0.5085
 6507SOL    HW231158   3.267   4.369   5.699  2.9809  0.0500 -0.1389
 6508SOL     OW31159   1.754   3.758  10.559 -0.0780 -0.0695  0.2622
 6508SOL    HW131160   1.836   3.768  10.608 -0.1671 -1.4365  0.7079
 6508SOL    HW231161   1.796   3.748  10.474  2.6566 -0.0089  1.5886
 6509SOL     OW31162   1.476   0.297   3.919  0.3107  0.2102 -0.2243
 6509SOL    HW131163   1.542   0.228   3.924 -1.0490 -1.1906 -1.3745
 6509SOL    HW231164   1.437   0.262   3.839 -2.3165  0.5260  0.8792
 6510SOL     OW31165   0.593   2.634   0.191 -0.2830  0.3361 -0.1314
 6510SOL    HW131166   0.570   2.696   0.121 -0.9152  0.8871  0.5707
 6510SOL    HW231167   0.605   2.700   0.258 -0.1869  0.1204  0.0625
 6511SOL     OW31168   0.511   2.889   5.565  0.3345 -0.0455 -0.0661
 6511SOL    HW131169   0.557   2.806   5.551  1.4714  0.7921 -1.2316
 6511SOL    HW231170   0.449   2.884   5.492  2.1956 -1.4205 -1.5298
 6512SOL     OW31171   3.201   0.867   9.864 -0.5448 -0.2611 -0.0728
 6512SOL    HW131172   3.173   0.917   9.787 -1.6294  3.0736  2.5011
 6512SOL    HW231173   3.246   0.942   9.902 -1.0276 -0.3959  0.7533
 6513SOL     OW31174   0.702   1.400  12.795  0.0200 -0.5772  0.1151
 6513SOL    HW131175   0.693   1.342  12.871 -1.1612 -0.3024  0.1951
 6513SOL    HW231176   0.746   1.476  12.832 -0.6634  0.1121 -0.4911
 6514SOL     OW31177   1.266   1.522  14.825  0.2832  0.3049 -0.0847
 6514SOL    HW131178   1.311   1.575  14.760  0.3612  1.4177  0.8699
 6514SOL    HW231179   1.265   1.431  14.795 -0.5310 -1.2407  4.5898
 6515SOL     OW31180   1.606   0.939   6.018  0.3813 -0.3441  0.8242
 6515SOL    HW131181   1.694   0.952   6.055 -0.6527  0.3050  3.1044
 6515SOL    HW231182   1.550   0.888   6.077  1.4688 -0.2624  1.9432
 6516SOL     OW31183   3.421   3.023   4.189  0.2746 -0.0993  0.3349
 6516SOL    HW131184   3.492   3.071   4.147 -2.8922  1.5794 -3.0407
 6516SOL    HW231185   3.362   3.003   4.117  2.0317 -0.2167 -1.0544
 6517SOL     OW31186   0.034   3.816   6.030 -0.4900 -0.2620 -0.3350
 6517SOL    HW131187   4.706   3.793   5.964  0.3585 -1.8531 -0.6485
 6517SOL    HW231188   0.006   3.907   6.031 -1.4695 -0.5544 -0.8479
 6518SOL     OW31189   4.649   0.294   4.936  0.4018  0.0344  0.3070
 6518SOL    HW131190   4.680   0.258   4.853  0.5640  0.5324  0.1466
 6518SOL    HW231191   4.707   0.257   5.002  1.1795 -0.4463 -0.6536
 6519SOL     OW31192   4.645   1.120   7.652  0.3203  0.3621 -0.3000
 6519SOL    HW131193   4.567   1.146   7.701  0.3513  0.3226 -0.2301
 6519SOL    HW231194   4.690   1.204   7.647  0.7102  0.2060  0.6297
 6520SOL     OW31195   3.801   2.033   5.353  0.4520 -0.2811 -0.2224
 6520SOL    HW131196   3.780   1.970   5.421 -1.1994  1.1952  0.6355
 6520SOL    HW231197   3.743   1.998   5.286 -0.2867  0.5081  0.0037
 6521SOL     OW31198   1.306   3.463  13.480 -0.2226 -0.3547  0.6317
 6521SOL    HW131199   1.261   3.380  13.499 -0.0094 -0.6680 -0.1872
 6521SOL    HW231200   1.329   3.449  13.388 -0.5395 -3.1025  0.9712
 6522SOL     OW31201   1.512   1.985   7.916 -0.1219  0.0948 -0.2947
 6522SOL    HW131202   1.594   1.964   7.872 -0.6661 -1.7332 -0.4284
 6522SOL    HW231203   1.474   2.039   7.847 -0.1253 -1.2010 -1.3125
 6523SOL     OW31204   2.014   0.721  13.239 -0.1408 -0.1156  0.0842
 6523SOL    HW131205   1.998   0.712  13.333  1.3425 -2.8367  0.1113
 6523SOL    HW231206   2.062   0.638  13.233 -0.4032 -0.3428  1.0425
 6524SOL     OW31207   3.728   2.564  14.583 -0.6434  0.5708  0.1988
 6524SOL    HW131208   3.747   2.654  14.557 -0.1062  0.7779  1.3302
 6524SOL    HW231209   3.692   2.574  14.671 -0.9915  1.6226 -0.0712
 6525SOL     OW31210   0.785   0.794   8.120  0.1843 -0.1018  0.2728
 6525SOL    HW131211   0.712   0.846   8.154 -0.4700  0.4402 -1.9640
 6525SOL    HW231212   0.775   0.817   8.028  1.2000  1.1758  0.4819
 6526SOL     OW31213   0.021   4.326   4.804  0.0383 -0.3345  0.0234
 6526SOL    HW131214   0.015   4.300   4.712 -1.5325 -2.3964  0.7016
 6526SOL    HW231215   0.113   4.311   4.824 -0.2074  1.3636  2.3688
 6527SOL     OW31216   0.360   2.707   8.450  0.1732 -0.2020  0.3003
 6527SOL    HW131217   0.446   2.708   8.493  0.9508  0.3316 -1.2626
 6527SOL    HW231218   0.304   2.694   8.526 -2.0527  1.8130 -0.9768
 6528SOL     OW31219   4.378   3.307   3.590 -1.0570  0.2561 -0.4777
 6528SOL    HW131220   4.345   3.390   3.556  0.4659  0.2893 -1.8990
 6528SOL    HW231221   4.385   3.267   3.503 -2.5932 -0.4078 -0.3032
 6529SOL     OW31222   0.661   3.293   3.453  1.0813  0.5071 -0.0138
 6529SOL    HW131223   0.586   3.348   3.431  0.7735 -0.3967 -1.2078
 6529SOL    HW231224   0.678   3.244   3.372  0.0713  0.3666 -0.1393
 6530SOL     OW31225   1.618   4.655   8.429  0.2777 -0.5328  0.1204
 6530SOL    HW131226   1.703   4.681   8.463 -0.0833 -0.2276  0.7856
 6530SOL    HW231227   1.625   4.583   8.367 -1.1974  0.2442 -0.9525
 6531SOL     OW31228   3.989   0.454   5.224 -0.2722  0.5920  0.0639
 6531SOL    HW131229   3.945   0.374   5.251 -0.3061  0.8007  0.6223
 6531SOL    HW231230   3.995   0.508   5.303  1.4789  1.1401 -0.4210
 6532SOL     OW31231   0.202   0.343   4.172  0.4939  0.5592  0.0352
 6532SOL    HW131232   0.278   0.400   4.160  2.2621 -1.1405  2.9824
 6532SOL    HW231233   0.161   0.386   4.247 -0.2234 -0.3891  0.1834
 6533SOL     OW31234   4.297   1.775   5.451  0.3347  0.0064 -0.5975
 6533SOL    HW131235   4.207   1.805   5.436 -0.6914 -2.3680  0.6578
 6533SOL    HW231236   4.313   1.782   5.545  0.8588 -1.1717 -0.5942
 6534SOL     OW31237   0.095   3.298   7.711  0.0640  0.2473  0.4602
 6534SOL    HW131238   0.119   3.212   7.745 -1.2062  0.1972  1.2129
 6534SOL    HW231239   0.161   3.356   7.749  0.6211 -1.1965  1.6990
 6535SOL     OW31240   3.834   4.532   9.080 -0.4177 -0.1841  0.0851
 6535SOL    HW131241   3.778   4.551   9.155  1.7237  1.7766  1.2115
 6535SOL    HW231242   3.883   4.452   9.100 -0.1513  0.8910  3.7007
 6536SOL     OW31243   1.934   2.842   8.590 -0.3984 -0.1477 -0.0138
 6536SOL    HW131244   1.950   2.864   8.499 -1.8750 -0.4581 -0.3537
 6536SOL    HW231245   1.992   2.898   8.641  0.5352 -0.0742 -1.1820
 6537SOL     OW31246   0.443   2.628  17.488  0.2477 -0.3622 -0.5184
 6537SOL    HW131247   0.459   2.538  17.516  1.5062  0.3705  1.1486
 6537SOL    HW231248   0.351   2.633  17.462  0.2850 -0.2402 -0.6289
 6538SOL     OW31249   0.541   3.804   4.764 -0.5673 -0.3068  0.3913
 6538SOL    HW131250   0.478   3.743   4.726 -1.0971 -0.0453  0.8572
 6538SOL    HW231251   0.487   3.882   4.765  0.6693  0.6323 -4.0248
 6539SOL     OW31252   0.938   1.259   0.000 -0.6521 -0.1924  0.4122
 6539SOL    HW131253   0.947   1.233   0.092 -2.9493  1.9685  1.2578
 6539SOL    HW231254   1.023   1.264  17.707 -0.0573  0.3099  1.6547
 6540SOL     OW31255   1.828   3.274   2.717  0.0732 -0.3767  0.6406
 6540SOL    HW131256   1.762   3.213   2.750  2.3798 -2.7505  0.8885
 6540SOL    HW231257   1.812   3.268   2.623  1.7240 -0.6635  0.3749
 6541SOL     OW31258   2.284   1.924   2.990 -0.2225  0.3439  0.1891
 6541SOL    HW131259   2.337   1.985   3.042 -1.1678  2.5113 -1.3782
 6541SOL    HW231260   2.198   1.932   3.033 -0.7341 -0.2660 -0.7159
 6542SOL     OW31261   0.465   3.528   3.811  0.2269  0.2389 -0.8468
 6542SOL    HW131262   0.555   3.500   3.826  0.1531  0.2146 -0.4335
 6542SOL    HW231263   0.448   3.560   3.900 -1.0367  1.8497 -1.6729
 6543SOL     OW31264   2.452   1.373   4.215 -0.6749 -0.3824 -0.2279
 6543SOL    HW131265   2.482   1.454   4.175 -0.6896 -0.0918  0.3536
 6543SOL    HW231266   2.408   1.396   4.297  2.2768 -0.4363  1.3732
 6544SOL     OW31267   2.537   0.177   8.050  0.3276  0.2495 -0.3404
 6544SOL    HW131268   2.558   0.086   8.028  2.0507  0.1310  1.7011
 6544SOL    HW231269   2.554   0.167   8.144  1.6891 -3.7299 -1.0108
 6545SOL     OW31270   2.577   3.972   3.299 -0.0613 -0.2912  0.3609
 6545SOL    HW131271   2.627   4.046   3.265  2.1486 -2.9087 -2.1580
 6545SOL    HW231272   2.500   3.992   3.245  0.1176  1.0354  0.5961
 6546SOL     OW31273   3.717   4.689   3.863  0.2289  0.3017  0.7466
 6546SOL    HW131274   3.720   4.620   3.930 -0.0953  0.0529  0.5094
 6546SOL    HW231275   3.762   0.018   3.914  1.8696  0.1899 -0.5372
 6547SOL     OW31276   2.976   4.314   7.271 -0.3175 -0.0088  0.1082
 6547SOL    HW131277   2.998   4.254   7.199  0.9729  1.6715 -0.8906
 6547SOL    HW231278   3.012   4.394   7.233  2.0380 -1.2677 -0.2893
 6548SOL     OW31279   2.537   3.583   8.088 -0.0613  0.1950 -0.0784
 6548SOL    HW131280   2.502   3.574   8.000  2.4781  0.3294 -1.0962
 6548SOL    HW231281   2.504   3.504   8.132 -1.9499  1.0282  0.0126
 6549SOL     OW31282   1.684   2.832   7.470  0.0015 -0.0777  0.1752
 6549SOL    HW131283   1.670   2.926   7.472 -1.0411 -0.2329  0.1470
 6549SOL    HW231284   1.629   2.808   7.396 -1.3414  2.0252  0.4917
 6550SOL     OW31285   3.677   0.843   3.777  0.4142  0.4893 -0.0649
 6550SOL    HW131286   3.723   0.913   3.823  0.0438  1.3740 -1.0443
 6550SOL    HW231287   3.686   0.776   3.844 -0.5838 -0.0557 -0.4715
 6551SOL     OW31288   2.797   3.233   7.746  0.1013  0.0832 -0.3069
 6551SOL    HW131289   2.782   3.257   7.837 -2.1051 -0.7924 -0.4289
 6551SOL    HW231290   2.884   3.199   7.764 -0.1602  0.2366  1.2927
 6552SOL     OW31291   2.259   2.373  11.609 -0.2229  0.3959  0.6985
 6552SOL    HW131292   2.164   2.368  11.618 -0.3636 -1.2738 -1.4814
 6552SOL    HW231293   2.281   2.358  11.700 -0.3597 -0.9463  0.5162
 6553SOL     OW31294   2.736   4.266   3.158 -0.1319  0.2055 -0.0573
 6553SOL    HW131295   2.693   4.299   3.238 -0.1530 -0.6647  0.2875
 6553SOL    HW231296   2.814   4.225   3.194  0.5914  0.9181 -0.8306
 6554SOL     OW31297   0.037   3.133  13.542  0.1383  0.1882 -0.2088
 6554SOL    HW131298   4.722   3.066  13.587  2.2780  0.6234  2.9091
 6554SOL    HW231299   4.736   3.124  13.455 -1.5236 -2.3503  0.7853
 6555SOL     OW31300   1.787   2.556   7.973  0.4829 -0.5555  0.0458
 6555SOL    HW131301   1.788   2.625   7.906 -2.2416 -1.3769 -0.8278
 6555SOL    HW231302   1.818   2.602   8.051 -0.6500  0.1979  0.0496
 6556SOL     OW31303   4.304   0.908  13.720  0.0998  0.1205 -0.4389
 6556SOL    HW131304   4.389   0.944  13.745 -0.8076  1.9571  0.0084
 6556SOL    HW231305   4.271   0.857  13.794  2.0563  0.0217  0.3655
 6557SOL     OW31306   0.551   4.006   7.840  0.1302 -0.4562 -0.4732
 6557SOL    HW131307   0.467   3.964   7.820 -0.5608 -0.0610  1.5980
 6557SOL    HW231308   0.609   3.940   7.803  1.2965 -0.3166  1.0870
 6558SOL     OW31309   4.012   0.787   8.506  0.6984 -0.0544 -0.2546
 6558SOL    HW131310   3.927   0.743   8.514 -1.3216  3.4614 -2.0413
 6558SOL    HW231311   4.068   0.722   8.547  0.4968 -0.7388 -1.0642
 6559SOL     OW31312   3.172   1.786   9.843  0.1462  0.5572 -0.6984
 6559SOL    HW131313   3.246   1.813   9.897 -2.4667  2.1614  2.0442
 6559SOL    HW231314   3.219   1.714   9.801 -2.4270 -0.8084 -1.2449
 6560SOL     OW31315   0.751   4.192   4.610  0.1881  0.4677  0.5952
 6560SOL    HW131316   0.770   4.107   4.651 -0.8703 -0.4189 -0.7383
 6560SOL    HW231317   0.799   4.245   4.673 -0.9795  0.5770  1.4046
 6561SOL     OW31318   1.242   4.545   7.768  0.8771 -0.2522  0.1851
 6561SOL    HW131319   1.163   4.600   7.772  0.0483 -1.2850 -1.9002
 6561SOL    HW231320   1.304   4.557   7.840  0.0917  1.5286  0.5535
 6562SOL     OW31321   4.688   1.327   8.784 -0.2629 -0.4795 -0.5271
 6562SOL    HW131322   4.635   1.394   8.828  2.4444  3.1666 -2.7266
 6562SOL    HW231323   4.645   1.242   8.785  0.1067 -0.6444  2.1229
 6563SOL     OW31324   2.468   2.067   9.175 -0.0921  0.5937 -0.0183
 6563SOL    HW131325   2.469   1.975   9.149 -0.6144  0.4679  0.4173
 6563SOL    HW231326   2.488   2.058   9.268  0.8042 -0.5140 -0.3169
 6564SOL     OW31327   4.426   1.598   4.613 -0.4809  0.2828 -0.0837
 6564SOL    HW131328   4.419   1.693   4.599 -0.0598  0.4808  1.0563
 6564SOL    HW231329   4.362   1.565   4.550  0.3776 -1.1560 -0.1953
 6565SOL     OW31330   4.397   2.149   0.308  0.2084  0.3854 -0.5679
 6565SOL    HW131331   4.400   2.231   0.259 -2.0876  0.7210 -0.1488
 6565SOL    HW231332   4.404   2.177   0.400 -1.0189 -0.3334 -0.2554
 6566SOL     OW31333   4.172   0.141  15.358  0.2384  0.5977  0.5545
 6566SOL    HW131334   4.153   0.048  15.343 -0.8424  1.1872 -1.7464
 6566SOL    HW231335   4.227   0.167  15.284  0.3962 -0.4851  0.2877
 6567SOL     OW31336   2.582   1.310   7.489  0.8562  0.5218 -0.4500
 6567SOL    HW131337   2.501   1.298   7.439 -0.6273  0.8552  1.8418
 6567SOL    HW231338   2.635   1.338   7.414 -0.6306 -0.5979 -1.9183
 6568SOL     OW31339   3.761   0.293   9.078  0.0105 -0.3831 -0.3663
 6568SOL    HW131340   3.801   0.250   9.154  0.1606  0.0173 -0.2176
 6568SOL    HW231341   3.690   0.347   9.112 -0.0867 -1.5191  1.2430
 6569SOL     OW31342   3.509   1.760   7.991  0.4882  0.1190 -0.1509
 6569SOL    HW131343   3.576   1.692   7.996  2.7017  2.4181  1.5301
 6569SOL    HW231344   3.440   1.712   8.039  2.9177 -4.0842 -0.8688
 6570SOL     OW31345   1.311   0.494   3.959  0.7340  0.6999 -0.1626
 6570SOL    HW131346   1.376   0.432   3.925 -4.0641 -2.6367 -3.2408
 6570SOL    HW231347   1.359   0.532   4.032 -1.5195  0.5606  1.3858
 6571SOL     OW31348   2.322   1.608  13.436  0.0016  0.4500  0.2342
 6571SOL    HW131349   2.234   1.644  13.443 -1.4075 -2.8213 -0.5508
 6571SOL    HW231350   2.309   1.513  13.439  1.2282  0.3632  2.4764
 6572SOL     OW31351   3.040   1.737   7.418 -0.2945  0.0658 -0.4987
 6572SOL    HW131352   3.005   1.775   7.499  0.8680 -1.8819  0.8974
 6572SOL    HW231353   3.115   1.695   7.459  1.0271  1.8157 -1.1469
 6573SOL     OW31354   0.096   1.439   0.910 -0.5725  0.0833  0.2389
 6573SOL    HW131355   0.154   1.464   0.839 -2.4139  2.4035 -0.4495
 6573SOL    HW231356   0.029   1.399   0.854 -0.9357 -0.4729  1.0578
 6574SOL     OW31357   3.005   0.631   6.234  0.5540 -0.2640  0.2947
 6574SOL    HW131358   3.066   0.570   6.192 -0.0985 -1.9743  1.8097
 6574SOL    HW231359   2.925   0.614   6.185  1.0107 -1.8116  0.0762
 6575SOL     OW31360   2.720   4.538   9.176  0.6196  0.1378  0.3398
 6575SOL    HW131361   2.642   4.589   9.198  0.7430 -1.0730  3.6640
 6575SOL    HW231362   2.686   4.479   9.109 -0.6048  0.9848  0.2072
 6576SOL     OW31363   0.644   3.333   1.048  0.5875  0.2346 -0.0595
 6576SOL    HW131364   0.694   3.302   1.124  1.5587 -0.3118 -0.9224
 6576SOL    HW231365   0.675   3.281   0.974  0.8497  1.1335 -0.5828
 6577SOL     OW31366   0.859   1.508   0.653 -0.1097 -0.1317  0.5735
 6577SOL    HW131367   0.809   1.509   0.572 -0.6090  2.0449  0.9121
 6577SOL    HW231368   0.933   1.457   0.622 -0.7403 -2.2497  2.5301
 6578SOL     OW31369   3.675   0.967   6.287 -0.0885  0.2264  0.1568
 6578SOL    HW131370   3.767   0.978   6.309 -0.2182 -1.3897  1.5115
 6578SOL    HW231371   3.637   1.039   6.338  1.0179 -0.3975  1.8544
 6579SOL     OW31372   2.609   1.020   2.957 -0.3762 -0.0531  0.3505
 6579SOL    HW131373   2.600   1.010   2.863 -2.0932 -2.8718  0.8274
 6579SOL    HW231374   2.524   0.986   2.983  0.0745 -0.9698  0.6418
 6580SOL     OW31375   3.696   4.605   9.335  0.1186 -0.6980  0.3400
 6580SOL    HW131376   3.616   4.657   9.344  2.0776  1.7880  3.5019
 6580SOL    HW231377   3.673   4.526   9.384 -1.0562 -0.4977  0.1011
 6581SOL     OW31378   0.829   3.930  13.149 -0.2108  0.3638  0.4895
 6581SOL    HW131379   0.813   4.001  13.211  0.9573 -0.8679  2.2099
 6581SOL    HW231380   0.804   3.856  13.205  2.6126 -0.3337  0.8004
 6582SOL     OW31381   3.524   1.041   4.926 -0.2706 -0.2389 -0.3236
 6582SOL    HW131382   3.519   0.947   4.908  1.4228 -0.2151 -0.9274
 6582SOL    HW231383   3.429   1.057   4.930 -0.0288  1.2630 -0.3225
 6583SOL     OW31384   4.690   0.554   7.346  0.2227 -0.2495  0.2372
 6583SOL    HW131385   0.004   0.474   7.337  1.8540  0.6837  1.3439
 6583SOL    HW231386   0.005   0.600   7.411 -0.4340  1.7530 -0.6609
 6584SOL     OW31387   2.964   2.813  12.388 -0.2457 -0.2065  0.4125
 6584SOL    HW131388   3.026   2.752  12.428  1.5846 -0.8557 -3.3836
 6584SOL    HW231389   2.902   2.834  12.458  0.8677  0.6150  1.1374
 6585SOL     OW31390   2.452   1.804   6.130 -0.3680  0.3746  0.2279
 6585SOL    HW131391   2.361   1.807   6.159  0.0267  1.2858  1.3715
 6585SOL    HW231392   2.453   1.722   6.080  0.1236  0.6676 -0.2441
 6586SOL     OW31393   2.698   0.965   8.751  0.6249 -0.3523  0.4543
 6586SOL    HW131394   2.731   0.887   8.796 -2.9475 -1.9634  0.2855
 6586SOL    HW231395   2.625   0.976   8.811  0.1840 -0.8223  0.0139
 6587SOL     OW31396   1.164   3.894   6.039 -0.0926 -0.3966  0.0064
 6587SOL    HW131397   1.174   3.800   6.030  0.3427 -0.1616 -1.8847
 6587SOL    HW231398   1.248   3.936   6.019 -0.4081  0.1347 -0.2134
 6588SOL     OW31399   0.821   3.710  15.540  0.2046  0.2681 -0.5655
 6588SOL    HW131400   0.795   3.704  15.448 -0.4631 -1.6164 -0.2610
 6588SOL    HW231401   0.819   3.805  15.551  2.5879  0.1962  0.6125
 6589SOL     OW31402   2.016   3.796   6.659  0.1936 -0.5436 -0.1862
 6589SOL    HW131403   2.108   3.769   6.662 -0.2053 -1.8654  0.1393
 6589SOL    HW231404   2.019   3.888   6.683 -1.3664 -0.4702 -0.2780
 6590SOL     OW31405   3.878   0.154   3.970  0.4440  0.4384 -0.0903
 6590SOL    HW131406   3.857   0.131   4.060 -0.4579 -0.1257 -0.4448
 6590SOL    HW231407   3.954   0.102   3.944 -1.7725 -1.9361 -1.7360
 6591SOL     OW31408   2.597   1.232  15.201 -0.6018  0.0144 -0.6224
 6591SOL    HW131409   2.507   1.210  15.177 -0.5153 -0.4046 -0.5675
 6591SOL    HW231410   2.597   1.238  15.296  0.3487 -0.2251 -0.6163
 6592SOL     OW31411   1.160   0.097  14.945 -0.5056 -0.5351 -0.0260
 6592SOL    HW131412   1.104   0.140  15.010 -2.6563 -1.4377 -1.2787
 6592SOL    HW231413   1.232   0.159  14.951 -1.1377  0.2253 -0.2433
 6593SOL     OW31414   3.680   4.658  11.584 -0.2614 -0.0353 -0.1208
 6593SOL    HW131415   3.597   4.674  11.628 -1.4020 -3.0584 -1.1553
 6593SOL    HW231416   3.657   4.687  11.495 -1.3711  2.1934  0.8983
 6594SOL     OW31417   3.221   4.538   3.651 -0.0515  0.0343 -0.3945
 6594SOL    HW131418   3.198   4.497   3.734 -0.2587  0.8218 -0.0620
 6594SOL    HW231419   3.270   4.610   3.692 -0.9523 -0.3555  1.3292
 6595SOL     OW31420   2.382   0.515  16.531  0.3277 -0.2565 -0.1670
 6595SOL    HW131421   2.287   0.514  16.531  0.3263 -1.4155  1.0608
 6595SOL    HW231422   2.385   0.571  16.608  2.5276 -2.3031  1.2643
 6596SOL     OW31423   1.045   4.317   2.903 -0.1239  0.2061 -0.3573
 6596SOL    HW131424   1.042   4.316   2.807  0.8327 -2.0432 -0.3718
 6596SOL    HW231425   1.007   4.233   2.929 -1.7055  0.5938 -1.4347
 6597SOL     OW31426   4.293   4.727   8.966  0.6721 -0.2232  0.2820
 6597SOL    HW131427   4.211   0.003   9.013  0.4419  0.3253 -0.2848
 6597SOL    HW231428   4.356   0.047   9.008  0.4905 -0.6700  1.1515
 6598SOL     OW31429   1.552   1.821  17.667  0.1526 -0.0661 -0.3115
 6598SOL    HW131430   1.621   1.883  17.689  0.6165 -0.5611 -0.3647
 6598SOL    HW231431   1.580   1.739  17.708 -0.5794 -0.0718  0.1729
 6599SOL     OW31432   3.195   3.203  12.684  0.3140  0.0119 -0.1325
 6599SOL    HW131433   3.227   3.124  12.728 -0.9605 -0.9057 -0.8449
 6599SOL    HW231434   3.279   3.237  12.653  1.0301  0.1631  2.0000
 6600SOL     OW31435   3.387   1.066   6.692  0.4996 -0.3505 -0.0906
 6600SOL    HW131436   3.359   1.157   6.694 -0.0433 -0.4711 -2.3934
 6600SOL    HW231437   3.355   1.050   6.604 -1.8090  0.6210  0.5660
 6601SOL     OW31438   1.229   2.838  12.066  0.1625  0.3949  0.3210
 6601SOL    HW131439   1.169   2.911  12.082 -2.6074 -0.9728 -3.6838
 6601SOL    HW231440   1.285   2.880  12.001  0.8504 -0.8160  0.1322
 6602SOL     OW31441   3.138   3.646   4.449  0.0516  0.0183 -0.2638
 6602SOL    HW131442   3.164   3.722   4.501  0.5232  0.4156 -1.0755
 6602SOL    HW231443   3.093   3.688   4.376  0.3064  1.1313  0.2047
 6603SOL     OW31444   1.010   0.324   0.181  0.0844 -0.2056  0.1942
 6603SOL    HW131445   1.024   0.313   0.275 -2.0271  0.7867  0.6287
 6603SOL    HW231446   1.045   0.410   0.157 -2.4694  0.5055 -1.0083
 6604SOL     OW31447   4.134   2.739   9.268  0.3830 -0.0088 -0.8026
 6604SOL    HW131448   4.071   2.683   9.223  1.2673 -1.2216 -0.5394
 6604SOL    HW231449   4.179   2.679   9.327 -0.6531 -0.0601 -0.0748
 6605SOL     OW31450   0.120   2.520  13.027  0.0420  0.1217 -0.4502
 6605SOL    HW131451   0.070   2.601  13.034  1.5132  0.9451  0.3805
 6605SOL    HW231452   0.173   2.527  13.106 -0.0194 -1.0162 -0.3129
 6606SOL     OW31453   2.558   1.600   2.147  0.2131 -0.0554 -0.3450
 6606SOL    HW131454   2.570   1.552   2.229 -2.0201  0.9943  0.5931
 6606SOL    HW231455   2.635   1.560   2.105  0.2762  1.6363 -1.8124
 6607SOL     OW31456   3.453   3.053  12.089  0.5103 -0.1924 -0.1926
 6607SOL    HW131457   3.433   3.031  11.998  0.0476  0.8523 -0.3462
 6607SOL    HW231458   3.360   3.054  12.112  0.1314 -0.3371 -1.7352
 6608SOL     OW31459   3.280   0.761   7.594  0.1215 -0.5208 -0.4255
 6608SOL    HW131460   3.250   0.847   7.564 -0.5941 -1.1503 -1.5345
 6608SOL    HW231461   3.248   0.759   7.684 -2.3523  0.3783 -1.2815
 6609SOL     OW31462   2.060   2.695   9.281 -0.2465  0.2062 -0.1110
 6609SOL    HW131463   2.154   2.711   9.268  0.0513  0.0477  1.8161
 6609SOL    HW231464   2.058   2.617   9.336 -0.0336  0.8188  0.7728
 6610SOL     OW31465   2.357   2.932   4.992 -0.0590 -0.4056 -0.5617
 6610SOL    HW131466   2.404   3.010   4.963  0.2021 -0.8571 -1.3427
 6610SOL    HW231467   2.412   2.858   4.965 -0.5159 -1.0545  0.2804
 6611SOL     OW31468   2.433   1.513   7.830  0.0732  0.7808  0.2978
 6611SOL    HW131469   2.388   1.515   7.915 -1.6703  1.4511 -0.6353
 6611SOL    HW231470   2.523   1.493   7.855 -0.3709  0.1248  1.3459
 6612SOL     OW31471   4.652   2.657   8.545 -0.3701 -0.0379 -0.1394
 6612SOL    HW131472   4.711   2.597   8.499  2.1383  1.2387  1.3664
 6612SOL    HW231473   4.657   2.742   8.501 -2.2226  0.0912 -0.0718
 6613SOL     OW31474   4.377   3.839   0.488  0.0268  0.6914 -0.5701
 6613SOL    HW131475   4.378   3.808   0.398 -0.4559 -0.1707 -0.2785
 6613SOL    HW231476   4.439   3.780   0.532  0.4960  1.3568 -0.3279
 6614SOL     OW31477   2.475   3.738   5.092 -0.1449  0.0519 -0.2916
 6614SOL    HW131478   2.416   3.676   5.134 -0.3868  0.1766 -0.4445
 6614SOL    HW231479   2.551   3.681   5.086 -0.3631 -0.4138  1.5297
 6615SOL     OW31480   0.158   1.166   6.721 -0.3601  0.0884 -0.4033
 6615SOL    HW131481   0.219   1.180   6.648 -0.5766  3.0091 -0.0267
 6615SOL    HW231482   0.145   1.072   6.720  2.2793 -0.2634 -2.3393
 6616SOL     OW31483   0.813   3.299   5.713  0.0215 -0.5311 -0.4988
 6616SOL    HW131484   0.787   3.210   5.738 -2.9887  0.2795 -0.7113
 6616SOL    HW231485   0.903   3.298   5.743 -0.8345  0.9482  2.1549
 6617SOL     OW31486   1.972   4.626   1.489  0.3287  0.5059  0.3780
 6617SOL    HW131487   1.988   4.709   1.444  2.5255 -1.0569 -1.7434
 6617SOL    HW231488   1.896   4.592   1.443 -0.6430  0.7354  1.7979
 6618SOL     OW31489   4.045   1.123  13.022 -0.0812  0.2509  1.0629
 6618SOL    HW131490   4.008   1.049  12.974 -0.5756  2.3439 -1.8112
 6618SOL    HW231491   4.058   1.078  13.106  3.0500  1.2374  1.1168
 6619SOL     OW31492   2.470   2.698   4.923  0.1616 -0.2664  0.0627
 6619SOL    HW131493   2.442   2.627   4.981 -2.6769  0.8997  0.1308
 6619SOL    HW231494   2.441   2.666   4.838  2.2196  1.3570 -1.2434
 6620SOL     OW31495   1.673   2.087   6.662 -0.5993  0.3069  0.0384
 6620SOL    HW131496   1.690   2.137   6.742 -3.2279 -1.9337  1.9830
 6620SOL    HW231497   1.700   1.999   6.686 -1.3752 -0.8851 -3.3870
 6621SOL     OW31498   1.127   0.685   7.505 -0.0017  0.4942  0.0411
 6621SOL    HW131499   1.090   0.654   7.423 -0.7241 -2.4109  1.4396
 6621SOL    HW231500   1.103   0.619   7.570  2.0526  0.5679  0.8973
 6622SOL     OW31501   0.705   2.423   2.865 -0.0474 -0.2018  0.1062
 6622SOL    HW131502   0.741   2.391   2.782 -2.0868  1.8485 -1.5768
 6622SOL    HW231503   0.764   2.497   2.878 -0.8869  0.2497  1.3306
 6623SOL     OW31504   1.566   0.295   7.497  0.1836  0.4777 -0.4726
 6623SOL    HW131505   1.592   0.372   7.447  1.0454  1.5094  1.5473
 6623SOL    HW231506   1.630   0.228   7.473 -0.3561 -0.1021 -0.3062
 6624SOL     OW31507   1.044   2.673   3.752 -0.5864  0.3295  0.6373
 6624SOL    HW131508   1.012   2.588   3.720 -0.5842  0.5728 -0.0158
 6624SOL    HW231509   0.974   2.689   3.815 -0.4892 -2.5812  1.4681
 6625SOL     OW31510   1.083   1.513   8.120 -0.2105 -0.3514 -0.2320
 6625SOL    HW131511   1.115   1.554   8.040  1.4889 -2.2341 -0.5118
 6625SOL    HW231512   1.087   1.421   8.095  2.0867 -0.8319  1.8456
 6626SOL     OW31513   3.643   1.995   8.042  0.5127  0.1998 -0.1153
 6626SOL    HW131514   3.705   1.930   8.076 -0.8840 -0.9068  0.3309
 6626SOL    HW231515   3.582   1.926   8.014 -0.9825  1.6682 -0.4586
 6627SOL     OW31516   4.055   2.660  10.694  0.6157  0.1739  0.2093
 6627SOL    HW131517   3.980   2.612  10.657  0.7228  0.0777  0.1156
 6627SOL    HW231518   4.094   2.585  10.740 -1.6072 -1.2165 -0.1322
 6628SOL     OW31519   0.743   1.748   1.023 -0.2396  0.3864  0.2282
 6628SOL    HW131520   0.712   1.673   0.972  1.3510 -0.4077  0.4307
 6628SOL    HW231521   0.673   1.811   1.010 -1.1081 -0.3177  1.4548
 6629SOL     OW31522   2.456   0.655   5.274 -0.3553  0.3289 -0.0558
 6629SOL    HW131523   2.498   0.577   5.237 -3.3074 -1.2176 -0.1752
 6629SOL    HW231524   2.531   0.713   5.288 -0.3763  0.3769 -0.1431
 6630SOL     OW31525   0.489   0.982   0.696  0.0462  0.2340 -0.2712
 6630SOL    HW131526   0.448   0.936   0.623  1.5049 -1.2973 -0.1027
 6630SOL    HW231527   0.453   1.071   0.686 -0.0634  0.3602  1.2273
 6631SOL     OW31528   0.877   2.831  15.530 -0.0480  0.2540  0.0676
 6631SOL    HW131529   0.909   2.865  15.613 -0.9733  0.7583  0.2146
 6631SOL    HW231530   0.928   2.878  15.464 -0.2981 -1.7580 -1.5767
 6632SOL     OW31531   4.406   2.774   5.435 -0.7485  0.5946 -0.1077
 6632SOL    HW131532   4.484   2.772   5.380 -0.9534  1.3218 -0.4321
 6632SOL    HW231533   4.415   2.699   5.494  1.3157  0.9273  0.0005
 6633SOL     OW31534   3.296   4.632   7.287 -0.6188  0.5736 -0.2608
 6633SOL    HW131535   3.229   4.569   7.261 -1.1545  1.8713 -2.0205
 6633SOL    HW231536   3.369   4.570   7.290  0.0387  1.2994 -1.5431
 6634SOL     OW31537   2.850   0.439  10.014  0.2365  0.3709 -0.0466
 6634SOL    HW131538   2.783   0.497  10.048  1.3594  1.1070  0.8876
 6634SOL    HW231539   2.926   0.493  10.034  0.9578 -0.5771 -0.1810
 6635SOL     OW31540   2.112   4.018   4.778  0.1687  0.3320  0.1178
 6635SOL    HW131541   2.044   4.085   4.781 -1.9337 -1.8440  0.5593
 6635SOL    HW231542   2.183   4.065   4.734  0.5300 -0.3038  0.0236
 6636SOL     OW31543   3.966   4.034   5.526 -0.3899 -0.1233 -0.0203
 6636SOL    HW131544   4.036   4.048   5.590  0.1467  1.2098 -0.8886
 6636SOL    HW231545   4.009   4.020   5.442  0.6496 -2.8061  0.9815
 6637SOL     OW31546   2.738   3.404  11.405  0.0579  0.3911 -0.5871
 6637SOL    HW131547   2.791   3.442  11.335 -1.8248 -0.0247 -2.2484
 6637SOL    HW231548   2.678   3.346  11.358  1.0810 -1.6904  0.6738
 6638SOL     OW31549   1.259   1.848   9.272  0.1586  0.8425 -0.1071
 6638SOL    HW131550   1.222   1.912   9.212 -0.0104 -0.3300 -1.2334
 6638SOL    HW231551   1.312   1.907   9.326 -1.0123  0.8093  1.0793
 6639SOL     OW31552   0.023   1.371   1.184 -0.1286  0.8059  0.4601
 6639SOL    HW131553   0.022   1.398   1.092 -0.9487  1.0833  0.5510
 6639SOL    HW231554   4.674   1.403   1.206 -0.9888 -0.2032 -1.4223
 6640SOL     OW31555   2.555   0.454   7.961  0.3681  0.3484  0.2261
 6640SOL    HW131556   2.520   0.449   7.872  0.2170  0.9640  0.2535
 6640SOL    HW231557   2.551   0.363   7.993  3.0195  0.1002 -0.1801
 6641SOL     OW31558   1.708   4.471   8.743  0.0999 -0.1818  0.3069
 6641SOL    HW131559   1.634   4.410   8.739 -0.4626  0.5333 -0.1745
 6641SOL    HW231560   1.674   4.534   8.679 -1.7439 -1.8900 -0.4079
 6642SOL     OW31561   2.511   0.434   9.047  0.5122 -0.0443 -0.1545
 6642SOL    HW131562   2.585   0.402   8.994 -0.8837 -0.9239 -1.5634
 6642SOL    HW231563   2.474   0.503   8.992  1.1424  0.1268 -0.3695
 6643SOL     OW31564   2.406   2.867  14.768 -0.9906 -0.2016  0.1826
 6643SOL    HW131565   2.435   2.786  14.725 -1.2070  0.9266 -2.1026
 6643SOL    HW231566   2.312   2.854  14.775 -0.9980 -0.8042 -0.9485
 6644SOL     OW31567   3.985   3.785   8.116  0.2124  0.2169  0.3377
 6644SOL    HW131568   3.964   3.817   8.204  1.0670  1.7905 -0.0218
 6644SOL    HW231569   3.893   3.776   8.092  0.6113 -0.0598 -1.0935
 6645SOL     OW31570   1.048   3.131   7.595  0.6304  0.5670 -0.7313
 6645SOL    HW131571   1.002   3.061   7.550  1.2753 -1.0393  1.1202
 6645SOL    HW231572   1.051   3.110   7.688  0.2814 -0.7087 -1.0063
 6646SOL     OW31573   4.736   2.470  10.944  0.8174  0.0994  0.2107
 6646SOL    HW131574   4.661   2.413  10.962  2.8717 -3.2836 -1.9907
 6646SOL    HW231575   0.066   2.421  10.990  0.2416 -1.4901 -0.6436
 6647SOL     OW31576   1.861   2.505   2.737 -0.1770  0.1857 -0.1637
 6647SOL    HW131577   1.872   2.413   2.711 -0.0705 -0.0119  0.5651
 6647SOL    HW231578   1.898   2.560   2.668  0.9108  0.6415  0.7816
 6648SOL     OW31579   1.836   2.008  13.222  0.3971 -0.2034  0.4228
 6648SOL    HW131580   1.911   1.963  13.182  1.4078  0.8162  1.1824
 6648SOL    HW231581   1.801   2.043  13.140 -1.5754 -0.1020  1.3174
 6649SOL     OW31582   0.798   3.436   7.000 -0.1988  0.1964  0.1321
 6649SOL    HW131583   0.832   3.421   7.088 -1.1852 -1.9323  0.1537
 6649SOL    HW231584   0.793   3.347   6.966  2.7492  0.1983 -0.3374
 6650SOL     OW31585   1.822   3.887  13.714 -0.3017 -0.0169 -0.3124
 6650SOL    HW131586   1.835   3.957  13.779 -1.1509  1.3635 -1.6320
 6650SOL    HW231587   1.814   3.936  13.632  0.4383  1.0102  0.2197
 6651SOL     OW31588   0.465   2.799   6.637 -0.1450 -0.0432 -0.2436
 6651SOL    HW131589   0.503   2.754   6.562 -1.8212 -0.7865 -0.6575
 6651SOL    HW231590   0.400   2.730   6.655 -3.4341  2.5834 -2.1908
 6652SOL     OW31591   1.800   2.889  16.135 -0.0265  0.4957 -0.8009
 6652SOL    HW131592   1.824   2.981  16.120 -0.7858  1.0034  1.0317
 6652SOL    HW231593   1.757   2.908  16.219 -2.9054  0.1923 -2.2213
 6653SOL     OW31594   0.153   2.063   8.203 -0.3252 -0.0220 -0.1319
 6653SOL    HW131595   0.064   2.058   8.237 -0.0755 -2.5448  0.1541
 6653SOL    HW231596   0.192   1.993   8.254 -2.0328  0.1798  1.4611
 6654SOL     OW31597   1.834   1.789  13.512  0.7763  0.3822 -0.1949
 6654SOL    HW131598   1.777   1.788  13.589 -0.9424 -0.0540 -1.4778
 6654SOL    HW231599   1.841   1.884  13.499 -0.2454  0.5118  0.2282
 6655SOL     OW31600   0.180   2.298  11.572 -0.4610 -0.2226 -0.6323
 6655SOL    HW131601   0.224   2.215  11.557 -1.0561 -0.4425 -1.1580
 6655SOL    HW231602   0.210   2.316  11.661 -1.2263  1.6484 -0.7435
 6656SOL     OW31603   4.565   3.441  12.232  0.6643  0.4600  0.6507
 6656SOL    HW131604   4.646   3.389  12.234  0.2999 -0.0829  1.3813
 6656SOL    HW231605   4.512   3.379  12.283 -1.0922  2.5991  1.3988
 6657SOL     OW31606   2.122   2.659   3.024 -0.4513  0.1413 -0.0018
 6657SOL    HW131607   2.158   2.715   2.955 -0.1254 -1.3966 -1.0773
 6657SOL    HW231608   2.028   2.666   3.012 -0.4194  1.1899  0.3303
 6658SOL     OW31609   2.623   0.096   9.700 -0.9609 -0.3978 -0.9365
 6658SOL    HW131610   2.682   0.148   9.755  0.1625 -1.2633 -1.3390
 6658SOL    HW231611   2.600   0.150   9.625  0.9632 -0.0111 -1.2475
 6659SOL     OW31612   1.987   2.078  14.717 -0.3921  0.1099 -0.1189
 6659SOL    HW131613   1.944   2.067  14.802  0.0370 -0.6509  0.0022
 6659SOL    HW231614   2.050   2.140  14.753  0.5309  0.7048 -2.7955
 6660SOL     OW31615   4.638   2.464  14.221 -0.5747  0.6012 -0.1737
 6660SOL    HW131616   4.663   2.411  14.297 -0.1858  2.8349  1.2780
 6660SOL    HW231617   4.546   2.442  14.210 -1.1580  1.8217  2.2514
 6661SOL     OW31618   1.239   4.480   0.459  0.2696 -0.5797  1.2857
 6661SOL    HW131619   1.151   4.489   0.495  0.4972 -0.1158  1.7215
 6661SOL    HW231620   1.214   4.491   0.367  0.8675  0.9560  1.3028
 6662SOL     OW31621   2.390   2.423   9.349 -0.1417  1.1322 -0.0454
 6662SOL    HW131622   2.441   2.385   9.421  0.4401  0.8790 -0.5968
 6662SOL    HW231623   2.346   2.495   9.396 -0.4754  0.7116  0.2972
 6663SOL     OW31624   2.970   2.118   6.792 -0.0369 -0.6544 -0.5028
 6663SOL    HW131625   3.041   2.057   6.774 -0.4519 -1.6038  1.1529
 6663SOL    HW231626   3.001   2.144   6.878 -1.4055  0.1706 -0.2562
 6664SOL     OW31627   1.887   2.900   9.185  0.0229 -0.3169 -0.8325
 6664SOL    HW131628   1.856   2.882   9.096  1.4415  0.3419 -1.4752
 6664SOL    HW231629   1.936   2.824   9.218  1.9276  0.9128 -0.7949
 6665SOL     OW31630   0.057   4.429   9.882  0.5660  0.9615 -0.3584
 6665SOL    HW131631   0.112   4.481   9.940  0.9199 -1.4149  1.4482
 6665SOL    HW231632   0.120   4.386   9.824  0.0543 -1.2466  0.7235
 6666SOL     OW31633   4.486   2.826   2.240  0.1378 -0.3017  0.1318
 6666SOL    HW131634   4.575   2.835   2.204 -0.7618 -0.2394 -2.0485
 6666SOL    HW231635   4.479   2.909   2.287 -1.1675 -0.1248 -0.3863
 6667SOL     OW31636   2.979   3.134   0.323 -0.1784  0.6554  0.7153
 6667SOL    HW131637   3.066   3.125   0.285 -0.4880  0.6924 -0.0057
 6667SOL    HW231638   2.999   3.112   0.414 -2.7761  0.5712  1.2902
 6668SOL     OW31639   1.291   2.614   2.601  0.3357 -0.0513  0.3796
 6668SOL    HW131640   1.320   2.704   2.586 -0.1393  0.2598  1.3301
 6668SOL    HW231641   1.208   2.613   2.552  0.6720  0.2215 -0.1975
 6669SOL     OW31642   4.522   1.803   8.457  0.3194 -0.2436 -0.0676
 6669SOL    HW131643   4.426   1.811   8.455  0.4018  0.8781  1.1976
 6669SOL    HW231644   4.541   1.709   8.449 -2.8178 -0.9309  0.5104
 6670SOL     OW31645   0.514   1.649  17.666 -0.8526 -0.1011  0.5235
 6670SOL    HW131646   0.557   1.618  17.586 -0.4905  0.2985  0.5644
 6670SOL    HW231647   0.551   1.596  17.736 -0.5991 -1.9283 -0.9822
 6671SOL     OW31648   1.284   3.980   6.375 -0.0312 -0.1409  0.4447
 6671SOL    HW131649   1.263   4.005   6.285 -0.3944  1.8288  1.0906
 6671SOL    HW231650   1.194   3.953   6.394 -0.8273  2.7069  0.6704
 6672SOL     OW31651   0.364   2.655   7.123 -0.7535  0.0912 -0.1232
 6672SOL    HW131652   0.351   2.595   7.049 -0.9590 -2.2898  1.8120
 6672SOL    HW231653   0.285   2.709   7.115 -0.5150  0.6761  1.5470
 6673SOL     OW31654   2.941   0.014   5.044 -0.0207 -0.1783  0.3151
 6673SOL    HW131655   2.941   4.658   5.062 -1.6203  0.3245  2.8699
 6673SOL    HW231656   3.032   0.040   5.063 -0.8667  0.9961  2.8750
 6674SOL     OW31657   2.339   4.317  12.239  0.2507  0.0413  0.0297
 6674SOL    HW131658   2.341   4.263  12.318  0.1919  0.8709  0.5912
 6674SOL    HW231659   2.404   4.382  12.267 -1.6603  1.6315  0.8112
 6675SOL     OW31660   1.736   0.025   7.070 -0.1842  0.2250 -0.0957
 6675SOL    HW131661   1.662   0.019   7.131 -0.5758  0.9636 -0.4884
 6675SOL    HW231662   1.816   0.017   7.120  1.6646  0.2910 -3.0308
 6676SOL     OW31663   4.658   0.906   8.591  0.2776 -0.1979  0.1177
 6676SOL    HW131664   4.703   0.844   8.649 -1.4558 -2.3263 -0.8138
 6676SOL    HW231665   4.572   0.866   8.596 -1.1248  2.8974  0.8627
 6677SOL     OW31666   2.175   0.579  13.511  0.0516  0.4656 -0.5050
 6677SOL    HW131667   2.168   0.506  13.449 -1.0099  0.3572 -0.2606
 6677SOL    HW231668   2.259   0.618  13.486  0.3023 -0.7211 -1.4944
 6678SOL     OW31669   1.624   4.125   4.875  0.4238  0.6023  0.2015
 6678SOL    HW131670   1.584   4.155   4.793  0.4892 -0.3061 -0.1630
 6678SOL    HW231671   1.584   4.039   4.890 -2.7501  1.3372 -4.0907
 6679SOL     OW31672   3.102   3.998   2.569 -0.2762 -0.0902  0.4879
 6679SOL    HW131673   3.088   3.917   2.522 -2.8160  1.0246 -0.6574
 6679SOL    HW231674   3.105   4.062   2.498 -3.9321  2.0543  2.2401
 6680SOL     OW31675   2.384   1.567  16.640  0.1904  0.3929  0.2440
 6680SOL    HW131676   2.392   1.598  16.550  0.8760 -1.0634 -0.2025
 6680SOL    HW231677   2.458   1.506  16.643 -0.2807 -0.2520 -1.3127
 6681SOL     OW31678   0.530   0.825   8.509  0.4518  0.3947  0.1969
 6681SOL    HW131679   0.502   0.736   8.531  4.6154 -0.5020  1.9191
 6681SOL    HW231680   0.454   0.876   8.537 -1.3168 -1.7939 -0.6384
 6682SOL     OW31681   2.042   0.742   4.355  0.7888  0.2085 -0.0157
 6682SOL    HW131682   2.031   0.742   4.451  0.4147  1.4727 -0.0582
 6682SOL    HW231683   2.123   0.792   4.352 -0.6986  2.5821 -0.3914
 6683SOL     OW31684   4.219   2.242   2.889  0.3693  0.1153  0.6068
 6683SOL    HW131685   4.232   2.155   2.925  1.6239 -1.0077 -2.5986
 6683SOL    HW231686   4.300   2.288   2.908  0.5701 -0.0753  0.2085
 6684SOL     OW31687   4.382   0.641   9.209  0.2556  0.1949 -0.1696
 6684SOL    HW131688   4.383   0.669   9.117  1.4621  0.9882  0.0829
 6684SOL    HW231689   4.307   0.690   9.240  1.3579  1.7538  0.0262
 6685SOL     OW31690   1.216   1.234   5.955 -0.3228 -0.3007  0.3823
 6685SOL    HW131691   1.246   1.184   6.031  1.1044  0.4608  0.3137
 6685SOL    HW231692   1.139   1.260   6.005 -2.5470 -0.9728 -2.7340
 6686SOL     OW31693   1.093   3.567   2.582  0.1261 -0.3737 -0.7306
 6686SOL    HW131694   1.051   3.642   2.541  2.0400  0.3919 -1.3226
 6686SOL    HW231695   1.162   3.539   2.522 -0.3672 -2.9050 -0.1167
 6687SOL     OW31696   2.902   0.192   2.428 -0.4190  0.5867  0.0688
 6687SOL    HW131697   2.865   0.198   2.340  1.4743  2.2432 -0.6104
 6687SOL    HW231698   2.842   0.253   2.472 -0.2457  1.8839 -1.4710
 6688SOL     OW31699   3.866   1.870   8.415 -0.6255 -0.1458  0.1057
 6688SOL    HW131700   3.879   1.805   8.483 -3.7417 -2.5976 -1.6273
 6688SOL    HW231701   3.928   1.935   8.448  1.7046 -1.7693 -1.0549
 6689SOL     OW31702   0.938   2.038  14.398  0.4786  0.2255 -0.2620
 6689SOL    HW131703   1.022   1.991  14.399  0.5973  0.4430  0.1129
 6689SOL    HW231704   0.959   2.125  14.366 -0.8915  0.0313 -1.6528
 6690SOL     OW31705   1.011   1.235  12.304 -0.0745  0.0609 -0.2975
 6690SOL    HW131706   1.090   1.210  12.258  0.3451  0.2223  0.3320
 6690SOL    HW231707   0.963   1.284  12.237  0.4741 -0.3730 -0.9970
 6691SOL     OW31708   3.225   0.931   3.958  0.0510 -0.0273  0.0297
 6691SOL    HW131709   3.164   0.977   3.900  0.0021  0.9686  0.8692
 6691SOL    HW231710   3.221   0.988   4.035 -2.1295 -0.8764  0.5298
 6692SOL     OW31711   1.968   1.243   3.040 -0.0567  0.0631 -0.5737
 6692SOL    HW131712   2.054   1.226   3.003  0.7372 -0.1228  1.3358
 6692SOL    HW231713   1.910   1.200   2.977 -1.3244  1.0511 -0.0891
 6693SOL     OW31714   1.880   3.281   3.844 -0.5628 -0.2382 -0.5163
 6693SOL    HW131715   1.789   3.300   3.863 -0.2350  2.0372 -1.3148
 6693SOL    HW231716   1.867   3.213   3.778 -0.8443 -0.8307  0.1496
 6694SOL     OW31717   4.611   0.905   9.121  0.5389 -0.6297  0.0670
 6694SOL    HW131718   4.630   0.998   9.111 -1.4451 -0.5115 -2.7742
 6694SOL    HW231719   4.525   0.900   9.079 -0.0573 -2.1047  1.4848
 6695SOL     OW31720   1.018   3.448   6.206  0.7890 -0.3004 -0.3086
 6695SOL    HW131721   0.960   3.373   6.198  0.8477 -0.4005  0.2198
 6695SOL    HW231722   1.089   3.414   6.261 -1.2680  0.6589  2.8946
 6696SOL     OW31723   2.950   3.049   5.044  0.7138  0.5222  0.4979
 6696SOL    HW131724   2.878   3.098   5.004  0.4159 -0.7638 -0.5227
 6696SOL    HW231725   3.018   3.108   5.012 -0.2408  2.1435  1.4361
 6697SOL     OW31726   1.874   1.038   8.051 -0.0286 -0.2172 -0.4357
 6697SOL    HW131727   1.825   0.994   7.981  0.8275 -1.5922 -0.1679
 6697SOL    HW231728   1.839   0.999   8.131  1.8876  0.6837  0.8372
 6698SOL     OW31729   1.073   3.949  13.059 -0.3193 -0.4364 -0.1101
 6698SOL    HW131730   0.990   3.947  13.106 -0.7140 -1.3051 -0.8424
 6698SOL    HW231731   1.046   4.003  12.984 -0.1382 -0.5395 -0.2491
 6699SOL     OW31732   4.536   3.299   6.456  0.1430  0.4686 -0.4912
 6699SOL    HW131733   4.533   3.295   6.361  1.7427  0.6784 -0.5531
 6699SOL    HW231734   4.492   3.381   6.473 -2.0898 -0.7737 -0.3063
 6700SOL     OW31735   0.034   2.551   6.406  0.0857  0.4761 -0.1006
 6700SOL    HW131736   0.077   2.506   6.480  0.4405  0.1789 -0.4891
 6700SOL    HW231737   0.109   2.558   6.347  1.9191 -1.2788  2.0061
 6701SOL     OW31738   4.365   3.249   1.893  0.0724 -0.1164  0.1109
 6701SOL    HW131739   4.409   3.314   1.839 -1.8690  0.0901 -1.2256
 6701SOL    HW231740   4.307   3.304   1.945  2.0540  0.2157  1.9758
 6702SOL     OW31741   0.405   0.594  14.550  0.0646  0.4508  0.1444
 6702SOL    HW131742   0.461   0.538  14.603  0.2086 -0.4890 -1.0139
 6702SOL    HW231743   0.461   0.599  14.472  0.4826  2.1014  0.5391
 6703SOL     OW31744   3.242   1.528   9.064 -0.1199  0.9878 -0.4298
 6703SOL    HW131745   3.187   1.467   9.113  0.7261  0.1696 -0.5043
 6703SOL    HW231746   3.222   1.609   9.111  2.2842  1.2728  0.1114
 6704SOL     OW31747   0.727   1.429  12.521  0.1083  0.4378  0.0828
 6704SOL    HW131748   0.705   1.438  12.613 -2.1924  2.4666 -0.6594
 6704SOL    HW231749   0.784   1.503  12.497 -0.7191  0.9003 -0.4391
 6705SOL     OW31750   3.386   4.381   2.481 -0.1038 -0.2125 -0.6212
 6705SOL    HW131751   3.370   4.467   2.520 -0.9979 -0.3098 -0.7720
 6705SOL    HW231752   3.320   4.335   2.532  0.6224  0.2871  0.7894
 6706SOL     OW31753   0.751   3.278   5.447  0.2229  0.0947 -0.4520
 6706SOL    HW131754   0.779   3.307   5.534 -0.5106 -1.2216  0.2320
 6706SOL    HW231755   0.835   3.252   5.409  0.9674  0.7160  0.7250
 6707SOL     OW31756   3.049   0.915   1.734 -0.0994 -0.3279  0.1535
 6707SOL    HW131757   3.031   0.902   1.828 -0.6556 -2.1664 -0.2025
 6707SOL    HW231758   3.142   0.899   1.746  0.0684  0.2833 -0.3451
 6708SOL     OW31759   1.294   1.537   0.488  0.5083 -0.2215 -0.3516
 6708SOL    HW131760   1.351   1.565   0.560 -0.1963 -1.7975  0.8161
 6708SOL    HW231761   1.249   1.620   0.471 -1.1720 -0.4560  2.8391
 6709SOL     OW31762   4.137   4.114   2.863  0.3606  0.2316 -0.4703
 6709SOL    HW131763   4.122   4.085   2.953  0.1055  0.1479 -0.5420
 6709SOL    HW231764   4.146   4.209   2.873 -0.4661  0.2156  0.3660
 6710SOL     OW31765   0.661   4.183   3.388 -0.3870  0.1018  0.2012
 6710SOL    HW131766   0.684   4.259   3.334 -1.0556 -1.1779 -1.9071
 6710SOL    HW231767   0.573   4.202   3.422  0.0743 -0.9475  1.9307
 6711SOL     OW31768   2.257   1.276  12.952 -0.0048  0.2379 -0.3953
 6711SOL    HW131769   2.263   1.267  12.857 -1.5639 -1.6502 -0.3036
 6711SOL    HW231770   2.344   1.310  12.974 -0.3900  2.4579 -2.2085
 6712SOL     OW31771   1.184   1.154   3.182  0.6742 -0.0361 -0.4718
 6712SOL    HW131772   1.145   1.221   3.126 -1.4969 -1.9642 -1.2943
 6712SOL    HW231773   1.109   1.094   3.178  1.3299 -1.0015  2.1577
 6713SOL     OW31774   0.083   0.885   9.484  0.2259 -0.1250  0.0406
 6713SOL    HW131775   0.131   0.922   9.410  0.3649  2.2461  1.3012
 6713SOL    HW231776   0.106   0.794   9.465 -0.7442 -0.2383 -0.5860
 6714SOL     OW31777   4.296   0.637  14.858  0.0161  0.0472 -0.2296
 6714SOL    HW131778   4.255   0.642  14.771  1.1601 -1.2905 -0.8399
 6714SOL    HW231779   4.365   0.699  14.833  0.0996  0.0321 -0.0390
 6715SOL     OW31780   2.642   2.577   4.261 -0.2047 -0.1595 -0.2375
 6715SOL    HW131781   2.627   2.569   4.166  0.1215 -2.4096 -0.0999
 6715SOL    HW231782   2.624   2.671   4.270  0.9991 -0.0203  0.6018
 6716SOL     OW31783   4.698   4.720   3.564 -0.0962 -0.0256 -0.1137
 6716SOL    HW131784   4.618   4.671   3.581  0.0653 -0.3984 -0.4325
 6716SOL    HW231785   4.672   0.065   3.524  0.3921  0.2722  0.1893
 6717SOL     OW31786   2.182   1.255   0.973 -0.3819 -0.1677 -0.4729
 6717SOL    HW131787   2.164   1.299   0.890 -2.8347  0.2042  0.2523
 6717SOL    HW231788   2.097   1.213   0.989 -0.5846  0.4841  0.1558
 6718SOL     OW31789   2.786   2.773   1.408  0.3460 -0.0612 -0.3421
 6718SOL    HW131790   2.695   2.775   1.438 -0.5323 -1.9537 -2.9074
 6718SOL    HW231791   2.811   2.681   1.416 -2.9604 -0.9856 -0.4510
 6719SOL     OW31792   2.446   4.198   9.734  0.0229 -0.7369 -0.1280
 6719SOL    HW131793   2.397   4.260   9.680  1.1505 -0.3709 -0.7370
 6719SOL    HW231794   2.528   4.241   9.757  0.3261 -0.8698 -0.9396
 6720SOL     OW31795   0.378   0.178  17.125 -0.0134 -0.2115 -0.6847
 6720SOL    HW131796   0.426   0.097  17.106 -0.5677 -0.5076 -0.8090
 6720SOL    HW231797   0.440   0.228  17.178 -0.7983  0.4329 -0.3797
 6721SOL     OW31798   0.044   4.632   8.715  0.2473 -0.2073  0.2176
 6721SOL    HW131799   4.706   4.603   8.664  1.0757  1.2544 -1.8416
 6721SOL    HW231800   0.096   4.668   8.644  3.4640 -0.2142  2.5680
 6722SOL     OW31801   2.964   2.401   9.664  0.1777  0.3909  0.4748
 6722SOL    HW131802   3.008   2.477   9.704  0.5332 -0.8313  2.4382
 6722SOL    HW231803   2.873   2.414   9.689 -0.6576 -0.1716 -2.3060
 6723SOL     OW31804   3.552   0.172   2.872  0.2508 -0.4583 -0.3741
 6723SOL    HW131805   3.568   0.212   2.787  1.6667 -1.5580 -0.6218
 6723SOL    HW231806   3.545   0.243   2.937 -1.0350 -0.1290 -0.8808
 6724SOL     OW31807   4.084   3.349   7.191  0.6124  0.0468  0.4543
 6724SOL    HW131808   3.998   3.354   7.148  1.5676  0.7729 -1.3814
 6724SOL    HW231809   4.108   3.439   7.214 -0.7683  0.0674  1.8300
 6725SOL     OW31810   0.007   2.698   6.750 -0.1695 -0.0905  0.2716
 6725SOL    HW131811   4.678   2.630   6.742 -0.6249  0.4674 -0.6804
 6725SOL    HW231812   4.700   2.780   6.772 -0.8495  0.0349 -1.6135
 6726SOL     OW31813   2.061   1.032   4.836 -0.2277  0.2748 -0.2607
 6726SOL    HW131814   2.124   1.026   4.764  1.1187  1.5671  0.8479
 6726SOL    HW231815   2.023   0.944   4.845  0.3388 -0.2178 -2.5221
 6727SOL     OW31816   1.483   4.283   7.772  0.3982 -0.0042 -0.2122
 6727SOL    HW131817   1.478   4.203   7.720 -1.3461  0.4110 -0.6577
 6727SOL    HW231818   1.395   4.315   7.754  0.8853  0.7638 -1.2716
 6728SOL     OW31819   4.687   0.325   6.543 -0.6221 -0.3070 -0.1657
 6728SOL    HW131820   4.692   0.414   6.578  1.0316 -1.3599  2.2420
 6728SOL    HW231821   0.020   0.272   6.580  0.6606 -0.1724 -2.4200
 6729SOL     OW31822   2.967   2.224   2.585 -0.1898  0.1589  0.4423
 6729SOL    HW131823   2.888   2.185   2.624 -0.7311 -0.2121 -1.0444
 6729SOL    HW231824   2.956   2.319   2.587  0.6929  0.2652  0.0896
 6730SOL     OW31825   4.567   0.850   7.480 -0.0974  0.4694  0.0568
 6730SOL    HW131826   4.560   0.934   7.527  0.9304  0.6919 -0.1908
 6730SOL    HW231827   4.520   0.791   7.539  0.6471 -1.0983 -0.9386
 6731SOL     OW31828   2.386   0.727  13.339  0.1386  0.2505  0.2130
 6731SOL    HW131829   2.349   0.807  13.374  1.6756  1.0667 -0.0381
 6731SOL    HW231830   2.426   0.689  13.417  1.1033  0.7540 -0.0368
 6732SOL     OW31831   4.491   0.784   3.481  0.9704 -0.1997  0.0643
 6732SOL    HW131832   4.400   0.771   3.456  1.2011  0.0664 -0.9246
 6732SOL    HW231833   4.494   0.876   3.457 -0.7856  0.2485  1.5871
 6733SOL     OW31834   0.986   0.806   1.037 -0.1723  0.0907 -0.1627
 6733SOL    HW131835   0.994   0.760   0.953  0.1839 -1.7129  0.8675
 6733SOL    HW231836   1.004   0.893   1.000  0.5050  0.8127  1.8427
 6734SOL     OW31837   2.659   3.612   0.993 -0.4472 -0.3210  0.3437
 6734SOL    HW131838   2.667   3.674   1.065  0.5931  0.2852 -0.2846
 6734SOL    HW231839   2.640   3.675   0.923 -1.8446 -0.3779  0.6693
 6735SOL     OW31840   1.839   1.605  13.946 -0.3826 -0.0451  0.2871
 6735SOL    HW131841   1.893   1.531  13.976 -2.6293 -0.9230  2.2467
 6735SOL    HW231842   1.890   1.676  13.986 -0.6417 -0.7502  1.8795
 6736SOL     OW31843   4.542   2.521   9.036 -0.0786 -0.3481  0.2218
 6736SOL    HW131844   4.623   2.489   9.075  2.1696  1.9640 -2.5540
 6736SOL    HW231845   4.483   2.498   9.108 -0.4826 -1.2967 -0.4119
 6737SOL     OW31846   0.555   3.818   7.423 -0.5221 -0.3669  0.1978
 6737SOL    HW131847   0.635   3.857   7.457 -1.1198  0.3098  0.8252
 6737SOL    HW231848   0.538   3.856   7.337 -1.4313 -1.7572 -0.2374
 6738SOL     OW31849   2.884   0.383  17.084  0.0167 -0.3837  0.4719
 6738SOL    HW131850   2.972   0.347  17.070 -0.3031 -0.6254 -0.9558
 6738SOL    HW231851   2.850   0.368  16.996  0.8492  0.2820  0.0310
 6739SOL     OW31852   0.333   1.000   8.734 -0.5006 -0.2691 -0.3516
 6739SOL    HW131853   0.415   1.046   8.717  0.1458 -0.3790  2.4713
 6739SOL    HW231854   0.276   1.071   8.707 -0.8964 -0.5393 -0.2216
 6740SOL     OW31855   0.597   1.474   6.172 -0.3838 -0.5480 -0.1183
 6740SOL    HW131856   0.580   1.466   6.266 -0.6509 -1.2300 -0.2269
 6740SOL    HW231857   0.521   1.439   6.125 -0.1901  0.1257 -0.9493
 6741SOL     OW31858   1.321   3.596   9.394 -0.1018  0.0123  0.3863
 6741SOL    HW131859   1.275   3.540   9.457 -0.4980 -0.3652 -0.2309
 6741SOL    HW231860   1.247   3.626   9.341  0.4256 -1.7704 -1.3362
 6742SOL     OW31861   0.539   1.276   7.779 -0.2203 -0.6282 -0.1494
 6742SOL    HW131862   0.477   1.343   7.749 -0.6016 -1.4306 -1.1370
 6742SOL    HW231863   0.623   1.315   7.803 -1.4670  3.0589 -1.8040
 6743SOL     OW31864   3.571   2.936  11.072  0.6188 -0.0208 -0.3337
 6743SOL    HW131865   3.592   2.845  11.088 -0.1073 -0.0179  0.6330
 6743SOL    HW231866   3.653   2.963  11.031  0.3708 -0.1789 -0.9462
 6744SOL     OW31867   3.462   3.925  17.011  0.0847  0.2348 -0.4069
 6744SOL    HW131868   3.546   3.928  16.966  0.7113  1.1364  0.8287
 6744SOL    HW231869   3.426   3.874  16.938  0.1997  0.0052 -0.3030
 6745SOL     OW31870   2.228   2.237   2.352  0.7124 -0.0346 -0.4384
 6745SOL    HW131871   2.232   2.142   2.349  1.7556  0.0026 -0.3432
 6745SOL    HW231872   2.285   2.258   2.278 -0.4485 -1.2255 -1.6736
 6746SOL     OW31873   0.354   2.105  11.582  0.1343 -0.3775 -0.6854
 6746SOL    HW131874   0.401   2.022  11.587  0.8147  0.1687  1.9164
 6746SOL    HW231875   0.339   2.118  11.676  1.3273 -1.0926 -0.3987
 6747SOL     OW31876   0.585   0.157   6.883  0.0101  0.1701  0.2437
 6747SOL    HW131877   0.588   0.072   6.927  1.0909  0.4440  0.7001
 6747SOL    HW231878   0.564   0.218   6.955  0.9902  0.8783 -0.0692
 6748SOL     OW31879   4.113   1.170   4.779 -0.5090 -0.2796  0.2864
 6748SOL    HW131880   4.078   1.259   4.793 -0.0191 -0.0259 -0.1000
 6748SOL    HW231881   4.205   1.186   4.760 -0.5775  0.8808  0.9056
 6749SOL     OW31882   0.521   1.064   7.598 -0.5131  0.0871 -0.7002
 6749SOL    HW131883   0.571   1.000   7.648  2.5084  2.7965 -0.3084
 6749SOL    HW231884   0.529   1.139   7.657 -0.5726 -1.3272  1.1190
 6750SOL     OW31885   0.010   2.028   2.976  0.6446 -0.6973 -0.1037
 6750SOL    HW131886   4.722   2.112   3.014 -1.0697 -1.2561 -0.0525
 6750SOL    HW231887   0.035   1.974   3.051  1.7591 -0.0120  0.0177
 6751SOL     OW31888   0.460   3.206   5.999 -0.0756 -0.0249 -0.2782
 6751SOL    HW131889   0.376   3.167   6.024  0.7619 -0.5496  1.6749
 6751SOL    HW231890   0.457   3.297   6.027  0.5935  0.1007 -0.6141
 6752SOL     OW31891   1.088   1.196  16.698  0.4603  0.3219  0.4748
 6752SOL    HW131892   1.037   1.228  16.623  0.6452  1.9729  1.0733
 6752SOL    HW231893   1.028   1.130  16.733 -1.8350  1.0961 -2.0018
 6753SOL     OW31894   1.906   3.366  12.022 -0.3899  0.4414  0.1163
 6753SOL    HW131895   1.887   3.420  12.099 -1.3818 -0.2204  0.3344
 6753SOL    HW231896   1.821   3.384  11.982 -0.9531 -1.6446  0.3880
 6754SOL     OW31897   0.789   3.055  15.231 -0.1281 -0.2306 -0.8171
 6754SOL    HW131898   0.856   3.030  15.295 -1.5503 -0.2859  0.6437
 6754SOL    HW231899   0.835   3.122  15.180  0.5565  1.0882  1.5368
 6755SOL     OW31900   4.518   2.534   6.683 -0.0139 -0.0766 -0.1767
 6755SOL    HW131901   4.447   2.586   6.720 -0.1877 -1.5217  1.4869
 6755SOL    HW231902   4.481   2.447   6.698 -0.7407  0.4413  0.9785
 6756SOL     OW31903   0.772   0.282   7.878  0.2467 -0.7128 -0.0494
 6756SOL    HW131904   0.685   0.307   7.848 -0.0060  1.9901  2.9354
 6756SOL    HW231905   0.790   0.342   7.950 -2.4251 -0.3453  0.3121
 6757SOL     OW31906   4.410   4.580   6.039  0.0809  0.4854 -0.2750
 6757SOL    HW131907   4.474   4.612   6.103  1.8675  1.8069 -2.6736
 6757SOL    HW231908   4.399   4.662   5.991  1.0225  1.9833  2.1087
 6758SOL     OW31909   3.483   2.355  14.340 -0.0857  0.1264  0.1670
 6758SOL    HW131910   3.475   2.274  14.288 -0.3392  0.2994 -0.0629
 6758SOL    HW231911   3.523   2.323  14.421 -1.9372  0.0907  1.0681
 6759SOL     OW31912   2.844   2.511   1.903  0.4192  0.0027 -0.3176
 6759SOL    HW131913   2.925   2.467   1.877  0.7064  0.6294 -0.4871
 6759SOL    HW231914   2.788   2.443   1.939 -1.6220  1.2995 -1.0520
 6760SOL     OW31915   0.856   4.152   9.262  0.0636  0.3490  0.0391
 6760SOL    HW131916   0.777   4.205   9.271  0.6558  1.2781 -0.1909
 6760SOL    HW231917   0.925   4.214   9.285  1.0279 -0.7974  0.2146
 6761SOL     OW31918   4.640   3.031   3.477 -0.0661 -0.7190  0.0310
 6761SOL    HW131919   4.557   3.056   3.437  0.2978  1.7399  0.7998
 6761SOL    HW231920   4.611   3.049   3.567 -1.4712  0.3963 -0.6517
 6762SOL     OW31921   3.483   1.639   5.922 -0.6563  0.3745 -0.6155
 6762SOL    HW131922   3.468   1.699   5.995 -2.0424 -0.8612  0.1127
 6762SOL    HW231923   3.486   1.690   5.841  3.2602  2.4414  0.8333
 6763SOL     OW31924   0.345   2.130  14.668 -0.1463 -0.3655  0.0653
 6763SOL    HW131925   0.429   2.141  14.624  0.1861 -0.0174  0.7760
 6763SOL    HW231926   0.356   2.206  14.726  0.0593 -0.2272 -0.1524
 6764SOL     OW31927   0.730   3.424   2.957  0.0820 -0.3851  0.4286
 6764SOL    HW131928   0.784   3.467   2.891  0.2626 -1.5524 -0.1818
 6764SOL    HW231929   0.651   3.438   2.904  0.4645  0.6032  0.1172
 6765SOL     OW31930   0.106   3.561   6.377  0.1814  0.5078  0.0019
 6765SOL    HW131931   0.180   3.557   6.316 -0.6165 -1.4615 -0.8343
 6765SOL    HW231932   0.105   3.469   6.404 -2.2040  0.0518 -1.6786
 6766SOL     OW31933   1.860   3.628   4.674  0.0970 -0.0003  0.3990
 6766SOL    HW131934   1.864   3.537   4.646 -1.9058 -0.3997  1.4035
 6766SOL    HW231935   1.774   3.655   4.642  0.2121  1.2639  1.1546
 6767SOL     OW31936   2.236   2.238   7.210  0.2739 -0.1829 -0.2228
 6767SOL    HW131937   2.246   2.323   7.255 -0.4977  0.2781 -0.9336
 6767SOL    HW231938   2.326   2.205   7.215  0.1786 -0.2145  1.2681
 6768SOL     OW31939   4.289   1.671   0.093  0.0705 -0.2597  0.0678
 6768SOL    HW131940   4.278   1.749   0.038 -1.1423  0.3116  1.1078
 6768SOL    HW231941   4.384   1.662   0.085 -0.1069 -1.4843 -0.5779
 6769SOL     OW31942   1.854   3.719   7.190 -0.0018  0.6769 -0.0439
 6769SOL    HW131943   1.847   3.636   7.142  1.2182  0.2387  0.5430
 6769SOL    HW231944   1.811   3.697   7.273 -0.1937  0.7318 -0.1272
 6770SOL     OW31945   4.255   2.624   4.821 -0.5747  0.1468  0.1445
 6770SOL    HW131946   4.349   2.640   4.828 -0.6367  0.7306 -0.2920
 6770SOL    HW231947   4.258   2.541   4.773 -0.2996  0.4073 -0.2924
 6771SOL     OW31948   3.650   2.892   6.007 -0.0597  0.3875 -0.0883
 6771SOL    HW131949   3.638   2.980   5.972  1.8718  0.3205 -0.9384
 6771SOL    HW231950   3.746   2.892   6.004 -0.0636 -2.4458 -0.5581
 6772SOL     OW31951   4.131   2.996   2.236 -0.2250  0.7711  0.6076
 6772SOL    HW131952   4.065   3.029   2.175  0.4048 -1.0522 -1.0656
 6772SOL    HW231953   4.210   3.031   2.196  1.8007 -0.0764  3.8589
 6773SOL     OW31954   2.614   4.105   3.635  0.3886 -1.0374 -0.2236
 6773SOL    HW131955   2.613   4.035   3.569 -0.1042 -2.4976  1.3496
 6773SOL    HW231956   2.527   4.107   3.674  0.0566 -3.0556 -0.8625
 6774SOL     OW31957   4.314   3.409  15.055 -0.0512 -0.7486  0.0002
 6774SOL    HW131958   4.364   3.397  14.975  0.6811  1.5916  0.1145
 6774SOL    HW231959   4.362   3.361  15.122 -1.3105 -0.5054  1.0813
 6775SOL     OW31960   2.697   2.797   3.530 -0.2089  0.7022 -0.0609
 6775SOL    HW131961   2.672   2.767   3.443  2.4024  1.3754 -1.0444
 6775SOL    HW231962   2.790   2.773   3.524 -0.7943 -1.1363 -1.5729
 6776SOL     OW31963   2.487   1.720  13.255 -0.2837 -0.1485 -0.0912
 6776SOL    HW131964   2.535   1.774  13.318 -2.9106  1.7486  0.2440
 6776SOL    HW231965   2.429   1.669  13.312 -0.7528 -2.8405 -2.9419
 6777SOL     OW31966   2.915   0.127   4.512  0.3003 -0.8479 -0.1634
 6777SOL    HW131967   2.880   0.216   4.524 -0.1516 -1.0376 -0.0526
 6777SOL    HW231968   2.904   0.082   4.596 -1.2166 -1.7491 -0.8366
 6778SOL     OW31969   3.740   2.901   5.124  0.3287  0.0650  0.1174
 6778SOL    HW131970   3.735   2.839   5.052  2.3184 -2.5252  2.2024
 6778SOL    HW231971   3.813   2.862   5.173 -1.0774 -0.8681  1.4657
 6779SOL     OW31972   3.727   2.825   7.793  0.0139  0.2800 -0.3569
 6779SOL    HW131973   3.822   2.813   7.804 -0.5712 -1.2893  2.8968
 6779SOL    HW231974   3.725   2.825   7.697  2.3673  2.2256 -0.4234
 6780SOL     OW31975   0.867   1.410   7.885 -0.5165 -0.1158 -0.8210
 6780SOL    HW131976   0.931   1.404   7.957 -0.3219  0.0387 -0.9811
 6780SOL    HW231977   0.784   1.422   7.932 -0.6134 -0.5680 -0.8821
 6781SOL     OW31978   2.302   3.880   0.918 -0.1172  0.3370 -0.6470
 6781SOL    HW131979   2.316   3.944   0.849  2.0801  1.7018  1.0576
 6781SOL    HW231980   2.379   3.824   0.919 -1.0028 -0.8836 -0.2567
 6782SOL     OW31981   3.479   4.126   8.595  0.4485 -0.1961 -0.0146
 6782SOL    HW131982   3.532   4.097   8.669  1.1949  2.1917  0.3823
 6782SOL    HW231983   3.415   4.055   8.587 -0.1907  0.0501  2.9203
 6783SOL     OW31984   0.629   3.184   9.273  0.3331 -0.5953  0.5864
 6783SOL    HW131985   0.542   3.222   9.262  0.6474 -0.3027 -0.9153
 6783SOL    HW231986   0.608   3.093   9.252  1.2360 -0.8745  0.8828
 6784SOL     OW31987   1.112   3.013   6.027 -0.0264 -0.3905  0.5313
 6784SOL    HW131988   1.081   2.925   6.048 -0.3159 -0.6659 -1.0397
 6784SOL    HW231989   1.137   3.049   6.112 -0.3023 -0.3235  0.5834
 6785SOL     OW31990   4.570   1.657   0.126  0.1530 -0.0563  0.1676
 6785SOL    HW131991   4.660   1.664   0.094  0.4723  0.3364  1.1499
 6785SOL    HW231992   4.565   1.735   0.180 -0.2367  0.6008 -0.8087
 6786SOL     OW31993   1.823   1.824   9.320  0.4888 -0.1600  0.1098
 6786SOL    HW131994   1.794   1.759   9.256 -0.3879 -0.8470  1.1983
 6786SOL    HW231995   1.908   1.836   9.278  0.5334  0.1324  0.2864
 6787SOL     OW31996   2.240   2.801   8.547  0.6672  0.3415 -0.1524
 6787SOL    HW131997   2.276   2.720   8.584  2.1587  1.5994  1.1336
 6787SOL    HW231998   2.183   2.827   8.619 -1.6489 -2.2213 -1.0675
 6788SOL     OW31999   4.008   2.596  16.174 -0.4043 -0.4469  0.8005
 6788SOL    HW132000   4.082   2.552  16.216 -0.0777 -1.4520 -0.8312
 6788SOL    HW232001   4.064   2.633  16.106 -0.8739  0.2192  0.7824
 6789SOL     OW32002   1.142   1.383   5.016 -0.2184  0.1486 -0.2958
 6789SOL    HW132003   1.229   1.409   4.986 -0.3467  2.4506  1.3274
 6789SOL    HW232004   1.097   1.386   4.931 -0.0514  1.8831 -0.3191
 6790SOL     OW32005   1.475   2.436   5.459 -0.4995 -0.1459 -0.3951
 6790SOL    HW132006   1.529   2.356   5.462  0.0041  0.2636  1.3641
 6790SOL    HW232007   1.522   2.483   5.528 -0.1356  2.4782 -2.4202
 6791SOL     OW32008   3.919   3.525   4.407 -0.0745  0.0610  0.7447
 6791SOL    HW132009   3.905   3.531   4.501 -0.8029 -2.6480  0.8095
 6791SOL    HW232010   3.828   3.543   4.381  1.1809  4.5965 -0.4838
 6792SOL     OW32011   4.132   4.562   4.175 -0.4171 -0.1951  0.2008
 6792SOL    HW132012   4.042   4.530   4.188  1.1486 -3.4068  3.1446
 6792SOL    HW232013   4.155   4.614   4.252 -0.1523  1.4514 -0.9927
 6793SOL     OW32014   2.853   2.221   8.593  0.0682 -0.4657  0.0664
 6793SOL    HW132015   2.789   2.189   8.530  0.4271  2.8759 -1.9761
 6793SOL    HW232016   2.882   2.139   8.635 -0.5842 -0.3116  0.8227
 6794SOL     OW32017   0.906   1.522   3.571 -0.3165  0.1746  0.1682
 6794SOL    HW132018   0.935   1.459   3.505 -0.1979  1.3195 -0.8733
 6794SOL    HW232019   0.856   1.468   3.633  0.5955 -1.1590 -0.2564
 6795SOL     OW32020   1.558   0.568   2.993  0.3433 -0.0849  0.3162
 6795SOL    HW132021   1.519   0.523   2.918 -1.4567  1.6517  0.2121
 6795SOL    HW232022   1.613   0.499   3.032 -0.0558 -0.4085  0.3103
 6796SOL     OW32023   3.208   2.473   3.862  0.1636 -0.7585  0.0854
 6796SOL    HW132024   3.239   2.561   3.882  1.1653 -0.8928 -0.8641
 6796SOL    HW232025   3.168   2.452   3.946 -1.1579  1.5978  0.0275
 6797SOL     OW32026   0.811   2.992  16.984  0.3757 -0.2284 -0.5826
 6797SOL    HW132027   0.835   3.076  16.946 -2.3787  0.4213 -0.8916
 6797SOL    HW232028   0.718   2.988  16.962 -0.0804  0.5058  1.2002
 6798SOL     OW32029   3.793   2.050   1.622 -0.4308  0.1934 -0.0830
 6798SOL    HW132030   3.705   2.072   1.653 -1.6927 -0.0214 -3.4987
 6798SOL    HW232031   3.803   1.962   1.660 -1.9131 -0.3653 -0.9717
 6799SOL     OW32032   4.477   0.164   6.549  0.8832  0.4655 -0.8401
 6799SOL    HW132033   4.529   0.245   6.550 -0.4464  1.3131 -1.1379
 6799SOL    HW232034   4.547   0.106   6.517  1.1802 -0.2223  1.0801
 6800SOL     OW32035   3.598   0.401   3.750 -0.5061  0.0738 -0.3740
 6800SOL    HW132036   3.573   0.466   3.815 -0.6960  0.2083 -0.5804
 6800SOL    HW232037   3.616   0.457   3.675 -0.0318  1.0065  0.4422
 6801SOL     OW32038   4.616   1.701   6.107 -0.1392 -0.4154 -0.1411
 6801SOL    HW132039   4.585   1.617   6.139  1.8768 -0.0844  2.6994
 6801SOL    HW232040   4.626   1.748   6.190  0.2125 -0.0509 -0.3884
 6802SOL     OW32041   1.840   0.637   7.068 -0.3346  0.2686  0.0280
 6802SOL    HW132042   1.792   0.716   7.048  0.0691  0.2688 -0.9089
 6802SOL    HW232043   1.822   0.641   7.162 -1.0647 -1.6201 -0.0293
 6803SOL     OW32044   1.982   2.596   2.516  0.0344 -0.0798  0.2474
 6803SOL    HW132045   1.992   2.583   2.422 -1.0730  2.0220 -0.1467
 6803SOL    HW232046   2.049   2.664   2.529  0.9603 -0.5392 -2.1728
 6804SOL     OW32047   0.438   0.450   4.081  0.2641  0.4197 -0.3561
 6804SOL    HW132048   0.519   0.417   4.121  0.4618  2.6108  1.0552
 6804SOL    HW232049   0.458   0.430   3.990 -0.3530 -1.0404 -0.1801
 6805SOL     OW32050   4.483   1.547   0.919  0.1678 -0.3094  0.0320
 6805SOL    HW132051   4.388   1.534   0.920 -0.1193  2.0857  2.4712
 6805SOL    HW232052   4.510   1.517   1.006 -2.1504  1.8643  1.5002
 6806SOL     OW32053   1.850   1.572   3.801 -0.0346 -0.7440  0.0606
 6806SOL    HW132054   1.902   1.584   3.722 -1.5240 -0.8558 -0.9497
 6806SOL    HW232055   1.820   1.662   3.815 -0.3998 -0.6267 -1.4761
 6807SOL     OW32056   1.211   3.673   2.837 -0.3189  0.1749 -0.1025
 6807SOL    HW132057   1.255   3.605   2.888 -1.6298 -0.5589  0.0560
 6807SOL    HW232058   1.175   3.620   2.767  0.2834  2.0473 -1.8543
 6808SOL     OW32059   2.859   4.517   9.743  0.4754 -0.1906 -0.0291
 6808SOL    HW132060   2.928   4.521   9.809 -1.5564  0.8485  2.0404
 6808SOL    HW232061   2.909   4.552   9.670 -0.1479  0.9265  0.0742
 6809SOL     OW32062   2.261   0.149   6.864  0.3439  0.1447 -0.6519
 6809SOL    HW132063   2.189   0.106   6.817 -0.2629 -0.4304  0.8140
 6809SOL    HW232064   2.328   0.084   6.846 -0.4200 -0.6463 -0.6719
 6810SOL     OW32065   0.618   3.556   4.920  0.0096 -0.0992  0.2977
 6810SOL    HW132066   0.605   3.634   4.866  1.4225 -0.2924 -0.3065
 6810SOL    HW232067   0.700   3.589   4.957  0.0905  0.9486 -0.8178
 6811SOL     OW32068   3.018   0.833   2.462 -0.4226  0.0558  0.6362
 6811SOL    HW132069   2.947   0.777   2.430  1.0280 -1.3091 -0.1766
 6811SOL    HW232070   3.066   0.772   2.517  0.2987 -1.0855 -1.2650
 6812SOL     OW32071   2.008   2.431   8.714 -0.0411  0.0534 -0.7276
 6812SOL    HW132072   2.052   2.515   8.725  0.1130 -0.0510 -0.5539
 6812SOL    HW232073   2.012   2.407   8.806  0.9358 -1.8322 -1.2711
 6813SOL     OW32074   3.014   3.610   5.504  0.0705  0.1704 -0.4964
 6813SOL    HW132075   3.061   3.563   5.573 -3.6768 -0.8211  1.3486
 6813SOL    HW232076   2.974   3.536   5.460  0.7156 -0.4072 -0.1140
 6814SOL     OW32077   3.778   4.247   4.339  0.2511  0.0007 -0.3378
 6814SOL    HW132078   3.693   4.244   4.294 -1.0396 -1.3707  2.2238
 6814SOL    HW232079   3.758   4.271   4.430 -1.5830 -0.3763 -0.6448
 6815SOL     OW32080   2.289   3.354   2.417 -0.0323 -0.2350  0.2864
 6815SOL    HW132081   2.264   3.271   2.459 -0.6578 -0.0010  0.3761
 6815SOL    HW232082   2.216   3.412   2.435  0.0937  0.1843 -0.5468
 6816SOL     OW32083   0.007   1.693   8.851  0.2472  0.2447 -0.4739
 6816SOL    HW132084   0.025   1.630   8.920 -1.0756  0.3782 -0.0177
 6816SOL    HW232085   4.661   1.657   8.822  0.8893 -2.5797  1.2700
 6817SOL     OW32086   2.897   0.005   8.123  0.0225  0.3182 -0.0622
 6817SOL    HW132087   2.961   0.069   8.157  0.8542  0.4279 -1.8290
 6817SOL    HW232088   2.919   0.004   8.030  0.4798  0.3580  0.0416
 6818SOL     OW32089   1.243   1.837   0.414  0.0498  0.0038 -0.0523
 6818SOL    HW132090   1.186   1.907   0.382 -0.2737  0.0908  0.7171
 6818SOL    HW232091   1.216   1.835   0.506  0.8683  0.5365  0.2017
 6819SOL     OW32092   0.882   1.218   2.344  0.8645 -0.5191 -0.8425
 6819SOL    HW132093   0.857   1.126   2.334 -0.7047  0.0695 -2.3231
 6819SOL    HW232094   0.825   1.266   2.285 -0.8980 -0.8062  0.6266
 6820SOL     OW32095   3.957   2.554  13.059 -0.0076 -0.2784 -0.1408
 6820SOL    HW132096   3.983   2.501  13.134  4.6075  0.0183 -1.5056
 6820SOL    HW232097   3.866   2.528  13.047 -0.8262  1.6380  1.9926
 6821SOL     OW32098   0.447   0.999  15.524  0.3111 -0.2615  0.1437
 6821SOL    HW132099   0.412   0.958  15.603 -0.6269  2.5174  1.1731
 6821SOL    HW232100   0.411   0.935  15.462  0.7389 -0.6203  0.2630
 6822SOL     OW32101   3.695   3.899   7.586 -0.0337  0.2291 -0.6096
 6822SOL    HW132102   3.725   3.985   7.615  1.4455 -1.4187  2.6997
 6822SOL    HW232103   3.615   3.889   7.637  0.1604  0.8297 -0.1781
 6823SOL     OW32104   3.340   4.201   3.856 -0.5358 -0.4876  0.0443
 6823SOL    HW132105   3.318   4.185   3.948 -0.9770  0.9532  0.1850
 6823SOL    HW232106   3.261   4.172   3.810 -0.9951 -2.2882  1.9405
 6824SOL     OW32107   4.168   4.307   3.806 -0.0810  0.0231  0.0171
 6824SOL    HW132108   4.153   4.215   3.827 -1.5831  0.4423  0.7392
 6824SOL    HW232109   4.215   4.351   3.878 -1.7864 -0.1360  1.2241
 6825SOL     OW32110   0.910   0.710   0.181  0.6748  0.2146 -0.1266
 6825SOL    HW132111   0.845   0.705   0.112  1.6370  0.1077 -1.0341
 6825SOL    HW232112   0.976   0.655   0.138  0.2222 -0.0304 -0.5088
 6826SOL     OW32113   0.150   0.603  10.153  0.4918 -0.4249 -0.0336
 6826SOL    HW132114   0.237   0.640  10.136 -0.0092  1.0424  0.5455
 6826SOL    HW232115   0.174   0.535  10.215 -2.8563  1.3407  3.1811
 6827SOL     OW32116   3.637   3.203  11.007  0.2043 -0.0648  0.0435
 6827SOL    HW132117   3.595   3.187  10.923 -0.6708 -0.2866  0.5245
 6827SOL    HW232118   3.720   3.156  10.997  0.2394  0.0230 -0.0726
 6828SOL     OW32119   3.923   0.085   2.263 -0.3139 -0.4522 -0.2270
 6828SOL    HW132120   3.924   0.004   2.212 -0.1385  0.2536 -1.3372
 6828SOL    HW232121   3.831   0.103   2.246 -1.0693 -0.9799  3.2482
 6829SOL     OW32122   0.014   4.411  17.121 -0.1352  0.0861  0.2482
 6829SOL    HW132123   0.057   4.488  17.083 -1.6532  1.5435  1.4859
 6829SOL    HW232124   0.047   4.340  17.067  0.9618  0.9906 -0.2774
 6830SOL     OW32125   0.615   2.304   3.707 -0.0091  0.3376 -0.3664
 6830SOL    HW132126   0.571   2.238   3.654  0.3244 -0.4053  0.2783
 6830SOL    HW232127   0.591   2.269   3.793 -1.4051  1.0407 -0.4716
 6831SOL     OW32128   3.352   4.123  10.139  0.3426 -0.4337  0.2860
 6831SOL    HW132129   3.324   4.147  10.227  1.0665 -0.4334  0.5196
 6831SOL    HW232130   3.282   4.064  10.112  1.0288 -1.9011  1.7235
 6832SOL     OW32131   2.980   3.043   5.538  0.1046 -0.4345 -0.4688
 6832SOL    HW132132   2.960   2.949   5.529  0.9681 -0.4776 -1.8277
 6832SOL    HW232133   2.927   3.062   5.615 -0.8689  0.6455 -1.4072
 6833SOL     OW32134   4.051   1.278   7.592  0.1383  0.3130 -0.1609
 6833SOL    HW132135   4.005   1.277   7.507 -0.8031  1.3270  0.3341
 6833SOL    HW232136   4.022   1.201   7.641 -1.2492  0.0528 -1.3600
 6834SOL     OW32137   3.367   4.486   6.671 -0.5697  0.0615  0.1260
 6834SOL    HW132138   3.369   4.541   6.749  0.4870  0.3778 -0.1262
 6834SOL    HW232139   3.274   4.463   6.661 -0.6420 -0.6169  2.4485
 6835SOL     OW32140   2.933   1.040  15.435 -0.4064 -0.2927  0.5095
 6835SOL    HW132141   2.976   1.068  15.516 -1.8145  0.2974  1.0466
 6835SOL    HW232142   3.002   1.077  15.379 -2.0410  1.0196 -0.6339
 6836SOL     OW32143   0.004   1.254   4.891  0.4864  0.4926 -0.5903
 6836SOL    HW132144   4.696   1.179   4.853 -0.2603 -0.2100  1.6864
 6836SOL    HW232145   4.712   1.323   4.833  2.7951  1.4230 -0.6750
 6837SOL     OW32146   1.313   3.138   9.344 -0.3123  0.2910 -0.5854
 6837SOL    HW132147   1.326   3.176   9.430 -0.8874  1.1395 -0.8750
 6837SOL    HW232148   1.253   3.204   9.309 -0.9174  1.6205  3.0059
 6838SOL     OW32149   4.620   3.369   3.780  0.2260 -0.7405  0.2550
 6838SOL    HW132150   4.597   3.340   3.869  1.1424 -0.1555  0.6750
 6838SOL    HW232151   4.571   3.310   3.722  1.0058 -1.6430  0.5161
 6839SOL     OW32152   3.049   0.649   8.084  0.3410  0.2867 -0.0276
 6839SOL    HW132153   2.980   0.629   8.147  0.8002 -0.3375  0.2791
 6839SOL    HW232154   3.124   0.652   8.143  0.8981  1.1596 -0.7862
 6840SOL     OW32155   4.214   3.805   4.263 -0.7392 -0.7691  0.1008
 6840SOL    HW132156   4.280   3.872   4.242 -1.5507  0.8039  2.5535
 6840SOL    HW232157   4.275   3.732   4.273  2.0435  1.0931 -3.3671
 6841SOL     OW32158   3.288   3.884   4.166  0.1656 -0.4509  0.3311
 6841SOL    HW132159   3.361   3.920   4.115 -0.7280  1.0771  0.1569
 6841SOL    HW232160   3.335   3.814   4.211  0.1922 -1.2354 -0.9021
 6842SOL     OW32161   2.725   2.880   3.844  0.3053 -0.1247 -0.0660
 6842SOL    HW132162   2.809   2.834   3.857 -0.2043 -1.1607 -0.4081
 6842SOL    HW232163   2.715   2.875   3.749 -0.4520 -0.3497  0.0275
 6843SOL     OW32164   2.714   3.318   4.718  0.1899  0.3158 -0.1343
 6843SOL    HW132165   2.650   3.249   4.701  0.0836  0.0414  1.4103
 6843SOL    HW232166   2.725   3.364   4.634  3.1531 -0.1248  0.0239
 6844SOL     OW32167   0.934   0.866   7.284  0.4017 -0.2778  0.1834
 6844SOL    HW132168   0.923   0.772   7.299  1.6376 -0.7450 -1.7677
 6844SOL    HW232169   0.842   0.889   7.283  0.4094 -0.2105  1.2222
 6845SOL     OW32170   1.886   3.231   0.895 -0.0461  0.4880 -0.0478
 6845SOL    HW132171   1.962   3.288   0.910  0.0583  0.1593  0.6766
 6845SOL    HW232172   1.866   3.263   0.807 -0.9020 -1.4442 -0.5510
 6846SOL     OW32173   1.166   3.957   9.461 -0.0082  0.3888 -0.1691
 6846SOL    HW132174   1.229   3.896   9.500 -0.6650 -0.3134 -0.1998
 6846SOL    HW232175   1.213   4.002   9.391  1.6937  0.3455  0.9217
 6847SOL     OW32176   1.116   4.248   4.212 -0.2077 -0.1427 -0.2415
 6847SOL    HW132177   1.169   4.313   4.258  1.3064 -1.0961 -0.6434
 6847SOL    HW232178   1.034   4.256   4.260  1.9537 -0.7068  3.5399
 6848SOL     OW32179   0.635   4.531   4.170  0.7516  0.5221  0.8000
 6848SOL    HW132180   0.554   4.563   4.210 -0.0155  2.0505 -2.0000
 6848SOL    HW232181   0.693   4.527   4.247 -2.1476 -0.2305  2.9738
 6849SOL     OW32182   1.574   1.933   6.096 -0.3841  0.0665 -0.7014
 6849SOL    HW132183   1.641   1.957   6.160  0.3207  0.1497 -1.4835
 6849SOL    HW232184   1.529   2.018   6.102 -0.7416 -0.0861 -1.2243
 6850SOL     OW32185   1.464   3.547   6.477 -0.6406 -0.0118 -0.0231
 6850SOL    HW132186   1.504   3.581   6.557 -0.9843  0.1038  0.0987
 6850SOL    HW232187   1.394   3.612   6.470 -1.5737 -1.0010  0.1095
 6851SOL     OW32188   2.835   0.405   3.300  0.0662 -0.6194  0.3358
 6851SOL    HW132189   2.844   0.443   3.212 -3.1375 -3.6778 -1.3159
 6851SOL    HW232190   2.895   0.459   3.351 -1.2842 -0.1704  1.4220
 6852SOL     OW32191   3.588   2.666   6.872 -0.6293 -0.2896  0.3795
 6852SOL    HW132192   3.597   2.673   6.967 -0.5726 -0.2630  0.3721
 6852SOL    HW232193   3.497   2.693   6.858 -0.9070 -1.2151  0.3638
 6853SOL     OW32194   1.430   2.743   3.519  0.4409  0.6039 -0.0821
 6853SOL    HW132195   1.404   2.653   3.542  1.2432  0.1358 -0.9902
 6853SOL    HW232196   1.429   2.744   3.423  0.1654  1.9531 -0.0519
 6854SOL     OW32197   2.240   2.827   2.259 -0.0994  0.3990 -0.1190
 6854SOL    HW132198   2.335   2.825   2.246 -0.3144  0.4732 -1.6870
 6854SOL    HW232199   2.219   2.892   2.193 -1.6401  0.8503  0.8357
 6855SOL     OW32200   3.865   3.409   6.987  0.0045  0.3729  0.7886
 6855SOL    HW132201   3.916   3.489   7.002  0.7914 -0.0210  0.1992
 6855SOL    HW232202   3.789   3.437   6.935  0.7634 -0.0935 -0.5734
 6856SOL     OW32203   1.893   0.851   9.318  0.6179 -0.3175  0.0606
 6856SOL    HW132204   1.946   0.813   9.389  1.9123  1.9119  0.2817
 6856SOL    HW232205   1.839   0.922   9.352  3.2899  1.3205  0.9495
 6857SOL     OW32206   0.059   4.156   5.366  0.0854  0.7043  0.0735
 6857SOL    HW132207   0.075   4.071   5.406  1.2276  1.5505  1.4411
 6857SOL    HW232208   0.060   4.134   5.273 -0.1921 -0.2002  0.2939
 6858SOL     OW32209   1.581   4.396   9.505 -0.1820 -0.0645 -0.3095
 6858SOL    HW132210   1.570   4.383   9.411 -0.0776 -0.7413 -0.2321
 6858SOL    HW232211   1.555   4.308   9.532  0.9524  0.1626  1.5959
 6859SOL     OW32212   0.813   2.491   0.131 -0.3942  0.3187 -0.6488
 6859SOL    HW132213   0.743   2.555   0.118 -0.6747 -0.0264 -0.8643
 6859SOL    HW232214   0.798   2.441   0.211  1.1520  2.4800  0.9995
 6860SOL     OW32215   2.174   1.379   1.246  0.7375  0.0030 -0.2642
 6860SOL    HW132216   2.173   1.325   1.167  2.0925 -1.5104  0.7530
 6860SOL    HW232217   2.253   1.431   1.233 -0.8731  2.9529  1.8099
 6861SOL     OW32218   0.072   2.081  15.440 -0.0179 -0.0304  0.1473
 6861SOL    HW132219   0.160   2.118  15.429 -0.7085  1.8804  1.1289
 6861SOL    HW232220   0.082   1.998  15.394  1.0986  0.4997 -0.5704
 6862SOL     OW32221   4.335   0.591   5.973  0.2242  0.1232  0.4428
 6862SOL    HW132222   4.386   0.552   6.044 -0.5205 -1.6392  0.0071
 6862SOL    HW232223   4.295   0.509   5.943 -0.5711  0.4596  0.5581
 6863SOL     OW32224   0.869   1.024  16.755 -0.2718  0.1636  0.0450
 6863SOL    HW132225   0.792   1.038  16.701  0.7148  0.5249 -1.2684
 6863SOL    HW232226   0.826   0.987  16.832 -0.5230  0.9831  0.2927
 6864SOL     OW32227   2.383   4.718   8.339 -0.7818  0.2237  0.0079
 6864SOL    HW132228   2.377   4.737   8.433  3.5495  1.0612  0.1280
 6864SOL    HW232229   2.389   0.072   8.315 -0.1910  0.5852  1.4806
 6865SOL     OW32230   2.792   4.071   1.631 -0.0960  0.2108 -0.8153
 6865SOL    HW132231   2.731   4.131   1.674  1.4485  1.7482 -0.7878
 6865SOL    HW232232   2.787   3.995   1.689  1.0647 -0.2562 -1.3348
 6866SOL     OW32233   0.763   1.846   2.931 -0.1838  0.5213 -0.8958
 6866SOL    HW132234   0.709   1.887   2.998 -0.0923 -0.5981 -0.1367
 6866SOL    HW232235   0.790   1.915   2.870 -1.5084  0.4081 -1.6110
 6867SOL     OW32236   1.849   1.154  13.939  0.5426  0.7509  0.8523
 6867SOL    HW132237   1.869   1.103  13.860 -0.9250 -0.5961  1.3659
 6867SOL    HW232238   1.896   1.234  13.913  2.8740 -0.8141  0.2643
 6868SOL     OW32239   0.601   1.922  13.582  0.2447  0.4392 -0.3131
 6868SOL    HW132240   0.629   1.924  13.674 -0.7059  1.5945 -0.0391
 6868SOL    HW232241   0.676   1.956  13.535  0.5178  1.7926  1.1121
 6869SOL     OW32242   2.223   3.142   5.386  0.3332  0.0287 -0.6232
 6869SOL    HW132243   2.308   3.187   5.391 -0.2490  1.0411  0.1197
 6869SOL    HW232244   2.195   3.158   5.476 -0.9367 -0.3837 -0.9479
 6870SOL     OW32245   0.951   1.492   3.139 -0.0523  0.4496 -0.3923
 6870SOL    HW132246   0.884   1.549   3.102  1.0973  1.4984 -0.8929
 6870SOL    HW232247   0.889   1.440   3.190  0.3924  0.5397  0.2467
 6871SOL     OW32248   2.710   0.747   3.298 -0.4563  0.0019  0.4090
 6871SOL    HW132249   2.629   0.798   3.302 -0.3230  0.1731  0.9812
 6871SOL    HW232250   2.743   0.745   3.388  2.0244  0.3715 -0.4880
 6872SOL     OW32251   4.670   0.753  11.090 -0.2031  0.4232 -0.5502
 6872SOL    HW132252   4.671   0.801  11.173 -1.4373 -1.8217  0.7873
 6872SOL    HW232253   4.643   0.817  11.025  1.3590 -0.6832 -2.3043
 6873SOL     OW32254   1.426   2.068  13.957  0.1649  0.1489 -0.4919
 6873SOL    HW132255   1.401   2.066  14.050  0.7816 -1.3314 -0.3601
 6873SOL    HW232256   1.371   1.999  13.920 -0.7268  0.6334 -0.0876
 6874SOL     OW32257   2.808   0.688  14.483 -0.2474  0.3929  0.1802
 6874SOL    HW132258   2.723   0.648  14.468  0.0786 -0.2341  0.0301
 6874SOL    HW232259   2.845   0.669  14.397  2.4950  0.2744  1.3961
 6875SOL     OW32260   3.883   0.209  11.431 -0.2573 -0.0679 -0.1593
 6875SOL    HW132261   3.912   0.299  11.418  1.0923 -0.4820  0.0011
 6875SOL    HW232262   3.789   0.216  11.414 -0.6031 -2.6683  0.6954
 6876SOL     OW32263   2.380   2.393   8.228 -0.2088  0.3867 -0.7309
 6876SOL    HW132264   2.403   2.382   8.320  0.0465 -1.0526 -0.9709
 6876SOL    HW232265   2.289   2.364   8.220 -0.0688  0.2676 -1.9704
 6877SOL     OW32266   1.885   1.085   6.311  0.2602  0.4857  0.1090
 6877SOL    HW132267   1.875   1.059   6.220  1.7466 -1.4564  0.5137
 6877SOL    HW232268   1.809   1.140   6.332 -0.9600 -0.8389 -0.8340
 6878SOL     OW32269   1.348   2.440   8.414  0.3212  0.0157  0.1759
 6878SOL    HW132270   1.442   2.425   8.427 -0.1576 -0.9651  2.6133
 6878SOL    HW232271   1.314   2.391   8.489  1.5079 -1.7319 -0.4145
 6879SOL     OW32272   1.213   3.639  13.693 -0.2870 -0.3272 -0.2412
 6879SOL    HW132273   1.264   3.583  13.752 -0.4561  0.9085  1.0899
 6879SOL    HW232274   1.246   3.609  13.609 -0.7812  4.1583 -2.0288
 6880SOL     OW32275   2.334   1.259  17.011  0.4290 -0.3762  0.0604
 6880SOL    HW132276   2.338   1.182  16.953  1.7557 -0.2500 -0.0208
 6880SOL    HW232277   2.397   1.223  17.074  0.6578  1.3047  0.7804
 6881SOL     OW32278   0.047   2.341   8.164 -0.2206  0.5185 -0.2339
 6881SOL    HW132279   0.032   2.382   8.250  2.4660 -1.7785  1.3224
 6881SOL    HW232280   0.108   2.274   8.195 -0.5946 -0.3894 -1.5097
 6882SOL     OW32281   0.693   3.218  11.512  0.0511 -0.1848  0.0854
 6882SOL    HW132282   0.677   3.153  11.444  0.5609 -0.0519 -0.1638
 6882SOL    HW232283   0.615   3.209  11.566  1.2741 -2.4496  1.4713
 6883SOL     OW32284   2.883   0.202   2.079  0.5106 -0.1026 -0.0061
 6883SOL    HW132285   2.812   0.159   2.127  1.1590  0.9772  1.9019
 6883SOL    HW232286   2.964   0.187   2.129 -0.1342  0.0846  1.0767
 6884SOL     OW32287   4.388   3.897   5.102  0.4088 -0.4801 -0.1782
 6884SOL    HW132288   4.484   3.891   5.095  0.6706  1.3489  1.8623
 6884SOL    HW232289   4.374   3.952   5.179  1.1478  1.1442 -1.1871
 6885SOL     OW32290   1.633   2.933   3.728  0.6458  0.1566 -0.0578
 6885SOL    HW132291   1.671   3.001   3.673  0.8936  0.2797  0.2649
 6885SOL    HW232292   1.685   2.855   3.708 -0.1427 -0.1752 -0.8155
 6886SOL     OW32293   1.500   4.669   9.259  0.1098 -0.4704 -0.2518
 6886SOL    HW132294   1.451   4.619   9.324 -0.5103  0.4789  0.0197
 6886SOL    HW232295   1.442   0.008   9.257  1.9834  0.8645 -3.9552
 6887SOL     OW32296   3.279   2.016   8.312  0.1399 -0.1330 -0.2136
 6887SOL    HW132297   3.263   1.938   8.260  0.3589  0.6857 -1.5033
 6887SOL    HW232298   3.375   2.019   8.309  0.1630 -3.1816 -2.4025
 6888SOL     OW32299   2.998   2.118   8.826 -0.0959 -0.4835  0.1257
 6888SOL    HW132300   2.913   2.084   8.852  0.5181 -0.9551  1.4915
 6888SOL    HW232301   3.048   2.040   8.798 -2.9194 -1.8076 -1.2484
 6889SOL     OW32302   2.998   4.387  14.007  0.2590 -0.6852  0.4383
 6889SOL    HW132303   2.992   4.312  14.066 -0.7254  0.0294  1.2383
 6889SOL    HW232304   2.942   4.449  14.053  0.8694  0.8914 -0.9527
 6890SOL     OW32305   2.779   1.740   7.333 -0.3244  0.4647  0.4112
 6890SOL    HW132306   2.773   1.824   7.379  0.3535  1.9560 -2.2146
 6890SOL    HW232307   2.872   1.720   7.344 -0.3016  0.4610  0.2018
 6891SOL     OW32308   3.878   2.840   7.232  0.0353 -0.7522  0.1937
 6891SOL    HW132309   3.842   2.867   7.148 -0.1069  1.7677  1.0389
 6891SOL    HW232310   3.969   2.869   7.223 -0.0867 -0.1425  0.8312
 6892SOL     OW32311   4.430   3.225   3.093 -0.4261 -0.3789  1.1564
 6892SOL    HW132312   4.437   3.277   3.013 -0.9294  1.1205  2.1075
 6892SOL    HW232313   4.445   3.134   3.064  0.5508  0.0548  0.3094
 6893SOL     OW32314   3.576   1.659   9.666 -0.0147 -0.6069 -0.2209
 6893SOL    HW132315   3.611   1.682   9.752  0.3644 -0.0975 -0.5054
 6893SOL    HW232316   3.638   1.587   9.655  1.1207  0.2301  0.5696
 6894SOL     OW32317   1.839   0.512   4.482 -0.1881 -0.1829 -0.2272
 6894SOL    HW132318   1.923   0.546   4.511  0.1964  0.9726 -2.7434
 6894SOL    HW232319   1.866   0.420   4.486 -1.4733 -0.6152 -1.3718
 6895SOL     OW32320   2.078   1.323   4.241 -0.3557  0.1092  0.4490
 6895SOL    HW132321   2.047   1.331   4.150 -0.4561  1.0466  0.5643
 6895SOL    HW232322   2.005   1.351   4.296 -1.9788 -2.1630 -0.5480
 6896SOL     OW32323   3.350   2.275  17.109 -1.0006  0.7551 -0.0394
 6896SOL    HW132324   3.256   2.285  17.117 -0.9328  1.3582  0.0021
 6896SOL    HW232325   3.366   2.369  17.094  0.8359  0.7011  1.5173
 6897SOL     OW32326   1.318   2.526   5.928 -0.8898  0.7283  0.3115
 6897SOL    HW132327   1.414   2.522   5.923 -0.8156  2.1436  0.7573
 6897SOL    HW232328   1.303   2.460   5.996  0.6520  0.3929  0.3381
 6898SOL     OW32329   0.836   3.397  15.330  0.3776  0.2297  0.0919
 6898SOL    HW132330   0.828   3.368  15.239 -0.1146  0.6312  0.0084
 6898SOL    HW232331   0.896   3.470  15.317 -2.4700  2.1466 -2.2284
 6899SOL     OW32332   4.000   0.631   8.182  0.5846 -0.3190 -0.5513
 6899SOL    HW132333   3.997   0.722   8.213  0.7227 -0.3401 -0.4750
 6899SOL    HW232334   4.037   0.637   8.093 -0.4617  1.6978 -0.8644
 6900SOL     OW32335   1.247   3.500   3.465 -0.6027  0.2456  0.2974
 6900SOL    HW132336   1.276   3.522   3.554 -0.7739  1.5131  0.0394
 6900SOL    HW232337   1.282   3.571   3.412 -0.2603 -0.3215 -0.2313
 6901SOL     OW32338   3.688   2.626   4.623  0.0384  0.1321  0.0191
 6901SOL    HW132339   3.705   2.681   4.700 -0.9506  0.6379 -0.1254
 6901SOL    HW232340   3.633   2.678   4.565 -1.1045 -0.4464  0.5868
 6902SOL     OW32341   2.506   2.784   8.862 -0.1627  0.2093 -0.0104
 6902SOL    HW132342   2.592   2.757   8.831  0.5439  0.3298  1.8363
 6902SOL    HW232343   2.483   2.710   8.918  0.9239 -1.6092 -1.9821
 6903SOL     OW32344   1.931   4.698  15.666  0.5420 -0.0555 -0.0524
 6903SOL    HW132345   1.851   4.678  15.618  0.7634 -1.4965  0.1541
 6903SOL    HW232346   1.893   0.025  15.725 -0.0746 -1.5247  1.1743
 6904SOL     OW32347   0.412   4.189   2.447  0.3991  0.0807 -0.0465
 6904SOL    HW132348   0.364   4.259   2.402 -0.9383 -1.0972 -0.4591
 6904SOL    HW232349   0.353   4.113   2.445 -0.4107  0.6486  2.3281
 6905SOL     OW32350   1.811   4.012   7.138 -0.9904  0.5940 -0.1711
 6905SOL    HW132351   1.716   3.997   7.143 -0.5894 -1.2718  1.6459
 6905SOL    HW232352   1.841   3.923   7.156 -0.2631  0.1331 -3.6941
 6906SOL     OW32353   4.416   2.285   9.240 -0.2076  0.2094 -0.5193
 6906SOL    HW132354   4.423   2.202   9.192 -0.6806  0.5758 -1.2273
 6906SOL    HW232355   4.320   2.292   9.238 -0.2174  0.2941  0.3572
 6907SOL     OW32356   2.882   1.551   4.513  0.2202 -0.1728 -0.1896
 6907SOL    HW132357   2.938   1.478   4.485 -0.5344 -1.1656  0.8418
 6907SOL    HW232358   2.873   1.524   4.605 -1.4340 -1.2095 -0.6616
 6908SOL     OW32359   2.949   1.468   3.881 -0.5251  0.5009 -0.2930
 6908SOL    HW132360   3.011   1.523   3.928 -1.0379  1.1783 -0.3974
 6908SOL    HW232361   2.973   1.486   3.790 -3.1539  0.3123 -1.0438
 6909SOL     OW32362   3.741   4.170   5.190  0.1378 -0.1789  0.3985
 6909SOL    HW132363   3.801   4.100   5.167  0.1701 -0.4361  1.2798
 6909SOL    HW232364   3.683   4.132   5.256 -1.3624  0.8724 -0.2946
 6910SOL     OW32365   2.716   3.682  16.279  0.2956 -0.4574 -0.1637
 6910SOL    HW132366   2.784   3.633  16.233 -0.0486 -0.1472 -1.0011
 6910SOL    HW232367   2.690   3.610  16.337 -3.1203 -0.1536 -1.3177
 6911SOL     OW32368   0.095   0.666  17.690  0.1393  0.1781  0.6394
 6911SOL    HW132369   0.021   0.664   0.001  1.5802 -2.1395  2.3467
 6911SOL    HW232370   0.045   0.688  17.612 -4.0605 -2.6965  2.5060
 6912SOL     OW32371   3.061   3.306  15.039 -0.1243 -0.5442  0.1072
 6912SOL    HW132372   3.032   3.323  15.129 -1.0570 -0.3070 -0.2418
 6912SOL    HW232373   3.089   3.215  15.046  0.2682 -0.6207 -2.6477
 6913SOL     OW32374   0.116   2.875   8.509 -0.3236  0.4125  0.1339
 6913SOL    HW132375   0.132   2.903   8.599 -0.2284 -0.3203  0.3473
 6913SOL    HW232376   0.195   2.826   8.488 -0.6106  0.0585 -0.1322
 6914SOL     OW32377   0.500   1.317  10.274 -0.7790 -0.2904 -0.0498
 6914SOL    HW132378   0.499   1.356  10.362 -1.1177 -0.1008 -0.1395
 6914SOL    HW232379   0.530   1.389  10.219  2.0565  0.3087  2.2691
 6915SOL     OW32380   2.089   4.164   9.208 -0.4280  0.4500  0.2476
 6915SOL    HW132381   2.017   4.150   9.147  0.9791 -0.7409 -1.1318
 6915SOL    HW232382   2.051   4.228   9.268  1.2245  1.7044 -0.0248
 6916SOL     OW32383   1.473   2.166   3.967  0.0853 -0.2238  0.1336
 6916SOL    HW132384   1.475   2.198   3.877 -0.3516 -2.2869 -0.5932
 6916SOL    HW232385   1.455   2.251   4.008  1.5504  0.6222 -0.9765
 6917SOL     OW32386   3.404   0.737   5.505  0.4789  0.1636  0.0910
 6917SOL    HW132387   3.361   0.660   5.467  1.8993 -0.2742 -0.6254
 6917SOL    HW232388   3.457   0.689   5.569 -0.2629  0.7679  1.1627
 6918SOL     OW32389   0.570   1.093   6.088 -0.7221 -0.7576  0.3001
 6918SOL    HW132390   0.483   1.113   6.053 -0.9323  0.9629  1.8118
 6918SOL    HW232391   0.565   0.998   6.097 -2.1900 -0.4294  3.2196
 6919SOL     OW32392   1.963   1.958   6.037 -0.1076 -0.8337 -0.1190
 6919SOL    HW132393   2.020   2.035   6.039 -0.7498 -0.4526  2.6949
 6919SOL    HW232394   2.013   1.900   5.979  2.5815 -0.7588  2.1396
 6920SOL     OW32395   0.026   3.746   5.715  0.3753  0.1797 -0.4346
 6920SOL    HW132396   0.030   3.651   5.709 -2.9082  0.0195  0.3708
 6920SOL    HW232397   4.673   3.773   5.729  0.4539 -0.1288  0.6211
 6921SOL     OW32398   3.795   0.335   9.666 -0.6788 -0.0864  0.2031
 6921SOL    HW132399   3.809   0.354   9.759  1.5191  1.2544 -0.4121
 6921SOL    HW232400   3.855   0.261   9.656 -0.6667 -0.1222  0.5315
 6922SOL     OW32401   2.211   4.589   7.307  0.3200 -0.2308  0.2303
 6922SOL    HW132402   2.195   4.644   7.383  0.7584  1.3884 -0.8653
 6922SOL    HW232403   2.243   4.504   7.337 -1.8177 -1.2471 -0.3572
 6923SOL     OW32404   1.308   2.678   5.659 -0.4844  0.4577 -0.6370
 6923SOL    HW132405   1.237   2.735   5.688 -1.7457 -1.3840 -0.0842
 6923SOL    HW232406   1.303   2.612   5.728  2.9066  0.1807 -0.6783
 6924SOL     OW32407   0.367   1.095  17.427 -0.4139 -0.0602  0.1733
 6924SOL    HW132408   0.333   1.155  17.493  2.1019 -0.7549  2.0749
 6924SOL    HW232409   0.443   1.070  17.479 -1.2068 -0.5773  1.0902
 6925SOL     OW32410   2.755   3.380  10.180 -0.3418  0.2890 -0.1432
 6925SOL    HW132411   2.816   3.416  10.115 -1.9711 -1.1934 -2.4771
 6925SOL    HW232412   2.670   3.419  10.159 -0.6987 -1.0269 -1.0829
 6926SOL     OW32413   1.515   4.326  16.176 -0.3641  0.1071  0.4898
 6926SOL    HW132414   1.469   4.407  16.153  0.0027 -0.3497 -1.8228
 6926SOL    HW232415   1.511   4.281  16.092 -2.5108 -3.3010  2.4261
 6927SOL     OW32416   3.572   1.586   1.027 -0.1278 -0.1737 -0.7302
 6927SOL    HW132417   3.616   1.643   1.090 -0.1808  0.8196 -1.5931
 6927SOL    HW232418   3.548   1.646   0.957  2.5213 -1.0338 -2.3532
 6928SOL     OW32419   1.720   1.094   3.400  0.5772  0.5563 -0.4874
 6928SOL    HW132420   1.782   1.022   3.385  1.1659  0.6683  1.4712
 6928SOL    HW232421   1.720   1.095   3.495  0.5024  0.2059 -0.4830
 6929SOL     OW32422   4.704   0.098   3.996 -0.6998 -0.3965 -0.1509
 6929SOL    HW132423   4.663   0.174   3.955 -0.1467 -1.4676 -2.6772
 6929SOL    HW232424   4.728   0.141   4.078  2.7299 -0.1901 -1.2796
 6930SOL     OW32425   4.505   1.140   3.830 -0.8991 -0.0747  0.4192
 6930SOL    HW132426   4.521   1.234   3.824  0.1119 -0.1590  1.7810
 6930SOL    HW232427   4.588   1.126   3.875 -0.6329 -1.5216 -0.5203
 6931SOL     OW32428   1.744   1.117   2.276  0.5827 -0.3198 -0.0416
 6931SOL    HW132429   1.784   1.061   2.343 -1.2190 -1.2895  0.2272
 6931SOL    HW232430   1.824   1.163   2.251 -0.4075  0.6031 -1.5342
 6932SOL     OW32431   0.413   1.894   0.100  0.4950 -0.1009  0.1287
 6932SOL    HW132432   0.444   1.820   0.047 -1.3612  0.2806 -1.4763
 6932SOL    HW232433   0.318   1.885   0.094  0.4791  0.0529  0.1542
 6933SOL     OW32434   1.418   2.299  12.403  0.6644 -0.0096 -0.1599
 6933SOL    HW132435   1.332   2.320  12.366  0.7313  1.4792  0.5114
 6933SOL    HW232436   1.396   2.211  12.432  0.4618  0.2036  0.3328
 6934SOL     OW32437   3.642   4.407  14.362  0.3252 -0.5172  0.0320
 6934SOL    HW132438   3.721   4.445  14.324 -0.9798  1.4287 -0.7734
 6934SOL    HW232439   3.591   4.484  14.387  1.3457 -0.0447  0.6716
 6935SOL     OW32440   1.730   1.378   9.250  0.2564  0.0158  0.0455
 6935SOL    HW132441   1.655   1.351   9.303 -0.2737  1.6069  0.0928
 6935SOL    HW232442   1.738   1.305   9.189 -1.3213  1.9745 -2.4543
 6936SOL     OW32443   4.714   0.650   1.272  0.4195 -0.7521  0.3128
 6936SOL    HW132444   0.042   0.601   1.223  1.2683 -0.2613  0.9364
 6936SOL    HW232445   4.701   0.731   1.224  1.5466 -0.3155  0.7347
 6937SOL     OW32446   4.626   1.498   4.757 -0.1756  0.6019  0.6441
 6937SOL    HW132447   4.557   1.546   4.712 -1.0556 -2.0844 -0.8496
 6937SOL    HW232448   4.614   1.519   4.850 -0.9331  4.2251 -0.2815
 6938SOL     OW32449   4.095   1.854   5.031  0.2778 -0.8232  0.2709
 6938SOL    HW132450   4.080   1.787   5.098 -0.1520 -2.2334 -1.2417
 6938SOL    HW232451   4.181   1.826   4.999  0.9109  1.8258 -0.4034
 6939SOL     OW32452   1.131   2.268  12.390  0.4840  0.2773  0.2671
 6939SOL    HW132453   1.091   2.181  12.389  0.4634  0.3390 -3.4932
 6939SOL    HW232454   1.092   2.312  12.465  0.1060  0.5953 -0.1171
 6940SOL     OW32455   1.354   0.236   4.885 -0.6551  0.1698  0.1588
 6940SOL    HW132456   1.435   0.186   4.892 -0.7540 -0.1202 -0.7012
 6940SOL    HW232457   1.366   0.283   4.802 -0.9092 -3.3039 -1.8378
 6941SOL     OW32458   3.530   3.589   8.502  0.5684  0.1055  0.3640
 6941SOL    HW132459   3.549   3.619   8.591  0.5762 -0.4215  0.5406
 6941SOL    HW232460   3.524   3.667   8.446 -1.1927  0.0879  0.5350
 6942SOL     OW32461   2.316   4.085   4.041 -0.2685 -0.6290  0.1391
 6942SOL    HW132462   2.347   4.163   4.087  0.4342 -0.8301  0.0231
 6942SOL    HW232463   2.232   4.075   4.086 -0.6166  1.3108 -0.0844
 6943SOL     OW32464   0.179   3.070   0.900 -0.2480  0.6021  0.0375
 6943SOL    HW132465   0.207   3.151   0.857 -1.9332  2.0914  1.7034
 6943SOL    HW232466   0.094   3.049   0.862  0.5677 -1.0548 -0.8695
 6944SOL     OW32467   1.456   4.523  15.654 -0.0402 -0.3743  0.3534
 6944SOL    HW132468   1.477   4.450  15.596  1.1537 -1.6029  2.3484
 6944SOL    HW232469   1.463   4.597  15.593 -1.5157 -0.1251  0.4902
 6945SOL     OW32470   2.870   3.044   9.306 -0.1953 -0.1079  0.5625
 6945SOL    HW132471   2.850   2.952   9.292  2.7773 -0.6183 -0.2639
 6945SOL    HW232472   2.963   3.047   9.284 -0.7582 -0.3905 -1.9029
 6946SOL     OW32473   1.018   0.660   3.082  0.4420  0.1476 -0.2829
 6946SOL    HW132474   1.110   0.661   3.059  0.8811 -2.6321  1.3910
 6946SOL    HW232475   0.996   0.664   2.989 -1.8481 -1.1930  0.2074
 6947SOL     OW32476   4.248   1.542   4.411  0.2766 -0.4559  0.5078
 6947SOL    HW132477   4.252   1.482   4.336 -2.4758  1.4906 -1.2069
 6947SOL    HW232478   4.164   1.586   4.400  1.3379  1.7325  1.1992
 6948SOL     OW32479   1.509   3.287   8.055  0.3471  0.0247  0.5478
 6948SOL    HW132480   1.467   3.294   8.141  1.2721  0.5148  0.9605
 6948SOL    HW232481   1.593   3.250   8.081  0.3993 -0.7699 -0.7994
 6949SOL     OW32482   0.826   2.106  14.636 -0.1069 -0.6709 -0.6201
 6949SOL    HW132483   0.834   2.021  14.680  1.0993 -0.0754  0.2857
 6949SOL    HW232484   0.864   2.091  14.550 -0.5952 -0.8221 -0.8128
 6950SOL     OW32485   1.950   0.945   9.919  0.1511  0.1112  0.3369
 6950SOL    HW132486   1.876   0.985   9.964 -1.0864 -1.2074 -0.5296
 6950SOL    HW232487   2.018   0.998   9.961 -0.6642  2.2061 -0.9812
 6951SOL     OW32488   0.093   1.811   8.029  0.6744 -0.3366  0.1668
 6951SOL    HW132489   0.157   1.828   7.960  0.2628 -0.9325 -0.3597
 6951SOL    HW232490   0.058   1.899   8.040  2.7112  0.4502  0.2425
 6952SOL     OW32491   3.377   0.019   4.708  0.6422 -0.6067 -0.0843
 6952SOL    HW132492   3.443   0.074   4.666 -2.5561  2.0591 -1.5361
 6952SOL    HW232493   3.297   0.063   4.681  0.2657  0.1983  2.3764
 6953SOL     OW32494   3.356   2.946   7.548  0.2853 -0.1074  0.1443
 6953SOL    HW132495   3.342   2.865   7.599  1.3624  0.0462  0.6731
 6953SOL    HW232496   3.263   2.962   7.529  0.4575  0.6930 -0.0021
 6954SOL     OW32497   2.647   0.567   7.530 -0.6532  0.5802 -0.7519
 6954SOL    HW132498   2.706   0.624   7.579 -1.0523  0.3288  0.0279
 6954SOL    HW232499   2.613   0.620   7.458 -1.1367  2.0346  0.5380
 6955SOL     OW32500   2.842   2.948   2.347 -0.1125 -0.5161  0.7696
 6955SOL    HW132501   2.892   3.028   2.327 -1.0926 -0.6257 -2.1437
 6955SOL    HW232502   2.779   2.946   2.275  0.0935 -0.6231  0.5889
 6956SOL     OW32503   0.543   0.661   9.174  0.0694  0.4919  0.1261
 6956SOL    HW132504   0.627   0.615   9.170 -1.3780 -1.8172 -3.5975
 6956SOL    HW232505   0.511   0.644   9.085  0.5158 -0.4066  0.1410
 6957SOL     OW32506   1.839   4.057  13.475 -0.8325 -0.0782 -0.3112
 6957SOL    HW132507   1.934   4.047  13.476 -1.0485 -2.0908 -0.7575
 6957SOL    HW232508   1.819   3.990  13.410  2.4945 -0.5372 -0.8699
 6958SOL     OW32509   0.036   0.836   3.778 -0.3151  0.1926 -0.1229
 6958SOL    HW132510   4.738   0.886   3.704  0.1203  0.2271 -0.3110
 6958SOL    HW232511   0.129   0.830   3.760  0.1179  0.1882  2.1302
 6959SOL     OW32512   3.172   2.080   2.665  0.5129 -0.0808 -0.0386
 6959SOL    HW132513   3.093   2.130   2.645  0.7856  1.7011  3.2876
 6959SOL    HW232514   3.236   2.137   2.622  2.4750 -1.7359  0.7021
 6960SOL     OW32515   0.145   1.369   1.540  0.4495 -0.2031 -0.4043
 6960SOL    HW132516   0.237   1.360   1.565  0.6373 -1.1124 -1.4506
 6960SOL    HW232517   0.119   1.451   1.582  2.1199 -0.0509  0.3183
 6961SOL     OW32518   0.155   1.843   5.238 -0.4585  0.1533  0.0792
 6961SOL    HW132519   0.096   1.774   5.268 -0.6024 -0.9521 -2.7575
 6961SOL    HW232520   0.188   1.809   5.155 -1.0928  2.5757 -1.1593
 6962SOL     OW32521   0.648   0.024   2.608  0.1463  0.5501  0.8183
 6962SOL    HW132522   0.652   4.713   2.690  1.2024 -2.3897 -0.9776
 6962SOL    HW232523   0.567   4.729   2.569 -1.0971  1.4539  2.6658
 6963SOL     OW32524   2.119   1.282   3.804  0.1909 -0.2537 -0.0909
 6963SOL    HW132525   2.049   1.309   3.864  1.9942  0.4358  1.7022
 6963SOL    HW232526   2.076   1.315   3.725 -0.2064  0.5194  0.4468
 6964SOL     OW32527   3.238   2.467   3.539 -0.1488 -0.3879 -0.1193
 6964SOL    HW132528   3.189   2.428   3.612  1.2349  0.0031  1.0294
 6964SOL    HW232529   3.304   2.401   3.517  1.5689  1.8694 -1.7803
 6965SOL     OW32530   3.667   2.512  12.743 -0.4444  0.0855  0.2438
 6965SOL    HW132531   3.679   2.461  12.823  0.0459 -2.6051 -1.5655
 6965SOL    HW232532   3.752   2.500  12.702  0.1760 -1.5124  2.0251
 6966SOL     OW32533   2.498   3.328   3.045 -0.3269  0.5594 -0.4527
 6966SOL    HW132534   2.438   3.297   2.977  0.3745 -1.2021 -0.2739
 6966SOL    HW232535   2.534   3.245   3.077 -1.7059  0.7101  1.4555
 6967SOL     OW32536   2.089   4.620   5.073  0.1357 -0.1491 -0.2137
 6967SOL    HW132537   2.181   4.595   5.083  0.1864  0.2421  0.2668
 6967SOL    HW232538   2.058   4.617   5.163 -3.1310 -0.2781 -1.3499
 6968SOL     OW32539   2.560   3.248  10.837  0.1831  0.2386 -0.5545
 6968SOL    HW132540   2.597   3.305  10.770  1.0820  0.6943  0.3212
 6968SOL    HW232541   2.512   3.197  10.772 -0.0849 -0.3583  0.1123
 6969SOL     OW32542   2.944   4.575   2.099 -0.7668  0.1713  0.6005
 6969SOL    HW132543   2.881   4.640   2.132 -0.0538  1.8134 -1.2768
 6969SOL    HW232544   2.894   4.496   2.120  1.8291 -2.2914 -2.5445
 6970SOL     OW32545   0.653   0.781  15.731  0.1410 -0.4889 -0.2722
 6970SOL    HW132546   0.567   0.747  15.707 -1.6331  3.5165  0.5216
 6970SOL    HW232547   0.700   0.754  15.653  1.7403  0.5459  0.3412
 6971SOL     OW32548   2.132   1.615   9.301  0.0283  0.5696 -0.2981
 6971SOL    HW132549   2.092   1.693   9.262 -1.2940  0.0208 -0.0450
 6971SOL    HW232550   2.193   1.656   9.362  0.6256  0.8038 -1.0548
 6972SOL     OW32551   4.647   1.844  11.392  0.1479  0.0763 -0.8656
 6972SOL    HW132552   4.679   1.902  11.323  0.5255  1.2615  0.3197
 6972SOL    HW232553   4.565   1.889  11.411  0.4022  0.5175 -0.8284
 6973SOL     OW32554   2.554   1.748  16.990 -0.7985  0.0482 -0.5319
 6973SOL    HW132555   2.519   1.662  16.965  2.4642 -1.0305 -1.3908
 6973SOL    HW232556   2.495   1.788  17.054 -0.8544 -3.2378  1.4882
 6974SOL     OW32557   2.487   0.742   7.353 -0.5509 -0.3891 -0.0977
 6974SOL    HW132558   2.413   0.681   7.355 -0.3189 -0.6883 -0.5613
 6974SOL    HW232559   2.479   0.788   7.269  1.2954 -0.9853 -0.5948
 6975SOL     OW32560   4.605   3.034  14.286 -0.0495 -0.1093  0.0261
 6975SOL    HW132561   4.643   3.091  14.219  2.0693  0.6528  1.9082
 6975SOL    HW232562   4.539   3.081  14.338  1.1019  1.7058 -0.1654
 6976SOL     OW32563   1.476   3.148   1.260  0.3902 -0.3045 -0.6529
 6976SOL    HW132564   1.526   3.086   1.313  2.7425  0.3199 -2.1686
 6976SOL    HW232565   1.500   3.229   1.305  0.5133  0.3774 -1.9700
 6977SOL     OW32566   1.771   3.200   2.474  0.0322  0.5453 -0.4135
 6977SOL    HW132567   1.794   3.109   2.460 -0.2954  0.6440 -1.6273
 6977SOL    HW232568   1.799   3.233   2.388 -0.5256 -0.7356 -1.0792
 6978SOL     OW32569   2.593   3.109   0.084 -0.3755 -0.0053  0.0765
 6978SOL    HW132570   2.666   3.161   0.118 -0.1107 -0.0236 -0.4635
 6978SOL    HW232571   2.519   3.160   0.119 -0.1057  0.0558  0.5611
 6979SOL     OW32572   0.613   3.207  12.640  0.5770 -0.2765 -0.1667
 6979SOL    HW132573   0.603   3.301  12.627 -0.8729 -0.1272  2.0488
 6979SOL    HW232574   0.706   3.186  12.644  0.6885  0.5942  1.6269
 6980SOL     OW32575   0.994   3.410  11.106 -0.0021  0.5537 -0.1271
 6980SOL    HW132576   0.991   3.470  11.181  1.1557  0.0594  0.3198
 6980SOL    HW232577   0.972   3.327  11.149 -2.8252  0.6111 -1.4177
 6981SOL     OW32578   4.316   0.772  12.985 -0.1067 -0.4438  0.2853
 6981SOL    HW132579   4.270   0.722  13.053  1.7334 -0.9152  1.1896
 6981SOL    HW232580   4.327   0.707  12.915 -2.2054  1.9830 -2.3029
 6982SOL     OW32581   0.209   2.611   7.399  0.7879  0.0292 -0.0319
 6982SOL    HW132582   0.299   2.613   7.365  0.4181 -2.8996 -1.2096
 6982SOL    HW232583   0.221   2.539   7.460 -1.3059  1.0788  1.5934
 6983SOL     OW32584   4.735   4.670  11.267 -0.0677  0.0820 -0.0736
 6983SOL    HW132585   4.656   4.712  11.232 -1.6482 -2.7466  0.0355
 6983SOL    HW232586   0.047   0.006  11.302  0.1821 -0.4120  0.6029
 6984SOL     OW32587   1.746   1.356   8.172 -0.1179  0.2661 -0.3211
 6984SOL    HW132588   1.736   1.442   8.131  1.8780  1.1310  1.0288
 6984SOL    HW232589   1.817   1.320   8.119  2.5499  1.0393  2.7440
 6985SOL     OW32590   2.029   2.850  10.600  0.1716  0.1031 -0.3708
 6985SOL    HW132591   1.964   2.796  10.556  2.1352 -1.7860 -0.9351
 6985SOL    HW232592   2.036   2.922  10.537  0.2479  1.2996  0.9976
 6986SOL     OW32593   2.941   4.346   0.621  0.0927  0.0711  0.6877
 6986SOL    HW132594   2.912   4.273   0.566  0.2911  0.0743  0.5796
 6986SOL    HW232595   3.032   4.347   0.592 -0.0516 -0.0986  0.2222
 6987SOL     OW32596   1.861   3.467   1.618  0.3726 -0.1939 -0.0471
 6987SOL    HW132597   1.828   3.493   1.532 -0.7520 -1.3161  0.0531
 6987SOL    HW232598   1.860   3.551   1.664  2.6380 -0.3387  0.3024
 6988SOL     OW32599   4.675   1.940   7.699 -0.0131 -0.8232  0.5569
 6988SOL    HW132600   4.632   1.885   7.764 -1.2336 -1.7837 -1.0761
 6988SOL    HW232601   4.600   1.991   7.668  0.4729 -0.8559 -0.6654
 6989SOL     OW32602   2.832   1.273   4.020 -0.6301 -0.6083 -0.1518
 6989SOL    HW132603   2.861   1.350   3.970 -3.3401  0.1340 -0.5527
 6989SOL    HW232604   2.803   1.212   3.952  0.7410  0.3430 -1.5825
 6990SOL     OW32605   4.116   3.865   2.642 -0.3285  0.1953  0.2497
 6990SOL    HW132606   4.097   3.943   2.694 -0.2813 -0.1756  0.8206
 6990SOL    HW232607   4.056   3.801   2.679  0.0981 -1.1029 -1.3158
 6991SOL     OW32608   0.567   2.133   0.055  0.3910  0.4324 -0.2964
 6991SOL    HW132609   0.524   2.050   0.077 -0.6620  2.0203  3.6720
 6991SOL    HW232610   0.652   2.119   0.096  0.8883  2.8110 -0.5350
 6992SOL     OW32611   0.358   0.534  10.676  0.7747 -0.0209 -0.1014
 6992SOL    HW132612   0.345   0.464  10.740 -1.6588 -1.2354 -1.9326
 6992SOL    HW232613   0.310   0.612  10.703  1.7130  0.2460  0.8017
 6993SOL     OW32614   3.102   2.852   6.396 -0.5289 -0.1123  0.4658
 6993SOL    HW132615   3.186   2.869   6.354 -0.7743 -0.6091 -0.2314
 6993SOL    HW232616   3.140   2.825   6.480 -0.5872 -1.2252  0.1288
 6994SOL     OW32617   2.039   4.533   2.696  0.7598 -0.1079  0.5070
 6994SOL    HW132618   1.973   4.560   2.761  1.4293  0.6467  0.8676
 6994SOL    HW232619   2.050   4.614   2.647 -3.0223 -0.8125 -1.5037
 6995SOL     OW32620   3.377   3.751   6.799 -0.2161 -0.2344 -0.1236
 6995SOL    HW132621   3.353   3.839   6.773  2.3530  0.3617 -0.4977
 6995SOL    HW232622   3.460   3.763   6.845 -0.5535 -1.9933  0.9513
 6996SOL     OW32623   2.020   0.285   4.965  0.4078 -0.1137  0.5004
 6996SOL    HW132624   2.075   0.357   4.933  0.6521 -0.7171 -0.4273
 6996SOL    HW232625   2.050   0.271   5.055  0.5576  0.4686  0.5401
 6997SOL     OW32626   2.649   1.940  14.675 -0.6212 -0.2002 -0.9360
 6997SOL    HW132627   2.613   1.974  14.593  0.7823  0.4899 -1.2731
 6997SOL    HW232628   2.743   1.960  14.668 -0.5141 -0.8657 -1.3781
 6998SOL     OW32629   2.613   4.303   2.696 -0.2031  0.0959 -0.1928
 6998SOL    HW132630   2.676   4.271   2.760 -1.6813  0.3196  1.3999
 6998SOL    HW232631   2.547   4.346   2.752  0.3381  0.3500  0.2464
 6999SOL     OW32632   4.729   3.950   3.856  0.1379  0.2495  0.6364
 6999SOL    HW132633   4.643   3.969   3.893 -0.5658  0.5964 -1.1889
 6999SOL    HW232634   4.726   3.855   3.849  1.4047  0.4530 -2.6256
 7000SOL     OW32635   3.922   3.075  17.652  0.1198 -0.3917 -0.1421
 7000SOL    HW132636   3.893   3.003  17.708  1.5597 -1.4471 -0.7589
 7000SOL    HW232637   3.875   3.050  17.573 -1.1311 -2.2715  1.2005
 7001SOL     OW32638   1.892   3.320   4.262  0.4597  0.3739 -0.4984
 7001SOL    HW132639   1.799   3.328   4.239 -0.0569 -1.9749  0.7591
 7001SOL    HW232640   1.888   3.254   4.331  1.0436  0.1308 -0.6976
 7002SOL     OW32641   4.351   4.228   6.549  0.3713  0.0971 -0.3181
 7002SOL    HW132642   4.273   4.221   6.493  0.0308  0.6529  0.0983
 7002SOL    HW232643   4.350   4.323   6.562 -1.7569 -0.0676  0.7500
 7003SOL     OW32644   2.638   2.898   7.212 -0.3458  0.1518  0.2512
 7003SOL    HW132645   2.722   2.852   7.209  0.1927  1.2116 -0.9119
 7003SOL    HW232646   2.629   2.915   7.305  0.3461  1.6665  0.0357
 7004SOL     OW32647   0.273   1.443   0.459 -0.0849  0.5406 -0.1549
 7004SOL    HW132648   0.271   1.456   0.364  1.6001 -0.7960 -0.3541
 7004SOL    HW232649   0.302   1.530   0.487 -0.2115  0.2343  0.9430
 7005SOL     OW32650   3.380   0.627   1.845 -0.1072 -0.3202  0.4070
 7005SOL    HW132651   3.396   0.721   1.850  0.4662 -0.3483 -1.0541
 7005SOL    HW232652   3.292   0.620   1.882 -0.2912  1.8224  0.3319
 7006SOL     OW32653   2.296   1.482   2.805  0.0581  0.1089  0.0864
 7006SOL    HW132654   2.308   1.577   2.803  0.3477  0.0156 -2.0571
 7006SOL    HW232655   2.283   1.458   2.714 -3.3236  2.6503 -0.0909
 7007SOL     OW32656   2.827   1.765  16.985  0.1899  0.5973 -0.0706
 7007SOL    HW132657   2.731   1.765  16.982  0.1604  3.6252  1.1781
 7007SOL    HW232658   2.832   1.730  17.074  0.4099 -0.3391 -0.4545
 7008SOL     OW32659   1.243   4.032  16.894 -0.2927 -0.4797  0.0905
 7008SOL    HW132660   1.173   4.097  16.885 -0.2452 -0.7910 -2.7329
 7008SOL    HW232661   1.192   3.952  16.903 -0.6698 -0.2879 -0.3363
 7009SOL     OW32662   1.790   0.313   4.798 -0.2111 -0.4978  0.5304
 7009SOL    HW132663   1.868   0.276   4.841  1.5953  3.3874  0.5778
 7009SOL    HW232664   1.807   0.280   4.710 -0.2006 -0.3741  0.4865
 7010SOL     OW32665   3.026   4.019   2.855  0.0883 -0.1491 -0.0198
 7010SOL    HW132666   3.046   4.026   2.762 -1.4242  2.0280 -0.1700
 7010SOL    HW232667   2.932   4.036   2.860 -0.2113 -1.5085 -1.1653
 7011SOL     OW32668   3.910   4.163   7.875 -0.0043  0.0534 -0.2177
 7011SOL    HW132669   3.842   4.155   7.941 -0.3681 -0.6603 -0.6927
 7011SOL    HW232670   3.863   4.147   7.793 -0.5830 -1.5623  0.4320
 7012SOL     OW32671   3.435   2.103   6.424  0.0713 -0.5751 -0.5348
 7012SOL    HW132672   3.341   2.116   6.415 -0.2349 -0.8761  2.3754
 7012SOL    HW232673   3.435   2.008   6.439  1.1506 -0.2743  1.3778
 7013SOL     OW32674   2.571   0.863   6.019 -0.2674 -0.3159  0.6433
 7013SOL    HW132675   2.529   0.787   5.979 -0.6548  0.7549 -0.9565
 7013SOL    HW232676   2.605   0.906   5.941 -1.1921 -1.0318 -0.1587
 7014SOL     OW32677   0.305   3.007   4.962  0.1434 -0.5884  0.7935
 7014SOL    HW132678   0.312   3.088   5.013  1.5136 -0.7358  0.8173
 7014SOL    HW232679   0.387   3.008   4.914  0.4253  3.3045  1.3581
 7015SOL     OW32680   2.594   3.304  10.579  0.3126 -0.2680 -0.2023
 7015SOL    HW132681   2.646   3.279  10.502  0.6202 -2.6151  0.7669
 7015SOL    HW232682   2.507   3.269  10.561  0.7718 -1.3564 -0.2969
 7016SOL     OW32683   4.127   1.186   0.399 -0.2913  0.1442 -0.4349
 7016SOL    HW132684   4.108   1.262   0.454 -1.6902 -2.8294  3.1589
 7016SOL    HW232685   4.218   1.170   0.425 -0.6450 -1.4788 -0.1761
 7017SOL     OW32686   3.998   1.056   5.425 -0.1764 -0.0520 -0.5437
 7017SOL    HW132687   4.006   1.005   5.505 -1.6718 -0.7388 -0.8278
 7017SOL    HW232688   4.087   1.041   5.395 -0.5527  0.7846 -2.0926
 7018SOL     OW32689   3.907   2.854   9.376 -0.3380 -0.3082  0.7411
 7018SOL    HW132690   3.865   2.833   9.460 -0.4388 -1.5623  0.3829
 7018SOL    HW232691   3.992   2.810   9.381 -1.4706 -2.6754 -1.0300
 7019SOL     OW32692   0.568   1.161   8.633 -0.1279  0.2639  0.3023
 7019SOL    HW132693   0.620   1.091   8.594 -1.2790  1.1559 -2.8145
 7019SOL    HW232694   0.626   1.189   8.703  1.7247  0.7552 -1.4231
 7020SOL     OW32695   4.122   4.305  15.482  0.0143  0.1059  0.8245
 7020SOL    HW132696   4.166   4.386  15.508 -1.5437  0.9128  0.9053
 7020SOL    HW232697   4.050   4.300  15.545 -1.6209 -0.1997 -1.0804
 7021SOL     OW32698   0.936   2.627   4.611 -0.3183 -0.1622  0.1711
 7021SOL    HW132699   0.942   2.643   4.517 -2.0007 -1.3898 -0.1485
 7021SOL    HW232700   0.859   2.570   4.611 -0.7836  0.4610 -1.7664
 7022SOL     OW32701   0.988   3.183   5.338 -0.5747 -0.4419  0.3038
 7022SOL    HW132702   1.063   3.139   5.296 -0.5123 -1.0315  1.0141
 7022SOL    HW232703   1.011   3.167   5.430 -1.1334  0.0763  0.5333
 7023SOL     OW32704   0.294   4.532  10.378  0.3927 -0.4683 -0.2522
 7023SOL    HW132705   0.368   4.545  10.438 -0.7118  2.0051  0.5715
 7023SOL    HW232706   0.218   4.516  10.434  0.8357 -0.4006  0.3733
 7024SOL     OW32707   0.222   0.832   0.317  0.0602  0.3102 -0.2699
 7024SOL    HW132708   0.206   0.875   0.233 -0.8975 -0.3477 -0.4290
 7024SOL    HW232709   0.278   0.757   0.295  0.2801 -0.5732  3.2589
 7025SOL     OW32710   2.072   0.795  12.390  0.0736 -0.1128  0.0954
 7025SOL    HW132711   2.024   0.714  12.410 -0.4340 -0.3665 -2.1295
 7025SOL    HW232712   2.117   0.763  12.312  0.6609 -1.3553  0.9382
 7026SOL     OW32713   1.430   0.322   6.206 -0.4596 -0.0669  0.4623
 7026SOL    HW132714   1.392   0.279   6.283 -1.0800  3.1719  1.9507
 7026SOL    HW232715   1.524   0.314   6.219 -0.5432 -2.5034 -0.4371
 7027SOL     OW32716   2.426   4.474   7.958  0.1132 -0.2576 -0.1114
 7027SOL    HW132717   2.351   4.437   7.911 -0.3710  1.4468 -0.6727
 7027SOL    HW232718   2.376   4.507   8.033  1.2981 -0.9943  1.0026
 7028SOL     OW32719   3.859   0.288   5.923  0.7779  0.9659  0.0577
 7028SOL    HW132720   3.884   0.298   6.015  1.6844 -1.6332  0.0772
 7028SOL    HW232721   3.907   0.206   5.910  0.1022  0.6185 -0.1948
 7029SOL     OW32722   3.192   2.751   2.742  0.1609  0.2418  0.4656
 7029SOL    HW132723   3.111   2.803   2.739  1.6622  2.7443  2.9604
 7029SOL    HW232724   3.187   2.700   2.661  0.3016  0.3791  0.3701
 7030SOL     OW32725   1.578   3.186   2.130 -0.8012 -0.4589 -0.4976
 7030SOL    HW132726   1.606   3.276   2.114 -3.2606  0.3165 -0.4115
 7030SOL    HW232727   1.656   3.134   2.147 -1.0785 -0.3404  1.1115
 7031SOL     OW32728   4.655   3.712   0.348 -0.5082 -0.3162 -0.0304
 7031SOL    HW132729   4.629   3.622   0.330 -1.9337 -0.1061  1.0097
 7031SOL    HW232730   4.636   3.738   0.258 -0.0592  1.5462  0.4046
 7032SOL     OW32731   1.788   1.271   5.145  0.0872  0.2704 -0.2031
 7032SOL    HW132732   1.717   1.217   5.179 -0.9381  0.8399 -1.4195
 7032SOL    HW232733   1.782   1.264   5.050 -0.5978  0.0988 -0.1504
 7033SOL     OW32734   1.688   3.203   5.184  0.1814 -0.3723  0.6456
 7033SOL    HW132735   1.731   3.226   5.102  2.9872 -0.0080  2.2172
 7033SOL    HW232736   1.599   3.192   5.149 -0.5239 -1.6047  2.8242
 7034SOL     OW32737   3.790   3.519   8.276  0.2139 -0.1471  0.4500
 7034SOL    HW132738   3.712   3.481   8.316  0.8617  0.7742  2.6012
 7034SOL    HW232739   3.759   3.557   8.193  1.9036 -1.9414 -1.0026
 7035SOL     OW32740   3.919   2.185   6.760 -0.4754  0.1567  0.2537
 7035SOL    HW132741   3.962   2.206   6.676  1.0477  1.5876  1.3878
 7035SOL    HW232742   3.833   2.167   6.723  0.3657 -0.6909 -1.3192
 7036SOL     OW32743   2.614   2.497   5.584  0.0721 -0.1434 -0.1072
 7036SOL    HW132744   2.558   2.544   5.646 -1.9069 -1.3846 -0.9901
 7036SOL    HW232745   2.672   2.449   5.642  1.1518 -0.9657 -1.8700
 7037SOL     OW32746   3.912   0.452   4.971 -0.3115  0.3315  0.3218
 7037SOL    HW132747   3.951   0.464   5.057  0.9168  2.3812 -0.5202
 7037SOL    HW232748   3.890   0.359   4.982  0.8567  0.4038  3.1734
 7038SOL     OW32749   4.183   2.561  11.531  0.3498 -0.0089 -0.1631
 7038SOL    HW132750   4.220   2.486  11.577 -0.5037  0.7640  1.8152
 7038SOL    HW232751   4.096   2.555  11.570  0.4681 -0.3336  0.0469
 7039SOL     OW32752   4.525   0.660   9.959 -0.0672  0.1946  1.0525
 7039SOL    HW132753   4.454   0.691   9.902  1.6360 -0.3629 -1.3747
 7039SOL    HW232754   4.584   0.629   9.889 -1.2118  0.3369  0.0276
 7040SOL     OW32755   2.561   1.811   6.909  0.3458 -0.0459  0.2670
 7040SOL    HW132756   2.636   1.847   6.862 -1.2829  1.0724 -1.5279
 7040SOL    HW232757   2.549   1.865   6.987 -1.9029 -0.2133  0.0559
 7041SOL     OW32758   3.220   0.038  17.063  0.6333 -0.4447 -0.7147
 7041SOL    HW132759   3.155   0.011  16.998  3.1133 -2.2961 -2.4315
 7041SOL    HW232760   3.305   0.022  17.021  1.5850  1.5733  0.4429
 7042SOL     OW32761   1.900   2.008   3.681 -0.0809  0.2681  0.5189
 7042SOL    HW132762   1.988   2.005   3.643  0.9005  0.9019  2.7432
 7042SOL    HW232763   1.868   1.918   3.669  1.8684 -0.4307  0.5475
 7043SOL     OW32764   2.568   1.162   8.350 -0.1101  0.1202  0.1507
 7043SOL    HW132765   2.600   1.247   8.378  0.0591  0.1117 -0.0208
 7043SOL    HW232766   2.655   1.124   8.363  1.2200  3.5719  1.2265
 7044SOL     OW32767   2.797   0.345  16.837 -0.2039 -0.3307  0.8013
 7044SOL    HW132768   2.833   0.274  16.784  1.0266 -1.3520  2.9696
 7044SOL    HW232769   2.709   0.312  16.824 -0.1381 -0.0841 -0.2436
 7045SOL     OW32770   0.336   1.843   1.954 -0.1255 -0.5285  0.1182
 7045SOL    HW132771   0.414   1.894   1.977  0.6535 -1.1732 -1.0615
 7045SOL    HW232772   0.345   1.836   1.859  1.9416 -1.8961  0.4254
 7046SOL     OW32773   2.356   3.566   2.531  0.0169  0.4094 -0.1115
 7046SOL    HW132774   2.358   3.525   2.617 -0.0582  1.7965  0.5482
 7046SOL    HW232775   2.350   3.492   2.471 -1.5279 -0.2637  0.8666
 7047SOL     OW32776   4.173   2.531   6.297 -0.0929 -0.5420  0.2008
 7047SOL    HW132777   4.134   2.550   6.382 -0.2395 -2.3486  0.5356
 7047SOL    HW232778   4.256   2.496   6.328  0.5137 -0.6306 -1.4911
 7048SOL     OW32779   3.062   0.634   4.595  0.0309 -0.3997 -0.3158
 7048SOL    HW132780   3.142   0.668   4.555  1.2713 -2.6609  0.2739
 7048SOL    HW232781   2.997   0.676   4.538  1.6059  1.3759 -0.8159
 7049SOL     OW32782   4.394   3.503   2.246 -0.3841 -0.2310 -0.4300
 7049SOL    HW132783   4.327   3.494   2.178  0.4531  0.4835 -1.3447
 7049SOL    HW232784   4.396   3.422   2.298  1.3695  0.8996  1.2528
 7050SOL     OW32785   4.059   1.327   3.394  0.0645 -0.0194  0.2674
 7050SOL    HW132786   3.964   1.315   3.394 -0.0995  1.4324 -1.1074
 7050SOL    HW232787   4.098   1.249   3.435 -1.3312  0.4482  2.4969
 7051SOL     OW32788   1.204   2.105   3.619 -1.0848 -0.0262  0.8060
 7051SOL    HW132789   1.186   2.194   3.648 -0.6837  0.8483 -1.6332
 7051SOL    HW232790   1.155   2.049   3.680 -0.2875 -1.3754  0.2131
 7052SOL     OW32791   1.021   0.681   0.808  0.0675  0.3244  0.3911
 7052SOL    HW132792   0.957   0.698   0.739  2.1639  1.2457 -1.3585
 7052SOL    HW232793   1.090   0.739   0.774  0.9873 -0.6518  0.6037
 7053SOL     OW32794   0.517   4.351  12.534 -0.4020 -0.1444  0.1365
 7053SOL    HW132795   0.466   4.320  12.608  1.2757  2.0567  2.2009
 7053SOL    HW232796   0.527   4.264  12.494 -0.0723 -0.3744  0.7218
 7054SOL     OW32797   1.868   3.359   4.625 -0.0540  0.0890 -0.3840
 7054SOL    HW132798   1.948   3.340   4.576  0.3300  1.6724 -0.3762
 7054SOL    HW232799   1.852   3.278   4.674  0.5358  0.9148  1.1837
 7055SOL     OW32800   0.444   4.138   1.672 -0.1459 -0.1938  0.3111
 7055SOL    HW132801   0.368   4.080   1.671 -0.2872 -0.0067  0.2276
 7055SOL    HW232802   0.416   4.216   1.720 -1.6619 -0.6586  0.1856
 7056SOL     OW32803   0.183   4.016   0.708 -0.0314  0.4318 -0.2001
 7056SOL    HW132804   0.269   4.043   0.740 -0.7964  1.2885  1.1247
 7056SOL    HW232805   0.166   4.100   0.666  0.2084  0.6782  0.2048
 7057SOL     OW32806   4.287   3.003   6.764  0.0494  0.5850  0.2810
 7057SOL    HW132807   4.200   2.987   6.727 -0.3950  2.3445  0.5735
 7057SOL    HW232808   4.281   3.013   6.859  1.6293  0.5232  0.3931
 7058SOL     OW32809   4.093   2.103  17.315 -0.3810 -0.3253  0.2630
 7058SOL    HW132810   4.060   2.025  17.358 -1.1217 -0.1399  0.0339
 7058SOL    HW232811   4.019   2.125  17.259 -0.0426 -1.2635 -0.5428
 7059SOL     OW32812   0.774   3.916   8.207 -0.2236 -0.3366 -0.0715
 7059SOL    HW132813   0.746   3.826   8.224  0.9250 -0.7652 -0.4590
 7059SOL    HW232814   0.691   3.957   8.184 -0.7912 -1.2508  0.3699
 7060SOL     OW32815   1.617   2.654   0.958 -0.5456 -0.1155 -0.3760
 7060SOL    HW132816   1.702   2.696   0.953 -0.6732  0.2650  0.6874
 7060SOL    HW232817   1.595   2.655   0.864  0.8642  1.3477 -0.6831
 7061SOL     OW32818   0.949   3.559   5.505 -0.0875  0.2640 -0.1622
 7061SOL    HW132819   0.934   3.574   5.412  2.9521 -0.9908 -0.8782
 7061SOL    HW232820   0.865   3.559   5.550  0.6476  2.0447  1.2131
 7062SOL     OW32821   3.261   1.364  16.154 -0.2853 -0.1740  0.3380
 7062SOL    HW132822   3.240   1.453  16.125 -1.3745 -0.2099  1.0278
 7062SOL    HW232823   3.229   1.360  16.244 -1.1310  1.5530  0.1062
 7063SOL     OW32824   3.903   0.533   7.670 -0.2211  0.2283 -0.0893
 7063SOL    HW132825   3.836   0.484   7.623 -0.4546  0.3244  0.1411
 7063SOL    HW232826   3.884   0.512   7.762  1.0458  2.1253  0.6090
 7064SOL     OW32827   1.237   1.825   4.433 -0.8888 -0.0931 -0.4138
 7064SOL    HW132828   1.323   1.787   4.453  0.5858  2.2680 -2.2677
 7064SOL    HW232829   1.202   1.835   4.521 -1.6263  0.2623 -0.7470
 7065SOL     OW32830   3.925   2.093  12.464  0.6532  0.0989  0.1665
 7065SOL    HW132831   3.833   2.072  12.482  0.5517  0.4944  0.1127
 7065SOL    HW232832   3.941   2.050  12.380  0.9381 -0.0767  0.3101
 7066SOL     OW32833   1.007   1.744   2.717  0.1800  0.3611 -0.3902
 7066SOL    HW132834   1.075   1.779   2.774  0.2701  0.1758 -0.3810
 7066SOL    HW232835   0.937   1.741   2.781 -1.0741 -0.4587 -1.8066
 7067SOL     OW32836   1.846   1.341   7.849  0.0333 -0.0088  0.2330
 7067SOL    HW132837   1.786   1.416   7.852 -1.8305 -1.6153  1.9915
 7067SOL    HW232838   1.836   1.306   7.760 -0.9960  3.1019 -0.8740
 7068SOL     OW32839   3.884   4.681  13.444 -0.6163 -0.0898 -0.1302
 7068SOL    HW132840   3.806   4.647  13.487 -0.8075 -1.6654 -1.7045
 7068SOL    HW232841   3.950   4.671  13.513  1.3331 -0.3626 -2.0095
 7069SOL     OW32842   1.392   0.571   8.047  0.3516 -0.2391 -0.0282
 7069SOL    HW132843   1.453   0.499   8.036  0.9361  0.6121 -2.3976
 7069SOL    HW232844   1.410   0.583   8.140 -0.7768  3.1974 -0.2560
 7070SOL     OW32845   3.517   3.835   8.354 -0.2311 -0.4752 -0.1169
 7070SOL    HW132846   3.549   3.848   8.265 -1.4684 -0.0235 -0.4988
 7070SOL    HW232847   3.424   3.856   8.343  0.1594  1.7819  0.9565
 7071SOL     OW32848   4.652   4.454   4.202  0.4812  0.3246 -0.4714
 7071SOL    HW132849   4.722   4.514   4.177  0.7888 -0.2106 -0.8833
 7071SOL    HW232850   4.588   4.512   4.244 -1.4292 -1.6009 -0.7083
 7072SOL     OW32851   0.905   0.085   9.590  0.3461  0.0456  0.2801
 7072SOL    HW132852   0.891   0.019   9.658  2.6850 -0.9645 -0.2129
 7072SOL    HW232853   0.815   0.110   9.570  0.9003  1.0490 -0.9556
 7073SOL     OW32854   1.979   0.668   6.706  0.2508 -0.0300  0.3184
 7073SOL    HW132855   2.062   0.717   6.712 -0.1227  0.6827 -0.4144
 7073SOL    HW232856   1.909   0.731   6.725 -0.9591 -2.2052  3.0300
 7074SOL     OW32857   2.564   3.384   5.073  0.1357 -0.1153 -0.3596
 7074SOL    HW132858   2.637   3.446   5.062 -1.0111  1.5564  1.4543
 7074SOL    HW232859   2.500   3.439   5.027  1.3418  0.4184 -1.4320
 7075SOL     OW32860   1.534   0.538   5.748  0.2385  0.4601 -0.2415
 7075SOL    HW132861   1.572   0.626   5.744  0.0125  0.5530 -0.3236
 7075SOL    HW232862   1.486   0.545   5.831 -0.9173  1.1475 -0.9621
 7076SOL     OW32863   3.264   0.303   8.808 -0.5701 -0.2373 -0.0238
 7076SOL    HW132864   3.331   0.247   8.846  0.9787  0.4629 -1.7077
 7076SOL    HW232865   3.276   0.284   8.715  0.5221  0.1254  0.0448
 7077SOL     OW32866   4.468   3.540   6.095 -0.0977  0.1908 -0.3049
 7077SOL    HW132867   4.539   3.477   6.085  2.0141  2.6024 -0.5130
 7077SOL    HW232868   4.457   3.544   6.190  0.3357 -1.2343 -0.1974
 7078SOL     OW32869   1.791   4.652  16.242  0.1032  0.1172 -0.1922
 7078SOL    HW132870   1.761   4.704  16.168 -0.4323  0.1242  0.0307
 7078SOL    HW232871   1.719   4.666  16.305 -0.2452  2.6021 -1.1427
 7079SOL     OW32872   1.508   4.327   9.898 -0.1991 -0.9246  0.3582
 7079SOL    HW132873   1.452   4.314   9.975 -1.5865  0.7283 -0.3743
 7079SOL    HW232874   1.517   4.422   9.906  1.1906 -1.1069  0.8868
 7080SOL     OW32875   2.304   3.786  14.667  0.7061  0.2204  0.1574
 7080SOL    HW132876   2.395   3.755  14.666  0.9526  0.9412  3.6627
 7080SOL    HW232877   2.287   3.809  14.758 -1.2783  0.5130 -0.2933
 7081SOL     OW32878   1.458   1.263  16.113 -0.0888  0.1457  0.3308
 7081SOL    HW132879   1.441   1.226  16.026 -2.2547 -0.4460  1.0070
 7081SOL    HW232880   1.543   1.223  16.128 -1.6285 -2.8466  1.0868
 7082SOL     OW32881   2.998   3.149   6.713 -0.2404 -0.2523 -0.3817
 7082SOL    HW132882   2.950   3.161   6.795 -0.8154 -0.2344 -0.7222
 7082SOL    HW232883   2.959   3.069   6.678  0.3910  0.3875 -2.5464
 7083SOL     OW32884   1.114   1.949   3.296  0.4386 -0.4294  0.3373
 7083SOL    HW132885   1.181   2.003   3.337 -1.9531  1.7326  1.3834
 7083SOL    HW232886   1.159   1.865   3.285 -2.0000 -1.2556 -3.5505
 7084SOL     OW32887   0.512   0.259   5.375  0.3128  0.0405  0.1272
 7084SOL    HW132888   0.563   0.326   5.422  0.3756  0.6292 -0.7819
 7084SOL    HW232889   0.463   0.323   5.323 -0.5912 -1.1259 -0.4602
 7085SOL     OW32890   0.638   4.512   4.848 -0.1786 -0.1025 -0.1333
 7085SOL    HW132891   0.647   4.581   4.914 -1.1027 -0.7460  0.6638
 7085SOL    HW232892   0.634   4.429   4.896 -0.9257  0.1369  0.2089
 7086SOL     OW32893   3.796   0.592   3.241  0.0061  0.4515  0.6686
 7086SOL    HW132894   3.763   0.581   3.152  1.1629  0.5999  0.2275
 7086SOL    HW232895   3.728   0.539   3.284 -2.8045  1.3163 -2.6342
 7087SOL     OW32896   1.372   2.851   7.728 -0.3366 -0.2865 -0.2437
 7087SOL    HW132897   1.460   2.883   7.751 -0.7216  1.1759 -0.8041
 7087SOL    HW232898   1.376   2.854   7.632 -4.1715  1.0492 -0.3177
 7088SOL     OW32899   0.511   1.960   4.534  0.2511 -0.2454  0.7448
 7088SOL    HW132900   0.589   1.994   4.489 -0.6006  0.7644  0.0277
 7088SOL    HW232901   0.491   2.043   4.577 -0.5642  0.5010 -1.0506
 7089SOL     OW32902   0.349   1.482   5.548 -0.0047 -0.0967 -0.0302
 7089SOL    HW132903   0.306   1.464   5.631 -2.3919 -0.7163 -1.3815
 7089SOL    HW232904   0.280   1.460   5.485 -1.6742  1.1688  1.3459
 7090SOL     OW32905   0.194   1.384   5.773  0.3675 -0.1477  0.0362
 7090SOL    HW132906   0.138   1.308   5.782 -0.7883  0.7565  0.4609
 7090SOL    HW232907   0.132   1.455   5.788  0.7426  0.3592 -0.7386
 7091SOL     OW32908   3.264   4.336  13.931  0.0159 -0.1597  0.3312
 7091SOL    HW132909   3.318   4.374  14.000  0.1419  1.3716 -0.6006
 7091SOL    HW232910   3.178   4.341  13.972 -0.3747 -1.7441 -0.2800
 7092SOL     OW32911   4.138   4.447  11.168 -0.3969  0.1294  0.2890
 7092SOL    HW132912   4.044   4.441  11.184 -0.2092  0.6350  1.6494
 7092SOL    HW232913   4.157   4.507  11.241 -1.2127 -0.6446  1.1431
 7093SOL     OW32914   0.805   4.407   3.270 -0.4269 -0.2187  0.0495
 7093SOL    HW132915   0.880   4.401   3.210 -0.7825  0.5799 -0.4880
 7093SOL    HW232916   0.735   4.380   3.211 -1.0231  1.7158 -0.1277
 7094SOL     OW32917   1.744   0.104   7.411  0.0363 -0.2131 -0.2059
 7094SOL    HW132918   1.808   0.136   7.474 -0.0632  2.0168 -1.2540
 7094SOL    HW232919   1.799   0.034   7.375 -0.2935 -0.3563 -0.4321
 7095SOL     OW32920   2.869   3.649   6.728  0.4965  0.0314  0.4166
 7095SOL    HW132921   2.939   3.586   6.745  0.8659  0.6925  1.3678
 7095SOL    HW232922   2.792   3.594   6.741  3.1715 -3.4403  1.2566
 7096SOL     OW32923   3.164   3.728   2.928 -0.5479  0.0456 -0.1827
 7096SOL    HW132924   3.135   3.747   3.017  0.9494 -2.3861  0.8218
 7096SOL    HW232925   3.140   3.813   2.891  1.0044 -0.6125 -2.6835
 7097SOL     OW32926   2.215   1.473   6.817  0.0059 -0.3776  0.6000
 7097SOL    HW132927   2.301   1.514   6.821 -1.0091  1.6550  1.1778
 7097SOL    HW232928   2.147   1.538   6.802 -0.3991 -0.9497 -0.0594
 7098SOL     OW32929   3.291   2.956   9.000 -0.6914 -0.0253 -0.2262
 7098SOL    HW132930   3.245   3.029   8.961 -0.7291  1.1731  2.0421
 7098SOL    HW232931   3.374   2.998   9.022  0.5245 -2.9276  0.8410
 7099SOL     OW32932   2.297   2.793   6.318 -0.2396  0.2416  0.4377
 7099SOL    HW132933   2.368   2.854   6.296 -0.8820 -0.2953 -3.2223
 7099SOL    HW232934   2.303   2.799   6.413  1.7538 -2.1967  0.4900
 7100SOL     OW32935   2.057   3.733   9.144 -0.3679  0.3872  0.4719
 7100SOL    HW132936   2.132   3.752   9.088 -0.5879 -1.1640 -0.3612
 7100SOL    HW232937   2.002   3.700   9.073  1.7111 -0.3179 -0.7995
 7101SOL     OW32938   0.655   1.610  14.955  0.3129 -0.0227  0.5078
 7101SOL    HW132939   0.671   1.562  15.036  1.5605  1.5480  1.1986
 7101SOL    HW232940   0.586   1.563  14.909 -0.0567  0.1397  0.9020
 7102SOL     OW32941   4.384   0.745   4.865  0.6996 -0.4597  0.3323
 7102SOL    HW132942   4.395   0.663   4.912  1.1990 -0.8247 -0.4338
 7102SOL    HW232943   4.360   0.719   4.776 -0.1512 -1.0827  0.7404
 7103SOL     OW32944   4.243   0.243   0.534  0.1995  0.3658 -0.3352
 7103SOL    HW132945   4.278   0.243   0.623 -0.3790 -0.2814 -0.1136
 7103SOL    HW232946   4.164   0.192   0.552  0.5554 -0.0353  0.0685
 7104SOL     OW32947   4.159   2.511   7.707 -0.3919  0.4837 -0.2377
 7104SOL    HW132948   4.110   2.444   7.756  0.6655  0.5271  0.8755
 7104SOL    HW232949   4.084   2.562   7.675  0.4529  1.3025 -0.8788
 7105SOL     OW32950   3.856   3.686   3.521  0.5859  0.0541  0.3921
 7105SOL    HW132951   3.837   3.779   3.508 -0.4956 -0.2823 -0.4430
 7105SOL    HW232952   3.847   3.659   3.429  0.2027  1.0173  0.1446
 7106SOL     OW32953   2.746   0.707   0.614 -0.0347 -0.1613  0.1049
 7106SOL    HW132954   2.806   0.779   0.630 -0.0907 -0.5708  2.1790
 7106SOL    HW232955   2.786   0.667   0.537  0.2191  0.3145 -0.0069
 7107SOL     OW32956   1.722   1.480   9.613 -1.0388 -0.3424 -0.7370
 7107SOL    HW132957   1.750   1.390   9.599  0.1258 -0.0221 -0.4658
 7107SOL    HW232958   1.628   1.471   9.597 -1.3032 -0.0851  0.6588
 7108SOL     OW32959   0.829   1.429  15.386 -0.2751  0.0013  0.3333
 7108SOL    HW132960   0.830   1.517  15.423 -2.8768  0.8973 -1.7907
 7108SOL    HW232961   0.847   1.373  15.462 -1.2777 -1.1531 -0.2831
 7109SOL     OW32962   2.712   1.079   3.721  0.0165  0.7505  0.2292
 7109SOL    HW132963   2.665   1.157   3.692 -0.2308  0.4742 -0.0998
 7109SOL    HW232964   2.742   1.050   3.635 -1.1154  2.6476 -0.8032
 7110SOL     OW32965   2.870   1.967   8.232 -0.3369  0.0820  0.1916
 7110SOL    HW132966   2.807   2.011   8.288 -1.5261 -0.1642 -0.9325
 7110SOL    HW232967   2.825   1.903   8.176 -1.7549  1.6674 -0.4660
 7111SOL     OW32968   1.294   3.516   2.347  0.1157  0.2294 -0.0007
 7111SOL    HW132969   1.327   3.427   2.337  0.8928  0.6459 -1.1731
 7111SOL    HW232970   1.366   3.567   2.308 -0.7220  2.3766  1.2578
 7112SOL     OW32971   3.074   4.249  12.568 -0.3642 -0.6585 -0.2034
 7112SOL    HW132972   3.106   4.166  12.533  0.8472 -0.0527 -0.5479
 7112SOL    HW232973   3.074   4.243  12.664  1.9842 -1.8651 -0.2728
 7113SOL     OW32974   1.542   0.027  13.321 -0.4308  0.6760  0.1958
 7113SOL    HW132975   1.518   0.001  13.232  1.2947  0.1070 -0.1036
 7113SOL    HW232976   1.567   0.119  13.313  1.0639  0.5105  3.0169
 7114SOL     OW32977   1.821   3.359   3.017 -0.1844 -0.0854 -0.4767
 7114SOL    HW132978   1.903   3.405   3.030  0.0847 -1.1160  1.5519
 7114SOL    HW232979   1.836   3.324   2.929 -0.6015 -2.6765  0.4721
 7115SOL     OW32980   1.232   4.602   4.055 -1.0464 -0.2209 -0.0267
 7115SOL    HW132981   1.165   4.670   4.059 -1.3142 -0.5094  0.4329
 7115SOL    HW232982   1.302   4.652   4.013 -3.6183  1.1518 -2.7077
 7116SOL     OW32983   3.742   0.744   9.444  0.3687  0.5785 -0.5005
 7116SOL    HW132984   3.687   0.679   9.488  1.4038  2.1239  3.0956
 7116SOL    HW232985   3.831   0.721   9.469  0.8955  2.7940 -0.3097
 7117SOL     OW32986   3.015   4.590   3.211 -0.1954 -0.4302  0.0497
 7117SOL    HW132987   2.922   4.599   3.191 -0.2892 -0.7150  0.3632
 7117SOL    HW232988   3.020   4.659   3.276  2.1945  0.8253 -1.4524
 7118SOL     OW32989   4.652   1.435   1.863 -0.3714 -0.1580 -0.0194
 7118SOL    HW132990   4.599   1.486   1.924  0.1597  1.5500 -1.0062
 7118SOL    HW232991   4.722   1.400   1.918  0.2913  1.3978  0.1093
 7119SOL     OW32992   1.911   1.651   3.501 -0.0769 -0.3568 -0.2763
 7119SOL    HW132993   1.967   1.642   3.424  0.4478  2.1834 -0.1825
 7119SOL    HW232994   1.850   1.716   3.466 -0.0991 -0.2845 -0.1040
 7120SOL     OW32995   2.424   2.763  14.469 -0.3469 -0.6495  0.0877
 7120SOL    HW132996   2.354   2.697  14.469  0.3194 -1.3435  4.8233
 7120SOL    HW232997   2.479   2.725  14.537  1.4193  1.7839 -0.0006
 7121SOL     OW32998   3.259   3.465   2.856  0.5555 -0.2235 -0.1845
 7121SOL    HW132999   3.244   3.553   2.889  1.5899  0.3057 -1.1417
 7121SOL    HW233000   3.242   3.423   2.940  2.6462  2.5516  1.6386
 7122SOL     OW33001   1.122   3.352   5.072 -0.1857 -0.5430  0.5344
 7122SOL    HW133002   1.116   3.397   4.988 -1.6698 -0.8856  0.4574
 7122SOL    HW233003   1.143   3.432   5.120  0.0592  0.1214 -0.6664
 7123SOL     OW33004   3.288   1.009   3.017  0.1020 -0.2893 -0.1121
 7123SOL    HW133005   3.381   0.988   3.010 -0.2640 -2.0196  0.3747
 7123SOL    HW233006   3.253   0.982   2.933  0.5933 -0.5276 -0.2413
 7124SOL     OW33007   3.164   4.682  13.441  0.7919  0.2354  0.6472
 7124SOL    HW133008   3.232   4.648  13.499  1.1358  0.8844  0.6300
 7124SOL    HW233009   3.104   4.708  13.511  0.4048 -0.8101  0.6939
 7125SOL     OW33010   1.821   1.546  17.501 -0.2510  0.1585 -0.3541
 7125SOL    HW133011   1.790   1.493  17.575  0.0932 -1.9871 -1.7464
 7125SOL    HW233012   1.749   1.521  17.442  0.0823 -1.4918 -0.0512
 7126SOL     OW33013   0.351   2.300   1.679  0.1288  0.0339  0.1624
 7126SOL    HW133014   0.291   2.282   1.606  0.9944 -0.5598 -0.4068
 7126SOL    HW233015   0.343   2.395   1.678  1.3001  0.1234  0.1958
 7127SOL     OW33016   0.955   1.197   4.999  0.5632  0.5095 -0.2271
 7127SOL    HW133017   0.915   1.185   5.085 -1.4299 -0.7988 -1.3458
 7127SOL    HW233018   1.040   1.239   5.015  0.1383  0.3706  2.2440
 7128SOL     OW33019   1.500   0.177   5.926  0.4560 -0.8411 -0.0646
 7128SOL    HW133020   1.528   0.205   6.013  5.0972  1.4914 -2.2902
 7128SOL    HW233021   1.419   0.134   5.952  0.6415 -0.5156  1.0401
 7129SOL     OW33022   0.324   0.785  15.350 -0.4156 -0.3320  0.2528
 7129SOL    HW133023   0.337   0.698  15.390  1.7619  0.3322  0.9988
 7129SOL    HW233024   0.230   0.793  15.366 -0.2608  1.3703  0.2308
 7130SOL     OW33025   3.042   2.289   3.638  0.0808  0.4002 -0.2232
 7130SOL    HW133026   3.090   2.311   3.558  1.1280 -1.5477 -0.1343
 7130SOL    HW233027   3.033   2.194   3.646 -1.1292  0.5749  0.4512
 7131SOL     OW33028   2.082   1.921  15.774  0.1166 -0.1092 -0.2634
 7131SOL    HW133029   2.069   2.012  15.801  1.6196  0.3566 -1.1070
 7131SOL    HW233030   2.009   1.883  15.823 -0.0599 -0.6935 -0.9773
 7132SOL     OW33031   4.716   0.113   5.313  0.4521  0.7439 -0.4297
 7132SOL    HW133032   0.070   0.139   5.313  0.2769  1.3492  4.3302
 7132SOL    HW233033   4.705   0.027   5.353  1.1838 -0.2783 -2.4726
 7133SOL     OW33034   4.251   0.014   4.741 -0.4086 -0.8973 -0.1090
 7133SOL    HW133035   4.238   4.658   4.733 -1.8552 -0.4200 -3.2889
 7133SOL    HW233036   4.201   0.023   4.822 -2.3542  1.3673 -1.5659
 7134SOL     OW33037   4.367   2.957   2.696  0.3653 -0.3510 -0.0648
 7134SOL    HW133038   4.350   3.049   2.677  1.5479  0.0441  0.8216
 7134SOL    HW233039   4.406   2.958   2.783  0.8747 -1.2050 -0.2794
 7135SOL     OW33040   3.562   0.890  16.148  0.0612  0.0192  0.1536
 7135SOL    HW133041   3.565   0.794  16.139 -0.2268  0.0660 -0.3978
 7135SOL    HW233042   3.522   0.910  16.233 -0.2267  2.0005 -0.4531
 7136SOL     OW33043   2.291   1.020   8.020  0.6720 -0.0953  0.3860
 7136SOL    HW133044   2.272   1.080   8.092  0.3092  0.4244 -0.1442
 7136SOL    HW233045   2.377   0.986   8.046 -0.0896 -0.6049  2.2663
 7137SOL     OW33046   3.577   1.645   5.305  0.0504  0.0973 -0.1440
 7137SOL    HW133047   3.571   1.648   5.209  2.0050 -0.5815 -0.2893
 7137SOL    HW233048   3.495   1.685   5.336  1.0226  0.1385  2.3477
 7138SOL     OW33049   4.379   1.185   4.791  0.0049  0.6762  0.0967
 7138SOL    HW133050   4.432   1.151   4.718  0.1336 -0.3218  0.6508
 7138SOL    HW233051   4.439   1.184   4.865 -1.8063  2.0050  1.5758
 7139SOL     OW33052   0.353   3.007   4.053  0.1720  0.1900  0.6097
 7139SOL    HW133053   0.322   3.037   3.968  0.7571  0.0171  0.3328
 7139SOL    HW233054   0.382   2.919   4.028 -1.7330  0.2415 -1.6637
 7140SOL     OW33055   0.877   0.240  17.171  0.5115 -0.3653  0.4589
 7140SOL    HW133056   0.910   0.288  17.096 -1.2315 -0.9265 -0.6756
 7140SOL    HW233057   0.944   0.260  17.236 -0.0032  1.4453  0.4182
 7141SOL     OW33058   0.022   3.982   8.266  0.3950  0.7088 -0.1611
 7141SOL    HW133059   4.682   3.945   8.307 -0.2354  2.4027  0.1801
 7141SOL    HW233060   0.064   4.033   8.336  1.1509 -0.1141 -0.0080
 7142SOL     OW33061   0.934   4.340   6.618 -0.2560  0.1832  0.7476
 7142SOL    HW133062   0.863   4.282   6.590 -0.5162  0.5994  0.5508
 7142SOL    HW233063   0.896   4.382   6.695  2.2650  0.9155  1.6020
 7143SOL     OW33064   3.738   4.584   3.473  0.2921 -0.1902 -0.1809
 7143SOL    HW133065   3.794   4.661   3.475  1.5775 -1.1117 -0.4213
 7143SOL    HW233066   3.650   4.621   3.462 -0.0314 -1.5799 -2.5264
 7144SOL     OW33067   0.849   3.336   4.886 -0.4309 -0.3725  0.1841
 7144SOL    HW133068   0.878   3.249   4.857  2.8941  0.5356  0.7802
 7144SOL    HW233069   0.773   3.342   4.828 -0.1699  2.7955  0.1555
 7145SOL     OW33070   0.635   0.798   8.917 -0.0921  1.0614 -0.1071
 7145SOL    HW133071   0.691   0.812   8.993 -0.3718 -0.7105  0.4336
 7145SOL    HW233072   0.698   0.822   8.849 -1.7343 -1.0681 -2.3736
 7146SOL     OW33073   2.015   2.896   3.802  0.4137  0.3207 -0.1329
 7146SOL    HW133074   2.023   2.901   3.707 -0.1892 -0.1685 -0.2072
 7146SOL    HW233075   2.094   2.942   3.831  0.7550 -0.2313 -0.1839
 7147SOL     OW33076   4.322   1.191   5.727  0.5195 -0.3953  0.0291
 7147SOL    HW133077   4.251   1.137   5.760  0.2448 -1.0192 -1.5848
 7147SOL    HW233078   4.393   1.161   5.784  0.6651  1.3233  0.7626
 7148SOL     OW33079   2.081   1.059   8.565  0.1817  0.1267 -0.5562
 7148SOL    HW133080   2.001   1.019   8.599 -0.5633  1.5345 -0.6326
 7148SOL    HW233081   2.052   1.147   8.538  0.9302  0.3618 -0.5835
 7149SOL     OW33082   1.326   2.664   6.220 -0.3747 -0.5793 -0.0645
 7149SOL    HW133083   1.409   2.623   6.199 -0.3100  0.0635 -1.0847
 7149SOL    HW233084   1.347   2.708   6.303 -1.3902  0.9330 -0.5999
 7150SOL     OW33085   4.062   4.335   8.485 -0.1762  0.6194  0.1162
 7150SOL    HW133086   4.059   4.254   8.537 -0.4464 -0.1296 -1.0611
 7150SOL    HW233087   3.974   4.342   8.447 -0.2995 -0.1575  0.2448
 7151SOL     OW33088   2.627   4.130   8.011  0.0223 -0.3323  0.4699
 7151SOL    HW133089   2.673   4.048   7.991  1.8866  0.7514  0.2929
 7151SOL    HW233090   2.536   4.105   8.023  0.1721 -0.4387  1.4290
 7152SOL     OW33091   0.143   4.502   3.623  0.0197 -0.6917 -0.5040
 7152SOL    HW133092   0.077   4.443   3.658 -1.3041  0.3681 -1.2251
 7152SOL    HW233093   0.100   4.586   3.613  0.5089 -0.6506 -2.2876
 7153SOL     OW33094   3.086   4.128   1.522 -0.6602 -0.3244  0.3483
 7153SOL    HW133095   3.100   4.176   1.604  0.7852 -3.2328  1.7921
 7153SOL    HW233096   2.999   4.155   1.494 -0.9956 -3.1385 -1.2926
 7154SOL     OW33097   2.781   3.900   7.943  0.1129 -0.1291 -0.1688
 7154SOL    HW133098   2.805   3.924   7.854 -1.4723 -0.3272 -0.6512
 7154SOL    HW233099   2.819   3.813   7.954  2.1148  0.8836  0.9276
 7155SOL     OW33100   0.063   2.511  16.342  0.2958 -0.2358 -0.1317
 7155SOL    HW133101   0.040   2.532  16.252 -1.0810  0.1304  0.3098
 7155SOL    HW233102   0.158   2.526  16.341  0.4218 -0.8927  1.3409
 7156SOL     OW33103   4.107   3.436   3.003  0.0103 -0.7062  0.2046
 7156SOL    HW133104   4.073   3.391   2.925  2.0328 -1.5758 -0.1729
 7156SOL    HW233105   4.186   3.476   2.967 -0.4776  0.0086 -0.0709
 7157SOL     OW33106   2.933   1.572   6.841  0.1867 -0.2965  0.2694
 7157SOL    HW133107   2.964   1.644   6.786 -0.4462 -1.3053 -1.4088
 7157SOL    HW233108   2.888   1.522   6.774 -1.9781 -1.3132  2.4680
 7158SOL     OW33109   0.213   0.914   5.133  0.4562 -0.0227 -0.3990
 7158SOL    HW133110   0.292   0.967   5.140  1.0574 -0.9266 -0.3323
 7158SOL    HW233111   0.177   0.921   5.222  1.2379 -1.0657 -0.0019
 7159SOL     OW33112   4.602   3.270   7.304  0.0171 -0.0394  0.2290
 7159SOL    HW133113   4.590   3.301   7.393 -0.2362 -2.2784  0.9907
 7159SOL    HW233114   4.688   3.229   7.307  0.1567  0.2087 -0.3825
 7160SOL     OW33115   2.977   4.223  15.851 -0.4834  0.0955  0.3054
 7160SOL    HW133116   2.922   4.184  15.783 -0.0678  2.0490 -1.1547
 7160SOL    HW233117   2.906   4.272  15.891 -0.1630  2.4262 -1.9451
 7161SOL     OW33118   0.801   0.421   2.167 -0.1621  0.0469 -0.4784
 7161SOL    HW133119   0.748   0.479   2.222 -2.0863 -0.2069 -2.0330
 7161SOL    HW233120   0.818   0.474   2.089 -0.2114 -0.9193 -1.1564
 7162SOL     OW33121   0.824   2.219   3.978 -0.2829 -0.4772 -0.0839
 7162SOL    HW133122   0.841   2.153   4.046 -1.7013  1.4602  2.1515
 7162SOL    HW233123   0.742   2.192   3.936  0.4455  0.0836 -1.8432
 7163SOL     OW33124   2.848   0.829  16.422  0.3074  0.2770  0.1909
 7163SOL    HW133125   2.840   0.761  16.355  1.1757 -1.1184  1.5021
 7163SOL    HW233126   2.767   0.813  16.469  0.0648 -1.2620 -0.7332
 7164SOL     OW33127   0.217   4.553   4.788 -0.5325 -0.0661  0.1836
 7164SOL    HW133128   0.186   4.590   4.871  1.2509  0.3532  0.6722
 7164SOL    HW233129   0.228   4.463   4.822 -1.0481  0.6640  2.3094
 7165SOL     OW33130   3.672   0.656   1.340 -0.1891 -0.2228  0.2202
 7165SOL    HW133131   3.692   0.717   1.412 -0.5011 -0.3178  0.3855
 7165SOL    HW233132   3.753   0.661   1.289  0.2745 -0.1920  0.9693
 7166SOL     OW33133   4.032   4.257   4.340 -0.4452 -0.1116  0.0464
 7166SOL    HW133134   4.041   4.282   4.432  2.6367  2.7455 -1.0494
 7166SOL    HW233135   3.937   4.249   4.330 -0.8691  1.2227  2.8154
 7167SOL     OW33136   1.816   0.633  16.491  0.2241 -0.2455  0.3751
 7167SOL    HW133137   1.820   0.693  16.566 -0.0972 -0.1114  0.2845
 7167SOL    HW233138   1.851   0.688  16.421  1.0273 -2.1006 -0.6753
 7168SOL     OW33139   1.871   4.694   3.774 -0.3046 -0.2222 -0.1483
 7168SOL    HW133140   1.832   4.633   3.712  0.9313 -1.2418  0.0774
 7168SOL    HW233141   1.959   4.657   3.776  0.1356  0.8349 -0.2016
 7169SOL     OW33142   1.623   0.450   4.980  0.4695  0.0970  0.2150
 7169SOL    HW133143   1.605   0.542   4.964 -1.1028 -0.2974 -0.2870
 7169SOL    HW233144   1.659   0.425   4.895  1.3729  0.4270  0.5009
 7170SOL     OW33145   1.181   2.275   4.690  0.7526  0.4704 -0.1786
 7170SOL    HW133146   1.189   2.278   4.785  1.4378 -0.4159 -0.2133
 7170SOL    HW233147   1.238   2.201   4.673  1.9638  1.6561 -1.3082
 7171SOL     OW33148   2.661   1.153  15.493  0.1367  0.4628 -0.3499
 7171SOL    HW133149   2.691   1.243  15.504 -0.8243  0.8436 -0.7920
 7171SOL    HW233150   2.744   1.107  15.480  0.3228  0.7336 -0.1133
 7172SOL     OW33151   1.429   1.351   9.167  0.5902 -0.2023 -0.9079
 7172SOL    HW133152   1.413   1.424   9.108 -0.8173  1.6474  1.7946
 7172SOL    HW233153   1.468   1.297   9.098 -0.3406  0.1743 -1.7330
 7173SOL     OW33154   4.641   1.147   4.645 -0.3263  0.3432 -0.4938
 7173SOL    HW133155   4.603   1.186   4.566  0.5958  1.0688 -0.5761
 7173SOL    HW233156   4.733   1.137   4.620 -0.4263  0.0571 -0.7404
 7174SOL     OW33157   2.914   2.655   6.193  0.1229  0.5681  0.3606
 7174SOL    HW133158   2.914   2.663   6.288  1.6346 -0.2883  0.4374
 7174SOL    HW233159   3.007   2.642   6.174  0.0251 -1.2085  1.0585
 7175SOL     OW33160   0.339   0.710   2.389 -0.7993 -0.3254  0.3065
 7175SOL    HW133161   0.428   0.713   2.425 -0.6883  1.5756 -0.1426
 7175SOL    HW233162   0.314   0.633   2.440  1.8085  0.2039  2.4281
 7176SOL     OW33163   2.376   2.377   6.589 -0.0357  0.2469  0.4054
 7176SOL    HW133164   2.308   2.310   6.600 -1.2202  0.7033 -3.9290
 7176SOL    HW233165   2.434   2.328   6.531 -1.2577 -0.0058 -0.6008
 7177SOL     OW33166   3.472   2.889   7.076 -0.1760 -0.4762 -0.5731
 7177SOL    HW133167   3.531   2.839   7.133  1.2966 -1.6586 -3.1125
 7177SOL    HW233168   3.504   2.979   7.077 -0.1994 -0.4429 -4.4706
 7178SOL     OW33169   3.389   1.126  15.943  0.2804  0.2783 -0.1806
 7178SOL    HW133170   3.443   1.144  16.020  1.6918  0.5676 -1.2507
 7178SOL    HW233171   3.461   1.129  15.880 -0.1945  0.5905 -0.7080
 7179SOL     OW33172   3.470   1.712  13.824  0.0661 -0.8188 -0.0499
 7179SOL    HW133173   3.399   1.775  13.834  0.5324  0.0365 -2.2848
 7179SOL    HW233174   3.548   1.765  13.808 -0.7148 -0.2759 -2.0605
 7180SOL     OW33175   0.190   0.849   4.849  0.4160 -0.1880  0.0559
 7180SOL    HW133176   0.175   0.856   4.944  0.1137  0.5356 -0.0507
 7180SOL    HW233177   0.107   0.809   4.825  0.4527 -0.3271  0.1594
 7181SOL     OW33178   1.232   0.989  15.007  0.5884 -0.1655  0.6625
 7181SOL    HW133179   1.150   1.038  15.006 -0.2169 -1.4748  3.0864
 7181SOL    HW233180   1.219   0.940  15.088 -3.5854  0.7559  0.5320
 7182SOL     OW33181   1.073   2.026   5.165 -0.5261  1.1139 -0.2660
 7182SOL    HW133182   0.993   1.981   5.192  0.2981  0.1419  0.5574
 7182SOL    HW233183   1.057   2.043   5.072 -1.4417  1.6581 -0.0075
 7183SOL     OW33184   0.645   0.848   7.697  0.8782  0.0620 -0.0501
 7183SOL    HW133185   0.607   0.765   7.666 -0.0407 -0.5588  2.7403
 7183SOL    HW233186   0.730   0.829   7.737  1.3103  2.7914  0.3110
 7184SOL     OW33187   2.654   2.061   5.571  0.1582 -0.5877 -0.4700
 7184SOL    HW133188   2.639   2.110   5.652 -0.1258  0.8175 -1.3731
 7184SOL    HW233189   2.736   2.102   5.540  0.0940 -0.4616 -0.4753
 7185SOL     OW33190   4.485   0.150   2.306  0.1084  0.2774  0.1679
 7185SOL    HW133191   4.471   0.095   2.229 -1.1165 -0.6353  1.0465
 7185SOL    HW233192   4.455   0.237   2.279 -0.6023 -0.0808 -0.2313
 7186SOL     OW33193   4.543   0.374   2.722  0.0005 -0.1788 -0.1115
 7186SOL    HW133194   4.473   0.403   2.780 -1.4606 -3.4584 -0.2835
 7186SOL    HW233195   4.602   0.448   2.705 -0.3679  0.1547  0.0478
 7187SOL     OW33196   2.205   0.585   1.230 -0.5290  0.6286 -0.3792
 7187SOL    HW133197   2.149   0.603   1.305 -0.3461 -0.2577 -0.0373
 7187SOL    HW233198   2.287   0.615   1.270 -1.5272  1.3629  1.1539
 7188SOL     OW33199   1.918   3.845   3.100  0.1669  0.7311 -0.7073
 7188SOL    HW133200   1.870   3.771   3.138 -0.5186  2.2418  1.3919
 7188SOL    HW233201   1.997   3.844   3.153 -0.6554 -0.0737  0.5259
 7189SOL     OW33202   0.398   0.052   3.765 -0.2751 -0.0134  0.2214
 7189SOL    HW133203   0.413   0.002   3.684  0.9862  0.2003  0.3130
 7189SOL    HW233204   0.303   0.050   3.758 -0.2903  3.4867 -0.4709
 7190SOL     OW33205   3.511   0.298   5.039 -0.1999 -0.1414  0.0363
 7190SOL    HW133206   3.438   0.356   5.061 -0.1167  0.0117 -0.0939
 7190SOL    HW233207   3.479   0.213   5.008  0.4189 -0.7768  1.1454
 7191SOL     OW33208   3.930   0.171  14.754 -0.0635 -0.4447  0.6454
 7191SOL    HW133209   3.941   0.128  14.838  1.2189 -1.2808  0.0360
 7191SOL    HW233210   3.945   0.094  14.699 -0.2929  1.6903 -2.4271
 7192SOL     OW33211   4.727   4.456   1.464  0.9489  0.6154 -1.1474
 7192SOL    HW133212   4.671   4.523   1.425  1.3601  1.5508 -0.1265
 7192SOL    HW233213   0.018   4.496   1.546 -1.0623  1.2716 -0.7726
 7193SOL     OW33214   2.679   1.956   3.641 -0.7437 -0.4482 -0.4080
 7193SOL    HW133215   2.632   1.884   3.683  0.9572  0.9099  3.8288
 7193SOL    HW233216   2.646   2.030   3.692  0.4489 -0.2525  0.0797
 7194SOL     OW33217   1.429   4.697   2.340 -0.1903 -0.0699  0.0430
 7194SOL    HW133218   1.377   0.019   2.394 -1.8563 -0.1860 -1.4473
 7194SOL    HW233219   1.488   0.023   2.300  0.2479 -0.8786 -0.6089
 7195SOL     OW33220   2.528   3.139   4.071 -0.0824  0.3375  0.0289
 7195SOL    HW133221   2.444   3.180   4.091 -0.3371  0.7239 -1.7606
 7195SOL    HW233222   2.535   3.158   3.977 -0.1623  2.0556  0.3786
 7196SOL     OW33223   1.509   1.767   6.706 -0.2559  0.5352 -0.0943
 7196SOL    HW133224   1.590   1.798   6.746  0.2619 -1.0178  0.0896
 7196SOL    HW233225   1.540   1.778   6.617  0.0169 -0.7561 -0.1672
 7197SOL     OW33226   3.424   2.739   7.810 -0.2432 -0.1544 -0.1231
 7197SOL    HW133227   3.515   2.724   7.832 -0.3290 -2.6965 -1.5023
 7197SOL    HW233228   3.388   2.653   7.833 -0.4948 -0.0362 -0.0675
 7198SOL     OW33229   2.292   1.659  16.380  0.2663 -0.0357  0.3602
 7198SOL    HW133230   2.350   1.720  16.334 -0.8812  2.1035  1.6888
 7198SOL    HW233231   2.228   1.720  16.418 -0.7006 -1.0081  0.3094
 7199SOL     OW33232   1.304   2.022   1.059 -0.4324  0.0462 -0.1109
 7199SOL    HW133233   1.399   2.007   1.062 -0.6006 -1.1418 -0.5259
 7199SOL    HW233234   1.288   1.930   1.035  1.5385 -0.8755  2.1144
 7200SOL     OW33235   0.885   4.265   2.198 -0.1981  0.1206  0.0292
 7200SOL    HW133236   0.795   4.234   2.209  0.4438 -1.2711  1.3275
 7200SOL    HW233237   0.877   4.334   2.263 -2.2612 -1.0126  0.9821
 7201SOL     OW33238   0.487   1.297   5.080 -0.2667 -0.5735 -0.4051
 7201SOL    HW133239   0.423   1.297   5.009  0.1105 -0.8742 -0.7543
 7201SOL    HW233240   0.476   1.372   5.138 -4.1003 -2.1807  0.9170
 7202SOL     OW33241   0.363   4.659  16.964 -0.8887  0.1786 -0.3651
 7202SOL    HW133242   0.276   4.700  16.960 -0.5544  0.9415  0.3726
 7202SOL    HW233243   0.353   4.590  17.029 -1.8129 -0.6243 -1.3569
 7203SOL     OW33244   2.042   0.469   5.848 -0.6604 -0.5932  0.1591
 7203SOL    HW133245   2.069   0.553   5.810  2.0142 -1.2850  0.4715
 7203SOL    HW233246   1.999   0.427   5.774  0.2346 -0.7052 -0.3010
 7204SOL     OW33247   2.779   1.518   1.145 -0.0161 -0.0222 -0.8142
 7204SOL    HW133248   2.874   1.508   1.143  0.0461  0.1898  0.8210
 7204SOL    HW233249   2.761   1.508   1.239  0.3478  0.4186 -0.6990
 7205SOL     OW33250   3.517   4.534   9.758  0.4844  0.6774  0.4100
 7205SOL    HW133251   3.569   4.525   9.678  1.9940 -3.6888  1.8834
 7205SOL    HW233252   3.518   4.449   9.800 -0.5266 -0.1624 -1.2589
 7206SOL     OW33253   0.751   1.281  17.348  0.5603 -0.1896  0.2196
 7206SOL    HW133254   0.710   1.202  17.313  2.0005 -0.0726 -1.7146
 7206SOL    HW233255   0.836   1.277  17.304 -0.1924 -0.1076 -1.2372
 7207SOL     OW33256   0.484   4.128  15.744  0.1128 -0.0417 -0.3322
 7207SOL    HW133257   0.478   4.119  15.649  2.1764 -1.7381 -0.2997
 7207SOL    HW233258   0.480   4.035  15.766  1.8197  0.4417  1.9451
 7208SOL     OW33259   3.901   2.669  16.452 -0.2364 -0.9963  0.1192
 7208SOL    HW133260   3.840   2.601  16.480 -0.3312 -1.3168 -0.8544
 7208SOL    HW233261   3.952   2.637  16.377 -0.4083 -0.4914 -0.2082
 7209SOL     OW33262   4.343   1.023   0.645 -0.0921 -0.0018 -0.1871
 7209SOL    HW133263   4.322   1.112   0.671 -1.1740 -0.3844  0.2469
 7209SOL    HW233264   4.256   0.982   0.640 -0.3557  0.5506 -0.0633
 7210SOL     OW33265   1.215   1.100  16.238  0.0218  0.0396  0.2595
 7210SOL    HW133266   1.172   1.184  16.255  1.2775  0.5833  0.7846
 7210SOL    HW233267   1.304   1.125  16.215  0.1329  0.1005  0.7494
 7211SOL     OW33268   1.832   0.100   9.579 -0.2583 -0.1510 -0.4824
 7211SOL    HW133269   1.758   0.160   9.589  0.2204  0.4402 -0.5031
 7211SOL    HW233270   1.787   0.016   9.572  0.9885 -0.7446 -1.3593
 7212SOL     OW33271   0.853   2.325   1.567 -0.1044 -0.2065 -0.3582
 7212SOL    HW133272   0.812   2.310   1.652 -0.7008  0.8593 -0.4512
 7212SOL    HW233273   0.929   2.269   1.577  0.7917  0.4874 -3.2281
 7213SOL     OW33274   1.235   1.393   8.865  0.2429 -0.1447 -0.2165
 7213SOL    HW133275   1.242   1.364   8.774  1.2578 -1.4926  0.2919
 7213SOL    HW233276   1.152   1.356   8.895 -0.5565 -0.0616 -2.3147
 7214SOL     OW33277   3.726   3.669   2.300 -0.4602  0.3085 -0.6268
 7214SOL    HW133278   3.805   3.621   2.277  0.1567  0.4915  1.1323
 7214SOL    HW233279   3.747   3.690   2.391  0.3084  0.2150 -0.7848
 7215SOL     OW33280   0.325   3.210   4.236  0.4144 -0.1912 -0.5394
 7215SOL    HW133281   0.318   3.129   4.186  1.2596  0.3666 -1.5564
 7215SOL    HW233282   0.315   3.274   4.165 -1.7863  1.2608  1.0558
 7216SOL     OW33283   2.396   3.720   6.072 -0.9350  0.4061  0.1712
 7216SOL    HW133284   2.455   3.664   6.122  0.7644  0.3144 -1.9781
 7216SOL    HW233285   2.324   3.658   6.056 -1.5600  1.1345  0.1285
 7217SOL     OW33286   3.561   4.202  14.134 -0.1234  0.2014  0.2616
 7217SOL    HW133287   3.557   4.277  14.076  0.9796  0.0196 -0.0523
 7217SOL    HW233288   3.624   4.143  14.092  1.2187  1.8266 -0.0007
 7218SOL     OW33289   2.653   4.615   7.211  0.6420  0.0337 -0.1902
 7218SOL    HW133290   2.631   4.651   7.125  0.8833  1.2194  0.2426
 7218SOL    HW233291   2.680   4.527   7.188 -2.0635 -0.9355  0.3212
 7219SOL     OW33292   4.071   3.904   5.942  0.5461  0.6994  0.3737
 7219SOL    HW133293   4.062   3.817   5.904 -1.6485  1.1688 -0.1461
 7219SOL    HW233294   4.069   3.965   5.868 -2.3963  0.3436  0.1598
 7220SOL     OW33295   1.703   0.862  16.303 -0.6097  0.3734 -0.2624
 7220SOL    HW133296   1.688   0.870  16.398 -1.1194  0.6710 -0.3689
 7220SOL    HW233297   1.641   0.793  16.281  0.6653 -0.4975 -1.1172
 7221SOL     OW33298   3.091   0.246   3.976 -0.3620  0.0596 -0.0388
 7221SOL    HW133299   3.012   0.295   3.952 -0.4877  0.5843  1.4365
 7221SOL    HW233300   3.107   0.188   3.901 -0.6597  0.0299 -0.0778
 7222SOL     OW33301   1.556   4.057   9.240  0.6431 -0.5353  0.4228
 7222SOL    HW133302   1.623   3.988   9.246  0.9470 -0.2519  0.3087
 7222SOL    HW233303   1.475   4.015   9.212  0.1247  0.0095  1.0947
 7223SOL     OW33304   0.459   3.433   9.442 -0.2245 -0.1280 -0.5342
 7223SOL    HW133305   0.437   3.512   9.491  0.4481 -0.7284  0.7605
 7223SOL    HW233306   0.419   3.356   9.484 -2.0757  0.8287 -0.5845
 7224SOL     OW33307   1.279   1.382  17.094 -0.0183  0.5729 -0.1225
 7224SOL    HW133308   1.265   1.287  17.101  0.3785  0.4341 -1.2693
 7224SOL    HW233309   1.326   1.388  17.011 -0.2006 -0.3161 -0.2988
 7225SOL     OW33310   0.503   3.886   8.805  0.3237  0.1591  0.0612
 7225SOL    HW133311   0.526   3.829   8.878 -0.6801 -0.5427 -0.1881
 7225SOL    HW233312   0.591   3.922   8.790  0.0149  0.5292 -0.8051
 7226SOL     OW33313   3.822   3.150   4.382  0.1948 -0.0288 -0.3720
 7226SOL    HW133314   3.858   3.203   4.310  0.7825  2.8707  2.0762
 7226SOL    HW233315   3.753   3.206   4.418 -0.6809 -1.1050 -0.3644
 7227SOL     OW33316   2.830   3.877   3.045  0.7157  0.2358  0.2217
 7227SOL    HW133317   2.843   3.925   3.127  0.2375  1.2971 -0.3335
 7227SOL    HW233318   2.917   3.871   3.005  0.8721 -0.1829  0.6220
 7228SOL     OW33319   3.224   3.529   0.914  0.0867 -0.6466 -0.3816
 7228SOL    HW133320   3.194   3.450   0.869 -0.2549 -0.3504 -0.6800
 7228SOL    HW233321   3.155   3.586   0.879 -0.2250  0.7404  2.4834
 7229SOL     OW33322   0.359   3.473   8.381  0.1138  1.1836  0.5277
 7229SOL    HW133323   0.266   3.456   8.394 -0.4274  1.8671 -2.3863
 7229SOL    HW233324   0.396   3.491   8.467  0.7345 -0.6415  0.6416
 7230SOL     OW33325   1.372   0.828   2.118 -0.2730  0.1878  0.2435
 7230SOL    HW133326   1.441   0.820   2.184  0.4153 -0.6086 -0.5793
 7230SOL    HW233327   1.395   0.760   2.055 -0.1158 -0.0972  0.6069
 7231SOL     OW33328   0.951   2.749  17.171 -0.4272 -0.9206  0.5098
 7231SOL    HW133329   0.902   2.670  17.150 -0.4043 -1.0204  0.8307
 7231SOL    HW233330   0.889   2.817  17.145  0.3503  0.4958  2.3715
 7232SOL     OW33331   2.485   0.316   3.799 -0.1717  0.1277  0.4037
 7232SOL    HW133332   2.551   0.255   3.766  0.5140  0.7733  0.5873
 7232SOL    HW233333   2.510   0.315   3.891  1.0886  4.3980  0.1318
 7233SOL     OW33334   3.590   3.097   7.520  0.0519  0.8051  0.0042
 7233SOL    HW133335   3.512   3.048   7.546  1.2001 -0.8661  0.3101
 7233SOL    HW233336   3.561   3.179   7.559 -1.4811 -0.4290  1.4358
 7234SOL     OW33337   3.241   2.635   0.335  0.3217  0.0179  0.1922
 7234SOL    HW133338   3.332   2.659   0.350  0.3297 -0.8854  1.5464
 7234SOL    HW233339   3.217   2.590   0.416 -0.5566 -2.0409 -1.2333
 7235SOL     OW33340   1.037   3.594   8.923 -0.2333 -0.5610 -0.4330
 7235SOL    HW133341   1.061   3.552   8.840 -0.6045 -1.1281 -0.2534
 7235SOL    HW233342   1.001   3.523   8.976  0.4227 -0.5370  0.0379
 7236SOL     OW33343   1.576   1.456  15.935 -0.2585 -0.5164  0.8168
 7236SOL    HW133344   1.628   1.493  16.007 -0.2397 -0.3147  0.6992
 7236SOL    HW233345   1.497   1.429  15.982 -0.4875 -2.0199 -0.4292
 7237SOL     OW33346   0.643   0.237   6.612 -0.2221  0.5393 -0.0508
 7237SOL    HW133347   0.627   0.193   6.695 -0.5661  1.8415  0.5788
 7237SOL    HW233348   0.624   0.327   6.639 -2.1036  0.5992 -1.4900
 7238SOL     OW33349   3.465   4.440   8.950  0.1683 -0.0074 -0.0529
 7238SOL    HW133350   3.434   4.513   8.897  0.7104  0.1087 -0.2063
 7238SOL    HW233351   3.414   4.453   9.030 -0.1975 -0.5329 -0.1975
 7239SOL     OW33352   1.882   0.978   4.204 -0.0279 -0.2009 -0.0878
 7239SOL    HW133353   1.839   0.907   4.156  1.2962 -1.6367  0.8474
 7239SOL    HW233354   1.968   0.941   4.222 -0.6499 -0.6623  2.0119
 7240SOL     OW33355   4.008   4.325   9.150 -0.3570 -0.4283  0.5528
 7240SOL    HW133356   4.064   4.373   9.211  0.0285 -0.6521  0.3780
 7240SOL    HW233357   4.071   4.260   9.117 -0.5857 -1.8211  2.8621
 7241SOL     OW33358   0.191   1.025   4.195 -0.5251  0.3473 -0.2140
 7241SOL    HW133359   0.204   1.055   4.285  1.8695 -1.4651  0.0382
 7241SOL    HW233360   0.232   0.939   4.192 -0.5542  0.2051  3.3345
 7242SOL     OW33361   0.101   2.066   8.733  0.5385  0.1589  0.2517
 7242SOL    HW133362   0.011   2.038   8.717  0.1932  1.7963 -0.6918
 7242SOL    HW233363   0.142   2.078   8.647  0.0659  0.5347  0.0753
 7243SOL     OW33364   3.157   3.512  10.782  0.4225  0.3403 -0.2972
 7243SOL    HW133365   3.235   3.458  10.790 -0.9756 -1.6323 -0.0670
 7243SOL    HW233366   3.157   3.543  10.873 -1.1644  2.3408 -0.9766
 7244SOL     OW33367   3.280   3.205   1.818  0.3441 -0.4212 -0.5915
 7244SOL    HW133368   3.225   3.257   1.760  0.2831 -1.3803 -1.3865
 7244SOL    HW233369   3.311   3.288   1.855 -2.0697 -0.8435  2.3496
 7245SOL     OW33370   2.665   3.720   4.496 -0.1228 -0.6866 -0.2023
 7245SOL    HW133371   2.697   3.756   4.579  0.7194 -4.3755  1.0667
 7245SOL    HW233372   2.721   3.643   4.494  0.4110 -0.2953 -0.3353
 7246SOL     OW33373   2.224   2.815  17.114 -0.7141 -0.0800  0.2544
 7246SOL    HW133374   2.302   2.769  17.142 -1.2578 -1.3948 -0.4037
 7246SOL    HW233375   2.157   2.750  17.135 -1.2683  0.3353 -0.2053
 7247SOL     OW33376   3.386   2.688   3.611 -0.4255  0.1947  0.2167
 7247SOL    HW133377   3.366   2.706   3.703  1.4401  1.1299  0.4366
 7247SOL    HW233378   3.356   2.597   3.603  1.6294 -0.6506  2.1728
 7248SOL     OW33379   1.232   2.578   4.358  0.3219  0.7628 -0.2620
 7248SOL    HW133380   1.186   2.563   4.275  1.9788 -0.3844 -0.9823
 7248SOL    HW233381   1.236   2.487   4.388  3.0435  0.3155 -2.0087
 7249SOL     OW33382   2.995   4.446  10.339  0.5968  0.0491  0.6278
 7249SOL    HW133383   3.003   4.355  10.312  0.5951  0.3187 -0.2701
 7249SOL    HW233384   2.913   4.464  10.293  2.0196  1.0016 -1.5719
 7250SOL     OW33385   2.369   3.817   5.747  0.0073  0.0507  0.0750
 7250SOL    HW133386   2.311   3.858   5.682 -1.0435  1.6778  2.0668
 7250SOL    HW233387   2.366   3.875   5.823  1.7836  0.4272 -0.1461
 7251SOL     OW33388   3.276   0.499  13.809  0.5861  0.0449 -0.4894
 7251SOL    HW133389   3.226   0.440  13.754  1.6559  0.5410 -2.0092
 7251SOL    HW233390   3.251   0.586  13.777  1.3989  0.6369  0.4906
 7252SOL     OW33391   0.781   3.832  12.196 -0.2224  0.1644  0.3409
 7252SOL    HW133392   0.813   3.894  12.262  2.0615  1.9024 -2.3788
 7252SOL    HW233393   0.705   3.882  12.166 -0.0970 -1.0540 -1.9704
 7253SOL     OW33394   1.281   2.926   7.484  0.0495  0.0735 -0.1272
 7253SOL    HW133395   1.186   2.939   7.482  0.1881  1.1658  0.5233
 7253SOL    HW233396   1.300   2.939   7.391 -1.0420  1.9348 -0.0856
 7254SOL     OW33397   0.643   4.209   1.179  0.0452 -0.0871 -0.5571
 7254SOL    HW133398   0.611   4.164   1.258 -1.5317  0.1923 -1.0331
 7254SOL    HW233399   0.618   4.297   1.206 -1.5409 -1.2356  1.7542
 7255SOL     OW33400   0.619   3.870   6.181 -0.0055 -0.3350 -0.3015
 7255SOL    HW133401   0.709   3.885   6.156  1.4483 -0.5994  4.6667
 7255SOL    HW233402   0.601   3.957   6.219 -0.8797 -0.8906  0.5600
 7256SOL     OW33403   4.005   1.150   6.852 -0.5620 -0.1922  0.0199
 7256SOL    HW133404   3.946   1.137   6.927 -1.4220  0.3110 -0.5689
 7256SOL    HW233405   4.082   1.182   6.900 -0.3792  0.4879 -0.7360
 7257SOL     OW33406   0.287   0.125   6.633 -0.0655 -0.1854  0.1283
 7257SOL    HW133407   0.222   0.065   6.671 -0.8986 -1.7213 -3.6833
 7257SOL    HW233408   0.267   0.204   6.684 -1.3812  0.4727 -1.4070
 7258SOL     OW33409   3.763   2.713   3.890  0.8028 -0.4885 -0.0590
 7258SOL    HW133410   3.699   2.737   3.957 -0.5069 -2.0390 -0.7604
 7258SOL    HW233411   3.845   2.729   3.937  1.0330 -0.1811 -0.5700
 7259SOL     OW33412   0.055   1.159   5.738  0.1105 -0.5888 -0.3947
 7259SOL    HW133413   0.012   1.159   5.653  0.3888  3.0771 -0.5569
 7259SOL    HW233414   0.126   1.099   5.717 -0.4600 -0.8053 -1.7339
 7260SOL     OW33415   3.204   2.859   7.106 -1.0095  0.0502 -0.2042
 7260SOL    HW133416   3.295   2.881   7.128 -2.2005  2.5602  2.1431
 7260SOL    HW233417   3.217   2.766   7.088  1.4813  0.5515 -0.9572
 7261SOL     OW33418   0.302   1.538   6.303 -0.3256 -0.0325 -0.0226
 7261SOL    HW133419   0.325   1.483   6.228  0.3683  0.5943 -0.2650
 7261SOL    HW233420   0.281   1.618   6.255 -1.5106  0.3356  1.0936
 7262SOL     OW33421   0.452   1.725   5.549 -0.0354  0.1060  0.7729
 7262SOL    HW133422   0.434   1.633   5.533 -2.9179  1.4002 -3.3583
 7262SOL    HW233423   0.384   1.751   5.612 -0.7326 -1.5254  0.6778
 7263SOL     OW33424   3.947   1.202   5.209 -0.1111  0.0014  0.2295
 7263SOL    HW133425   4.029   1.173   5.168  0.6355  0.3548  1.4524
 7263SOL    HW233426   3.954   1.156   5.293 -1.2902  1.5832  1.1972
 7264SOL     OW33427   2.859   1.316   0.873 -0.2332 -0.2654  0.2626
 7264SOL    HW133428   2.922   1.356   0.932 -3.3067  2.6193  1.5507
 7264SOL    HW233429   2.785   1.278   0.919 -0.0116 -2.7511 -1.4377
 7265SOL     OW33430   3.843   2.117   6.327 -0.2010  0.0209  0.3758
 7265SOL    HW133431   3.911   2.161   6.378 -0.3528 -0.6867  1.2037
 7265SOL    HW233432   3.847   2.169   6.247 -0.1687 -0.6254 -0.0486
 7266SOL     OW33433   1.690   0.456   8.670  0.6427 -0.2717 -0.5455
 7266SOL    HW133434   1.671   0.366   8.697 -0.1144  0.5814  1.7579
 7266SOL    HW233435   1.651   0.455   8.582 -2.3579 -0.0624  0.7843
 7267SOL     OW33436   3.858   2.741   6.712 -0.3111  0.2664  0.0281
 7267SOL    HW133437   3.839   2.647   6.705 -2.3982  0.5585  1.6136
 7267SOL    HW233438   3.767   2.759   6.687 -0.6109 -0.9213  0.2197
 7268SOL     OW33439   1.827   2.800   8.933 -0.0820  0.2106  0.1338
 7268SOL    HW133440   1.836   2.886   8.892  1.5996  0.2735  0.6602
 7268SOL    HW233441   1.758   2.764   8.877 -2.1125  1.7631  1.6124
 7269SOL     OW33442   0.807   0.384   3.447  0.2515  0.3165  0.5725
 7269SOL    HW133443   0.865   0.452   3.482  2.3713 -2.0567  1.6024
 7269SOL    HW233444   0.800   0.331   3.526 -1.1529 -0.3164  0.0203
 7270SOL     OW33445   1.828   0.574   2.388  0.3317 -0.2707 -0.0818
 7270SOL    HW133446   1.820   0.663   2.423 -0.2405 -0.3734  0.0534
 7270SOL    HW233447   1.748   0.542   2.430  1.2593 -1.2004  0.9860
 7271SOL     OW33448   4.420   0.138   1.302 -0.2927  0.4616  0.0513
 7271SOL    HW133449   4.343   0.137   1.359  0.0073 -0.0723  0.4457
 7271SOL    HW233450   4.453   0.228   1.308 -1.0713  0.6230  1.6682
 7272SOL     OW33451   3.862   4.570   7.261  0.5928 -0.4075  0.7968
 7272SOL    HW133452   3.858   4.519   7.341  2.6254  0.0429  1.2084
 7272SOL    HW233453   3.900   4.507   7.200 -2.4048 -0.1170 -1.3498
 7273SOL     OW33454   0.513   1.361   5.391 -0.6596 -0.2605 -0.0983
 7273SOL    HW133455   0.451   1.415   5.440  0.6140 -1.1462  2.4953
 7273SOL    HW233456   0.461   1.282   5.399  1.1203 -1.4357 -0.1790
 7274SOL     OW33457   1.868   4.581   4.290 -0.2643  0.2894  0.6428
 7274SOL    HW133458   1.918   4.543   4.362  0.4377 -0.3105 -0.1593
 7274SOL    HW233459   1.831   4.503   4.249 -0.7693  0.6449  0.4193
 7275SOL     OW33460   3.203   0.581  14.764 -0.1677  0.3814  0.3125
 7275SOL    HW133461   3.137   0.541  14.819 -2.0738 -0.2633 -2.4627
 7275SOL    HW233462   3.148   0.641  14.713 -0.7690 -0.6655 -0.2623
 7276SOL     OW33463   0.986   4.405  12.569 -0.0297 -0.2705 -0.2300
 7276SOL    HW133464   1.054   4.415  12.504  0.4967 -3.8955 -0.2110
 7276SOL    HW233465   0.933   4.482  12.550  1.4746  0.5363 -1.1425
 7277SOL     OW33466   0.790   0.203   3.730  0.0921  0.0766  0.6548
 7277SOL    HW133467   0.740   0.182   3.809 -2.9498 -0.4461 -1.4240
 7277SOL    HW233468   0.726   0.167   3.669  1.4099  0.1477 -0.7565
 7278SOL     OW33469   2.425   0.366   7.415 -0.0971  0.0970 -0.0852
 7278SOL    HW133470   2.380   0.442   7.378  0.3476  0.4394  0.0718
 7278SOL    HW233471   2.441   0.313   7.338  0.0858  0.3130 -0.1946
 7279SOL     OW33472   4.116   2.162   5.560 -0.2471 -0.4057 -0.1742
 7279SOL    HW133473   4.095   2.196   5.473  0.5199  0.2778 -0.0884
 7279SOL    HW233474   4.076   2.075   5.553  1.3828 -1.2576  0.9429
 7280SOL     OW33475   2.799   2.027   7.882  0.1027 -0.5021  0.5338
 7280SOL    HW133476   2.890   1.996   7.881 -0.0309 -0.9144  1.2047
 7280SOL    HW233477   2.753   1.944   7.896  1.1160 -0.7969  2.1146
 7281SOL     OW33478   1.451   4.565   4.690 -0.3946  0.0464  0.7343
 7281SOL    HW133479   1.413   4.638   4.640  0.3612 -0.2043 -0.2029
 7281SOL    HW233480   1.493   4.516   4.619 -2.2806 -0.3416 -0.1390
 7282SOL     OW33481   4.325   4.327   3.115 -0.4275 -0.4191 -0.0401
 7282SOL    HW133482   4.388   4.280   3.061  0.6304  1.1088 -0.1353
 7282SOL    HW233483   4.254   4.342   3.054 -0.4868 -0.6091 -0.0179
 7283SOL     OW33484   1.067   0.856  17.019  0.6291  0.1009 -0.4267
 7283SOL    HW133485   1.032   0.835  16.932  1.2078  0.0202 -0.6369
 7283SOL    HW233486   1.093   0.769  17.050  0.0501 -0.2205 -0.8301
 7284SOL     OW33487   3.320   4.416   3.409 -0.4624  0.0776 -0.6360
 7284SOL    HW133488   3.291   4.441   3.497  1.8448 -0.7560  0.3559
 7284SOL    HW233489   3.375   4.345   3.443 -0.7352  0.6846  1.0742
 7285SOL     OW33490   1.226   0.172   8.449 -0.2866 -0.2596  0.4596
 7285SOL    HW133491   1.233   0.206   8.538  1.4255 -1.6790  0.8510
 7285SOL    HW233492   1.156   0.107   8.445  1.8194 -2.5083  0.1627
 7286SOL     OW33493   2.788   0.132   1.808 -0.7949 -0.1105 -0.2640
 7286SOL    HW133494   2.775   0.037   1.805 -2.8616  0.1991 -0.6312
 7286SOL    HW233495   2.708   0.149   1.857 -0.7500  0.4443 -0.3808
 7287SOL     OW33496   3.764   3.097  15.480 -0.0646 -0.2569 -0.1448
 7287SOL    HW133497   3.804   3.072  15.563  2.1573 -3.1754 -2.0980
 7287SOL    HW233498   3.789   3.189  15.480  0.5653 -0.4314  0.4274
 7288SOL     OW33499   2.063   2.498   9.480  0.1069  0.2640 -0.4064
 7288SOL    HW133500   2.000   2.517   9.550 -0.4435  1.7272 -1.3061
 7288SOL    HW233501   2.041   2.415   9.439  0.5267 -0.0580  0.0117
 7289SOL     OW33502   2.945   1.252   5.608 -0.1318  0.4508 -0.3718
 7289SOL    HW133503   2.938   1.346   5.595 -0.0825  0.3873 -0.8342
 7289SOL    HW233504   2.933   1.220   5.519  0.7271  2.6418 -1.2724
 7290SOL     OW33505   3.864   2.849   2.951 -0.2396  0.7176  0.1811
 7290SOL    HW133506   3.917   2.896   2.887 -0.3896  1.4059  0.5570
 7290SOL    HW233507   3.782   2.899   2.951 -0.0537  1.0377  0.9100
 7291SOL     OW33508   3.565   1.242   3.682  0.0312  0.3159  0.2328
 7291SOL    HW133509   3.540   1.245   3.775 -2.9704  1.0504 -0.6012
 7291SOL    HW233510   3.487   1.278   3.640 -0.5019  0.5294  1.3939
 7292SOL     OW33511   2.316   2.421   3.009  0.0422  0.2190 -0.3503
 7292SOL    HW133512   2.229   2.455   3.033  0.5377  0.6128  0.9095
 7292SOL    HW233513   2.362   2.501   2.983 -1.7218  0.6323 -2.1594
 7293SOL     OW33514   1.885   0.863   7.513 -0.7496 -0.2640 -0.1859
 7293SOL    HW133515   1.865   0.770   7.527 -1.4931 -0.1288 -0.3614
 7293SOL    HW233516   1.953   0.859   7.445 -0.5990 -1.2275  0.0155
 7294SOL     OW33517   0.021   2.720   1.002 -0.6341  0.2052  0.1516
 7294SOL    HW133518   0.107   2.728   0.962  0.4150  2.4967  2.8582
 7294SOL    HW233519   4.723   2.809   1.000 -0.2089  0.3432 -1.1754
 7295SOL     OW33520   2.600   0.164   6.246  0.3146 -0.4996 -0.1032
 7295SOL    HW133521   2.565   0.225   6.310 -0.2129  0.1138 -0.9705
 7295SOL    HW233522   2.544   0.193   6.174  0.8800 -0.7028 -0.6368
 7296SOL     OW33523   0.278   1.546  10.091 -0.4220  0.7997 -0.2342
 7296SOL    HW133524   0.304   1.630  10.127  2.1580 -0.8104  1.6204
 7296SOL    HW233525   0.185   1.547  10.067 -0.6733 -2.4994  0.5362
 7297SOL     OW33526   0.741   0.412  17.315 -0.1032  0.0782 -0.1288
 7297SOL    HW133527   0.784   0.497  17.303  2.1528 -1.1585 -0.6401
 7297SOL    HW233528   0.784   0.368  17.242 -1.6063 -2.0869  0.2935
 7298SOL     OW33529   3.120   4.533   9.299 -0.4402  0.2276  0.1844
 7298SOL    HW133530   3.048   4.590   9.271 -0.1796  0.2729 -0.3774
 7298SOL    HW233531   3.164   4.498   9.222 -2.1129 -2.4946  0.4418
 7299SOL     OW33532   4.589   1.033   4.238 -0.3062  0.1116  0.0177
 7299SOL    HW133533   4.600   1.018   4.144  2.3569 -0.1917  0.3615
 7299SOL    HW233534   4.624   0.953   4.279 -1.0654  0.5134  1.4433
 7300SOL     OW33535   2.885   3.288   3.307  0.3799  0.0639  0.0564
 7300SOL    HW133536   2.808   3.344   3.301 -0.1710 -0.6565  0.3758
 7300SOL    HW233537   2.898   3.294   3.402  0.3590  3.0156 -0.1258
 7301SOL     OW33538   4.330   1.894   8.777  0.6025  0.0330  0.3680
 7301SOL    HW133539   4.337   1.988   8.792 -0.5877  0.1278  0.3522
 7301SOL    HW233540   4.410   1.878   8.728  0.9074  0.0534  0.8561
 7302SOL     OW33541   0.943   1.522   4.274 -0.4362  0.8121 -0.0054
 7302SOL    HW133542   0.905   1.447   4.321  0.6715  0.4883  0.3753
 7302SOL    HW233543   0.932   1.502   4.181 -2.3987 -0.0417  0.4082
 7303SOL     OW33544   2.317   1.348  12.422  0.0883  0.0972 -0.1979
 7303SOL    HW133545   2.392   1.400  12.450 -0.2101  0.8576 -0.7988
 7303SOL    HW233546   2.355   1.260  12.422  2.2691  1.0493  0.8014
 7304SOL     OW33547   3.919   2.588   8.145  0.2545 -0.2454 -0.0673
 7304SOL    HW133548   4.011   2.565   8.130  0.5559 -2.1472  4.6136
 7304SOL    HW233549   3.869   2.508   8.128  0.1320  0.1792 -1.6657
 7305SOL     OW33550   0.831   0.351   9.228 -0.4669 -0.3467 -0.3143
 7305SOL    HW133551   0.806   0.401   9.151 -0.7461  0.6150  0.3886
 7305SOL    HW233552   0.827   0.263   9.193  0.3415 -0.2989 -0.5262
 7306SOL     OW33553   1.512   4.655  16.411 -0.0478 -0.4796 -0.1616
 7306SOL    HW133554   1.434   4.644  16.355 -0.5622 -1.8160  0.8016
 7306SOL    HW233555   1.468   4.642  16.495  0.0720 -1.5615 -0.2577
 7307SOL     OW33556   0.412   2.155   2.905 -0.1514 -0.1982  0.1795
 7307SOL    HW133557   0.471   2.170   2.831 -1.0992  1.6916 -0.1978
 7307SOL    HW233558   0.408   2.241   2.948 -0.5472 -0.6709  1.0918
 7308SOL     OW33559   2.077   4.340   2.133  0.5331  0.0358 -0.1616
 7308SOL    HW133560   2.110   4.256   2.166 -2.5425 -0.4275  1.6669
 7308SOL    HW233561   1.991   4.316   2.099  1.0263 -0.4818 -1.0475
 7309SOL     OW33562   0.872   1.620  14.797  0.2677  0.1126 -0.0049
 7309SOL    HW133563   0.799   1.648  14.853 -0.5716 -1.5382 -0.2726
 7309SOL    HW233564   0.866   1.526  14.816  1.8408  0.5042  2.4014
 7310SOL     OW33565   0.537   0.717   6.870 -0.4275 -0.9503 -0.2981
 7310SOL    HW133566   0.556   0.769   6.791  1.9834 -0.7524  0.4207
 7310SOL    HW233567   0.460   0.767   6.898 -0.5379 -1.7309  0.7858
 7311SOL     OW33568   2.056   0.277   2.629  0.1601 -0.1827  0.0878
 7311SOL    HW133569   2.116   0.351   2.621 -1.6053  1.4410  1.8891
 7311SOL    HW233570   2.082   0.243   2.543 -0.2045  0.7421 -0.3845
 7312SOL     OW33571   4.523   2.012   6.803  0.3096 -0.2676 -0.0475
 7312SOL    HW133572   4.487   1.923   6.811 -3.3406  1.2309  0.3581
 7312SOL    HW233573   4.548   2.005   6.711 -0.9553  1.5333 -0.5341
 7313SOL     OW33574   1.099   0.692   8.782  0.1881 -0.0457  0.0247
 7313SOL    HW133575   1.161   0.652   8.720 -0.0665  0.2069 -0.3972
 7313SOL    HW233576   1.160   0.763   8.801  0.4173  0.1157 -1.2898
 7314SOL     OW33577   4.662   1.192  17.692  0.3374 -0.2542  0.1038
 7314SOL    HW133578   4.631   1.222  17.606 -2.6511 -2.3722  0.4334
 7314SOL    HW233579   4.579   1.193  17.740 -0.5621 -1.3431 -1.3846
 7315SOL     OW33580   4.686   4.642  13.165 -0.1195  0.0274 -0.1223
 7315SOL    HW133581   4.721   4.606  13.083 -1.3161 -0.7019 -0.3119
 7315SOL    HW233582   4.676   4.735  13.144 -1.2374 -0.3922 -1.3875
 7316SOL     OW33583   2.322   1.883  14.420  0.4482  0.0374 -0.1512
 7316SOL    HW133584   2.397   1.939  14.441  1.0825 -0.7121 -0.3872
 7316SOL    HW233585   2.362   1.797  14.432 -1.3686 -0.8490 -0.4489
 7317SOL     OW33586   3.947   1.737  17.093  0.1053 -0.1582 -0.0874
 7317SOL    HW133587   3.878   1.734  17.026  0.4741 -2.3321 -0.3599
 7317SOL    HW233588   4.005   1.790  17.039 -0.0093  1.5869  1.4755
 7318SOL     OW33589   4.044   0.085   9.124  0.3750  0.3079 -0.5410
 7318SOL    HW133590   4.009   0.088   9.034  0.6168 -2.5539 -0.7076
 7318SOL    HW233591   3.965   0.067   9.174  0.3755 -1.0617 -1.0461
 7319SOL     OW33592   3.405   3.253   4.664  0.1371 -0.5862  0.2984
 7319SOL    HW133593   3.370   3.242   4.576  1.7377 -0.9713 -0.2955
 7319SOL    HW233594   3.353   3.183   4.702 -0.6903  0.3019  0.8039
 7320SOL     OW33595   0.673   2.485   3.278  0.4017  0.5300 -0.3647
 7320SOL    HW133596   0.736   2.547   3.315 -1.0024 -0.5556  3.8053
 7320SOL    HW233597   0.711   2.400   3.298 -3.2925 -1.0232  0.0673
 7321SOL     OW33598   0.874   2.623   7.344  0.3672 -0.1130 -0.2663
 7321SOL    HW133599   0.835   2.707   7.323 -1.2083 -1.1184 -1.3473
 7321SOL    HW233600   0.835   2.574   7.272  1.8442  0.0276 -1.1638
 7322SOL     OW33601   1.157   4.328   0.035 -0.4306 -0.2342 -0.4429
 7322SOL    HW133602   1.211   4.259   0.072  1.2269  0.8478 -0.8485
 7322SOL    HW233603   1.103   4.274  17.728 -0.5522 -0.6769  0.0946
 7323SOL     OW33604   2.312   3.391   7.190 -0.0528 -0.0589 -0.2805
 7323SOL    HW133605   2.243   3.411   7.127  0.4446 -0.1435 -0.8508
 7323SOL    HW233606   2.387   3.406   7.133 -0.7768  0.6369 -1.0424
 7324SOL     OW33607   0.044   0.501   0.347  0.2188 -0.2856  0.2683
 7324SOL    HW133608   0.094   0.450   0.411  2.1658 -0.3341 -1.3028
 7324SOL    HW233609   0.117   0.552   0.312  0.1731 -0.4438 -0.0521
 7325SOL     OW33610   3.171   2.719   9.044  0.5709 -0.8674  0.2410
 7325SOL    HW133611   3.080   2.747   9.030  1.2334  0.7530 -0.8013
 7325SOL    HW233612   3.212   2.803   9.026  0.6340 -0.7352  0.9923
 7326SOL     OW33613   1.189   1.820   0.665 -0.2003  0.4641 -0.0082
 7326SOL    HW133614   1.247   1.892   0.692  0.9136 -0.9220  1.2790
 7326SOL    HW233615   1.120   1.808   0.729 -0.7662 -3.1205 -1.3325
 7327SOL     OW33616   0.346   3.978   2.009 -0.3792  0.0913 -0.2268
 7327SOL    HW133617   0.406   4.041   2.051  1.0713 -0.7374 -1.0362
 7327SOL    HW233618   0.378   3.891   2.034  0.4297  0.1431 -1.0504
 7328SOL     OW33619   1.942   4.659  13.849 -0.2720 -0.4079 -0.7427
 7328SOL    HW133620   1.954   4.576  13.894 -2.2581  0.1811  0.8712
 7328SOL    HW233621   2.017   4.711  13.879  0.0437 -1.5083  0.3411
 7329SOL     OW33622   0.514   0.105   4.143 -0.3335 -0.6087  0.0123
 7329SOL    HW133623   0.469   0.067   4.068 -1.6865 -1.1045  1.0875
 7329SOL    HW233624   0.441   0.100   4.204  0.5164 -1.1651  0.9824
 7330SOL     OW33625   1.248   2.488  16.334 -0.4525  0.3908  0.0851
 7330SOL    HW133626   1.226   2.463  16.423 -1.5609 -1.3902 -0.6928
 7330SOL    HW233627   1.161   2.494  16.295 -0.5403 -0.9719  0.0937
 7331SOL     OW33628   3.891   1.749   8.697 -0.1563  0.3095  0.2227
 7331SOL    HW133629   3.805   1.719   8.727  0.4329 -2.3636 -0.7081
 7331SOL    HW233630   3.942   1.670   8.714  0.2625 -0.4711 -4.5736
 7332SOL     OW33631   0.147   4.499   3.301 -0.0020  0.6225 -0.0132
 7332SOL    HW133632   0.074   4.459   3.255  0.1409 -1.0327  1.2200
 7332SOL    HW233633   0.117   4.491   3.392  1.0130 -1.2368  0.1509
 7333SOL     OW33634   3.221   1.473   4.883  0.7347 -0.0001 -0.7721
 7333SOL    HW133635   3.268   1.449   4.963 -1.0479 -2.5536 -0.4762
 7333SOL    HW233636   3.214   1.568   4.895 -0.1024 -0.0822 -0.5854
 7334SOL     OW33637   2.376   4.371   3.752  0.0877  0.1373  0.3222
 7334SOL    HW133638   2.471   4.379   3.759  0.3542 -0.3978 -2.7199
 7334SOL    HW233639   2.370   4.326   3.668 -0.9297 -1.4827  1.2627
 7335SOL     OW33640   2.944   1.512   3.549 -0.3120 -0.1218 -0.2690
 7335SOL    HW133641   2.942   1.417   3.534 -0.6211  0.1818 -2.1585
 7335SOL    HW233642   2.850   1.524   3.563 -0.0102 -0.1220  1.7973
 7336SOL     OW33643   2.161   1.654   4.542  0.3865 -0.0950  0.1243
 7336SOL    HW133644   2.085   1.670   4.486  0.5860  3.1444  0.7622
 7336SOL    HW233645   2.127   1.698   4.620 -0.4681  1.0874 -0.9166
 7337SOL     OW33646   3.578   3.533   7.331  0.6203 -0.0744  0.1888
 7337SOL    HW133647   3.498   3.551   7.380 -0.4232 -1.8045 -0.8963
 7337SOL    HW233648   3.604   3.620   7.299  1.7840 -0.0365  1.2437
 7338SOL     OW33649   0.683   3.858  14.522 -0.2710  0.0371 -0.4123
 7338SOL    HW133650   0.750   3.890  14.461 -0.0178 -0.8287 -0.5886
 7338SOL    HW233651   0.612   3.917  14.497  0.9795  1.6574 -0.1679
 7339SOL     OW33652   2.197   0.289   9.225 -0.1997  0.1730  0.3097
 7339SOL    HW133653   2.185   0.383   9.212  0.5700  0.0286 -1.3681
 7339SOL    HW233654   2.107   0.256   9.225  0.4141 -1.5270 -0.9499
 7340SOL     OW33655   0.507   1.278   0.489 -0.5579 -0.7982 -0.1858
 7340SOL    HW133656   0.512   1.263   0.584 -1.2319  1.5501  0.2355
 7340SOL    HW233657   0.424   1.325   0.477  0.3650  0.7347 -0.6388
 7341SOL     OW33658   4.733   3.005   3.200  0.1777 -0.1828 -0.0040
 7341SOL    HW133659   0.037   3.086   3.173  2.8635 -1.3662  0.6244
 7341SOL    HW233660   4.726   3.017   3.294  0.9432 -1.6497  0.2514
 7342SOL     OW33661   0.749   1.413   3.780 -0.1194 -0.2319  0.3014
 7342SOL    HW133662   0.699   1.332   3.790  0.0100 -0.2856  0.5069
 7342SOL    HW233663   0.730   1.456   3.863 -0.8613  0.7493 -0.3862
 7343SOL     OW33664   2.793   4.037  14.052  0.2874  0.5645  0.0634
 7343SOL    HW133665   2.713   4.080  14.080 -0.8183 -0.1637 -2.0084
 7343SOL    HW233666   2.840   4.056  14.133 -0.5363 -2.1054  1.1644
 7344SOL     OW33667   3.898   2.714   8.394 -0.2846 -0.1872  0.2852
 7344SOL    HW133668   3.875   2.650   8.327  0.2733  0.0589 -0.1368
 7344SOL    HW233669   3.938   2.782   8.341  0.1634  1.1672  2.3430
 7345SOL     OW33670   2.454   1.459   9.062 -0.2373 -0.2975 -0.2150
 7345SOL    HW133671   2.359   1.457   9.067 -0.1298 -0.5370  1.8094
 7345SOL    HW233672   2.467   1.399   8.989  1.8881 -0.9555  0.6906
 7346SOL     OW33673   3.198   2.755   0.725  0.2273  0.0139  0.6564
 7346SOL    HW133674   3.259   2.785   0.792  0.2363  1.2991  0.0846
 7346SOL    HW233675   3.118   2.803   0.747  0.5252  0.0145  1.6958
 7347SOL     OW33676   3.572   0.199   9.725 -0.1553  0.0918  0.3314
 7347SOL    HW133677   3.648   0.247   9.693 -0.5670  0.1523 -0.5407
 7347SOL    HW233678   3.618   0.131   9.775  0.6396  0.4393  0.0820
 7348SOL     OW33679   4.455   0.016  17.172  0.2851 -0.2067  0.8528
 7348SOL    HW133680   4.388   0.081  17.195 -0.8702 -0.0807 -2.8742
 7348SOL    HW233681   4.524   0.031  17.237  0.8665  0.2475  0.1235
 7349SOL     OW33682   1.893   4.360   9.284  0.3591 -0.6694 -0.2826
 7349SOL    HW133683   1.841   4.440   9.293  2.1998  0.4894  0.0260
 7349SOL    HW233684   1.879   4.309   9.364 -0.3763  1.7197  1.1265
 7350SOL     OW33685   0.719   2.729   5.121 -0.0139 -0.5911  0.4752
 7350SOL    HW133686   0.780   2.753   5.052 -0.1176  1.7623  1.1874
 7350SOL    HW233687   0.734   2.804   5.178 -0.3118 -1.5241  1.7767
 7351SOL     OW33688   3.190   2.039  12.593  0.5273 -0.3933 -0.5096
 7351SOL    HW133689   3.178   2.100  12.665 -1.2177 -1.7166  0.3146
 7351SOL    HW233690   3.208   2.098  12.520  1.4225 -0.3110 -0.2228
 7352SOL     OW33691   2.489   1.305  15.761  0.6516 -0.0916  0.2861
 7352SOL    HW133692   2.578   1.334  15.742  0.0965  1.5980  0.2692
 7352SOL    HW233693   2.468   1.369  15.829  1.2322 -0.0092  0.3814
 7353SOL     OW33694   3.324   4.276   6.037 -0.0020  0.5261 -0.1840
 7353SOL    HW133695   3.351   4.274   6.128  0.8349 -1.7246 -0.4910
 7353SOL    HW233696   3.274   4.358   6.043 -1.0471 -0.2715  1.9997
 7354SOL     OW33697   3.141   4.282   5.480  0.3028  0.1340  0.0104
 7354SOL    HW133698   3.060   4.243   5.511  1.4654 -1.0276  1.5942
 7354SOL    HW233699   3.184   4.204   5.446  0.0792 -1.5497  3.6239
 7355SOL     OW33700   0.811   3.665  17.113 -0.1814  0.0970 -0.0889
 7355SOL    HW133701   0.804   3.750  17.068  1.7572  0.4774  0.3326
 7355SOL    HW233702   0.724   3.639  17.141 -0.6653  1.4053 -0.3624
 7356SOL     OW33703   2.057   2.011  14.430  0.1475 -0.2529  0.5259
 7356SOL    HW133704   2.134   1.955  14.434  0.3147  0.1122  2.6672
 7356SOL    HW233705   2.020   1.992  14.517 -1.1442 -1.2502 -0.2436
 7357SOL     OW33706   2.480   2.736   5.750 -0.1412  0.3782 -0.4106
 7357SOL    HW133707   2.424   2.672   5.794  1.6390  0.0717  1.3985
 7357SOL    HW233708   2.423   2.779   5.686  0.2446  0.1119 -0.9339
 7358SOL     OW33709   1.826   3.592   9.498  0.1711  0.0442 -0.5004
 7358SOL    HW133710   1.904   3.579   9.444 -0.2150  1.8856 -1.4982
 7358SOL    HW233711   1.802   3.501   9.514  1.0356 -0.5153 -2.3891
 7359SOL     OW33712   2.047   2.447  12.551  0.1818  0.0486 -0.3765
 7359SOL    HW133713   2.120   2.466  12.610 -0.6020 -0.0203  0.6069
 7359SOL    HW233714   2.029   2.355  12.566 -0.5698  0.2852  0.1467
 7360SOL     OW33715   4.399   1.927   3.600 -0.0110  0.0376 -0.0098
 7360SOL    HW133716   4.432   2.008   3.639 -2.3970  1.7748 -1.6158
 7360SOL    HW233717   4.437   1.858   3.654  1.0741  2.8750  2.8430
 7361SOL     OW33718   1.825   2.339  12.026 -0.1259 -0.1483  0.3269
 7361SOL    HW133719   1.782   2.342  11.940  2.8832 -0.9790 -1.2027
 7361SOL    HW233720   1.749   2.328  12.083  0.5799 -0.4848  1.1798
 7362SOL     OW33721   0.567   3.084   9.599  0.0804 -0.1359  0.5068
 7362SOL    HW133722   0.495   3.088   9.536 -0.2679  0.2462  0.9332
 7362SOL    HW233723   0.549   3.162   9.652 -0.2244  0.5146 -0.5422
 7363SOL     OW33724   2.896   2.178   7.178  0.0099 -0.4408  0.3607
 7363SOL    HW133725   2.856   2.215   7.257  0.3511 -1.7286  1.1430
 7363SOL    HW233726   2.937   2.098   7.209  1.5472  0.2707  0.1632
 7364SOL     OW33727   3.705   2.271   5.776  0.4355 -0.3110 -0.2475
 7364SOL    HW133728   3.626   2.249   5.727 -1.6790  0.7652  2.7151
 7364SOL    HW233729   3.722   2.187   5.818  1.4550 -0.2221 -0.4908
 7365SOL     OW33730   0.508   4.217  14.701 -0.3621  0.0256  0.2201
 7365SOL    HW133731   0.558   4.135  14.703  1.7869  1.2754 -1.8740
 7365SOL    HW233732   0.421   4.190  14.730 -0.8259  0.6758 -0.5858
 7366SOL     OW33733   3.261   1.513   7.820 -0.0193  0.0466  0.1508
 7366SOL    HW133734   3.276   1.419   7.823  0.3726  0.0654 -1.2986
 7366SOL    HW233735   3.190   1.521   7.883 -0.6554 -0.6396 -0.4994
 7367SOL     OW33736   1.558   3.450   2.169  0.2557  0.1023  0.5299
 7367SOL    HW133737   1.639   3.497   2.148 -0.9634  1.6820 -0.5892
 7367SOL    HW233738   1.491   3.501   2.124 -1.3109 -1.0282  1.5710
 7368SOL     OW33739   1.861   3.611   4.942 -0.3271 -0.3748  0.4069
 7368SOL    HW133740   1.876   3.706   4.945  1.0427 -0.6040  0.6636
 7368SOL    HW233741   1.827   3.615   4.853 -0.6460 -3.2998  0.3955
 7369SOL     OW33742   3.876   3.299   8.733  0.5295 -0.0951  0.3417
 7369SOL    HW133743   3.782   3.286   8.715  0.2403  1.7946  0.5310
 7369SOL    HW233744   3.861   3.363   8.802  2.4093  2.7636 -1.9283
 7370SOL     OW33745   3.803   3.795   4.333  0.2327  0.1706 -0.1110
 7370SOL    HW133746   3.840   3.876   4.298  1.1741  0.2448  1.0752
 7370SOL    HW233747   3.802   3.814   4.427 -0.8017  2.8309 -0.6357
 7371SOL     OW33748   2.842   2.454   5.776 -0.3381 -0.4239 -0.1482
 7371SOL    HW133749   2.865   2.546   5.764  1.7345 -1.1075 -1.4724
 7371SOL    HW233750   2.895   2.426   5.850  1.1828 -0.9176 -1.4259
 7372SOL     OW33751   1.049   4.316   9.397  0.0719  0.9785  0.1367
 7372SOL    HW133752   1.048   4.282   9.486  2.8161  0.3263 -0.0616
 7372SOL    HW233753   1.024   4.408   9.406 -1.6907  0.3337  1.9157
 7373SOL     OW33754   2.341   0.158  10.409  0.0238  0.5285  0.2770
 7373SOL    HW133755   2.353   0.204  10.492 -0.6499  0.2721  0.5160
 7373SOL    HW233756   2.289   0.220  10.358  0.6774  0.3537 -0.5980
 7374SOL     OW33757   4.309   4.528   1.457 -0.1287 -0.6561  0.0134
 7374SOL    HW133758   4.348   4.499   1.374  1.2677  1.5040 -0.0630
 7374SOL    HW233759   4.373   4.505   1.524  0.3230 -0.7108 -0.4341
 7375SOL     OW33760   4.473   4.546   3.649  0.5664  0.1271 -0.2509
 7375SOL    HW133761   4.425   4.625   3.673  0.3453 -0.3335  0.8059
 7375SOL    HW233762   4.404   4.490   3.614  1.8843 -0.2918 -2.2112
 7376SOL     OW33763   2.273   0.364   1.958 -0.1828  0.4894  0.8050
 7376SOL    HW133764   2.262   0.323   2.044  0.9857 -0.9326  0.2800
 7376SOL    HW233765   2.249   0.454   1.976 -0.1631  0.5568  0.4815
 7377SOL     OW33766   1.253   3.094  11.685 -0.1656  0.4702  0.7840
 7377SOL    HW133767   1.323   3.086  11.620 -0.7978  1.1623  0.0065
 7377SOL    HW233768   1.298   3.065  11.764 -0.2062  0.2305  0.7184
 7378SOL     OW33769   0.315   2.140  16.190  0.1673  0.4315  0.2833
 7378SOL    HW133770   0.405   2.112  16.178 -0.6757 -2.1184 -0.0448
 7378SOL    HW233771   0.286   2.118  16.102  4.0438  0.1132 -0.8959
 7379SOL     OW33772   3.156   0.293  17.064 -0.0214 -0.5401  0.5100
 7379SOL    HW133773   3.236   0.345  17.052 -0.5981  0.1216 -0.4722
 7379SOL    HW233774   3.201   0.209  17.070  0.5568 -0.2608  0.1379
 7380SOL     OW33775   3.578   2.401   8.354 -0.3976 -0.3382  0.2324
 7380SOL    HW133776   3.598   2.494   8.353  1.1205 -0.6511  0.2403
 7380SOL    HW233777   3.517   2.398   8.427 -0.8425  1.1888 -0.0828
 7381SOL     OW33778   2.396   3.630  17.274 -0.3096  0.3009 -0.6881
 7381SOL    HW133779   2.450   3.657  17.199  2.1386  2.0216  1.6742
 7381SOL    HW233780   2.349   3.713  17.286 -3.2073 -1.6756  1.2879
 7382SOL     OW33781   0.608   4.185   2.236  0.4846  0.5770 -0.3333
 7382SOL    HW133782   0.545   4.189   2.308 -0.7657  0.7979 -1.4337
 7382SOL    HW233783   0.548   4.196   2.162 -0.1876  0.2364  0.1622
 7383SOL     OW33784   2.934   3.048   7.195 -0.1505 -0.2642  0.5184
 7383SOL    HW133785   2.928   3.081   7.284  1.1457  1.9503 -0.2114
 7383SOL    HW233786   3.028   3.064   7.184 -0.2704  0.7157  0.9749
 7384SOL     OW33787   2.383   3.965   4.406  0.2453 -0.2092 -0.2582
 7384SOL    HW133788   2.389   4.029   4.335 -1.4605 -0.6765 -0.8260
 7384SOL    HW233789   2.403   3.886   4.356  1.5375  0.9834 -1.6311
 7385SOL     OW33790   3.452   1.912  11.545  0.1542  0.1168  0.2009
 7385SOL    HW133791   3.365   1.942  11.518 -0.6047 -2.1734  0.0691
 7385SOL    HW233792   3.498   1.887  11.465 -0.2060  3.7959 -1.1480
 7386SOL     OW33793   3.137   0.307   7.263 -0.5568 -0.0375  0.0656
 7386SOL    HW133794   3.120   0.305   7.169  0.0481  0.0946 -0.0487
 7386SOL    HW233795   3.081   0.378   7.294 -0.2166  0.1625  0.2200
 7387SOL     OW33796   2.238   1.237   7.138 -0.2543 -0.5385  0.2010
 7387SOL    HW133797   2.174   1.306   7.154  0.3750  0.4530 -1.5013
 7387SOL    HW233798   2.322   1.279   7.116 -0.6569 -0.7688 -1.8240
 7388SOL     OW33799   1.411   0.697   9.704 -0.5884 -0.2284  0.1671
 7388SOL    HW133800   1.397   0.638   9.777 -0.6571 -0.1313  0.2321
 7388SOL    HW233801   1.325   0.705   9.662  0.8810  2.6356 -2.3339
 7389SOL     OW33802   0.782   3.777   5.875  0.5718  0.0255 -0.3918
 7389SOL    HW133803   0.819   3.733   5.952  2.2590  2.1142 -0.0065
 7389SOL    HW233804   0.845   3.849   5.867  0.6616  0.2716  2.4024
 7390SOL     OW33805   0.519   4.101   6.349 -0.2000  0.3675 -0.1778
 7390SOL    HW133806   0.483   4.120   6.262  0.6613  0.1472 -0.5784
 7390SOL    HW233807   0.478   4.169   6.404  1.5657  0.0366  1.5351
 7391SOL     OW33808   1.965   2.779   1.497 -0.2330 -0.2078 -0.5470
 7391SOL    HW133809   1.932   2.774   1.408 -0.6976 -1.6801 -0.2946
 7391SOL    HW233810   1.905   2.836   1.544 -0.5149 -0.6986 -0.3086
 7392SOL     OW33811   4.601   2.609   9.646 -0.2148  0.2644 -0.1825
 7392SOL    HW133812   4.508   2.605   9.669  0.4177  0.8050  2.4043
 7392SOL    HW233813   4.593   2.541   9.579  1.8131 -0.4469  0.3118
 7393SOL     OW33814   0.659   2.280  10.050  0.0681  0.3914  0.2516
 7393SOL    HW133815   0.689   2.358  10.004 -0.0294  0.4715  0.3265
 7393SOL    HW233816   0.577   2.262  10.004  0.0814  1.1584 -0.0730
 7394SOL     OW33817   2.965   3.162   2.232 -0.1123 -0.0563  0.3407
 7394SOL    HW133818   3.057   3.184   2.217 -0.1936 -0.3832 -0.6993
 7394SOL    HW233819   2.933   3.131   2.147  0.2952 -0.7642  0.4477
 7395SOL     OW33820   3.072   3.551   9.114  0.0578 -0.3095 -0.3105
 7395SOL    HW133821   3.024   3.594   9.184 -0.2190 -0.3743 -0.4625
 7395SOL    HW233822   3.110   3.477   9.160 -0.3754  0.6139  1.5389
 7396SOL     OW33823   4.625   1.095  13.570 -0.0620 -0.2739  0.1645
 7396SOL    HW133824   4.652   1.024  13.512  0.9342  0.7319 -0.5941
 7396SOL    HW233825   4.597   1.047  13.648  0.0676 -0.9940 -0.2382
 7397SOL     OW33826   2.534   4.674  12.151 -0.1478  0.1437  0.5359
 7397SOL    HW133827   2.465   4.715  12.204 -0.7155 -1.3316  0.9455
 7397SOL    HW233828   2.520   4.736  12.079  0.0211  0.6329  0.9181
 7398SOL     OW33829   2.370   4.665   6.179 -0.1760  0.4371  0.0206
 7398SOL    HW133830   2.462   4.648   6.202  0.1636 -1.1702 -2.5288
 7398SOL    HW233831   2.378   4.660   6.084  0.5390  1.1067  0.0398
 7399SOL     OW33832   1.079   1.007   6.807  0.4632 -0.2791  0.8157
 7399SOL    HW133833   1.075   1.036   6.898 -1.2622  0.7163  0.4103
 7399SOL    HW233834   0.999   0.956   6.794  0.0247  0.8092 -0.7478
 7400SOL     OW33835   4.124   4.087   7.534 -0.5398  0.0058  0.4670
 7400SOL    HW133836   4.075   4.169   7.526  1.2305  1.0126 -0.1610
 7400SOL    HW233837   4.215   4.113   7.549  0.2745 -2.6537  0.1650
 7401SOL     OW33838   2.572   0.085  15.551 -0.7485  0.4652 -1.1550
 7401SOL    HW133839   2.484   0.120  15.568 -1.4263 -2.1273  0.7123
 7401SOL    HW233840   2.618   0.169  15.549 -1.0094  0.6197 -0.7096
 7402SOL     OW33841   3.788   4.223   8.565 -0.1260  0.1460  0.0130
 7402SOL    HW133842   3.860   4.181   8.612  0.0373  1.1775  0.6798
 7402SOL    HW233843   3.779   4.312   8.598 -1.7983 -0.3630  0.9255
 7403SOL     OW33844   1.860   1.680   7.576  0.4064  0.2979 -0.2502
 7403SOL    HW133845   1.848   1.712   7.666 -0.3396  0.3191 -0.3511
 7403SOL    HW233846   1.852   1.762   7.528  3.4563 -0.0625 -1.3785
 7404SOL     OW33847   1.859   0.617  12.658  0.4401  0.2200  0.0812
 7404SOL    HW133848   1.772   0.654  12.643  0.2800 -0.8921 -1.7305
 7404SOL    HW233849   1.886   0.582  12.573  1.0330  0.8992 -0.0076
 7405SOL     OW33850   4.401   1.443   9.309 -0.7048  0.2475 -0.1057
 7405SOL    HW133851   4.336   1.484   9.253  0.7388 -1.9474 -3.4051
 7405SOL    HW233852   4.390   1.348   9.301  0.8430  0.1811 -1.4609
 7406SOL     OW33853   0.817   2.209  12.241  0.4546 -0.0826  0.1427
 7406SOL    HW133854   0.906   2.209  12.207  0.0306  1.9967 -0.9070
 7406SOL    HW233855   0.771   2.265  12.179  0.9054 -2.3259 -2.2319
 7407SOL     OW33856   4.623   4.656  15.735 -0.1959  0.1393 -0.4861
 7407SOL    HW133857   4.584   4.632  15.819  0.6434 -3.1503 -1.0327
 7407SOL    HW233858   4.542   4.690  15.695  1.1904  2.8954 -0.9030
 7408SOL     OW33859   2.561   0.291   2.244 -0.1443 -0.5918  0.5613
 7408SOL    HW133860   2.565   0.213   2.299 -0.7009  0.3550  1.9382
 7408SOL    HW233861   2.507   0.267   2.168 -0.5438  1.0161  0.3462
 7409SOL     OW33862   3.714   0.401   2.345  0.0301  0.1391 -0.3538
 7409SOL    HW133863   3.717   0.306   2.347 -0.2678  0.1262 -0.4852
 7409SOL    HW233864   3.771   0.416   2.269  0.6130  1.7181  0.4070
 7410SOL     OW33865   1.083   2.149  10.010  0.7527  0.4717  0.5377
 7410SOL    HW133866   1.163   2.143   9.958  0.1777  0.7268 -0.3719
 7410SOL    HW233867   1.128   2.148  10.095  1.8747  0.4951 -0.0683
 7411SOL     OW33868   1.374   0.073   2.067  0.0510 -0.4724 -0.0178
 7411SOL    HW133869   1.410   0.081   1.979  1.8656  0.7012  0.8231
 7411SOL    HW233870   1.305   0.007   2.073  1.1893 -1.5034  1.4893
 7412SOL     OW33871   4.055   1.658   5.193  0.0908 -0.3396 -0.3611
 7412SOL    HW133872   3.982   1.597   5.206  1.0276 -1.7553 -1.8229
 7412SOL    HW233873   4.132   1.604   5.211  0.8861  0.4066 -1.5229
 7413SOL     OW33874   3.978   3.189  16.282  0.1822  0.5220 -0.0057
 7413SOL    HW133875   4.030   3.266  16.305 -1.8597  1.8747  0.1425
 7413SOL    HW233876   3.971   3.136  16.361 -1.3256 -1.5456 -1.5344
 7414SOL     OW33877   3.420   0.843   9.189 -0.1412 -0.4165 -0.2970
 7414SOL    HW133878   3.368   0.827   9.269 -1.6349  0.9045 -1.0128
 7414SOL    HW233879   3.447   0.935   9.190  0.4678 -0.6110  1.0782
 7415SOL     OW33880   4.213   4.180   2.154 -0.1151 -0.4540 -0.8180
 7415SOL    HW133881   4.253   4.123   2.087  1.3948 -0.7288  0.2960
 7415SOL    HW233882   4.123   4.177   2.124 -0.9799 -0.4564  1.8404
 7416SOL     OW33883   3.994   1.872   6.787  0.2384  0.1123 -0.0512
 7416SOL    HW133884   3.924   1.853   6.724  2.0641 -1.5459 -1.5713
 7416SOL    HW233885   4.049   1.936   6.742  0.5443 -1.1148 -1.4390
 7417SOL     OW33886   1.811   0.492   6.043  0.0783  0.0411  0.0287
 7417SOL    HW133887   1.889   0.513   5.992 -1.6964  0.0558 -2.6716
 7417SOL    HW233888   1.795   0.577   6.084 -0.0843  0.2977 -0.5681
 7418SOL     OW33889   1.204   0.089  16.778  0.1124 -0.3146 -0.1477
 7418SOL    HW133890   1.212   0.081  16.873  1.5244 -0.3528 -0.2745
 7418SOL    HW233891   1.182   0.182  16.771  0.1775 -0.2387  0.7175
 7419SOL     OW33892   2.244   2.790   2.806  0.0320  0.5960 -0.5959
 7419SOL    HW133893   2.334   2.812   2.831 -0.1282  1.9961 -1.2571
 7419SOL    HW233894   2.246   2.784   2.711  0.4169 -0.4311 -0.5218
 7420SOL     OW33895   1.464   2.441  11.939  0.3881 -0.0501  0.2812
 7420SOL    HW133896   1.421   2.512  11.988 -0.0980 -1.1675  1.4814
 7420SOL    HW233897   1.411   2.364  11.960 -0.4388  0.6241  0.6968
 7421SOL     OW33898   0.792   2.373   2.630 -0.1025 -0.1339 -0.2565
 7421SOL    HW133899   0.799   2.451   2.576 -0.3639  0.2508  0.2687
 7421SOL    HW233900   0.733   2.318   2.578  0.5873  0.1471 -1.3296
 7422SOL     OW33901   2.733   4.640   3.250 -0.6105  0.3624  0.1555
 7422SOL    HW133902   2.653   4.621   3.200 -0.6081 -0.4170  0.4475
 7422SOL    HW233903   2.719   4.731   3.275  2.3283  0.0474  2.8731
 7423SOL     OW33904   0.852   4.198   3.987  0.2650  0.3556 -0.2550
 7423SOL    HW133905   0.792   4.267   3.962  0.7552  1.9410  2.9640
 7423SOL    HW233906   0.908   4.236   4.054 -1.0723  3.0261 -0.6749
 7424SOL     OW33907   2.909   3.657  16.875 -0.0291  0.7140  0.4850
 7424SOL    HW133908   2.951   3.632  16.793 -1.1427  2.9777 -0.7814
 7424SOL    HW233909   2.853   3.727  16.841 -1.2113 -0.4276  0.0645
 7425SOL     OW33910   2.098   0.826   4.607  0.2492  0.0746  0.1022
 7425SOL    HW133911   2.162   0.897   4.607 -0.7115  0.9419  1.7569
 7425SOL    HW233912   2.097   0.790   4.695 -0.1863 -0.2135 -0.0182
 7426SOL     OW33913   0.276   3.511  16.052  0.4034  0.0923  0.3596
 7426SOL    HW133914   0.329   3.556  16.119 -2.0894 -0.9097  2.9902
 7426SOL    HW233915   0.223   3.586  16.027 -0.6126 -0.9366 -0.5284
 7427SOL     OW33916   0.663   3.891   1.931 -0.0392  0.0647  0.1761
 7427SOL    HW133917   0.729   3.848   1.878  0.9293 -0.8075  2.1166
 7427SOL    HW233918   0.659   3.978   1.892 -0.8858  0.6731  1.6131
 7428SOL     OW33919   3.418   2.572   9.984  0.3173 -0.0981  0.0250
 7428SOL    HW133920   3.409   2.660  10.022 -1.7412 -0.0218 -0.6489
 7428SOL    HW233921   3.486   2.534  10.040 -0.4890 -0.5233  0.7192
 7429SOL     OW33922   1.724   4.705  15.475 -0.4717 -0.7286 -0.0922
 7429SOL    HW133923   1.744   0.010  15.391  1.4718  0.0361  0.7666
 7429SOL    HW233924   1.628   4.700  15.465 -0.7902  3.1639  0.9011
 7430SOL     OW33925   2.485   2.920   8.490  0.0549  0.0318  0.4188
 7430SOL    HW133926   2.524   2.839   8.458 -0.4105 -0.7248  1.7516
 7430SOL    HW233927   2.394   2.893   8.501  0.0353 -0.5195 -1.0683
 7431SOL     OW33928   0.645   1.291  13.457 -0.3553  0.0488 -0.1930
 7431SOL    HW133929   0.569   1.304  13.401 -1.3700 -0.9707  0.9781
 7431SOL    HW233930   0.703   1.366  13.441  0.2858 -0.7523 -1.6302
 7432SOL     OW33931   0.874   0.866   8.791  0.3370  0.0701 -0.4841
 7432SOL    HW133932   0.944   0.800   8.783 -1.7179 -2.4333  2.1352
 7432SOL    HW233933   0.921   0.949   8.791 -1.4613  1.0611  1.5361
 7433SOL     OW33934   4.447   2.137   5.013  0.3403  0.0258 -0.0213
 7433SOL    HW133935   4.456   2.107   4.922  1.2014  0.1394  0.0275
 7433SOL    HW233936   4.390   2.071   5.051 -1.8734  2.2111  0.4074
 7434SOL     OW33937   1.859   3.141   6.341  1.0370  0.0678  0.2634
 7434SOL    HW133938   1.927   3.089   6.297  0.1500 -1.5421  0.7930
 7434SOL    HW233939   1.812   3.175   6.265  0.8360 -1.4685 -0.3013
 7435SOL     OW33940   0.642   2.994   9.844 -0.2188  0.3270  0.4563
 7435SOL    HW133941   0.614   3.038   9.764  1.7420 -0.6239 -0.7259
 7435SOL    HW233942   0.731   2.970   9.822 -0.1053 -2.0551  3.5421
 7436SOL     OW33943   3.989   1.048   8.054  0.1563  0.5623  0.3539
 7436SOL    HW133944   3.950   0.989   8.118  1.0111  0.3784  0.7126
 7436SOL    HW233945   4.068   0.995   8.038 -0.5460 -0.5031  0.4263
 7437SOL     OW33946   1.521   3.971   6.500 -0.3981  0.3791 -0.3273
 7437SOL    HW133947   1.566   3.917   6.435  0.2545  1.9594 -1.1855
 7437SOL    HW233948   1.430   3.970   6.470  0.3894 -0.5054 -2.6649
 7438SOL     OW33949   2.012   1.832   9.135  0.0406  0.1347  0.3563
 7438SOL    HW133950   1.946   1.862   9.072  0.3649  1.0429  0.4572
 7438SOL    HW233951   2.051   1.913   9.168  2.0198 -0.0689 -1.5152
 7439SOL     OW33952   1.426   3.675   2.031  0.2034 -0.1378 -0.0377
 7439SOL    HW133953   1.339   3.698   2.001  0.6232 -1.5050 -2.3559
 7439SOL    HW233954   1.433   3.730   2.109 -1.2901 -1.5922  1.1428
 7440SOL     OW33955   2.553   1.242   3.111  0.2827  0.6926 -0.1935
 7440SOL    HW133956   2.641   1.269   3.136  0.4105 -0.3020  0.4049
 7440SOL    HW233957   2.560   1.155   3.072  1.5440 -0.4051  2.5156
 7441SOL     OW33958   2.955   0.981   2.951  0.5835  0.3051 -0.4109
 7441SOL    HW133959   2.917   1.061   2.914 -0.3269 -0.9802 -2.2690
 7441SOL    HW233960   2.933   0.909   2.892 -1.2666  0.9239 -0.4765
 7442SOL     OW33961   3.705   4.689   8.889  0.0843 -0.5172  0.0922
 7442SOL    HW133962   3.744   4.634   8.957 -0.3805  2.5138  2.8103
 7442SOL    HW233963   3.716   0.041   8.919  1.1773 -0.1561 -1.4021
 7443SOL     OW33964   3.975   1.446   9.912  0.2584 -0.4990  0.5237
 7443SOL    HW133965   3.922   1.367   9.923  0.5355 -0.9226 -1.0726
 7443SOL    HW233966   3.915   1.507   9.954 -1.0847 -1.8273  0.5367
 7444SOL     OW33967   1.234   0.884   3.686 -0.1880 -0.1458  0.3148
 7444SOL    HW133968   1.258   0.852   3.600 -0.5840 -1.8255  0.8305
 7444SOL    HW233969   1.202   0.972   3.664  1.2615 -0.1546 -1.7433
 7445SOL     OW33970   0.474   4.428   8.881  0.0882  0.0985  0.2932
 7445SOL    HW133971   0.565   4.405   8.898  0.8481  2.2679 -0.7248
 7445SOL    HW233972   0.434   4.343   8.895 -1.0157  0.5787  0.0406
 7446SOL     OW33973   0.198   4.114   9.860 -0.4715 -0.2810 -0.1262
 7446SOL    HW133974   0.103   4.119   9.854 -0.2294 -1.2782 -4.5257
 7446SOL    HW233975   0.204   4.158   9.945 -0.5753 -1.3501  0.4347
 7447SOL     OW33976   1.222   3.287   4.435 -0.1357 -0.1769  0.4171
 7447SOL    HW133977   1.160   3.300   4.507  0.7442  1.8648  0.8039
 7447SOL    HW233978   1.190   3.204   4.398  2.7361 -0.7937 -0.6724
 7448SOL     OW33979   2.746   3.245   8.025 -0.0446  0.1939  0.2871
 7448SOL    HW133980   2.784   3.166   8.063 -0.6705  0.0965  0.7041
 7448SOL    HW233981   2.662   3.204   8.004  0.0232  0.2973 -0.1724
 7449SOL     OW33982   3.205   1.284   8.010 -0.3248  0.1948  0.2164
 7449SOL    HW133983   3.241   1.214   8.064  0.1865 -1.1708 -1.8995
 7449SOL    HW233984   3.130   1.233   7.980 -1.2529  1.1866  0.8378
 7450SOL     OW33985   0.693   1.363   0.856  0.3165  0.2460  0.1631
 7450SOL    HW133986   0.769   1.345   0.912 -0.0136  1.2457  0.9311
 7450SOL    HW233987   0.736   1.393   0.775 -0.6453 -0.9968 -0.8058
 7451SOL     OW33988   3.308   2.151   8.857  0.1083 -0.1810 -0.1936
 7451SOL    HW133989   3.275   2.094   8.926 -0.0829 -0.3258 -0.4048
 7451SOL    HW233990   3.236   2.212   8.838 -1.6381 -1.4727  2.4174
 7452SOL     OW33991   0.738   0.974   0.823 -0.6816 -0.1146  0.0816
 7452SOL    HW133992   0.697   0.909   0.880 -0.0558  0.7409  1.5253
 7452SOL    HW233993   0.657   1.005   0.782 -2.2054 -0.9975  2.4021
 7453SOL     OW33994   1.870   1.961   2.528  0.1710 -0.0874  0.0062
 7453SOL    HW133995   1.884   1.997   2.440 -2.0208 -0.1896 -0.3691
 7453SOL    HW233996   1.777   1.980   2.532  0.0767 -0.4822 -0.2381
 7454SOL     OW33997   0.037   4.364   5.100  0.2214 -0.6491  0.1233
 7454SOL    HW133998   0.118   4.346   5.052 -0.5255 -4.1732  0.1591
 7454SOL    HW233999   4.720   4.412   5.039 -2.0522 -2.2057  0.9674
 7455SOL     OW34000   0.110   2.822   6.537 -0.3036 -0.5160 -0.0412
 7455SOL    HW134001   0.089   2.772   6.616 -1.2380  1.6792  1.1089
 7455SOL    HW234002   0.104   2.912   6.571 -2.6062 -0.6180 -0.1692
 7456SOL     OW34003   0.346   0.705   7.657 -0.5416  0.3649 -0.5141
 7456SOL    HW134004   0.259   0.710   7.619 -1.6065 -1.4913  1.6720
 7456SOL    HW234005   0.322   0.691   7.749 -2.0557 -0.9094 -1.1152
 7457SOL     OW34006   0.523   2.399  13.660  0.1353  0.2874  0.1483
 7457SOL    HW134007   0.517   2.408  13.755  0.9393 -1.6989  0.3901
 7457SOL    HW234008   0.545   2.306  13.654 -0.8625 -0.1022  2.5332
 7458SOL     OW34009   3.980   0.705   0.557 -0.1363  0.4449 -1.2316
 7458SOL    HW134010   4.005   0.770   0.491  2.1059 -0.4623 -1.2585
 7458SOL    HW234011   4.005   0.628   0.506 -0.0052 -0.9977  0.9854
 7459SOL     OW34012   0.959   2.343  11.060 -0.0135 -0.3666 -0.3569
 7459SOL    HW134013   1.027   2.403  11.030 -0.5307 -0.4323 -1.6713
 7459SOL    HW234014   0.907   2.340  10.980 -0.7219  1.1446  0.0449
 7460SOL     OW34015   1.476   4.255  15.916 -0.0182 -0.3255  0.4280
 7460SOL    HW134016   1.389   4.280  15.884 -1.1504 -1.8263  2.3167
 7460SOL    HW234017   1.491   4.165  15.889  0.6104 -0.7185  2.0724
 7461SOL     OW34018   3.768   2.101   8.617  0.6111  0.0078  0.4033
 7461SOL    HW134019   3.689   2.048   8.617  0.3063  0.4628  2.3759
 7461SOL    HW234020   3.748   2.167   8.551 -3.6357 -2.9918 -1.3100
 7462SOL     OW34021   3.568   2.832   4.307 -0.8130 -0.0245 -0.2156
 7462SOL    HW134022   3.512   2.903   4.277 -0.6594  0.7391  1.3414
 7462SOL    HW234023   3.570   2.847   4.401 -0.2046 -0.1915 -0.1993
 7463SOL     OW34024   2.773   0.330  15.274 -0.1315  0.3125 -0.0830
 7463SOL    HW134025   2.764   0.402  15.211  0.3588  0.1745 -0.3082
 7463SOL    HW234026   2.761   0.381  15.355  1.5118 -0.9032  0.9132
 7464SOL     OW34027   2.720   2.287   2.267  0.9274 -0.0579 -0.2345
 7464SOL    HW134028   2.734   2.380   2.287 -0.1275  0.1539 -0.4410
 7464SOL    HW234029   2.635   2.287   2.222  0.1895  0.9708  1.1365
 7465SOL     OW34030   0.165   3.881  14.329  0.4900  0.1205 -0.6562
 7465SOL    HW134031   0.135   3.930  14.405 -0.4207  0.1217 -1.0141
 7465SOL    HW234032   0.081   3.849  14.298  1.5362 -0.7342 -2.6767
 7466SOL     OW34033   1.067   3.932   6.797 -0.3759  0.5041  0.0029
 7466SOL    HW134034   1.013   3.868   6.842  1.1262 -0.0273  1.0563
 7466SOL    HW234035   1.133   3.870   6.766 -0.2642  0.4088  0.4398
 7467SOL     OW34036   3.417   2.587   5.365  1.0438  0.5571 -0.0701
 7467SOL    HW134037   3.395   2.678   5.387 -1.3149 -0.4610  1.7909
 7467SOL    HW234038   3.483   2.572   5.433 -2.2868  2.1038  3.5566
 7468SOL     OW34039   3.080   0.715   8.943  0.4451  0.0267  0.1375
 7468SOL    HW134040   3.081   0.658   8.866 -3.4368  1.0021 -0.6144
 7468SOL    HW234041   3.106   0.659   9.016 -1.6344  0.5462  1.2617
 7469SOL     OW34042   0.333   3.275   7.874  0.0450  0.2829 -0.7067
 7469SOL    HW134043   0.307   3.310   7.959  0.6239  0.1741 -0.4841
 7469SOL    HW234044   0.394   3.207   7.901  0.7590  1.4879  0.7687
 7470SOL     OW34045   2.844   4.123   7.422 -0.4090 -0.1945 -0.3081
 7470SOL    HW134046   2.874   4.200   7.373  1.4132 -1.0044 -0.4722
 7470SOL    HW234047   2.849   4.150   7.514  1.6852  1.4177 -0.8937
 7471SOL     OW34048   2.355   0.787   2.256 -0.4486  0.2103 -0.1383
 7471SOL    HW134049   2.374   0.877   2.229 -4.2279  1.6894  2.1178
 7471SOL    HW234050   2.264   0.787   2.284  0.1274  0.9311  1.7474
 7472SOL     OW34051   0.532   1.948   9.808 -0.0809 -0.4965  0.4594
 7472SOL    HW134052   0.516   1.997   9.727  0.9666 -0.1952  0.4243
 7472SOL    HW234053   0.609   1.896   9.785  0.1083  0.3983 -0.9388
 7473SOL     OW34054   4.522   1.694   5.839  0.6818  0.1891 -0.4663
 7473SOL    HW134055   4.543   1.707   5.932 -0.3444 -0.6869 -0.1168
 7473SOL    HW234056   4.447   1.752   5.823  1.2711  0.6343 -1.6593
 7474SOL     OW34057   1.441   1.318  13.018  0.0838  0.0856 -0.0083
 7474SOL    HW134058   1.495   1.350  13.090 -0.3017  1.6177 -0.3959
 7474SOL    HW234059   1.353   1.310  13.057 -0.2627 -2.7510 -1.3455
 7475SOL     OW34060   1.515   3.550   9.159 -0.5202 -0.3151 -0.4032
 7475SOL    HW134061   1.466   3.591   9.231  0.1430 -2.6868  1.4228
 7475SOL    HW234062   1.447   3.492   9.126  0.2703 -1.3150 -0.2756
 7476SOL     OW34063   3.748   2.346  15.105  0.3543 -0.8860  0.3034
 7476SOL    HW134064   3.754   2.276  15.041  0.3867  0.9646 -1.6948
 7476SOL    HW234065   3.749   2.298  15.188 -0.9524  1.7442  1.8688
 7477SOL     OW34066   2.754   1.696   0.258 -0.1459  0.2980  0.0797
 7477SOL    HW134067   2.773   1.687   0.351 -0.7328 -0.6107  0.1114
 7477SOL    HW234068   2.670   1.741   0.246 -1.0608 -1.5110 -0.1982
 7478SOL     OW34069   3.419   4.670   8.809  0.2607  0.0546 -0.2255
 7478SOL    HW134070   3.454   4.645   8.723 -0.2641 -1.2079 -0.0804
 7478SOL    HW234071   3.482   0.002   8.823 -1.4814  1.8452 -1.2420
 7479SOL     OW34072   1.071   1.179   9.347  0.5228  0.4012  0.9108
 7479SOL    HW134073   1.043   1.104   9.293 -0.2649  0.8313  0.7271
 7479SOL    HW234074   1.081   1.252   9.287  0.9735  0.4593  1.0540
 7480SOL     OW34075   2.164   2.165   0.077  0.5424 -0.0352  0.7958
 7480SOL    HW134076   2.111   2.120   0.010 -0.7263  0.4523  1.4831
 7480SOL    HW234077   2.150   2.258   0.062  1.1740 -0.0306  0.2187
 7481SOL     OW34078   0.496   4.647   7.431  0.7240 -0.0607 -0.1591
 7481SOL    HW134079   0.445   4.663   7.511 -0.4577 -1.0817 -0.7085
 7481SOL    HW234080   0.505   4.552   7.438  0.5686 -0.1373 -1.0407
 7482SOL     OW34081   0.198   2.631   2.902  0.1044 -0.4164 -0.1745
 7482SOL    HW134082   0.238   2.649   2.817  1.1291  1.2711  0.6687
 7482SOL    HW234083   0.235   2.693   2.965 -2.7070  0.7936  0.2870
 7483SOL     OW34084   4.428   3.478   7.185  0.6354 -0.1963 -0.6454
 7483SOL    HW134085   4.488   3.407   7.210  1.3130 -0.3424 -2.6685
 7483SOL    HW234086   4.367   3.467   7.257  0.7202  0.3640 -0.4835
 7484SOL     OW34087   1.601   2.360   8.362 -0.0004  0.1574  0.3072
 7484SOL    HW134088   1.610   2.277   8.410 -0.3694 -0.0430  0.0238
 7484SOL    HW234089   1.676   2.411   8.395  0.0029  0.7604 -0.6354
 7485SOL     OW34090   1.845   3.600   7.678  0.0856  0.2084 -0.6248
 7485SOL    HW134091   1.820   3.521   7.726 -1.1565  0.5706 -0.6597
 7485SOL    HW234092   1.899   3.650   7.739 -1.9982 -1.2807  2.4361
 7486SOL     OW34093   2.141   3.354   9.172  0.2561 -0.0917  0.2758
 7486SOL    HW134094   2.120   3.285   9.235  0.0817  3.1463  3.7682
 7486SOL    HW234095   2.057   3.396   9.191 -1.1617 -2.6672 -0.3219
 7487SOL     OW34096   1.468   4.622  13.109  0.4296  0.0031 -0.2501
 7487SOL    HW134097   1.435   4.614  13.019 -0.9471  0.8693  0.1788
 7487SOL    HW234098   1.557   4.595  13.086  1.3415  0.0723  3.1910
 7488SOL     OW34099   1.259   2.223   1.907 -0.2374  0.4043 -0.1834
 7488SOL    HW134100   1.282   2.191   1.994 -1.4888 -0.1892 -0.0675
 7488SOL    HW234101   1.349   2.226   1.876 -0.0696  2.4081  0.4707
 7489SOL     OW34102   2.472   1.163   9.638  0.5891 -0.4041  1.0086
 7489SOL    HW134103   2.464   1.082   9.587 -1.5870  0.3419  0.1511
 7489SOL    HW234104   2.395   1.141   9.690 -0.1449  0.7220  0.3999
 7490SOL     OW34105   2.606   3.446   9.488 -0.1255  0.0019 -0.3164
 7490SOL    HW134106   2.537   3.493   9.442  0.1517  0.0976 -0.6353
 7490SOL    HW234107   2.620   3.503   9.563 -0.9577  0.4519 -0.5030
 7491SOL     OW34108   0.606   2.683  17.092  0.0510  0.0223  0.2912
 7491SOL    HW134109   0.567   2.660  17.008  1.0568 -0.6209 -0.0021
 7491SOL    HW234110   0.687   2.632  17.089 -0.7405 -1.3505  2.7725
 7492SOL     OW34111   0.277   3.770  13.393  0.5096 -0.6465 -0.1338
 7492SOL    HW134112   0.300   3.835  13.460  0.9603 -0.9092 -0.0415
 7492SOL    HW234113   0.331   3.695  13.415  1.0465 -0.7946 -2.0082
 7493SOL     OW34114   1.210   1.967  11.078 -0.3524  0.5611  0.0358
 7493SOL    HW134115   1.119   1.965  11.108 -1.1474  1.1431 -2.3632
 7493SOL    HW234116   1.215   2.039  11.015  0.4422  0.5897  0.1293
 7494SOL     OW34117   3.256   1.324   8.761 -0.3353 -0.0181 -0.4261
 7494SOL    HW134118   3.309   1.255   8.723  1.8071  0.8630  0.9421
 7494SOL    HW234119   3.235   1.282   8.844  0.0426 -0.7620 -0.7050
 7495SOL     OW34120   3.966   3.815  12.259  0.0967 -0.0023 -0.5351
 7495SOL    HW134121   4.027   3.754  12.302  0.9982  0.6182 -0.9367
 7495SOL    HW234122   3.923   3.761  12.193  0.8695 -1.0886 -0.1569
 7496SOL     OW34123   0.173   4.033   5.081 -0.9191  0.3401 -0.8181
 7496SOL    HW134124   0.233   4.068   5.015 -2.0898 -1.4118 -2.8174
 7496SOL    HW234125   0.229   3.963   5.113 -0.4015  1.0048 -0.2691
 7497SOL     OW34126   3.370   1.743   5.685 -0.2655  0.6553  0.0129
 7497SOL    HW134127   3.284   1.761   5.723  0.0002 -2.2652  1.9987
 7497SOL    HW234128   3.354   1.654   5.654  0.9517 -0.1794  1.7946
 7498SOL     OW34129   2.100   3.797   8.215  0.2832  0.2407  0.0008
 7498SOL    HW134130   2.100   3.704   8.238  0.1548  0.0334 -0.8647
 7498SOL    HW234131   2.185   3.801   8.171  1.3225  0.8684  2.0264
 7499SOL     OW34132   0.826   0.158   0.072 -0.0416  0.0137  0.1790
 7499SOL    HW134133   0.893   0.200   0.127 -1.4470 -1.4187  3.0341
 7499SOL    HW234134   0.843   0.215  17.746 -2.0849 -3.6438 -2.9987
 7500SOL     OW34135   3.878   1.134  12.697 -0.7739  0.3665 -0.2839
 7500SOL    HW134136   3.908   1.080  12.770 -0.0941  1.7843  0.4660
 7500SOL    HW234137   3.954   1.192  12.698  0.9634 -1.8975 -1.3866
 7501SOL     OW34138   2.888   4.639  11.702  0.7051  0.5118  0.3829
 7501SOL    HW134139   2.880   4.594  11.618 -0.2816  0.6550  0.3952
 7501SOL    HW234140   2.808   4.620  11.751 -1.5179  4.5286 -1.6609
 7502SOL     OW34141   1.052   3.917   3.190 -0.0166 -0.7725  0.0677
 7502SOL    HW134142   1.068   3.916   3.284  0.1130 -0.0525  0.0505
 7502SOL    HW234143   1.004   3.836   3.170 -1.3314  0.3869 -1.5125
 7503SOL     OW34144   3.450   0.121   1.202 -0.3478  0.1327  0.0937
 7503SOL    HW134145   3.457   0.034   1.242  1.4648  0.7131  1.0803
 7503SOL    HW234146   3.528   0.163   1.240 -0.7377  1.6334 -0.7753
 7504SOL     OW34147   3.137   4.068   8.501 -0.6521 -0.7046  0.5802
 7504SOL    HW134148   3.144   4.149   8.551  1.9438 -0.8161  0.3644
 7504SOL    HW234149   3.096   4.108   8.424  1.3969  2.0790  0.9177
 7505SOL     OW34150   1.160   2.357   3.678  0.3402 -0.2628 -0.4187
 7505SOL    HW134151   1.068   2.370   3.702  0.3272  0.3931 -0.8267
 7505SOL    HW234152   1.214   2.413   3.734  1.7165 -1.3060 -0.7194
 7506SOL     OW34153   1.456   3.607  10.840  0.0278 -0.2133 -0.1094
 7506SOL    HW134154   1.474   3.578  10.929 -3.0424 -1.7627 -0.0136
 7506SOL    HW234155   1.362   3.589  10.839 -0.1555  0.5679  3.1560
 7507SOL     OW34156   0.089   4.640   2.647  0.1710 -0.0537 -0.2071
 7507SOL    HW134157   0.151   4.712   2.659 -1.2971  1.2075 -0.0679
 7507SOL    HW234158   0.010   4.689   2.622 -0.5583 -1.1855 -0.0963
 7508SOL     OW34159   3.717   4.032  15.969  0.0263  0.2932 -0.2361
 7508SOL    HW134160   3.724   4.070  16.057 -3.3604 -0.0356  0.1899
 7508SOL    HW234161   3.621   4.035  15.964  0.0068  0.2123  0.0617
 7509SOL     OW34162   0.277   1.564   8.100 -0.1545 -0.5601 -0.1283
 7509SOL    HW134163   0.338   1.631   8.069  1.2621 -1.7511  0.1396
 7509SOL    HW234164   0.311   1.491   8.049  1.3195 -0.3586  0.5466
 7510SOL     OW34165   2.988   2.941   9.743  0.1309 -0.1513 -0.4065
 7510SOL    HW134166   3.072   2.972   9.778 -0.3748  0.7704 -0.0117
 7510SOL    HW234167   2.946   3.022   9.714 -1.4445 -0.9498 -0.3685
 7511SOL     OW34168   4.731   3.374   8.030 -0.4072  0.0495  0.2051
 7511SOL    HW134169   4.705   3.341   8.115  1.2319  0.1294  0.7416
 7511SOL    HW234170   4.667   3.323   7.981 -0.2993  0.2919 -0.1947
 7512SOL     OW34171   3.303   3.908   8.915 -0.2010 -0.0122 -0.7286
 7512SOL    HW134172   3.338   3.943   8.997 -4.3203  1.0861  0.5544
 7512SOL    HW234173   3.306   3.987   8.862  0.5119 -1.2663 -2.5660
 7513SOL     OW34174   3.278   3.136   5.478 -0.3040 -1.0321 -0.0987
 7513SOL    HW134175   3.243   3.080   5.548  1.0200  0.6064  1.8568
 7513SOL    HW234176   3.220   3.132   5.402  0.4685  1.1540 -0.7931
 7514SOL     OW34177   1.691   0.105  16.595 -0.0197  0.3820  0.8719
 7514SOL    HW134178   1.644   0.032  16.553 -2.0638  1.4976  1.2359
 7514SOL    HW234179   1.660   0.088  16.684 -0.5231 -1.1479  0.4190
 7515SOL     OW34180   2.026   3.281   5.536  0.5311 -0.3172 -0.6430
 7515SOL    HW134181   2.051   3.309   5.449  0.6809  0.7015 -0.2718
 7515SOL    HW234182   1.930   3.281   5.528  0.5750 -1.0669 -1.1409
 7516SOL     OW34183   2.139   3.777   7.654  0.4652  0.0419  0.4862
 7516SOL    HW134184   2.086   3.774   7.733  0.3432  0.0832  0.4054
 7516SOL    HW234185   2.140   3.692   7.610 -2.0612  0.4356 -0.3402
 7517SOL     OW34186   1.278   1.160  12.629  0.0086 -0.5388 -0.3953
 7517SOL    HW134187   1.276   1.169  12.725  0.2527  0.5405 -0.4918
 7517SOL    HW234188   1.368   1.191  12.615 -0.5479  0.9592 -0.6079
 7518SOL     OW34189   2.416   1.490   0.395  0.5234 -0.0064  0.6179
 7518SOL    HW134190   2.486   1.463   0.336 -0.7710 -0.3072 -0.7719
 7518SOL    HW234191   2.398   1.404   0.433  0.8786  0.1100  1.0498
 7519SOL     OW34192   0.485   2.634   2.243 -0.4946  0.4222 -0.1763
 7519SOL    HW134193   0.447   2.617   2.156 -0.3571  1.2910 -0.4046
 7519SOL    HW234194   0.415   2.674   2.294  0.0332  0.3052  0.6284
 7520SOL     OW34195   3.636   2.954   2.376  0.5895  0.4117 -0.1041
 7520SOL    HW134196   3.603   2.947   2.466  1.2362 -0.4000  0.0712
 7520SOL    HW234197   3.589   3.026   2.335 -0.9883 -1.0451 -0.8770
 7521SOL     OW34198   2.650   4.605   5.098  0.0335 -0.3401  0.2320
 7521SOL    HW134199   2.673   4.513   5.114 -1.9715 -0.9120 -0.1576
 7521SOL    HW234200   2.614   4.629   5.183 -0.0334  0.5198 -0.0389
 7522SOL     OW34201   1.793   1.512   4.733 -0.1018  0.8039 -0.0859
 7522SOL    HW134202   1.874   1.511   4.683  0.5472 -1.4068  0.9996
 7522SOL    HW234203   1.801   1.447   4.803  1.5446 -1.1396 -2.1111
 7523SOL     OW34204   0.274   1.478  10.383  0.2632 -0.1480  0.1606
 7523SOL    HW134205   0.256   1.506  10.293 -0.0352  1.1556  0.6266
 7523SOL    HW234206   0.264   1.383  10.376  1.4743 -0.3977  1.7941
 7524SOL     OW34207   3.273   3.564   8.330  0.1558  0.3947  0.3609
 7524SOL    HW134208   3.266   3.659   8.324  3.4374  0.5785 -0.1715
 7524SOL    HW234209   3.298   3.547   8.240 -0.6927  1.0879 -0.0110
 7525SOL     OW34210   1.661   2.930   4.533  0.0593 -0.0033  0.6154
 7525SOL    HW134211   1.617   2.988   4.594 -1.1175 -1.7903  1.4581
 7525SOL    HW234212   1.593   2.865   4.545  0.4482 -0.5226  0.0251
 7526SOL     OW34213   1.052   0.449  17.535 -0.0824 -0.0040  0.0198
 7526SOL    HW134214   0.968   0.417  17.567  0.9238 -1.6724  0.9649
 7526SOL    HW234215   1.038   0.543  17.548 -1.2869 -0.2428  0.4265
 7527SOL     OW34216   0.228   0.581  15.859 -0.0471  0.0735  0.0009
 7527SOL    HW134217   0.138   0.583  15.828  0.0991 -1.2635 -0.5295
 7527SOL    HW234218   0.270   0.513  15.807  0.2797  2.0644 -2.3102
 7528SOL     OW34219   2.469   1.988   8.561 -0.1489 -0.3838  0.6887
 7528SOL    HW134220   2.531   2.016   8.629 -0.6126  2.4909 -0.0993
 7528SOL    HW234221   2.427   2.072   8.547  0.4167 -0.6869 -2.7109
 7529SOL     OW34222   3.927   3.096  13.626 -0.9109 -0.0043  0.1737
 7529SOL    HW134223   3.966   3.110  13.539 -0.6925 -0.1110  0.2521
 7529SOL    HW234224   3.839   3.073  13.596 -1.3237  2.9244 -0.7767
 7530SOL     OW34225   2.814   3.185   9.934  0.2357 -0.3859 -0.3441
 7530SOL    HW134226   2.745   3.252   9.932  1.6313  1.0211 -1.4462
 7530SOL    HW234227   2.877   3.239   9.886 -0.2645 -1.0110 -1.6980
 7531SOL     OW34228   1.352   2.005   2.609 -0.3456  0.2969 -0.5014
 7531SOL    HW134229   1.398   2.068   2.665 -3.3276  1.3861  0.6800
 7531SOL    HW234230   1.270   2.054   2.601 -1.3233 -0.9208  2.3762
 7532SOL     OW34231   2.688   4.228  11.710  0.2136 -0.0362 -0.0964
 7532SOL    HW134232   2.762   4.271  11.666  0.1645 -0.3475 -0.4822
 7532SOL    HW234233   2.611   4.264  11.666  0.2872 -2.6345 -2.3392
 7533SOL     OW34234   0.044   2.957   7.040  0.0875  0.2692  1.0156
 7533SOL    HW134235   0.127   2.991   7.005  1.6611 -3.3416  1.1587
 7533SOL    HW234236   0.057   2.862   7.044  0.9697  0.3244 -0.2353
 7534SOL     OW34237   4.683   2.705  10.074  0.2993 -0.0065  0.1793
 7534SOL    HW134238   4.667   2.743  10.161 -1.4448 -0.7334  0.1625
 7534SOL    HW234239   0.031   2.664  10.084  0.9575  1.0949 -0.9801
 7535SOL     OW34240   1.940   1.397   3.992 -0.5342  0.2420  0.3539
 7535SOL    HW134241   1.896   1.464   3.939 -0.4673 -0.3442 -0.4379
 7535SOL    HW234242   1.868   1.336   4.004  0.9173 -1.9308 -2.0167
 7536SOL     OW34243   0.618   4.727  17.743  0.9332 -0.1389 -0.1013
 7536SOL    HW134244   0.664   0.004  17.660 -0.7591 -0.7573 -1.1636
 7536SOL    HW234245   0.678   0.048   0.039 -0.3211  1.6213 -0.7262
 7537SOL     OW34246   4.004   3.136   7.654 -0.0647 -0.2445  0.1074
 7537SOL    HW134247   3.980   3.124   7.562  1.5641  1.6863 -0.5594
 7537SOL    HW234248   4.075   3.200   7.647 -1.1178  0.7378 -1.7182
 7538SOL     OW34249   0.403   3.373  11.460 -0.3004  0.2719  0.1948
 7538SOL    HW134250   0.446   3.369  11.545  0.0411 -0.4918 -0.0137
 7538SOL    HW234251   0.316   3.355  11.495 -0.6381  1.1412 -0.2145
 7539SOL     OW34252   4.409   0.813   0.948  0.1207  0.2909  0.0675
 7539SOL    HW134253   4.396   0.770   1.033 -1.7936  0.2381 -0.2498
 7539SOL    HW234254   4.320   0.840   0.927 -0.2798  0.4969  1.9702
 7540SOL     OW34255   4.735   3.032   5.304  0.0492  0.3186  0.3748
 7540SOL    HW134256   4.729   3.127   5.318  1.5562  0.8789 -2.7403
 7540SOL    HW234257   4.721   2.999   5.393  1.7781  3.5099  1.8244
 7541SOL     OW34258   2.019   3.437   0.182  0.4248  0.2944  0.4100
 7541SOL    HW134259   1.981   3.520   0.210  0.4263  0.7638 -0.9676
 7541SOL    HW234260   1.943   3.384   0.159  0.1539  1.0148 -0.3301
 7542SOL     OW34261   1.984   1.067   6.964  0.0176 -0.3109 -0.0676
 7542SOL    HW134262   1.897   1.085   6.929 -0.1725  0.8918  1.0159
 7542SOL    HW234263   2.037   1.116   6.901  0.3686 -1.0572 -0.3536
 7543SOL     OW34264   0.108   1.974   2.059  0.5998  0.3250  0.1158
 7543SOL    HW134265   0.056   1.963   1.980  2.2991  2.2305 -1.2884
 7543SOL    HW234266   0.191   1.935   2.034  0.7747  1.5155 -1.2040
 7544SOL     OW34267   0.870   3.219  12.920 -0.2680 -0.1364  0.2496
 7544SOL    HW134268   0.935   3.187  12.858 -1.7611  0.4675 -1.6432
 7544SOL    HW234269   0.924   3.253  12.991  1.7408  1.7044 -2.1378
 7545SOL     OW34270   4.673   0.010   6.444 -0.4994 -0.6767  0.1704
 7545SOL    HW134271   4.681   4.708   6.358  0.0721  0.5506 -0.3572
 7545SOL    HW234272   4.732   4.696   6.499 -0.6678 -0.7382  0.2905
 7546SOL     OW34273   0.169   2.568   0.708  0.3637  0.1355  0.0372
 7546SOL    HW134274   0.112   2.508   0.756 -1.5437  2.3514  0.5485
 7546SOL    HW234275   0.224   2.598   0.781  1.3009  0.2948 -0.7338
 7547SOL     OW34276   4.464   2.472  11.155 -0.0145 -0.4868 -0.4144
 7547SOL    HW134277   4.433   2.448  11.243  0.4187 -3.6937 -1.1298
 7547SOL    HW234278   4.524   2.544  11.175 -0.7658 -0.4355  1.6165
 7548SOL     OW34279   3.215   4.477  13.628 -0.2692  0.5010  0.1802
 7548SOL    HW134280   3.205   4.427  13.546 -0.3131  1.0250 -0.1340
 7548SOL    HW234281   3.250   4.407  13.684 -0.1416 -0.1820 -0.7425
 7549SOL     OW34282   0.359   1.969  10.782 -0.0727  0.5381 -0.1125
 7549SOL    HW134283   0.403   1.928  10.708  0.9898  0.1986  0.7112
 7549SOL    HW234284   0.389   1.909  10.850  0.9107  0.0652 -0.9769
 7550SOL     OW34285   3.526   1.536   4.696  0.6549  0.4108  0.6956
 7550SOL    HW134286   3.572   1.489   4.625 -0.1375  0.1069  0.3880
 7550SOL    HW234287   3.540   1.478   4.770  0.7834 -0.2411  0.1584
 7551SOL     OW34288   4.463   4.604   4.316 -0.1968 -0.5660  0.7628
 7551SOL    HW134289   4.425   4.605   4.404 -0.5097  0.2563  0.6186
 7551SOL    HW234290   4.443   4.694   4.292  0.0689 -0.6089  0.3800
 7552SOL     OW34291   1.740   2.668   8.680 -0.4290  0.4066 -0.9121
 7552SOL    HW134292   1.827   2.702   8.659  0.3296 -2.0955 -1.8434
 7552SOL    HW234293   1.686   2.743   8.656 -1.1723 -0.8011 -3.0356
 7553SOL     OW34294   1.286   4.097   3.195 -0.1182 -0.1761  0.1428
 7553SOL    HW134295   1.224   4.048   3.141  1.5974 -0.1778 -1.7950
 7553SOL    HW234296   1.257   4.091   3.286  0.4073  1.2964  0.4023
 7554SOL     OW34297   4.613   3.846   2.935 -0.1825  0.1361 -0.6402
 7554SOL    HW134298   4.645   3.935   2.949 -1.9774  0.3009  2.5518
 7554SOL    HW234299   4.561   3.852   2.855 -0.9355  0.9096 -0.0912
 7555SOL     OW34300   2.791   0.686   3.987  0.1843 -0.7602  0.4476
 7555SOL    HW134301   2.878   0.707   3.951 -0.4292  0.7955 -0.1272
 7555SOL    HW234302   2.739   0.766   3.981  2.3176  0.6321  0.2231
 7556SOL     OW34303   3.749   2.110   3.162 -0.2357 -0.1013  0.0659
 7556SOL    HW134304   3.680   2.046   3.177 -1.7444  0.9239 -2.4879
 7556SOL    HW234305   3.790   2.068   3.087  1.3146  0.9689  0.2956
 7557SOL     OW34306   1.778   4.109   1.780  0.3687 -0.2859 -0.0524
 7557SOL    HW134307   1.693   4.099   1.824 -0.1055 -1.0987 -1.1591
 7557SOL    HW234308   1.758   4.060   1.700  1.3065 -0.7863  0.0295
 7558SOL     OW34309   0.444   3.996   4.095  0.4202 -0.2988  0.1683
 7558SOL    HW134310   0.475   3.995   4.004 -1.5490 -3.5263 -0.4661
 7558SOL    HW234311   0.351   3.986   4.077  0.4964  0.0360 -0.4298
 7559SOL     OW34312   0.479   0.847  17.111 -0.3461  0.5181  0.2024
 7559SOL    HW134313   0.385   0.837  17.101 -0.1584 -0.7328 -0.2087
 7559SOL    HW234314   0.508   0.806  17.030 -0.3504  0.8410  0.0355
 7560SOL     OW34315   3.267   0.931   2.399  0.0045 -0.4078 -0.6361
 7560SOL    HW134316   3.175   0.945   2.421  0.3557 -0.1237  0.6809
 7560SOL    HW234317   3.268   0.887   2.314  0.1182 -1.1163 -0.2610
 7561SOL     OW34318   1.296   1.186   7.436  0.3030 -0.6641 -0.0715
 7561SOL    HW134319   1.219   1.145   7.396  0.1417 -0.2609 -0.1736
 7561SOL    HW234320   1.359   1.120   7.409 -1.9574 -3.1823  0.8612
 7562SOL     OW34321   2.759   0.811  17.110 -0.0415  0.4949  0.1507
 7562SOL    HW134322   2.773   0.729  17.156 -0.6422  0.0869 -0.3813
 7562SOL    HW234323   2.803   0.874  17.166 -1.6447  1.2542  0.5582
 7563SOL     OW34324   3.273   3.336   6.094  0.2055 -0.9703  0.4783
 7563SOL    HW134325   3.236   3.249   6.077 -0.3939 -0.7352  0.6036
 7563SOL    HW234326   3.208   3.373   6.153  1.3854  0.4144  0.9055
 7564SOL     OW34327   2.058   3.599   9.364  0.4972 -0.1222  0.4564
 7564SOL    HW134328   2.082   3.673   9.420 -2.5193  0.0565  1.5383
 7564SOL    HW234329   2.061   3.637   9.276  2.3814  3.5813  2.0677
 7565SOL     OW34330   1.886   3.144   9.298  0.0712  0.1055 -0.3982
 7565SOL    HW134331   1.878   3.061   9.251 -1.3795 -1.5111  2.7518
 7565SOL    HW234332   1.979   3.144   9.323 -0.2781 -0.8475  0.9242
 7566SOL     OW34333   2.569   3.702  14.658  0.3607  0.1327 -0.2513
 7566SOL    HW134334   2.663   3.693  14.642  0.2612  1.0841 -1.3528
 7566SOL    HW234335   2.540   3.614  14.682 -0.0932  0.5195  0.6229
 7567SOL     OW34336   0.304   0.057  10.704 -0.5115  0.5206  0.0609
 7567SOL    HW134337   0.255   4.718  10.735  2.9031 -0.9097  1.7973
 7567SOL    HW234338   0.379   0.018  10.659 -2.2247  3.2081 -5.2518
 7568SOL     OW34339   0.281   1.387  15.125  0.6962 -0.1142 -0.1058
 7568SOL    HW134340   0.335   1.426  15.056  1.3464  0.2316  0.6065
 7568SOL    HW234341   0.343   1.327  15.166  0.5761  1.2179  2.0074
 7569SOL     OW34342   3.465   0.595   3.887 -0.2083  0.4493 -0.0121
 7569SOL    HW134343   3.433   0.672   3.841  1.2718  0.1225 -1.5904
 7569SOL    HW234344   3.493   0.636   3.969  0.2746 -1.0440  0.5769
 7570SOL     OW34345   1.725   0.629  13.227 -0.4296 -0.4400  0.1395
 7570SOL    HW134346   1.792   0.686  13.190  1.9729 -2.7744  0.9059
 7570SOL    HW234347   1.643   0.678  13.230 -0.9517 -1.1965 -1.8442
 7571SOL     OW34348   4.640   0.148  12.035  0.1609 -0.1235  0.1563
 7571SOL    HW134349   4.642   0.196  12.118 -0.5362  0.3898 -0.1238
 7571SOL    HW234350   4.564   0.091  12.041  2.1283 -3.0408 -2.6735
 7572SOL     OW34351   1.026   3.455   6.806 -0.3374 -0.1291 -0.3817
 7572SOL    HW134352   1.075   3.377   6.779  2.0911  1.4148 -0.4692
 7572SOL    HW234353   0.942   3.419   6.835  1.2533 -2.2156  1.6595
 7573SOL     OW34354   2.227   0.381   3.876 -0.1175 -0.3369  0.5557
 7573SOL    HW134355   2.310   0.347   3.843 -0.1102  0.9049 -0.7208
 7573SOL    HW234356   2.241   0.476   3.881  0.8061 -0.3997 -0.6360
 7574SOL     OW34357   1.187   1.037  10.833 -0.4044  0.1947 -0.3725
 7574SOL    HW134358   1.272   1.071  10.805  0.2006 -2.7339 -2.0600
 7574SOL    HW234359   1.201   0.949  10.797  1.1278  0.4666 -0.4675
 7575SOL     OW34360   0.964   4.045   2.947  0.0434 -0.0292  0.7485
 7575SOL    HW134361   0.941   4.004   3.030 -0.2864  0.2743  0.8058
 7575SOL    HW234362   1.041   3.991   2.930  1.0298  1.4855  0.4293
 7576SOL     OW34363   1.345   3.033   5.526 -0.5225  0.1948 -0.3128
 7576SOL    HW134364   1.415   3.028   5.461  1.0345  3.4609  1.1363
 7576SOL    HW234365   1.385   2.976   5.592 -0.5832 -0.5307 -0.8882
 7577SOL     OW34366   2.250   2.815  14.073 -0.2067 -0.2141  0.1559
 7577SOL    HW134367   2.310   2.872  14.121 -1.5028  0.5028  0.9409
 7577SOL    HW234368   2.231   2.860  13.990  0.5834 -0.2449 -0.0382
 7578SOL     OW34369   3.816   4.513  10.500  0.6435  0.0171  0.1280
 7578SOL    HW134370   3.822   4.607  10.486 -0.3977  0.0311 -0.2422
 7578SOL    HW234371   3.829   4.505  10.594 -0.6213  0.1541  0.3164
 7579SOL     OW34372   1.597   3.151   0.150 -0.4834  0.5711 -0.2344
 7579SOL    HW134373   1.592   3.087   0.221  0.2896  0.4005 -0.3400
 7579SOL    HW234374   1.503   3.156   0.132 -0.3169  3.3298 -0.3317
 7580SOL     OW34375   3.128   3.917   6.593 -0.0348 -0.3342 -0.1129
 7580SOL    HW134376   3.065   3.898   6.523 -2.8256  2.3445  1.6678
 7580SOL    HW234377   3.182   3.840   6.574  1.8244  0.9433 -0.0801
 7581SOL     OW34378   2.918   3.461   7.572 -0.5438  0.1125  0.1595
 7581SOL    HW134379   2.906   3.396   7.641  3.8679 -0.5367  0.3010
 7581SOL    HW234380   2.837   3.512   7.576 -0.4601  0.3985 -1.5311
 7582SOL     OW34381   2.496   2.760   5.284 -0.0533  0.2380  0.2073
 7582SOL    HW134382   2.409   2.799   5.280  0.4674  1.3797  0.0304
 7582SOL    HW234383   2.537   2.842   5.255  1.4530 -0.5099  0.2617
 7583SOL     OW34384   2.346   3.590   4.516 -0.5505 -0.0304  0.8386
 7583SOL    HW134385   2.389   3.513   4.553  0.0967 -0.4292 -0.7801
 7583SOL    HW234386   2.265   3.599   4.567 -0.8996 -3.3522  0.8746
 7584SOL     OW34387   2.905   3.751  12.545 -0.0186 -0.0671  0.2476
 7584SOL    HW134388   2.922   3.698  12.467  0.6732  0.9375 -0.2777
 7584SOL    HW234389   2.973   3.816  12.527 -0.8831  1.3336  2.0726
 7585SOL     OW34390   0.463   0.876   3.469  0.0049 -0.1690 -0.1354
 7585SOL    HW134391   0.480   0.909   3.558  1.8991  1.0442 -0.9311
 7585SOL    HW234392   0.512   0.793   3.467 -0.1187 -0.2736  1.0064
 7586SOL     OW34393   0.384   4.281   6.973  0.7222  0.5259  0.2169
 7586SOL    HW134394   0.426   4.209   6.925  1.3602  1.0739 -0.0439
 7586SOL    HW234395   0.299   4.282   6.929  1.0970 -1.5594 -0.5615
 7587SOL     OW34396   1.963   0.871   2.017 -0.2488 -0.0010 -0.3102
 7587SOL    HW134397   2.025   0.852   1.947  1.6642  2.3082  0.7350
 7587SOL    HW234398   1.914   0.789   2.024 -1.3394  0.7809  1.0535
 7588SOL     OW34399   2.732   1.594   7.941  0.4778  0.3065 -0.2584
 7588SOL    HW134400   2.777   1.510   7.928  3.4346  2.0446 -1.3536
 7588SOL    HW234401   2.782   1.629   8.015 -0.2307  2.6789 -0.9192
 7589SOL     OW34402   1.009   4.578   3.597 -0.0321  0.1070 -0.6305
 7589SOL    HW134403   0.918   4.588   3.628 -0.1747 -1.4639 -0.5598
 7589SOL    HW234404   1.006   4.594   3.502  0.7039  1.8583 -0.3531
 7590SOL     OW34405   1.834   3.394  16.349 -0.4417  0.0039  0.7517
 7590SOL    HW134406   1.793   3.451  16.414 -1.9407 -0.5408  0.2793
 7590SOL    HW234407   1.895   3.348  16.407  0.3470  1.3056  0.9586
 7591SOL     OW34408   1.812   3.312   8.686  0.4352  0.5810 -0.7055
 7591SOL    HW134409   1.908   3.311   8.683  0.4590  1.4775  0.1309
 7591SOL    HW234410   1.792   3.372   8.757  0.2489  0.4143 -0.6167
 7592SOL     OW34411   3.940   3.517   2.233 -0.6585  0.0960 -0.2947
 7592SOL    HW134412   4.026   3.552   2.211 -1.8415  1.8239 -2.2184
 7592SOL    HW234413   3.929   3.435   2.185  1.0923 -0.1644 -0.2372
 7593SOL     OW34414   0.680   4.330   0.530  0.1288 -0.3810 -0.0168
 7593SOL    HW134415   0.733   4.388   0.476 -3.1015  3.3056  0.7634
 7593SOL    HW234416   0.664   4.269   0.458 -0.2421 -0.0870 -0.1844
 7594SOL     OW34417   4.202   0.604  14.587 -0.1357 -0.1219  0.3354
 7594SOL    HW134418   4.181   0.693  14.561 -0.4111  0.0647  1.2146
 7594SOL    HW234419   4.244   0.569  14.508 -0.1747  1.1612 -0.2420
 7595SOL     OW34420   4.222   1.473  10.633 -0.1162 -0.1801  0.4903
 7595SOL    HW134421   4.163   1.545  10.652 -0.8551 -0.6330 -0.0731
 7595SOL    HW234422   4.308   1.510  10.654 -0.8053  1.3275  0.5995
 7596SOL     OW34423   4.688   0.652   4.959  0.5757 -0.1546 -0.5430
 7596SOL    HW134424   4.635   0.608   5.026 -1.9329 -0.7891 -2.9316
 7596SOL    HW234425   4.629   0.722   4.929 -0.3949 -1.7354 -2.3350
 7597SOL     OW34426   3.631   2.088   7.391  0.1284 -0.2063  0.0858
 7597SOL    HW134427   3.690   2.115   7.321  0.3208 -1.8130 -0.3719
 7597SOL    HW234428   3.564   2.156   7.398  1.0943  0.8494 -0.8679
 7598SOL     OW34429   3.340   3.296   3.115  0.2433 -0.2700 -0.6156
 7598SOL    HW134430   3.364   3.246   3.193  2.0658 -0.8046 -1.5184
 7598SOL    HW234431   3.365   3.244   3.039  0.3134 -0.1291 -0.6906
 7599SOL     OW34432   2.420   0.187   5.724  0.4815 -0.2287  0.4323
 7599SOL    HW134433   2.486   0.173   5.656 -1.7516 -1.4516 -1.4901
 7599SOL    HW234434   2.347   0.223   5.674  1.8614  0.6916 -0.9070
 7600SOL     OW34435   2.395   2.914   1.703 -0.3777 -0.2752  0.4856
 7600SOL    HW134436   2.400   2.921   1.607 -0.2230  0.8315  0.5668
 7600SOL    HW234437   2.314   2.962   1.722  1.2530  2.3390  0.7861
 7601SOL     OW34438   1.293   0.253   6.433 -0.0080 -0.1468  0.1082
 7601SOL    HW134439   1.295   0.179   6.495  0.1112 -1.2453 -1.1968
 7601SOL    HW234440   1.309   0.326   6.492 -0.0608 -1.5647  1.8729
 7602SOL     OW34441   0.727   1.560   5.780  0.0117  0.3916  0.0413
 7602SOL    HW134442   0.634   1.558   5.759  0.1154  0.6184 -0.4516
 7602SOL    HW234443   0.729   1.570   5.875  1.9862  0.3919  0.0165
 7603SOL     OW34444   3.231   2.425  10.958 -0.2472 -0.4716  0.2281
 7603SOL    HW134445   3.226   2.420  10.863  1.5305  1.8884  0.0089
 7603SOL    HW234446   3.141   2.411  10.988  0.6126 -1.1714  2.4794
 7604SOL     OW34447   3.369   1.894   1.898 -0.9781  0.0345 -0.2406
 7604SOL    HW134448   3.328   1.977   1.925  0.1857  0.7099 -0.5499
 7604SOL    HW234449   3.395   1.864   1.985 -0.8804  0.9032  0.0338
 7605SOL     OW34450   2.342   0.349   2.565  0.1596 -0.3438  0.2592
 7605SOL    HW134451   2.389   0.329   2.646 -1.7759 -1.4996  1.1138
 7605SOL    HW234452   2.359   0.441   2.548 -3.4215  0.6583  2.1319
 7606SOL     OW34453   2.685   2.104   8.393  0.4437  0.1866  0.0504
 7606SOL    HW134454   2.674   2.182   8.338 -0.4882  0.3650  0.4951
 7606SOL    HW234455   2.595   2.078   8.413  0.3758 -0.1673 -0.7257
 7607SOL     OW34456   1.798   1.519   6.050 -0.0618 -0.6039  0.1031
 7607SOL    HW134457   1.753   1.594   6.088 -0.8858 -1.2189  0.3369
 7607SOL    HW234458   1.754   1.512   5.966  1.0627 -1.6245 -0.3896
 7608SOL     OW34459   2.047   2.472   5.899 -0.2919 -0.5930 -0.2461
 7608SOL    HW134460   2.043   2.552   5.951 -2.9811 -0.6252 -0.4189
 7608SOL    HW234461   1.967   2.426   5.924  0.7635 -2.8862 -1.0486
 7609SOL     OW34462   3.667   2.232  13.238  0.5599 -0.0051 -0.0574
 7609SOL    HW134463   3.658   2.151  13.188 -0.3819 -0.4003  0.7690
 7609SOL    HW234464   3.709   2.200  13.319  2.3779  2.0829 -0.1633
 7610SOL     OW34465   0.109   2.818   0.653  0.0475 -0.4076 -0.4702
 7610SOL    HW134466   0.124   2.724   0.643  1.3449 -0.2638  0.1472
 7610SOL    HW234467   0.183   2.850   0.601 -0.0303 -0.4660 -0.6186
 7611SOL     OW34468   3.935   3.993   3.929 -0.0221  0.1289 -0.6780
 7611SOL    HW134469   3.924   3.901   3.905  1.4841 -0.1026 -0.4641
 7611SOL    HW234470   3.878   3.996   4.006  1.4923 -1.1672  0.4988
 7612SOL     OW34471   0.576   1.656   2.142 -0.6426 -0.2494  0.0628
 7612SOL    HW134472   0.659   1.697   2.163 -0.7904 -0.0756  0.3078
 7612SOL    HW234473   0.518   1.703   2.203 -0.6517 -0.6861  0.3929
 7613SOL     OW34474   0.994   2.157  17.307  0.3139 -0.0358  0.1363
 7613SOL    HW134475   0.934   2.112  17.366  1.6530 -0.0757  1.4752
 7613SOL    HW234476   0.983   2.248  17.333  0.1064  0.0268 -0.1775
 7614SOL     OW34477   2.044   3.562   9.799 -0.0694 -0.3613  0.5439
 7614SOL    HW134478   2.135   3.575   9.825 -0.0015 -0.8386  0.5458
 7614SOL    HW234479   2.032   3.649   9.761  2.1518  0.1391  1.0170
 7615SOL     OW34480   1.456   4.124   9.622 -0.4334  0.0691 -0.2149
 7615SOL    HW134481   1.415   4.038   9.621  0.3090 -0.2825 -1.5933
 7615SOL    HW234482   1.536   4.101   9.573  0.4488  0.8109  0.8736
 7616SOL     OW34483   0.617   2.820   9.537  0.7622 -0.6518  0.1477
 7616SOL    HW134484   0.602   2.907   9.575 -0.6514 -1.2241  0.9028
 7616SOL    HW234485   0.672   2.842   9.462 -1.5000  1.7745 -0.8245
 7617SOL     OW34486   2.444   1.975   2.762 -0.2592  0.3432 -0.1545
 7617SOL    HW134487   2.386   2.013   2.696 -0.8727 -1.8979 -0.8944
 7617SOL    HW234488   2.390   1.998   2.838  0.3533  4.4533 -0.9562
 7618SOL     OW34489   3.690   1.052  12.403 -0.7686  0.3430 -0.7261
 7618SOL    HW134490   3.746   1.129  12.413 -2.3605  1.3216  0.7251
 7618SOL    HW234491   3.679   1.027  12.495 -0.3395 -0.3833 -0.8810
 7619SOL     OW34492   0.398   1.920   3.074  0.0439 -0.0655  0.3798
 7619SOL    HW134493   0.484   1.923   3.117  1.1178  0.0722 -1.7510
 7619SOL    HW234494   0.394   2.000   3.023 -2.0281 -0.4927 -0.1285
 7620SOL     OW34495   3.878   1.976  13.822 -0.0226  0.0905 -0.2572
 7620SOL    HW134496   3.827   2.057  13.828 -0.2207  0.0166 -0.9919
 7620SOL    HW234497   3.809   1.918  13.789  0.3388 -0.2835 -0.3500
 7621SOL     OW34498   4.633   3.688   4.677  0.2048  0.1550 -0.6580
 7621SOL    HW134499   4.583   3.703   4.758  1.4607  1.3909 -0.1213
 7621SOL    HW234500   4.594   3.604   4.655 -3.0407  1.1661  1.1526
 7622SOL     OW34501   0.693   1.217   5.653 -0.1426  0.8276  0.2987
 7622SOL    HW134502   0.701   1.225   5.558 -1.0857  1.0580  0.2447
 7622SOL    HW234503   0.599   1.218   5.665 -0.3561 -0.5172 -1.2435
 7623SOL     OW34504   2.445   2.950  14.254 -0.3760 -0.5693 -0.6873
 7623SOL    HW134505   2.538   2.928  14.246 -0.2529 -1.0866  2.0522
 7623SOL    HW234506   2.424   2.894  14.329 -1.3338  2.7606  1.5672
 7624SOL     OW34507   1.943   2.723  15.981 -0.2494  0.7786 -0.5418
 7624SOL    HW134508   1.862   2.764  15.951 -2.6596 -3.1086  0.6449
 7624SOL    HW234509   1.933   2.719  16.076  1.2827  1.2687 -0.3635
 7625SOL     OW34510   4.727   0.544   9.782  0.1963  0.2773 -0.8108
 7625SOL    HW134511   0.080   0.521   9.801 -0.6211 -4.0120 -2.0411
 7625SOL    HW234512   0.001   0.635   9.756 -2.7471  1.2496  1.1883
 7626SOL     OW34513   3.868   2.749  14.796 -0.0046 -0.2530 -0.3891
 7626SOL    HW134514   3.884   2.697  14.875 -0.2322  0.5638  0.1961
 7626SOL    HW234515   3.775   2.739  14.776  0.5454 -0.8129 -2.6030
 7627SOL     OW34516   1.275   1.317   2.768 -0.3689 -0.0519 -0.2755
 7627SOL    HW134517   1.215   1.329   2.841 -1.9401 -1.4611 -1.3341
 7627SOL    HW234518   1.248   1.231   2.736  1.5385 -0.5573 -0.5203
 7628SOL     OW34519   1.884   1.669   7.870 -0.0102  0.1775  0.2960
 7628SOL    HW134520   1.943   1.742   7.852  1.1865 -0.9084 -0.1826
 7628SOL    HW234521   1.950   1.600   7.877  1.9237  2.2497  2.4047
 7629SOL     OW34522   2.112   0.603   2.559 -0.3274  0.1899  0.0297
 7629SOL    HW134523   2.138   0.637   2.644 -1.7623 -0.9648  0.9126
 7629SOL    HW234524   2.139   0.676   2.503  2.1615 -1.5103 -1.0184
 7630SOL     OW34525   4.559   2.229   5.433 -0.1388  0.0764  0.1014
 7630SOL    HW134526   4.494   2.230   5.363 -0.3280 -0.3095  0.2681
 7630SOL    HW234527   4.502   2.204   5.507  1.3387 -1.8455  0.6025
 7631SOL     OW34528   4.498   0.845   0.069  0.1543  0.4246  0.0157
 7631SOL    HW134529   4.530   0.845   0.159 -1.2442 -0.3400  0.5210
 7631SOL    HW234530   4.505   0.753   0.042 -0.8302  0.0439  1.0552
 7632SOL     OW34531   1.695   4.043  15.050 -0.1207  1.0093 -0.3319
 7632SOL    HW134532   1.773   4.087  15.084 -0.7140  2.1464 -0.4621
 7632SOL    HW234533   1.633   4.107  15.015 -3.5322 -1.1836  1.7127
 7633SOL     OW34534   1.804   4.649  11.164 -0.3453  0.1249  0.0266
 7633SOL    HW134535   1.789   4.559  11.134  2.9317 -0.2988 -0.3752
 7633SOL    HW234536   1.864   4.681  11.096  1.5185  0.2038  1.6894
 7634SOL     OW34537   1.793   4.551   5.114 -0.9641 -0.0023 -0.2686
 7634SOL    HW134538   1.766   4.473   5.066 -0.2873 -1.1289  1.2163
 7634SOL    HW234539   1.805   4.619   5.047  0.8006  0.9504  1.0398
 7635SOL     OW34540   4.428   1.828   4.981  0.3220  0.2506  0.5384
 7635SOL    HW134541   4.519   1.846   4.957  0.4021  0.7056  1.2147
 7635SOL    HW234542   4.439   1.786   5.066  1.4527  3.4358  1.9407
 7636SOL     OW34543   4.040   2.945   2.498 -0.1802 -0.3530  0.0771
 7636SOL    HW134544   4.050   2.946   2.403 -4.2088  0.6602 -0.3599
 7636SOL    HW234545   4.099   2.873   2.519 -0.4132 -0.7869 -0.7360
 7637SOL     OW34546   3.551   3.387   4.222  0.2152 -0.6237  0.0490
 7637SOL    HW134547   3.612   3.372   4.150  0.7146  1.1704  0.0975
 7637SOL    HW234548   3.468   3.380   4.176  0.5908 -0.6783 -0.6153
 7638SOL     OW34549   0.919   0.546   9.432  0.3934  1.0766  0.1854
 7638SOL    HW134550   0.996   0.490   9.427 -1.1423 -0.9412 -1.0743
 7638SOL    HW234551   0.863   0.506   9.365  0.3126 -0.8944  1.4420
 7639SOL     OW34552   2.378   1.737   0.570  0.0451 -0.2214  0.7208
 7639SOL    HW134553   2.463   1.773   0.545  0.3809 -1.4588  0.0404
 7639SOL    HW234554   2.391   1.658   0.517 -2.6820  1.1845 -2.0923
 7640SOL     OW34555   3.143   0.977   6.521  0.1635 -0.0137 -0.2999
 7640SOL    HW134556   3.075   0.946   6.462 -0.2716  1.0324 -0.3291
 7640SOL    HW234557   3.187   0.893   6.538  1.1917  0.5039 -0.3818
 7641SOL     OW34558   1.405   3.512  16.936 -0.3257 -0.5839  0.1138
 7641SOL    HW134559   1.465   3.465  16.994  0.7074  1.2461  0.5130
 7641SOL    HW234560   1.345   3.445  16.902  0.8819 -0.8466 -1.5277
 7642SOL     OW34561   2.297   1.045   1.538  0.1114 -0.2343 -0.1462
 7642SOL    HW134562   2.314   0.951   1.548 -0.0711 -0.3938 -1.3467
 7642SOL    HW234563   2.207   1.044   1.508 -0.9287 -4.1678  3.0601
 7643SOL     OW34564   2.742   0.835   2.117  0.0228 -0.5310  0.3966
 7643SOL    HW134565   2.755   0.743   2.140 -0.6150 -0.6803  0.1348
 7643SOL    HW234566   2.813   0.839   2.052  0.0394 -2.2138  0.2933
 7644SOL     OW34567   0.215   0.629   5.128  0.2867 -0.4696 -0.3857
 7644SOL    HW134568   0.202   0.716   5.090  0.2727 -0.2007  0.2428
 7644SOL    HW234569   0.216   0.572   5.051  0.9288 -0.9248 -0.0394
 7645SOL     OW34570   1.975   2.188   7.163 -0.8026 -0.1025 -0.4354
 7645SOL    HW134571   2.068   2.212   7.169 -1.0506  0.6054  0.4714
 7645SOL    HW234572   1.987   2.097   7.190 -2.7742 -0.5646 -1.1551
 7646SOL     OW34573   3.415   2.577   9.689 -0.6091  0.2991  0.3048
 7646SOL    HW134574   3.362   2.599   9.612 -0.7680 -2.9922 -0.5234
 7646SOL    HW234575   3.363   2.616   9.759 -0.2761  1.8523 -0.3137
 7647SOL     OW34576   4.686   2.661   7.794  0.0666 -0.3302  0.4494
 7647SOL    HW134577   4.711   2.626   7.708  0.9326  2.1022 -0.2880
 7647SOL    HW234578   0.031   2.647   7.838  1.1472  0.7558 -1.2582
 7648SOL     OW34579   1.394   1.630   9.358  0.0114  0.1858 -0.0516
 7648SOL    HW134580   1.333   1.697   9.326  0.7336  0.4588 -0.8704
 7648SOL    HW234581   1.474   1.639   9.306  1.6743  1.7574  2.7914
 7649SOL     OW34582   0.456   0.519  10.413  0.8717  0.4018  0.2945
 7649SOL    HW134583   0.436   0.605  10.376 -1.6407  0.1793  1.1594
 7649SOL    HW234584   0.416   0.519  10.500 -0.5147  1.0850 -0.3334
 7650SOL     OW34585   2.108   3.074   5.794 -0.4833 -0.0810 -0.5867
 7650SOL    HW134586   2.079   3.007   5.732 -2.0600  0.0094  0.0578
 7650SOL    HW234587   2.175   3.119   5.742  0.9023 -1.1690  0.2524
 7651SOL     OW34588   1.380   1.720   5.104 -0.2035  0.9504  0.0554
 7651SOL    HW134589   1.419   1.797   5.145  1.9612  0.0816 -0.3921
 7651SOL    HW234590   1.343   1.750   5.021 -2.2102  2.0919  1.3704
 7652SOL     OW34591   2.274   2.388   9.751  0.3956 -0.4692  0.1801
 7652SOL    HW134592   2.262   2.463   9.692 -2.9513  0.3137  1.8180
 7652SOL    HW234593   2.240   2.421   9.834 -0.2356  1.8531 -0.9956
 7653SOL     OW34594   3.501   4.665   2.334 -0.3767 -0.1431  0.0453
 7653SOL    HW134595   3.561   4.706   2.396 -0.2383  0.3955 -0.4375
 7653SOL    HW234596   3.414   4.700   2.351 -1.1945 -3.5046  2.9618
 7654SOL     OW34597   2.399   4.666   6.838  0.8859  0.0356 -0.5195
 7654SOL    HW134598   2.355   4.597   6.888  0.5685  0.1790 -0.6010
 7654SOL    HW234599   2.427   4.624   6.757  0.9978  0.8632 -0.9097
 7655SOL     OW34600   0.970   3.174   2.457  0.4537 -0.2896  0.0428
 7655SOL    HW134601   0.901   3.155   2.393 -0.5378 -0.5273  1.1920
 7655SOL    HW234602   1.028   3.230   2.405 -1.3855  0.7739 -0.8379
 7656SOL     OW34603   2.082   0.686   8.190 -0.2609 -0.3577 -0.4060
 7656SOL    HW134604   2.005   0.739   8.210 -1.4093 -1.4222 -1.9900
 7656SOL    HW234605   2.140   0.714   8.260  0.8155 -1.6340 -0.7999
 7657SOL     OW34606   1.753   0.333   3.479  0.6173  0.0280  0.0092
 7657SOL    HW134607   1.764   0.322   3.574  1.5965 -0.8658 -0.2169
 7657SOL    HW234608   1.785   0.254   3.436 -2.8032  0.2883 -2.9972
 7658SOL     OW34609   2.602   1.807   7.911  0.1910  0.0415 -0.6247
 7658SOL    HW134610   2.569   1.805   7.821 -0.1794 -0.1372 -0.4884
 7658SOL    HW234611   2.641   1.720   7.913 -2.0846 -0.9466  1.1539
 7659SOL     OW34612   4.288   2.887   7.422 -0.6309  0.1598 -0.2340
 7659SOL    HW134613   4.367   2.845   7.456 -0.2791  0.2608 -0.9352
 7659SOL    HW234614   4.318   2.950   7.357  3.7089 -0.5627  1.0773
 7660SOL     OW34615   1.104   2.231   3.121  0.0697  0.1456  0.2592
 7660SOL    HW134616   1.166   2.298   3.091  0.5906 -0.4479  0.0005
 7660SOL    HW234617   1.085   2.263   3.209  0.7251 -2.8851  1.4934
 7661SOL     OW34618   3.973   3.639   7.063 -0.5476  0.1333 -0.4727
 7661SOL    HW134619   4.036   3.712   7.058 -0.6496  0.3962  2.0188
 7661SOL    HW234620   3.902   3.692   7.101  2.3035  3.6014  0.0800
 7662SOL     OW34621   3.410   1.908   5.971 -0.5749  0.8111 -0.3979
 7662SOL    HW134622   3.338   1.876   5.918  0.2226 -1.1456 -0.2937
 7662SOL    HW234623   3.365   1.957   6.040 -0.7419  0.6628 -0.4037
 7663SOL     OW34624   4.353   3.298   5.708  0.1298 -0.3489  0.1212
 7663SOL    HW134625   4.331   3.233   5.640 -0.7798 -1.6690  1.6662
 7663SOL    HW234626   4.421   3.344   5.659  1.0433 -0.8694  0.9090
 7664SOL     OW34627   0.664   1.629   3.997  0.0749  0.3054 -0.1917
 7664SOL    HW134628   0.674   1.624   4.092 -1.2786 -1.2627 -0.1222
 7664SOL    HW234629   0.574   1.596   3.986  0.7395 -1.9109  1.0066
 7665SOL     OW34630   4.168   1.296   1.000 -0.0505 -0.1432 -0.0332
 7665SOL    HW134631   4.198   1.264   0.914  0.6467 -3.4742  1.4517
 7665SOL    HW234632   4.170   1.386   0.968  1.1963 -0.2244 -0.1726
 7666SOL     OW34633   0.492   1.562  14.641  0.3600 -0.0349 -0.1118
 7666SOL    HW134634   0.551   1.621  14.595 -3.0744  1.7170 -2.1726
 7666SOL    HW234635   0.415   1.552  14.586  0.2667 -0.1620  0.0392
 7667SOL     OW34636   1.707   0.756   9.120 -0.1313  0.0074 -0.7588
 7667SOL    HW134637   1.630   0.796   9.160  0.0999  2.2850 -2.5700
 7667SOL    HW234638   1.775   0.778   9.183  0.0150 -1.1748 -0.5160
 7668SOL     OW34639   0.753   4.704   7.362  0.2756  0.3114  0.0528
 7668SOL    HW134640   0.662   4.692   7.387  0.4434 -3.0756 -1.0290
 7668SOL    HW234641   0.767   0.052   7.402 -0.3780 -0.4839  1.9950
 7669SOL     OW34642   1.363   2.023   7.695 -0.2764 -0.4296  0.0919
 7669SOL    HW134643   1.396   2.045   7.608  1.8611 -0.1390  0.9688
 7669SOL    HW234644   1.292   2.086   7.707 -1.1053 -1.1917 -0.7991
 7670SOL     OW34645   0.346   0.391   5.225  0.0312  0.0397  0.7360
 7670SOL    HW134646   0.322   0.484   5.233 -0.6385  0.0695 -1.5234
 7670SOL    HW234647   0.312   0.387   5.136 -0.0967  0.2134  0.7755
 7671SOL     OW34648   2.132   0.607   7.090 -0.0880 -0.6080  0.9217
 7671SOL    HW134649   2.127   0.518   7.057  0.0128 -0.3332  0.1616
 7671SOL    HW234650   2.052   0.651   7.061  0.9937  0.1218 -0.9246
 7672SOL     OW34651   1.166   3.275   6.658  0.0976  0.1277  0.1245
 7672SOL    HW134652   1.134   3.198   6.610  1.8124 -0.6679  0.2414
 7672SOL    HW234653   1.260   3.254   6.663  0.4088  1.2036 -1.2337
 7673SOL     OW34654   4.289   0.572   1.489  0.1904 -0.6460  0.2041
 7673SOL    HW134655   4.248   0.553   1.573 -0.0499  4.6996  1.2666
 7673SOL    HW234656   4.243   0.654   1.471  2.0115  0.3065 -0.1006
 7674SOL     OW34657   4.449   2.557  15.545  0.3795  0.0975  0.1601
 7674SOL    HW134658   4.371   2.611  15.529  0.3452 -0.8313 -2.7975
 7674SOL    HW234659   4.423   2.481  15.494 -0.4480 -0.1070  0.8787
 7675SOL     OW34660   1.546   0.767   6.995  0.0493 -0.6008  0.3274
 7675SOL    HW134661   1.601   0.805   7.063 -1.4406  3.3723 -0.6691
 7675SOL    HW234662   1.480   0.834   6.974  0.0952 -0.3290  1.0657
 7676SOL     OW34663   2.195   4.223  12.867  0.1625 -0.0115 -0.2821
 7676SOL    HW134664   2.287   4.218  12.894  0.2263 -1.7457 -0.8385
 7676SOL    HW234665   2.200   4.315  12.839  0.9709 -0.5136 -1.7689
 7677SOL     OW34666   1.219   0.171   4.298 -0.3028  0.4857  0.6357
 7677SOL    HW134667   1.313   0.182   4.282 -0.4883  1.4496  0.2519
 7677SOL    HW234668   1.201   0.263   4.318 -1.6748  0.1949  0.7546
 7678SOL     OW34669   4.290   4.361   3.567 -0.0814 -0.1157  0.3782
 7678SOL    HW134670   4.217   4.414   3.536  1.7472  2.2350  0.0719
 7678SOL    HW234671   4.255   4.333   3.651 -1.0901  2.0325  0.6670
 7679SOL     OW34672   0.495   4.732   6.528  0.1201 -0.0885  0.0894
 7679SOL    HW134673   0.586   4.735   6.557  0.3377  2.9950 -0.9493
 7679SOL    HW234674   0.453   0.066   6.574  0.1526 -0.1662  0.2400
 7680SOL     OW34675   4.505   3.424   4.648  0.4992 -0.5028  0.3399
 7680SOL    HW134676   4.482   3.414   4.556  2.2823  0.5585 -0.2223
 7680SOL    HW234677   4.585   3.372   4.652 -0.3218 -1.7179  0.9603
 7681SOL     OW34678   3.818   4.154   1.809  0.4448  0.0441  0.2326
 7681SOL    HW134679   3.826   4.098   1.732 -0.1544 -2.4109  1.9671
 7681SOL    HW234680   3.729   4.187   1.815  0.0998 -0.4536 -2.5285
 7682SOL     OW34681   3.008   4.252   4.514 -0.6417  0.0944 -0.2073
 7682SOL    HW134682   2.984   4.208   4.596 -0.4301 -0.9348 -0.6911
 7682SOL    HW234683   3.060   4.189   4.464 -0.3327  1.3733 -1.4680
 7683SOL     OW34684   3.773   4.160   7.638 -0.2433  0.3089  0.4956
 7683SOL    HW134685   3.836   4.217   7.593 -1.8757  1.7874  0.1051
 7683SOL    HW234686   3.688   4.183   7.599  0.5183 -0.8865 -1.9063
 7684SOL     OW34687   4.008   2.250  11.824 -0.5990 -0.2070  0.6795
 7684SOL    HW134688   3.986   2.277  11.734 -0.8056 -0.4999  0.6413
 7684SOL    HW234689   4.088   2.199  11.810  0.6534  1.1110  3.0722
 7685SOL     OW34690   2.157   1.776   3.623  0.1914  0.5645 -0.3254
 7685SOL    HW134691   2.098   1.710   3.587  1.2102  0.2778 -1.4798
 7685SOL    HW234692   2.128   1.842   3.560  2.3154  0.7612 -1.0877
 7686SOL     OW34693   0.284   2.273  11.832  0.1348 -0.0076  0.6488
 7686SOL    HW134694   0.350   2.342  11.840 -0.9083  1.1315 -0.4827
 7686SOL    HW234695   0.222   2.303  11.899 -0.9319 -0.2513 -0.2105
 7687SOL     OW34696   4.697   0.536   9.012 -0.0837 -0.7048 -0.4893
 7687SOL    HW134697   0.054   0.545   9.016 -0.0292 -0.8934 -1.3855
 7687SOL    HW234698   4.678   0.503   9.100 -1.4922  2.3355  0.3444
 7688SOL     OW34699   3.967   1.989  14.851  0.3703 -0.3779 -0.1762
 7688SOL    HW134700   4.037   1.987  14.917  0.1025  2.4780  0.1741
 7688SOL    HW234701   4.029   1.980  14.779  0.4572  1.3875 -0.3298
 7689SOL     OW34702   4.229   0.771  12.626  0.2016 -0.8200 -0.4728
 7689SOL    HW134703   4.261   0.701  12.683  1.5908  1.0144  1.0059
 7689SOL    HW234704   4.134   0.766  12.635 -0.0490 -2.5163 -3.9465
 7690SOL     OW34705   1.122   0.417   3.312  0.4219 -0.1834 -0.0176
 7690SOL    HW134706   1.065   0.343   3.290  0.8111 -0.4831 -0.0188
 7690SOL    HW234707   1.076   0.467   3.380 -0.3500  2.0621 -2.1709
 7691SOL     OW34708   4.020   0.944   0.399  0.2113 -0.1597  0.0590
 7691SOL    HW134709   4.076   1.015   0.369 -0.5812  0.4943  0.1593
 7691SOL    HW234710   3.940   0.975   0.359  0.8391 -0.2400 -1.2483
 7692SOL     OW34711   4.183   2.362   8.335 -0.0828 -0.5003  0.1507
 7692SOL    HW134712   4.263   2.343   8.385 -0.3916  0.1832  0.9023
 7692SOL    HW234713   4.226   2.401   8.258  0.7376 -1.7364 -0.0225
 7693SOL     OW34714   4.561   4.363  14.658  0.1500  0.2451  0.9220
 7693SOL    HW134715   4.572   4.336  14.567 -0.7494 -0.3981  1.0026
 7693SOL    HW234716   4.532   4.287  14.709  1.5889 -0.4457  0.7193
 7694SOL     OW34717   0.662   4.332   9.205 -0.1580 -0.6208  0.2168
 7694SOL    HW134718   0.698   4.362   9.121  0.8605 -2.1870  0.0783
 7694SOL    HW234719   0.637   4.410   9.253  0.5600 -1.3384  1.7569
 7695SOL     OW34720   2.361   3.084   6.832 -0.1149 -0.1481  0.1412
 7695SOL    HW134721   2.364   3.052   6.922  1.7113  1.5063  0.6825
 7695SOL    HW234722   2.289   3.147   6.839 -0.5762 -0.8823  1.9135
 7696SOL     OW34723   0.032   4.101   3.626  0.2601  0.1656 -0.0222
 7696SOL    HW134724   4.729   4.183   3.656  0.3171 -1.0282  3.3302
 7696SOL    HW234725   0.016   4.042   3.700  0.2431  0.3792  0.1478
 7697SOL     OW34726   4.661   4.542  11.507 -0.6114 -0.1568  0.0711
 7697SOL    HW134727   4.698   4.605  11.446 -0.9808 -0.8861 -0.9082
 7697SOL    HW234728   4.604   4.486  11.455 -0.3893 -2.0951  1.9204
 7698SOL     OW34729   4.525   3.919   3.560 -0.0672  0.1601 -0.5013
 7698SOL    HW134730   4.604   3.894   3.511  0.7725 -1.0630  1.5104
 7698SOL    HW234731   4.561   3.992   3.611  1.5551 -0.6684 -0.4466
 7699SOL     OW34732   1.597   3.014  16.262 -0.2513 -0.4686  0.5931
 7699SOL    HW134733   1.541   3.061  16.200  1.5788 -1.3250 -1.7266
 7699SOL    HW234734   1.576   3.057  16.344 -2.1323  0.8483 -0.5863
 7700SOL     OW34735   0.137   4.511   5.802 -0.8218  0.2540  0.2238
 7700SOL    HW134736   0.231   4.503   5.813 -0.9589 -0.8757  0.5620
 7700SOL    HW234737   0.125   4.439   5.740 -0.9453  0.7660 -0.3501
 7701SOL     OW34738   3.999   2.185   5.815  0.0651  0.5762 -0.6373
 7701SOL    HW134739   4.048   2.197   5.733  1.3726  1.6884  0.3147
 7701SOL    HW234740   3.944   2.263   5.823 -1.4376 -0.3866 -1.6498
 7702SOL     OW34741   0.054   1.608   5.820  0.3563 -0.2125  0.0175
 7702SOL    HW134742   0.026   1.647   5.903 -0.9608 -0.0484 -0.5097
 7702SOL    HW234743   4.726   1.650   5.765 -0.3603  0.1545  1.1297
 7703SOL     OW34744   4.071   0.611   5.691 -0.2672  0.2611  0.0108
 7703SOL    HW134745   4.119   0.538   5.730 -1.0760  0.2178  0.9401
 7703SOL    HW234746   4.108   0.608   5.603 -0.4953 -0.5771 -0.0643
 7704SOL     OW34747   2.893   2.867  15.546 -0.0075 -0.9910 -0.6919
 7704SOL    HW134748   2.970   2.865  15.604  1.7248 -0.5704 -3.0083
 7704SOL    HW234749   2.883   2.775  15.521  0.2542 -1.0070 -0.7370
 7705SOL     OW34750   1.469   4.561   2.615 -0.3533 -0.5828  0.9310
 7705SOL    HW134751   1.538   4.494   2.612 -0.4068 -0.4861 -1.7245
 7705SOL    HW234752   1.496   4.624   2.549 -3.2253  2.0425  2.2610
 7706SOL     OW34753   3.860   0.110   8.012 -0.5780 -0.2546  0.2544
 7706SOL    HW134754   3.891   0.184   7.960 -1.9308 -0.4684 -0.8393
 7706SOL    HW234755   3.798   0.071   7.950  0.7428  1.3290 -2.0560
 7707SOL     OW34756   1.432   1.317   8.407 -0.0266 -0.2992 -0.7771
 7707SOL    HW134757   1.507   1.263   8.429  0.6569  0.5015 -1.1531
 7707SOL    HW234758   1.484   1.396   8.393 -1.3286  0.6985  0.0475
 7708SOL     OW34759   3.566   4.336   3.077 -0.1015 -0.0881 -0.3809
 7708SOL    HW134760   3.480   4.341   3.036  0.3214  1.3051 -1.0760
 7708SOL    HW234761   3.548   4.397   3.148  0.4346 -0.3792  0.0092
 7709SOL     OW34762   0.154   1.161   2.827  0.3974 -0.3124  0.1520
 7709SOL    HW134763   0.213   1.187   2.756  0.5967  0.8575  0.7380
 7709SOL    HW234764   0.098   1.238   2.832  1.6825  0.6549 -0.4801
 7710SOL     OW34765   4.400   2.463   6.426 -0.3058 -0.1544 -0.4916
 7710SOL    HW134766   4.456   2.431   6.356 -0.6542 -0.8069 -0.4806
 7710SOL    HW234767   4.432   2.550   6.447 -0.6290 -0.0576 -0.3909
 7711SOL     OW34768   3.068   2.742  11.549 -0.2164  0.5414  0.3144
 7711SOL    HW134769   2.985   2.774  11.513  0.8968  0.4091 -2.3310
 7711SOL    HW234770   3.130   2.782  11.489  1.1070  0.4784  1.6490
 7712SOL     OW34771   4.693   3.102  10.752 -0.4957 -0.4841 -0.2305
 7712SOL    HW134772   4.623   3.070  10.695  0.9548 -1.2603 -1.5731
 7712SOL    HW234773   0.029   3.114  10.692 -0.3324  2.6092  0.5746
 7713SOL     OW34774   1.890   4.392   3.864 -0.4617 -0.0369  0.1772
 7713SOL    HW134775   1.972   4.344   3.857 -0.4479  0.1394 -0.8433
 7713SOL    HW234776   1.847   4.349   3.790  0.7864 -1.9437  0.5510
 7714SOL     OW34777   3.742   3.663   4.057  0.1232  0.2000  0.2761
 7714SOL    HW134778   3.667   3.715   4.087 -0.3622 -0.1186 -0.3972
 7714SOL    HW234779   3.809   3.693   4.119  1.4844 -0.9994 -0.6372
 7715SOL     OW34780   2.216   2.171   3.139  0.4520 -0.0901  0.2675
 7715SOL    HW134781   2.253   2.246   3.094  0.1647 -0.4248 -0.5207
 7715SOL    HW234782   2.132   2.217   3.143  1.6088  2.0201 -0.0063
 7716SOL     OW34783   1.157   0.886   0.299  0.2331 -0.3885 -0.3789
 7716SOL    HW134784   1.170   0.806   0.249  2.1513 -1.5898  2.0115
 7716SOL    HW234785   1.068   0.912   0.278  0.3716  0.7005  0.3668
 7717SOL     OW34786   3.871   3.202   0.266 -0.4112  0.4137  0.3714
 7717SOL    HW134787   3.927   3.167   0.335 -1.9437  0.4059  1.6179
 7717SOL    HW234788   3.841   3.119   0.229 -0.1329  0.5645 -0.1979
 7718SOL     OW34789   3.099   0.089   3.775 -0.4208 -0.3055 -0.1216
 7718SOL    HW134790   3.179   0.038   3.789 -0.8282 -0.4016  1.8621
 7718SOL    HW234791   3.143   0.162   3.731  1.0540 -0.9062  0.3664
 7719SOL     OW34792   1.635   3.323   9.956 -0.0810  0.3590  0.1011
 7719SOL    HW134793   1.641   3.403   9.903 -2.2268  0.7382  0.4416
 7719SOL    HW234794   1.547   3.339   9.988 -0.4802 -0.0479 -0.8086
 7720SOL     OW34795   3.459   1.632   3.622 -0.2794  0.1002 -0.5970
 7720SOL    HW134796   3.531   1.610   3.681 -1.1759 -1.5208 -0.1090
 7720SOL    HW234797   3.396   1.564   3.646  0.5491 -1.0342 -1.6396
 7721SOL     OW34798   2.813   1.225   2.205  0.5395 -0.2068 -0.1667
 7721SOL    HW134799   2.821   1.162   2.277 -0.5549  0.3598  0.4373
 7721SOL    HW234800   2.723   1.248   2.228  0.7311 -0.7655  1.1697
 7722SOL     OW34801   3.012   3.657   7.930 -0.2459  0.0275 -0.3936
 7722SOL    HW134802   3.091   3.612   7.898 -0.3581 -0.9252  0.6507
 7722SOL    HW234803   2.953   3.583   7.918 -1.3520  0.3043  3.3733
 7723SOL     OW34804   2.515   4.201  13.776  0.6699  0.1639  0.3142
 7723SOL    HW134805   2.549   4.286  13.803  1.5649 -0.0795 -0.0351
 7723SOL    HW234806   2.463   4.233  13.702  0.6623  1.6971  0.9989
 7724SOL     OW34807   2.117   1.792   8.061 -0.0306 -0.1531 -0.4291
 7724SOL    HW134808   2.101   1.816   7.970 -1.5971  1.5068  0.2694
 7724SOL    HW234809   2.171   1.864   8.093  1.0194 -1.1257 -0.0442
 7725SOL     OW34810   2.019   2.268   4.121  0.4770  0.5038 -0.3395
 7725SOL    HW134811   2.110   2.295   4.136  0.7049 -0.9947  1.0285
 7725SOL    HW234812   1.999   2.218   4.200 -1.0420 -0.7131 -1.4864
 7726SOL     OW34813   3.043   1.226   2.086  0.4222  0.2543  0.1319
 7726SOL    HW134814   2.951   1.204   2.103  0.0026  0.5450 -1.7267
 7726SOL    HW234815   3.055   1.304   2.141 -0.2539  0.9041 -0.6381
 7727SOL     OW34816   1.435   0.405   5.259 -0.0103  0.0809  0.0643
 7727SOL    HW134817   1.461   0.496   5.268 -1.6850  0.5355  0.2827
 7727SOL    HW234818   1.350   0.399   5.303 -0.7646 -2.9632 -1.8344
 7728SOL     OW34819   1.567   2.852   6.199  0.1185 -0.0263 -0.2902
 7728SOL    HW134820   1.646   2.801   6.183  0.6641  0.5119  0.6538
 7728SOL    HW234821   1.524   2.846   6.114  2.9310  0.6783 -1.7283
 7729SOL     OW34822   1.999   1.860   3.076 -0.0498  0.5075 -0.2276
 7729SOL    HW134823   1.958   1.773   3.072  1.1431 -0.1103  1.1763
 7729SOL    HW234824   1.962   1.892   3.157  0.7803  0.3468  0.2164
 7730SOL     OW34825   2.858   4.551   7.768 -0.1881  0.2709 -0.2934
 7730SOL    HW134826   2.792   4.491   7.802  1.3022 -1.0025  0.3363
 7730SOL    HW234827   2.874   4.520   7.679  0.0548  0.7679 -0.4252
 7731SOL     OW34828   4.431   2.771   6.194  0.3538 -0.7625  0.0602
 7731SOL    HW134829   4.356   2.806   6.146  0.6845  0.0338  0.1134
 7731SOL    HW234830   4.423   2.777   6.289  3.1506 -3.8659  0.5093
 7732SOL     OW34831   4.197   2.152  10.126 -0.1656  0.4043  0.5229
 7732SOL    HW134832   4.292   2.163  10.135 -0.3694  0.0381  3.0487
 7732SOL    HW234833   4.196   2.057  10.137 -0.1408  0.4385  0.8211
 7733SOL     OW34834   0.051   1.795   3.778  0.0182  0.1364  0.0166
 7733SOL    HW134835   0.009   1.880   3.783 -1.4418 -0.5976  0.1728
 7733SOL    HW234836   0.140   1.808   3.812  0.8630 -0.3855 -1.9655
 7734SOL     OW34837   2.256   3.182  10.891 -0.0653 -0.2076  0.1112
 7734SOL    HW134838   2.313   3.105  10.892 -0.8109 -0.7752 -0.5876
 7734SOL    HW234839   2.169   3.149  10.911  0.3680 -0.4176  1.6595
 7735SOL     OW34840   0.076   2.681   7.071 -0.0996  0.2249 -0.2433
 7735SOL    HW134841   0.061   2.617   7.140 -0.2199  1.6996  1.1145
 7735SOL    HW234842   4.726   2.690   7.034 -0.6410  0.4920  1.0960
 7736SOL     OW34843   4.078   0.684   7.922  1.1551 -0.0588 -0.5597
 7736SOL    HW134844   4.006   0.724   7.874 -0.9696 -0.9508  1.8800
 7736SOL    HW234845   4.143   0.666   7.855 -0.4583 -0.3105 -2.0600
 7737SOL     OW34846   3.929   3.037  13.894 -0.6266 -0.4985  0.3887
 7737SOL    HW134847   3.906   2.945  13.903 -0.4284 -0.5260  0.6042
 7737SOL    HW234848   3.950   3.038  13.801 -1.0841  0.3795  0.2897
 7738SOL     OW34849   2.617   0.100  10.449  0.5572 -0.3872  0.3848
 7738SOL    HW134850   2.613   0.044  10.372  1.7139 -1.3961  1.0492
 7738SOL    HW234851   2.523   0.095  10.466  0.1777 -0.7181 -1.7847
 7739SOL     OW34852   3.914   3.624  16.211 -0.1558  0.4420 -0.2015
 7739SOL    HW134853   3.930   3.716  16.189 -1.7706  0.5053 -1.1322
 7739SOL    HW234854   3.845   3.630  16.278 -1.0836  0.8766 -1.1969
 7740SOL     OW34855   4.285   2.934   6.436  0.6364 -0.3071  0.3049
 7740SOL    HW134856   4.377   2.909   6.443  0.9003  0.5762 -0.1217
 7740SOL    HW234857   4.252   2.855   6.480 -0.3711 -0.5674 -0.9412
 7741SOL     OW34858   2.047   3.510   1.930 -0.3877  0.3349 -0.1735
 7741SOL    HW134859   2.114   3.549   1.986  0.0461 -1.0358  0.2530
 7741SOL    HW234860   2.102   3.458   1.871  1.5349  2.0372  0.1067
 7742SOL     OW34861   0.065   0.922   7.733  0.4003 -0.3961  0.4956
 7742SOL    HW134862   0.145   0.957   7.695 -1.3369  4.4773  1.3426
 7742SOL    HW234863   4.736   0.990   7.733  1.4715  0.6590  4.9826
 7743SOL     OW34864   2.251   0.769   1.585 -0.2756  0.6269 -0.1765
 7743SOL    HW134865   2.328   0.717   1.561 -0.1025  0.3701  0.9370
 7743SOL    HW234866   2.181   0.707   1.568  2.1164 -1.3893 -2.6468
 7744SOL     OW34867   4.505   2.512   4.774  0.0159 -0.3191 -0.5334
 7744SOL    HW134868   4.538   2.443   4.715 -1.8879 -1.4048 -0.3207
 7744SOL    HW234869   4.535   2.470   4.855 -0.5692 -2.0012 -1.1885
 7745SOL     OW34870   1.015   4.734   9.897  0.3350 -0.1034 -0.0983
 7745SOL    HW134871   1.067   4.659   9.927  1.6511  1.3100  1.2018
 7745SOL    HW234872   0.934   4.704   9.857  0.1608 -0.8123  0.7705
 7746SOL     OW34873   4.364   3.153   5.482  0.2007  0.9022 -0.2587
 7746SOL    HW134874   4.339   3.126   5.394 -0.9293  1.8085 -0.2201
 7746SOL    HW234875   4.432   3.092   5.510 -1.2223 -1.2731 -1.5811
 7747SOL     OW34876   1.534   2.599  15.174 -0.1142  0.6308  0.3678
 7747SOL    HW134877   1.525   2.647  15.092  0.9305 -0.6312 -0.4789
 7747SOL    HW234878   1.457   2.542  15.177 -0.8814  1.5132 -2.5250
 7748SOL     OW34879   0.172   2.373   2.909 -0.6719  0.7883  0.1510
 7748SOL    HW134880   0.166   2.467   2.892  2.4954  1.1380  1.0337
 7748SOL    HW234881   0.263   2.360   2.885 -0.2305  1.3515  1.5324
 7749SOL     OW34882   0.588   2.164  13.792  0.1982 -0.4400  0.1520
 7749SOL    HW134883   0.523   2.181  13.860  0.8320 -0.4947  0.7784
 7749SOL    HW234884   0.626   2.084  13.829  2.4230  0.5263 -0.0397
 7750SOL     OW34885   0.589   1.550  16.326 -0.4404  0.6208  0.2744
 7750SOL    HW134886   0.613   1.482  16.389 -1.5633  1.2132  1.3294
 7750SOL    HW234887   0.501   1.522  16.303 -0.2830 -0.5852  1.1264
 7751SOL     OW34888   2.729   2.206   2.764 -0.1599 -0.0134 -0.9294
 7751SOL    HW134889   2.638   2.235   2.755 -0.9444 -2.0100  0.6650
 7751SOL    HW234890   2.726   2.121   2.720  0.4902 -0.3012 -0.4005
 7752SOL     OW34891   2.926   2.714  13.699 -0.3122 -0.3029  0.0658
 7752SOL    HW134892   2.940   2.780  13.631 -0.8917  1.3361  1.5451
 7752SOL    HW234893   2.832   2.695  13.696 -0.7371  1.5908  1.5344
 7753SOL     OW34894   0.466   4.519  10.590 -0.2540  0.7794  0.2620
 7753SOL    HW134895   0.513   4.569  10.657 -1.2691 -0.2210  1.7018
 7753SOL    HW234896   0.498   4.432  10.613  2.4852  2.8254  4.1291
 7754SOL     OW34897   3.134   2.460   0.164 -0.1693 -0.1930 -0.1293
 7754SOL    HW134898   3.047   2.452   0.203 -0.2223  0.8829 -0.0456
 7754SOL    HW234899   3.162   2.522   0.231 -0.6029  1.0811 -1.1170
 7755SOL     OW34900   2.115   3.355   7.652 -0.3198 -0.6891  0.0719
 7755SOL    HW134901   2.164   3.353   7.570  1.1659  2.9623  0.8609
 7755SOL    HW234902   2.031   3.326   7.615  0.7305 -0.5110 -2.4312
 7756SOL     OW34903   2.410   1.796   9.107  0.0605 -0.4069  0.0894
 7756SOL    HW134904   2.442   1.732   9.171  0.9584  0.6317  0.6643
 7756SOL    HW234905   2.353   1.744   9.050 -2.6580  1.5467  1.0359
 7757SOL     OW34906   0.242   1.817   4.101 -0.6326  0.0249 -0.1967
 7757SOL    HW134907   0.234   1.781   4.190 -1.8552 -0.9561 -0.7018
 7757SOL    HW234908   0.156   1.857   4.089  0.1401  0.6998 -3.5036
 7758SOL     OW34909   4.378   1.324  16.247  0.2928  0.5231  0.2493
 7758SOL    HW134910   4.437   1.311  16.321 -0.4264 -0.7668  0.5965
 7758SOL    HW234911   4.428   1.306  16.168 -0.5889  0.9307 -0.3995
 7759SOL     OW34912   3.903   1.225   1.059 -0.0911 -1.0738 -0.2632
 7759SOL    HW134913   3.865   1.312   1.056 -2.2937 -2.0307  0.3838
 7759SOL    HW234914   3.988   1.232   1.015 -0.1965 -2.7477 -0.7734
 7760SOL     OW34915   2.474   3.571   7.347 -0.2879 -0.0377 -0.3935
 7760SOL    HW134916   2.546   3.510   7.330 -1.7006 -2.1879  1.3886
 7760SOL    HW234917   2.401   3.543   7.292 -1.6868 -0.7715  1.8320
 7761SOL     OW34918   4.010   0.107  11.224 -0.2011 -0.0698 -0.3220
 7761SOL    HW134919   3.944   0.085  11.157  0.0412 -1.3824 -0.1447
 7761SOL    HW234920   3.960   0.134  11.301  0.6726 -0.3357  0.3320
 7762SOL     OW34921   2.194   0.907   2.670 -0.2997 -0.3701 -0.1040
 7762SOL    HW134922   2.128   0.931   2.735 -0.0882 -1.0966  0.3845
 7762SOL    HW234923   2.231   0.995   2.678 -2.7980  0.5391  1.4633
 7763SOL     OW34924   1.618   3.430   7.241  0.1100  0.9777 -0.3722
 7763SOL    HW134925   1.538   3.480   7.260 -0.6121 -0.2914 -0.0805
 7763SOL    HW234926   1.675   3.440   7.318 -2.2711 -0.8043  1.6213
 7764SOL     OW34927   1.579   1.062  15.205 -0.2296 -0.1939  0.0620
 7764SOL    HW134928   1.663   1.104  15.186 -0.3960 -0.5941 -1.5256
 7764SOL    HW234929   1.528   1.105  15.137  0.3357 -0.3489 -0.4586
 7765SOL     OW34930   2.225   1.513   7.656 -0.4183  0.1813  0.2663
 7765SOL    HW134931   2.195   1.541   7.743 -0.1381 -4.1522  1.7489
 7765SOL    HW234932   2.319   1.526   7.667 -0.6105  0.9616  1.0115
 7766SOL     OW34933   1.686   4.029   6.828  0.3358 -0.3443  0.6928
 7766SOL    HW134934   1.646   4.084   6.894 -2.0423 -1.0261 -0.1802
 7766SOL    HW234935   1.605   4.023   6.777  1.5626 -0.0452 -1.3005
 7767SOL     OW34936   1.071   2.891   5.308 -0.5719 -0.0997 -0.1346
 7767SOL    HW134937   1.152   2.857   5.348 -0.8263 -1.2355 -0.5864
 7767SOL    HW234938   1.112   2.942   5.239 -0.2810 -0.2081 -0.0417
 7768SOL     OW34939   4.291   1.931  16.324  0.0805 -0.4853 -0.2072
 7768SOL    HW134940   4.318   1.889  16.243  1.7252 -2.4074  1.3459
 7768SOL    HW234941   4.363   1.992  16.339 -1.0959  0.4962  1.5330
 7769SOL     OW34942   0.167   2.227   3.961  0.0756  0.2072  0.0411
 7769SOL    HW134943   0.187   2.321   3.953 -3.1678  1.0114  1.2042
 7769SOL    HW234944   0.257   2.195   3.953 -0.0258  0.5423 -2.5449
 7770SOL     OW34945   3.885   1.744   0.425  0.0100 -0.0710  0.1485
 7770SOL    HW134946   3.954   1.798   0.465  0.6293  1.1288 -2.5303
 7770SOL    HW234947   3.871   1.678   0.493  0.5316  0.8030  1.1095
 7771SOL     OW34948   4.085   2.476   3.622 -0.4468  0.0405  0.3990
 7771SOL    HW134949   4.160   2.518   3.664 -0.8942 -0.5284  1.7821
 7771SOL    HW234950   4.024   2.547   3.645  2.8291  3.0917 -0.3012
 7772SOL     OW34951   0.010   2.208   5.643  0.5842 -0.0421 -0.0024
 7772SOL    HW134952   4.693   2.213   5.565  1.6917  1.8143 -0.6776
 7772SOL    HW234953   0.068   2.282   5.623  0.1157  0.0518 -1.0449
 7773SOL     OW34954   1.853   1.217   4.885  0.0151 -0.4409  0.3359
 7773SOL    HW134955   1.808   1.214   4.800  3.6626  1.0779 -1.7006
 7773SOL    HW234956   1.938   1.177   4.864 -0.0428 -1.3940  1.9467
 7774SOL     OW34957   3.826   4.062   9.584 -1.2623  0.0661 -0.7096
 7774SOL    HW134958   3.874   4.133   9.540 -0.6809 -0.6354 -1.1932
 7774SOL    HW234959   3.852   4.073   9.676 -1.9687 -1.8284 -0.2792
 7775SOL     OW34960   3.762   2.475   5.946  0.3130 -0.2652 -0.1455
 7775SOL    HW134961   3.780   2.557   5.898  0.8329  0.4896  1.3577
 7775SOL    HW234962   3.739   2.420   5.871  1.3164 -0.3090 -0.4334
 7776SOL     OW34963   0.055   3.498   5.242 -0.8932  0.7425  0.8415
 7776SOL    HW134964   4.705   3.536   5.233 -1.5859 -1.3003 -1.1537
 7776SOL    HW234965   0.026   3.411   5.270 -2.0062  1.1318  0.8986
 7777SOL     OW34966   3.348   2.265   5.322  0.2848  0.2217  0.8074
 7777SOL    HW134967   3.306   2.341   5.281 -2.0601 -2.2749 -1.3546
 7777SOL    HW234968   3.427   2.310   5.354  0.5317 -0.6434  1.3873
 7778SOL     OW34969   3.895   4.149  10.651 -0.2045  0.5127 -0.4878
 7778SOL    HW134970   3.975   4.200  10.641 -0.6245  1.0304 -1.3077
 7778SOL    HW234971   3.826   4.203  10.611  0.6419  2.1738  0.2940
 7779SOL     OW34972   0.210   3.309   7.032 -0.0239 -0.4680  0.2530
 7779SOL    HW134973   0.235   3.326   7.123 -2.1752  0.3142  0.7025
 7779SOL    HW234974   0.116   3.292   7.028 -0.3206  1.7373 -1.8744
 7780SOL     OW34975   4.669   0.471   5.975 -0.5958 -0.3203 -0.3483
 7780SOL    HW134976   4.658   0.516   6.058  0.5209 -2.3956  0.9228
 7780SOL    HW234977   4.712   0.543   5.927  0.5357  0.3843  1.7429
 7781SOL     OW34978   1.088   1.660   9.165  0.2329 -0.4071  1.1644
 7781SOL    HW134979   1.119   1.731   9.222 -2.4601  0.4302  1.5960
 7781SOL    HW234980   1.010   1.698   9.123  1.1557 -1.1365 -1.1884
 7782SOL     OW34981   3.191   4.627  10.746 -0.4302 -0.4030 -0.7016
 7782SOL    HW134982   3.174   4.685  10.672  1.2974 -0.0175 -0.7913
 7782SOL    HW234983   3.124   4.561  10.727 -0.2544 -1.1393  1.2273
 7783SOL     OW34984   1.280   2.466   6.727 -0.0531 -0.3964 -0.6084
 7783SOL    HW134985   1.326   2.548   6.747 -0.6157 -0.0137 -0.8917
 7783SOL    HW234986   1.335   2.400   6.768  0.6193 -0.1796 -1.1360
 7784SOL     OW34987   0.462   1.589   7.896  0.0389 -0.4212  0.3871
 7784SOL    HW134988   0.441   1.546   7.813 -0.0017 -0.6210  0.5026
 7784SOL    HW234989   0.472   1.680   7.866  0.0807 -0.6225 -0.2245
 7785SOL     OW34990   3.080   2.869   4.610 -0.2235  0.0197 -0.0324
 7785SOL    HW134991   3.166   2.830   4.597  0.2452  0.8215  0.6486
 7785SOL    HW234992   3.074   2.848   4.704 -0.8849  3.3522  0.6520
 7786SOL     OW34993   2.493   3.288   5.355 -0.0005  0.0085  0.8121
 7786SOL    HW134994   2.518   3.300   5.263  0.7056 -1.9012  0.7551
 7786SOL    HW234995   2.536   3.367   5.388  1.1209  0.5421 -1.9641
 7787SOL     OW34996   1.543   2.450   2.686 -0.0283  0.5350  0.5408
 7787SOL    HW134997   1.502   2.524   2.732  1.4262  3.2873 -2.6222
 7787SOL    HW234998   1.633   2.456   2.718  0.1205 -0.6964  0.3549
 7788SOL     OW34999   0.926   1.827  16.201  0.9187 -0.5713 -0.3069
 7788SOL    HW135000   0.908   1.788  16.287 -0.6447  0.1033 -0.3293
 7788SOL    HW235001   0.839   1.848  16.167  1.4287  0.9434 -0.6331
 7789SOL     OW35002   1.285   0.390   2.436  0.0439 -0.0367  0.2129
 7789SOL    HW135003   1.338   0.358   2.364 -0.1356  0.8071 -0.2948
 7789SOL    HW235004   1.209   0.432   2.396 -0.7643 -2.5812 -0.9465
 7790SOL     OW35005   4.418   0.818   8.366  0.1911 -0.1338 -0.4843
 7790SOL    HW135006   4.426   0.727   8.339 -0.5034 -0.2436 -0.3113
 7790SOL    HW235007   4.409   0.803   8.460 -0.3064 -1.9384 -0.8211
 7791SOL     OW35008   3.580   1.884   8.619 -0.0038 -0.3976 -0.1113
 7791SOL    HW135009   3.602   1.815   8.682 -2.0057 -1.7322 -0.8657
 7791SOL    HW235010   3.491   1.859   8.595 -0.7918  2.5721 -0.2605
 7792SOL     OW35011   4.113   1.467  15.472 -0.2993 -0.5744 -0.0374
 7792SOL    HW135012   4.118   1.488  15.379 -0.5582 -0.5480 -0.0478
 7792SOL    HW235013   4.080   1.549  15.509  0.7046 -0.5046  0.6836
 7793SOL     OW35014   1.309   3.766  13.076  0.2977 -0.1479  0.2938
 7793SOL    HW135015   1.239   3.828  13.056  0.8642  0.0648 -0.9933
 7793SOL    HW235016   1.311   3.761  13.172 -0.3462 -4.7173  0.1044
 7794SOL     OW35017   0.146   0.808  11.377  0.9106  0.6195 -0.5304
 7794SOL    HW135018   0.149   0.719  11.343  0.7266  0.2788  0.3742
 7794SOL    HW235019   0.236   0.828  11.406  0.6711  2.3613 -0.9479
 7795SOL     OW35020   3.519   3.778   1.949  0.0494  0.2918  0.2570
 7795SOL    HW135021   3.535   3.747   2.038  0.5518 -2.4290 -0.7938
 7795SOL    HW235022   3.567   3.718   1.891 -3.0266 -1.2614 -0.6705
 7796SOL     OW35023   4.399   2.945   8.296 -0.3013 -0.2313  0.1414
 7796SOL    HW135024   4.404   2.869   8.355 -2.3062 -1.4203 -1.1822
 7796SOL    HW235025   4.319   2.983   8.333  0.3087 -0.3371  1.5458
 7797SOL     OW35026   2.578   1.162   7.750  0.2638  0.0386 -0.3965
 7797SOL    HW135027   2.559   1.070   7.735  0.2108  0.1669 -1.1520
 7797SOL    HW235028   2.574   1.186   7.657 -0.2073  1.3275 -0.0422
 7798SOL     OW35029   2.097   4.521   4.039  0.0117  0.3895 -0.0888
 7798SOL    HW135030   2.028   4.492   3.980 -1.2878 -0.1424  1.6644
 7798SOL    HW235031   2.112   4.610   4.007 -3.4683  1.4922  1.3409
 7799SOL     OW35032   1.040   0.126   2.074 -0.0703  0.0410 -0.2749
 7799SOL    HW135033   1.081   0.204   2.035  2.1538 -0.4575  1.0472
 7799SOL    HW235034   1.051   0.059   2.006 -0.3924  1.3196 -1.5976
 7800SOL     OW35035   3.800   3.400   6.476  0.2306  0.2078  0.1522
 7800SOL    HW135036   3.718   3.389   6.525 -0.3533  0.2476 -0.8119
 7800SOL    HW235037   3.845   3.475   6.515 -1.2656  1.4092 -0.4252
 7801SOL     OW35038   0.568   3.739  16.426  0.3278  0.5274 -0.2359
 7801SOL    HW135039   0.542   3.683  16.353 -0.9686 -1.5730  1.8188
 7801SOL    HW235040   0.587   3.672  16.491  1.6869 -0.9933 -2.2028
 7802SOL     OW35041   1.564   3.701  14.574  0.0756 -0.5716 -0.3056
 7802SOL    HW135042   1.658   3.690  14.584 -0.0337  0.7023  2.2914
 7802SOL    HW235043   1.547   3.725  14.665  3.2805 -1.0133  0.4146
 7803SOL     OW35044   2.835   0.480   2.604 -0.6195 -0.3146  0.0556
 7803SOL    HW135045   2.842   0.406   2.664 -0.2347 -0.9636 -0.7939
 7803SOL    HW235046   2.903   0.540   2.635 -0.7440 -0.1019 -0.0817
 7804SOL     OW35047   0.956   2.882  13.725 -0.0331  0.4331 -0.4907
 7804SOL    HW135048   1.039   2.909  13.764  1.6798 -1.1453 -3.0470
 7804SOL    HW235049   0.899   2.958  13.737  0.0093  0.4972 -0.6958
 7805SOL     OW35050   1.442   0.307   4.201 -0.4927 -0.4556 -0.0529
 7805SOL    HW135051   1.431   0.281   4.109  0.6625 -2.9676  0.5257
 7805SOL    HW235052   1.536   0.293   4.206 -0.5424 -0.5534  0.5178
 7806SOL     OW35053   2.634   3.985   7.111 -0.3425  0.5784  0.0930
 7806SOL    HW135054   2.721   4.015   7.085 -1.6124  1.6796 -2.9277
 7806SOL    HW235055   2.626   4.008   7.204 -0.1734  1.0133  0.0036
 7807SOL     OW35056   0.656   0.156   9.483  0.1223 -0.0302  0.1796
 7807SOL    HW135057   0.674   0.110   9.401 -1.5557  0.7529 -0.6296
 7807SOL    HW235058   0.562   0.134   9.487  0.1433 -0.0417  0.6085
 7808SOL     OW35059   4.010   1.681   1.700  0.4855 -1.0323  0.6477
 7808SOL    HW135060   3.963   1.598   1.695  0.1906 -0.7144 -1.8309
 7808SOL    HW235061   3.935   1.738   1.718 -0.3225 -1.2725 -1.9780
 7809SOL     OW35062   3.384   2.836   8.525  0.2487 -0.1281  0.1248
 7809SOL    HW135063   3.360   2.790   8.606 -0.7845  1.1533  0.5356
 7809SOL    HW235064   3.476   2.810   8.516  0.8383  1.8891  0.4466
 7810SOL     OW35065   0.266   0.056  15.651  0.0479  0.1076  0.0588
 7810SOL    HW135066   0.204   0.016  15.590 -1.2217 -1.1263  2.1781
 7810SOL    HW235067   0.344   0.055  15.595  0.6012  0.4352  0.8292
 7811SOL     OW35068   3.178   3.614   2.035  0.1894 -0.0759  0.1109
 7811SOL    HW135069   3.256   3.559   2.033  0.1723 -0.1257  0.8544
 7811SOL    HW235070   3.105   3.564   1.999  0.1224 -1.4160  2.1332
 7812SOL     OW35071   4.099   1.332   2.126  0.3850 -0.3448  0.4025
 7812SOL    HW135072   4.128   1.242   2.144  0.2582 -0.5974 -0.6677
 7812SOL    HW235073   4.172   1.389   2.102  0.5740 -1.3341 -1.3850
 7813SOL     OW35074   2.428   3.766  10.135 -0.4212 -0.5826  0.5026
 7813SOL    HW135075   2.360   3.698  10.139  0.5636 -1.6229 -0.3593
 7813SOL    HW235076   2.377   3.845  10.150  2.0108  0.8938  1.0787
 7814SOL     OW35077   0.005   2.916   7.583 -0.2069 -0.0717  0.1334
 7814SOL    HW135078   4.722   2.854   7.513  2.0211  0.8016 -1.3046
 7814SOL    HW235079   0.086   2.953   7.547 -0.9856 -0.3959 -1.9462
 7815SOL     OW35080   2.708   2.318   4.247 -0.4431 -0.3100 -0.2577
 7815SOL    HW135081   2.657   2.399   4.253 -0.4821 -0.3759  0.2666
 7815SOL    HW235082   2.641   2.271   4.197  0.1584 -0.4655 -0.9362
 7816SOL     OW35083   2.012   0.209   6.261  0.0936  0.6125 -0.0866
 7816SOL    HW135084   1.984   0.128   6.304  0.3403 -0.0408 -1.1434
 7816SOL    HW235085   1.978   0.276   6.320  0.7452  1.3713 -0.5591
 7817SOL     OW35086   3.848   2.888   6.967  0.0860  0.0219 -0.2817
 7817SOL    HW135087   3.822   2.827   6.897  1.6535 -1.1155  0.1240
 7817SOL    HW235088   3.873   2.971   6.926  0.3189 -0.6301 -1.4697
 7818SOL     OW35089   0.442   2.821   7.601 -0.2282  0.1766  0.6900
 7818SOL    HW135090   0.437   2.728   7.577 -1.1388  0.1424  1.0231
 7818SOL    HW235091   0.479   2.847   7.516  1.9635 -0.3074  1.4936
 7819SOL     OW35092   0.655   2.931   6.860 -0.4519 -0.1697  0.2752
 7819SOL    HW135093   0.610   2.878   6.795 -0.2143 -0.1358  0.0843
 7819SOL    HW235094   0.664   2.863   6.927  0.4122 -1.0660 -0.7461
 7820SOL     OW35095   2.292   4.123   0.041  0.3397 -0.4920  0.1969
 7820SOL    HW135096   2.298   4.097   0.133 -1.8002  1.0290  0.7609
 7820SOL    HW235097   2.382   4.104   0.014  0.7250  0.9195  0.5096
 7821SOL     OW35098   2.610   1.645   8.759 -0.0156 -0.5523 -0.5810
 7821SOL    HW135099   2.576   1.563   8.794 -0.0192  0.1835  1.1795
 7821SOL    HW235100   2.691   1.660   8.808 -0.6889  1.6820 -0.1565
 7822SOL     OW35101   3.347   1.465   7.237  0.3029  0.3260 -0.1873
 7822SOL    HW135102   3.425   1.418   7.209 -0.4114  0.6722 -2.8587
 7822SOL    HW235103   3.375   1.556   7.228  1.0983  0.0407 -0.5320
 7823SOL     OW35104   0.250   3.008  13.769 -0.2246 -0.6510  0.6144
 7823SOL    HW135105   0.272   2.934  13.713 -0.8089  0.4028 -0.9962
 7823SOL    HW235106   0.154   3.005  13.774 -0.2630  1.0619  0.8379
 7824SOL     OW35107   3.620   0.544   5.143 -0.0336 -0.9033 -0.0184
 7824SOL    HW135108   3.617   0.509   5.053 -1.5892 -1.0684  0.0969
 7824SOL    HW235109   3.571   0.479   5.193  0.9136 -0.2990  1.7017
 7825SOL     OW35110   1.962   0.111  11.469  0.3331  0.4574  0.1975
 7825SOL    HW135111   1.977   0.143  11.380  0.6406 -1.8862 -0.5924
 7825SOL    HW235112   1.965   0.017  11.456 -0.6454  0.4492 -0.0022
 7826SOL     OW35113   3.740   0.403   5.715 -0.0564  0.5565  0.4659
 7826SOL    HW135114   3.802   0.383   5.785 -1.0276 -1.9605  0.6086
 7826SOL    HW235115   3.784   0.370   5.637 -0.9448  1.3472 -0.3801
 7827SOL     OW35116   4.017   3.064   9.191 -0.2829 -0.0259  0.3454
 7827SOL    HW135117   4.064   3.098   9.115  0.2573 -1.0952  0.1917
 7827SOL    HW235118   4.034   2.970   9.186  1.0995  0.1379  1.8116
 7828SOL     OW35119   3.412   4.321   4.433  0.4855  0.3483 -0.7365
 7828SOL    HW135120   3.402   4.230   4.462 -0.0178  0.7402  0.3326
 7828SOL    HW235121   3.369   4.373   4.501 -0.3755 -1.2683 -0.0194
 7829SOL     OW35122   1.136   1.315   7.951 -0.5253 -0.0955  0.4082
 7829SOL    HW135123   1.174   1.301   7.864 -1.0035  0.0555  0.1742
 7829SOL    HW235124   1.221   1.311   7.995 -0.7861 -2.3518  0.7500
 7830SOL     OW35125   1.452   2.312   7.194  0.2083  0.6328  0.2250
 7830SOL    HW135126   1.534   2.306   7.243  0.3752 -1.9312 -0.3546
 7830SOL    HW235127   1.393   2.307   7.270 -1.4005  0.3859 -1.0331
 7831SOL     OW35128   1.582   2.500   4.319 -0.1090 -0.0439  0.3989
 7831SOL    HW135129   1.542   2.565   4.261 -0.7699  0.6620  1.6426
 7831SOL    HW235130   1.670   2.496   4.282  0.0350  0.0249  0.7359
 7832SOL     OW35131   2.036   2.683  13.461  0.1442 -0.6014  0.0335
 7832SOL    HW135132   2.002   2.660  13.548 -2.0977  1.4508 -0.3119
 7832SOL    HW235133   1.966   2.641  13.413  1.1237 -2.3728  0.1742
 7833SOL     OW35134   4.145   2.725   2.908  0.3791  0.4031 -0.0318
 7833SOL    HW135135   4.147   2.748   2.815  0.4284 -0.2453 -0.1930
 7833SOL    HW235136   4.083   2.653   2.900  1.0529 -0.2746  0.7542
 7834SOL     OW35137   3.088   0.232  12.660 -0.0240 -0.2103  0.0391
 7834SOL    HW135138   3.137   0.312  12.679  0.6025 -0.6080  0.1277
 7834SOL    HW235139   3.112   0.218  12.568  1.1381  1.3693  0.0994
 7835SOL     OW35140   3.480   2.432  15.221  0.4457 -0.1660 -0.2574
 7835SOL    HW135141   3.554   2.406  15.165 -0.1230  0.8440 -1.4831
 7835SOL    HW235142   3.443   2.505  15.172 -0.7474 -0.9610 -0.5203
 7836SOL     OW35143   3.407   0.219  15.514  0.0852  0.1715 -0.1190
 7836SOL    HW135144   3.432   0.135  15.551  0.9808  0.8634  0.8738
 7836SOL    HW235145   3.463   0.224  15.437  1.0064 -0.7045  0.5022
 7837SOL     OW35146   0.820   3.098   2.235 -0.0085 -0.0593  0.1224
 7837SOL    HW135147   0.740   3.075   2.283 -0.4379 -0.4195 -0.7617
 7837SOL    HW235148   0.784   3.150   2.163  0.3074  2.3027  1.6653
 7838SOL     OW35149   3.312   3.402   8.548  0.3168  0.1719  0.5115
 7838SOL    HW135150   3.339   3.477   8.494 -2.8176  0.6565 -0.3562
 7838SOL    HW235151   3.306   3.338   8.477  1.1859  0.1032  0.4892
 7839SOL     OW35152   4.322   4.732  14.709 -0.0174  0.1621  0.4985
 7839SOL    HW135153   4.385   4.694  14.647 -0.7482  0.2601 -0.3157
 7839SOL    HW235154   4.375   0.060  14.754 -3.0023  2.5294  0.5714
 7840SOL     OW35155   3.487   4.551   3.232 -0.8147 -0.0046  0.1120
 7840SOL    HW135156   3.426   4.524   3.300 -3.7878  0.3804 -2.3911
 7840SOL    HW235157   3.473   4.645   3.231 -0.0357  0.1144  2.9076
 7841SOL     OW35158   3.243   3.240   2.196 -0.5721 -0.2303  0.2077
 7841SOL    HW135159   3.294   3.315   2.225 -2.0964  2.7823 -4.8251
 7841SOL    HW235160   3.283   3.157   2.222  0.7658  0.3627  0.0463
 7842SOL     OW35161   0.651   0.550  15.306  0.8353 -0.5425 -0.7601
 7842SOL    HW135162   0.692   0.494  15.240  1.8099 -2.1079  1.1662
 7842SOL    HW235163   0.579   0.491  15.325  1.6506 -1.1017  0.5769
 7843SOL     OW35164   0.529   2.518   8.295  0.3630  0.0065 -0.0828
 7843SOL    HW135165   0.601   2.560   8.342  0.4179 -1.3450  1.0334
 7843SOL    HW235166   0.457   2.573   8.328 -0.2528 -0.1997 -1.0769
 7844SOL     OW35167   4.575   4.191   8.498  0.5323 -0.3406  0.1113
 7844SOL    HW135168   4.640   4.195   8.567  1.1585  0.2661 -0.5234
 7844SOL    HW235169   4.574   4.095   8.499 -2.5758 -0.3119  1.4141
 7845SOL     OW35170   3.558   4.639   8.574  0.0119  0.2202 -0.3762
 7845SOL    HW135171   3.531   4.553   8.542 -1.9518  0.3165  1.0199
 7845SOL    HW235172   3.547   4.688   8.494 -2.6054  0.6999  0.2927
 7846SOL     OW35173   1.332   1.050   3.913 -0.1397 -0.1493 -0.1550
 7846SOL    HW135174   1.381   0.973   3.884  0.0755  0.9251 -2.7331
 7846SOL    HW235175   1.256   1.046   3.855 -0.3484  2.1954 -0.0697
 7847SOL     OW35176   2.188   4.594  14.916  0.0876  0.1327  0.9439
 7847SOL    HW135177   2.265   4.650  14.917  0.1838  0.0010  0.7458
 7847SOL    HW235178   2.203   4.542  14.995 -1.8250 -1.8535 -0.0053
 7848SOL     OW35179   3.200   2.387  11.367  0.3467  0.1848 -0.1867
 7848SOL    HW135180   3.197   2.295  11.339 -0.7417  0.7986 -2.0478
 7848SOL    HW235181   3.289   2.416  11.351  0.6286 -0.2138  0.6322
 7849SOL     OW35182   0.200   3.747   1.901  0.3832 -0.0562  0.0841
 7849SOL    HW135183   0.203   3.840   1.879 -0.3401 -0.0639 -0.0404
 7849SOL    HW235184   0.290   3.714   1.902  0.2700 -0.3210  1.3966
 7850SOL     OW35185   0.925   0.556   1.951  0.0515 -0.2492  0.8036
 7850SOL    HW135186   0.983   0.482   1.963 -0.7640 -1.0106  0.1224
 7850SOL    HW235187   0.964   0.593   1.872  0.8892 -1.4084  0.6800
 7851SOL     OW35188   3.961   2.935   8.240 -0.2119  0.5721 -0.4698
 7851SOL    HW135189   4.017   3.013   8.237  1.1690 -0.4337 -1.0194
 7851SOL    HW235190   3.900   2.946   8.167 -1.3176  0.6244  0.4689
 7852SOL     OW35191   1.029   2.226  12.066  0.5340  0.2064  0.0817
 7852SOL    HW135192   1.069   2.232  11.980 -2.8575 -2.8479 -1.7280
 7852SOL    HW235193   1.021   2.319  12.088  0.3520  0.1248  0.3744
 7853SOL     OW35194   3.595   0.389   0.625 -0.2636  0.1165  0.2848
 7853SOL    HW135195   3.580   0.416   0.534  0.8473 -0.3260 -0.0287
 7853SOL    HW235196   3.532   0.442   0.674 -0.2426  0.1609  0.2640
 7854SOL     OW35197   0.254   1.544  14.054 -0.2867  0.0134 -0.2931
 7854SOL    HW135198   0.325   1.493  14.015  0.6441  0.2696  1.0371
 7854SOL    HW235199   0.291   1.632  14.055 -0.4388  0.0760 -0.0483
 7855SOL     OW35200   0.317   4.205   8.885 -0.3630  0.0574 -0.5426
 7855SOL    HW135201   0.290   4.130   8.833 -0.0716  0.3387 -1.0988
 7855SOL    HW235202   0.326   4.168   8.973  0.1719 -1.5615 -1.2733
 7856SOL     OW35203   0.408   3.623   4.637  0.4580 -0.2476  0.0763
 7856SOL    HW135204   0.346   3.575   4.692  2.0178 -3.1461 -0.7000
 7856SOL    HW235205   0.345   3.656   4.572  0.5785  0.2826  0.2267
 7857SOL     OW35206   2.541   2.489   5.332 -0.0223 -1.2632 -0.0430
 7857SOL    HW135207   2.543   2.582   5.311 -0.3890 -1.7034 -2.0395
 7857SOL    HW235208   2.580   2.498   5.419  0.1768 -1.2239 -0.1364
 7858SOL     OW35209   4.486   2.668   5.896 -0.2614  0.5670 -0.1629
 7858SOL    HW135210   4.435   2.690   5.974 -0.9813  0.2521 -0.5502
 7858SOL    HW235211   4.572   2.680   5.937 -0.0042 -0.3747 -0.4267
 7859SOL     OW35212   1.860   3.101   7.024  0.0085 -0.5981 -0.1119
 7859SOL    HW135213   1.859   3.007   7.006  1.7077 -0.6200 -0.0869
 7859SOL    HW235214   1.955   3.109   7.035 -0.0690 -2.1166  1.6121
 7860SOL     OW35215   3.073   4.436   0.386 -0.0163  0.0037 -0.3589
 7860SOL    HW135216   3.126   4.364   0.420  1.6433  1.2880 -0.2040
 7860SOL    HW235217   3.134   4.510   0.387  0.4101 -0.3384 -1.1632
 7861SOL     OW35218   1.157   1.645   3.332  0.9834  0.3603  0.0139
 7861SOL    HW135219   1.153   1.594   3.250 -3.6029  1.6770 -0.5744
 7861SOL    HW235220   1.073   1.623   3.374  1.1294  2.9900  1.6413
 7862SOL     OW35221   2.548   3.764   5.512  0.5004 -0.1850 -0.2386
 7862SOL    HW135222   2.631   3.805   5.533 -0.6653  0.8996  2.2684
 7862SOL    HW235223   2.486   3.806   5.571 -0.7241  0.7969 -2.2165
 7863SOL     OW35224   2.903   4.059   3.237  0.4592 -0.1518 -0.6355
 7863SOL    HW135225   2.894   4.061   3.332 -0.9497 -3.5552 -0.7062
 7863SOL    HW235226   2.998   4.073   3.228  0.7242 -0.2396  2.0432
 7864SOL     OW35227   4.623   1.819   7.335  0.0288 -0.1839 -0.0686
 7864SOL    HW135228   4.565   1.758   7.289 -0.5526  0.7253 -0.5353
 7864SOL    HW235229   4.558   1.851   7.398  0.0718 -0.4564  0.1157
 7865SOL     OW35230   0.142   4.021   0.432  0.2600  0.4158  0.2100
 7865SOL    HW135231   0.212   4.082   0.456 -0.3328  1.1861 -0.0075
 7865SOL    HW235232   0.189   3.938   0.422 -2.6944 -1.1208 -0.9438
 7866SOL     OW35233   1.581   3.143   1.630  0.2742 -0.1928  0.6364
 7866SOL    HW135234   1.571   3.228   1.587  2.3105  0.0104  0.5809
 7866SOL    HW235235   1.620   3.169   1.713 -2.3948  3.9642  0.6233
 7867SOL     OW35236   4.237   0.422   1.124  0.1646 -0.0760 -0.4085
 7867SOL    HW135237   4.144   0.413   1.145  0.4866 -1.7628  0.2613
 7867SOL    HW235238   4.235   0.423   1.028  0.3993  0.3046 -0.4097
 7868SOL     OW35239   0.585   3.858   3.914  0.1106  0.1260 -0.2209
 7868SOL    HW135240   0.628   3.817   3.989 -2.8862  0.0353  1.4412
 7868SOL    HW235241   0.659   3.877   3.856 -0.9322 -0.0417 -1.5947
 7869SOL     OW35242   3.647   0.334  12.164 -0.5929 -0.2373 -0.4746
 7869SOL    HW135243   3.605   0.269  12.108  0.1802  0.1488 -1.5102
 7869SOL    HW235244   3.682   0.402  12.106  0.8578 -0.5958 -0.0354
 7870SOL     OW35245   2.440   1.394   8.171 -0.0400  0.1530  0.7197
 7870SOL    HW135246   2.487   1.457   8.225  1.4199  1.9225 -2.6267
 7870SOL    HW235247   2.515   1.338   8.150 -1.1255 -1.4740  1.1115
 7871SOL     OW35248   3.004   1.454  14.529  0.1152  0.4774 -0.3970
 7871SOL    HW135249   3.042   1.531  14.486 -1.8327  0.9973 -1.2047
 7871SOL    HW235250   3.085   1.413  14.559  0.1736 -0.2617 -1.5822
 7872SOL     OW35251   0.983   0.426  17.009  0.0755 -0.1890 -0.5134
 7872SOL    HW135252   0.949   0.497  16.954  0.5549 -0.9700 -1.8257
 7872SOL    HW235253   1.056   0.391  16.958 -0.4820 -1.4261 -0.4444
 7873SOL     OW35254   0.463   1.301   4.494 -0.1170  0.0524 -0.1369
 7873SOL    HW135255   0.430   1.390   4.484 -0.1526 -0.3617 -3.6925
 7873SOL    HW235256   0.390   1.261   4.445  1.2356 -2.4224 -0.1264
 7874SOL     OW35257   2.863   2.883   1.053 -0.7350 -0.2751  0.2254
 7874SOL    HW135258   2.850   2.962   1.106 -0.1491  0.1017 -0.1915
 7874SOL    HW235259   2.774   2.865   1.025  0.0665  0.2793 -2.6486
 7875SOL     OW35260   4.695   2.735  14.205 -0.4300 -0.2667  0.1123
 7875SOL    HW135261   0.041   2.714  14.163  0.5114 -1.0981  2.3878
 7875SOL    HW235262   4.683   2.642  14.226  3.4310 -0.5701  1.0138
 7876SOL     OW35263   4.317   3.421   6.884  0.7347 -0.1271 -0.6698
 7876SOL    HW135264   4.348   3.333   6.865  0.3090  0.0401 -2.1452
 7876SOL    HW235265   4.351   3.427   6.973 -1.1001  1.8811 -0.1160
 7877SOL     OW35266   3.048   3.641   7.364 -0.3069  0.8653 -0.5477
 7877SOL    HW135267   2.989   3.586   7.415  1.4651  0.9107  1.5474
 7877SOL    HW235268   3.007   3.726   7.380  1.7228  1.4970  1.3550
 7878SOL     OW35269   1.091   3.043   9.027 -0.0852  0.0399 -0.0068
 7878SOL    HW135270   0.998   3.062   9.038 -0.1283 -0.0382 -0.2450
 7878SOL    HW235271   1.092   3.007   8.939 -0.7384  2.2656 -0.9080
 7879SOL     OW35272   0.325   3.395   2.396  0.3209 -0.1858  0.2415
 7879SOL    HW135273   0.401   3.401   2.337  2.5618 -0.6185  3.0944
 7879SOL    HW235274   0.333   3.476   2.447 -0.0193  1.4684 -2.3459
 7880SOL     OW35275   1.664   1.111   8.633 -0.3964  0.3813  0.3745
 7880SOL    HW135276   1.605   1.038   8.617 -0.1966  0.5870 -1.3286
 7880SOL    HW235277   1.692   1.131   8.543 -0.1674 -1.2596  0.0875
 7881SOL     OW35278   1.091   1.105   5.379 -0.2114 -0.6639  0.7154
 7881SOL    HW135279   1.107   1.194   5.411  1.4583 -1.6208  2.5789
 7881SOL    HW235280   1.056   1.116   5.291  2.0593 -0.3719 -0.1742
 7882SOL     OW35281   1.335   3.719   8.328 -0.0145  0.3664 -0.0686
 7882SOL    HW135282   1.256   3.680   8.292  0.9960 -1.9215  0.1683
 7882SOL    HW235283   1.316   3.753   8.416  0.5798 -1.2608  0.6939
 7883SOL     OW35284   4.177   2.051  13.261  0.3732  1.2454 -0.1274
 7883SOL    HW135285   4.263   2.085  13.234  0.6907 -0.6419 -1.4930
 7883SOL    HW235286   4.186   1.960  13.234  0.6934  1.2365  0.0156
 7884SOL     OW35287   1.669   3.265   1.858 -0.5422 -0.3885 -0.3419
 7884SOL    HW135288   1.721   3.211   1.918 -0.4243  0.3468  0.2192
 7884SOL    HW235289   1.702   3.352   1.878 -0.3775 -0.3899 -0.6142
 7885SOL     OW35290   1.749   3.395   0.131  0.2456 -0.1881  0.4712
 7885SOL    HW135291   1.702   3.313   0.148 -1.3440  0.3330 -1.3278
 7885SOL    HW235292   1.695   3.452   0.185  1.4447 -0.1382  1.6198
 7886SOL     OW35293   2.882   4.475   8.170  0.2332 -0.2192  0.1754
 7886SOL    HW135294   2.793   4.464   8.204  0.2944 -0.9009  0.1222
 7886SOL    HW235295   2.896   4.570   8.165  3.0315 -0.5870  0.9332
 7887SOL     OW35296   2.854   1.254  11.388  0.0100 -0.2919 -0.1683
 7887SOL    HW135297   2.936   1.280  11.429 -0.1741  1.2268 -0.7561
 7887SOL    HW235298   2.873   1.286  11.299 -0.2248  1.7020  0.5077
 7888SOL     OW35299   2.121   0.826   7.367 -0.2023  0.2919  0.3859
 7888SOL    HW135300   2.160   0.814   7.280 -1.1169  0.3579 -0.0419
 7888SOL    HW235301   2.114   0.922   7.364 -1.8847  0.0819 -3.4802
 7889SOL     OW35302   1.648   4.008   2.695 -0.0350  0.2878  0.0818
 7889SOL    HW135303   1.674   3.920   2.670  2.6946  0.6170  1.7292
 7889SOL    HW235304   1.655   4.049   2.609  1.0012 -0.1734 -0.0506
 7890SOL     OW35305   0.959   4.357   5.678 -0.2564 -0.0405  0.0213
 7890SOL    HW135306   0.921   4.425   5.735  0.2962 -1.4076  2.0123
 7890SOL    HW235307   0.992   4.400   5.599  0.7202  0.4699  0.7012
 7891SOL     OW35308   0.180   1.384  13.773  0.1832 -0.2327 -0.3001
 7891SOL    HW135309   0.156   1.360  13.862 -1.4137  3.1470  0.1554
 7891SOL    HW235310   0.220   1.469  13.788  0.5507 -0.2880 -0.9724
 7892SOL     OW35311   2.044   1.450   7.195 -0.2835  0.6339  0.4485
 7892SOL    HW135312   1.973   1.504   7.161 -0.1023  1.6132  1.6232
 7892SOL    HW235313   2.034   1.466   7.289  0.6932 -1.5750  0.9229
 7893SOL     OW35314   4.706   2.100   5.956 -0.2532  0.1302  0.6015
 7893SOL    HW135315   4.658   2.078   6.037 -3.5226  2.2409 -0.7536
 7893SOL    HW235316   0.045   2.147   5.986 -0.2290  0.7989 -0.5336
 7894SOL     OW35317   0.449   0.507   0.664  0.5619 -0.5315 -0.5492
 7894SOL    HW135318   0.436   0.427   0.714  2.2916 -1.7762 -2.0879
 7894SOL    HW235319   0.451   0.578   0.729 -0.8923  1.3361 -2.5519
 7895SOL     OW35320   3.232   1.323   6.699  0.5737 -0.8851  0.4294
 7895SOL    HW135321   3.216   1.325   6.794  1.5130  0.0696  0.5606
 7895SOL    HW235322   3.166   1.385   6.667  1.7843  1.2812  2.1124
 7896SOL     OW35323   0.710   3.064   3.946  0.5417 -0.4360 -0.4239
 7896SOL    HW135324   0.771   3.126   3.987  0.3566 -1.0084  0.7281
 7896SOL    HW235325   0.678   3.115   3.872 -0.8959 -0.6036  0.0783
 7897SOL     OW35326   0.473   4.382   7.530 -0.0544  0.0233 -0.2610
 7897SOL    HW135327   0.495   4.312   7.592 -0.2145 -0.7805 -1.1097
 7897SOL    HW235328   0.443   4.323   7.461 -0.4153 -1.5256  1.1931
 7898SOL     OW35329   1.176   3.006   4.726  0.1205 -0.1786  0.1662
 7898SOL    HW135330   1.169   2.933   4.665  0.2623  1.6293 -2.0358
 7898SOL    HW235331   1.256   3.050   4.696 -1.7613  3.1424 -0.0491
 7899SOL     OW35332   3.308   3.001   3.920 -0.3694 -0.4183  0.1850
 7899SOL    HW135333   3.220   3.034   3.900  0.3399  1.3835  0.0703
 7899SOL    HW235334   3.360   3.042   3.851 -1.3125 -0.7939 -0.7524
 7900SOL     OW35335   0.019   3.952   6.552 -0.1167  0.4316  0.1310
 7900SOL    HW135336   4.686   4.014   6.533  1.8323  3.4117  2.6760
 7900SOL    HW235337   4.731   3.879   6.496  0.6684 -0.6839  1.2439
 7901SOL     OW35338   1.096   4.017  11.248 -0.2928 -0.4721 -0.3016
 7901SOL    HW135339   1.028   4.071  11.287  0.8198  0.2049  0.7191
 7901SOL    HW235340   1.066   3.928  11.263 -2.7724  0.9392  3.0813
 7902SOL     OW35341   1.868   0.308   6.791 -0.1670 -0.1232 -0.3699
 7902SOL    HW135342   1.956   0.341   6.811 -0.6186  0.2349  1.0483
 7902SOL    HW235343   1.856   0.354   6.708  0.0948  1.8842  0.6907
 7903SOL     OW35344   0.793   1.692  15.488 -0.0810  0.0075 -0.0114
 7903SOL    HW135345   0.711   1.661  15.527  0.5531 -2.1600 -0.4057
 7903SOL    HW235346   0.751   1.722  15.407  2.1692  0.7424 -0.9131
 7904SOL     OW35347   3.417   1.130   1.713 -0.4574  0.2538  0.3551
 7904SOL    HW135348   3.417   1.046   1.759 -1.0116  0.0274 -0.0492
 7904SOL    HW235349   3.323   1.147   1.720 -0.1099  0.8416  3.5200
 7905SOL     OW35350   2.721   0.792   6.660 -0.6786  0.4995  0.5098
 7905SOL    HW135351   2.735   0.854   6.588  4.4960  0.3127  1.3804
 7905SOL    HW235352   2.677   0.724   6.608 -0.3568  1.8263 -1.4793
 7906SOL     OW35353   0.194   1.227   2.168  0.9772  0.5741  0.1555
 7906SOL    HW135354   0.261   1.247   2.234  0.4794  0.0441  0.8270
 7906SOL    HW235355   0.152   1.310   2.144  0.7665  1.0255  2.1055
 7907SOL     OW35356   1.071   4.504   2.430 -0.1569 -0.0362  0.0435
 7907SOL    HW135357   1.083   4.583   2.377  1.0545  0.2204  0.7093
 7907SOL    HW235358   1.138   4.451   2.388  0.0625  0.3895 -0.1398
 7908SOL     OW35359   3.390   0.484   8.567  0.6849  0.4063 -0.4121
 7908SOL    HW135360   3.476   0.472   8.607 -0.5502 -2.6350  1.3151
 7908SOL    HW235361   3.362   0.565   8.609  0.4483  0.4046 -0.5666
 7909SOL     OW35362   1.940   1.792   1.365  0.1532 -0.2380  0.2320
 7909SOL    HW135363   1.978   1.750   1.289  1.5923 -0.0782  0.8665
 7909SOL    HW235364   1.847   1.769   1.369  0.3620 -1.4003 -2.0822
 7910SOL     OW35365   1.569   0.189  11.649 -0.2394  0.4137  0.9364
 7910SOL    HW135366   1.609   0.254  11.706 -0.5654  3.0416 -1.8395
 7910SOL    HW235367   1.514   0.149  11.717 -1.3447 -0.1460 -0.2657
 7911SOL     OW35368   1.797   4.054   5.197  0.5735 -0.0099 -0.2009
 7911SOL    HW135369   1.783   4.051   5.291  1.9223 -0.0287 -0.0147
 7911SOL    HW235370   1.726   4.117   5.184 -0.1783 -0.3271  2.3557
 7912SOL     OW35371   2.382   4.028   3.105 -0.1878 -0.0647  0.6122
 7912SOL    HW135372   2.381   3.964   3.034 -0.6678  1.6705 -0.9471
 7912SOL    HW235373   2.306   3.988   3.147 -0.8737  1.1771  0.5539
 7913SOL     OW35374   2.487   1.830  14.182 -0.2832  0.0766  0.3601
 7913SOL    HW135375   2.583   1.838  14.190 -0.0201 -2.3406 -0.3788
 7913SOL    HW235376   2.483   1.843  14.088  1.6491 -4.0467 -0.3132
 7914SOL     OW35377   2.796   4.188   7.739  0.2246  0.0195 -0.1279
 7914SOL    HW135378   2.748   4.162   7.818 -0.4695 -0.3774 -0.6789
 7914SOL    HW235379   2.726   4.235   7.693 -0.5160 -1.1918 -0.2579
 7915SOL     OW35380   3.104   2.969   8.305 -0.0758 -0.4676 -0.4049
 7915SOL    HW135381   3.127   2.895   8.361  0.8347  0.7210  0.7991
 7915SOL    HW235382   3.122   3.046   8.360  0.1019 -1.3769  0.8065
 7916SOL     OW35383   4.395   4.452  16.221  0.1438 -0.4879 -0.4117
 7916SOL    HW135384   4.370   4.465  16.313  0.6949 -0.3974 -0.2752
 7916SOL    HW235385   4.488   4.474  16.228 -0.0886  0.0611  1.1108
 7917SOL     OW35386   2.930   1.524   5.081  0.2600  0.3672 -0.4359
 7917SOL    HW135387   2.870   1.497   5.151 -1.2137 -1.0403 -2.2229
 7917SOL    HW235388   2.969   1.440   5.058 -1.5580 -0.1452 -1.6821
 7918SOL     OW35389   0.845   1.203   9.157 -0.6729  0.1283 -0.1850
 7918SOL    HW135390   0.829   1.228   9.248 -0.2651 -2.3744  0.5674
 7918SOL    HW235391   0.765   1.152   9.146 -0.8407 -0.1681  2.4366
 7919SOL     OW35392   3.114   3.371   8.763  0.0135 -0.3005  0.0314
 7919SOL    HW135393   3.164   3.422   8.699  1.0911 -2.5436 -0.9409
 7919SOL    HW235394   3.036   3.425   8.767 -0.3688 -0.6004 -3.0989
 7920SOL     OW35395   1.489   1.299   9.420  0.5372  0.1517 -0.2678
 7920SOL    HW135396   1.487   1.382   9.469 -1.1497  0.1085 -0.2497
 7920SOL    HW235397   1.458   1.332   9.336  0.9186  0.5606 -0.2510
 7921SOL     OW35398   1.684   4.152  17.465 -0.0339  0.3103 -0.0289
 7921SOL    HW135399   1.645   4.232  17.502  2.3830  1.0059  0.9966
 7921SOL    HW235400   1.610   4.092  17.457  0.5933 -0.8809  2.9333
 7922SOL     OW35401   2.164   2.888   7.677 -0.6276  0.0095  0.5755
 7922SOL    HW135402   2.104   2.937   7.621 -0.6488 -1.4019 -0.6334
 7922SOL    HW235403   2.126   2.880   7.765  1.4276 -0.4344  1.4241
 7923SOL     OW35404   4.093   4.110   5.776  0.1723 -1.0199 -0.2399
 7923SOL    HW135405   4.070   4.196   5.813 -1.9656 -1.7094  0.0434
 7923SOL    HW235406   4.187   4.125   5.769  0.0346  0.8797  1.9533
 7924SOL     OW35407   3.527   2.015   8.989 -0.4655 -0.1182  0.5021
 7924SOL    HW135408   3.504   2.073   9.062  1.6131 -0.4860  1.4666
 7924SOL    HW235409   3.493   2.064   8.915  2.4741  1.4189  0.1993
 7925SOL     OW35410   1.839   4.384   7.198 -0.8598  0.1629 -0.5149
 7925SOL    HW135411   1.767   4.322   7.184 -2.8555  2.1614  0.8859
 7925SOL    HW235412   1.911   4.327   7.225 -2.1352 -1.2284 -0.0261
 7926SOL     OW35413   1.794   4.736   5.482  0.7310 -0.3561  0.4271
 7926SOL    HW135414   1.870   4.702   5.435 -0.6395 -1.9630 -0.6271
 7926SOL    HW235415   1.815   0.089   5.464  2.9064 -0.8386  0.5392
 7927SOL     OW35416   2.904   0.376   7.464 -0.1912  0.3201 -0.2047
 7927SOL    HW135417   2.810   0.359   7.472 -0.0523 -0.3873 -0.1148
 7927SOL    HW235418   2.935   0.298   7.418 -0.3783 -0.1440  0.4710
 7928SOL     OW35419   3.487   0.113  12.007  0.2038  0.1587  0.0738
 7928SOL    HW135420   3.445   0.076  11.929  1.7163 -0.6827 -0.3316
 7928SOL    HW235421   3.463   0.044  12.069  0.0508 -0.0473 -0.2169
 7929SOL     OW35422   1.027   2.112  15.289 -0.0708  0.2941  0.1375
 7929SOL    HW135423   1.035   2.028  15.243 -3.0050 -0.9182  1.8250
 7929SOL    HW235424   0.979   2.075  15.363 -0.5626 -0.7455 -0.7023
 7930SOL     OW35425   2.893   4.269   2.391  0.1813  0.4025 -0.0171
 7930SOL    HW135426   2.960   4.205   2.365  0.1601  0.0330  0.8505
 7930SOL    HW235427   2.939   4.295   2.471  0.3409 -0.9982  0.3551
 7931SOL     OW35428   1.704   1.176   8.374 -0.3618  0.3900  0.0549
 7931SOL    HW135429   1.723   1.245   8.310 -0.7180  0.7780  0.3625
 7931SOL    HW235430   1.674   1.105   8.317 -1.1052  0.8984 -0.1949
 7932SOL     OW35431   3.555   4.287   9.843  0.3516  0.1356 -0.2793
 7932SOL    HW135432   3.519   4.198   9.837 -1.2322  0.8559 -1.4482
 7932SOL    HW235433   3.529   4.312   9.931 -0.0422 -2.7324  0.4136
 7933SOL     OW35434   2.261   3.560   5.523  0.0301  0.2723  0.5902
 7933SOL    HW135435   2.343   3.607   5.509 -0.5309  0.8925 -0.5729
 7933SOL    HW235436   2.203   3.625   5.563  0.0568  0.5567  0.1566
 7934SOL     OW35437   2.281   1.620   3.977 -0.3402  0.0713 -0.1813
 7934SOL    HW135438   2.240   1.633   3.891  0.3080 -0.0015 -0.5000
 7934SOL    HW235439   2.333   1.543   3.953 -1.5977 -0.8129 -0.0400
 7935SOL     OW35440   0.254   1.378  12.330 -0.5219  0.3702  0.0481
 7935SOL    HW135441   0.208   1.460  12.350 -1.1681  0.3174 -1.2824
 7935SOL    HW235442   0.270   1.381  12.236 -0.5391 -1.2984 -0.0102
 7936SOL     OW35443   2.417   4.348   7.332  0.2082 -0.1204  0.0925
 7936SOL    HW135444   2.382   4.262   7.358  1.0126 -0.0458  1.4517
 7936SOL    HW235445   2.449   4.332   7.243  1.3054 -1.0170  0.6469
 7937SOL     OW35446   3.834   3.247  16.018 -0.7172  0.2845  0.3052
 7937SOL    HW135447   3.884   3.305  15.960  2.7038 -0.5605  2.4348
 7937SOL    HW235448   3.805   3.309  16.085  0.7383  0.7821  0.4550
 7938SOL     OW35449   0.451   2.688   6.036 -0.4172 -0.1378  0.4432
 7938SOL    HW135450   0.541   2.657   6.028 -1.2487 -1.8274 -2.2281
 7938SOL    HW235451   0.424   2.653   5.951  0.5815  0.5232 -0.1482
 7939SOL     OW35452   0.647   4.441   5.971  0.1768 -0.3078 -0.3229
 7939SOL    HW135453   0.657   4.527   5.930 -1.8257  0.4652  0.8061
 7939SOL    HW235454   0.711   4.446   6.041  1.2768  2.0297 -1.4757
 7940SOL     OW35455   0.546   1.033   2.361  0.2642  0.3544 -0.5013
 7940SOL    HW135456   0.638   1.005   2.353  0.4660  0.9229 -0.1438
 7940SOL    HW235457   0.526   0.997   2.275 -0.0440 -0.0181 -0.2756
 7941SOL     OW35458   3.257   1.152   9.030  0.3315 -0.3733 -0.2238
 7941SOL    HW135459   3.198   1.209   9.080  0.0402 -0.2574 -0.7012
 7941SOL    HW235460   3.345   1.170   9.065  0.5302  0.5017 -1.1815
 7942SOL     OW35461   0.544   0.474   1.837 -0.2392 -0.0543  0.6539
 7942SOL    HW135462   0.499   0.414   1.897 -1.2302 -1.5205 -1.5712
 7942SOL    HW235463   0.573   0.538   1.903 -1.7243  0.7274  0.5398
 7943SOL     OW35464   1.563   1.421  10.912  0.6618 -0.2548 -0.3731
 7943SOL    HW135465   1.563   1.462  10.999  0.0488 -2.2118  0.5550
 7943SOL    HW235466   1.655   1.431  10.886  0.4691  1.3029 -0.4654
 7944SOL     OW35467   0.476   2.972   3.458  0.0218 -0.0493 -0.1620
 7944SOL    HW135468   0.444   3.061   3.444  1.9812  0.7635  0.5249
 7944SOL    HW235469   0.411   2.942   3.522  1.2953 -0.7022  0.8410
 7945SOL     OW35470   3.698   0.227   7.303 -0.8010 -0.7588 -0.1776
 7945SOL    HW135471   3.625   0.183   7.258 -1.9567  1.4313 -0.4673
 7945SOL    HW235472   3.706   0.308   7.251  1.2595 -0.8137  0.0512
 7946SOL     OW35473   4.375   0.530  15.090 -0.3877 -0.2841  0.7383
 7946SOL    HW135474   4.437   0.473  15.044 -1.7510 -1.1485 -0.0291
 7946SOL    HW235475   4.332   0.563  15.011  1.6881 -0.7010 -0.5690
 7947SOL     OW35476   1.264   1.439   0.121  0.2453  0.3083 -0.1629
 7947SOL    HW135477   1.358   1.426   0.113 -0.0283 -1.6900  0.0007
 7947SOL    HW235478   1.270   1.529   0.153 -0.1040 -0.3431  1.7391
 7948SOL     OW35479   2.038   2.919   4.730 -0.3397 -0.5095 -0.3414
 7948SOL    HW135480   2.040   2.871   4.813 -2.3154 -0.5187 -0.2844
 7948SOL    HW235481   1.991   2.863   4.668  0.4764 -0.1634 -1.2596
 7949SOL     OW35482   0.863   1.716  14.000 -0.0611  0.0520  0.5273
 7949SOL    HW135483   0.832   1.645  14.057 -2.4842  0.8151  0.1541
 7949SOL    HW235484   0.884   1.780  14.068  1.1885  1.5697 -1.2845
 7950SOL     OW35485   2.426   4.699   5.882 -0.3948 -0.5412 -0.4379
 7950SOL    HW135486   2.384   4.629   5.831 -1.3094  0.9559 -1.7342
 7950SOL    HW235487   2.413   0.032   5.819 -0.6932  0.2615  0.5378
 7951SOL     OW35488   0.378   1.038   7.956  0.1620  0.5393 -0.3004
 7951SOL    HW135489   0.422   1.091   7.889 -1.0849  1.0766 -0.7048
 7951SOL    HW235490   0.396   0.951   7.922 -1.3191  0.7989 -1.7716
 7952SOL     OW35491   2.171   4.045   8.829 -0.3843  0.1741 -0.5321
 7952SOL    HW135492   2.117   4.119   8.856 -2.0034 -1.1277 -0.2467
 7952SOL    HW235493   2.257   4.085   8.812 -0.0014  0.3238  1.7952
 7953SOL     OW35494   0.031   0.118   6.752  0.1490 -0.4449 -0.2428
 7953SOL    HW135495   4.703   0.050   6.736  0.7151 -1.2584  0.9357
 7953SOL    HW235496   4.728   0.180   6.812 -2.8554 -0.3836 -2.3361
 7954SOL     OW35497   3.190   0.291   3.310  0.0329 -0.3137  0.4391
 7954SOL    HW135498   3.156   0.380   3.299  0.6804  0.0932  1.7156
 7954SOL    HW235499   3.111   0.239   3.295 -1.0213  2.0022 -2.0456
 7955SOL     OW35500   3.824   3.226   1.265 -0.6896  0.2786  0.2275
 7955SOL    HW135501   3.875   3.281   1.324  2.4072 -0.2053 -1.9524
 7955SOL    HW235502   3.845   3.258   1.177  1.7738  1.3558  1.2092
 7956SOL     OW35503   3.894   2.564  15.086 -0.1298  0.2482  0.2447
 7956SOL    HW135504   3.844   2.483  15.081  1.0666 -0.5688  1.5280
 7956SOL    HW235505   3.819   2.620  15.106  1.8319  3.7327 -2.1977
 7957SOL     OW35506   4.245   1.466   5.837 -0.1529  0.6447  0.0904
 7957SOL    HW135507   4.201   1.401   5.892 -0.4827  0.3395 -0.5351
 7957SOL    HW235508   4.174   1.489   5.778 -0.6142 -0.9082  0.0493
 7958SOL     OW35509   1.277   3.285  12.906  0.3525 -0.6169  0.1197
 7958SOL    HW135510   1.369   3.297  12.930 -0.3739  0.1972  2.4806
 7958SOL    HW235511   1.261   3.197  12.939 -1.4894 -0.8197 -1.3457
 7959SOL     OW35512   1.492   2.366   2.182 -0.4537 -0.1275 -0.1639
 7959SOL    HW135513   1.402   2.335   2.185 -0.4551 -0.2546 -1.2691
 7959SOL    HW235514   1.506   2.411   2.265 -1.3673  1.2569 -0.7578
 7960SOL     OW35515   3.413   3.281   5.035  0.0928  0.0458 -0.1367
 7960SOL    HW135516   3.407   3.354   5.096  0.1863  0.0780 -0.1650
 7960SOL    HW235517   3.491   3.300   4.982  0.9026 -0.2243  0.9496
 7961SOL     OW35518   3.714   3.863  13.231 -0.4805  0.2062  0.4927
 7961SOL    HW135519   3.634   3.834  13.188  1.6638 -1.3657 -2.4179
 7961SOL    HW235520   3.758   3.919  13.167 -0.8465  0.4963  0.4965
 7962SOL     OW35521   0.145   0.949  11.071 -0.0588 -0.3717  0.3386
 7962SOL    HW135522   0.062   0.994  11.089  1.0246  0.9828  2.0103
 7962SOL    HW235523   0.117   0.858  11.074 -1.6686  0.0521 -2.5120
 7963SOL     OW35524   1.814   0.883   1.537 -0.2085 -0.1657 -0.4816
 7963SOL    HW135525   1.895   0.860   1.490  1.0546 -1.0785  2.1652
 7963SOL    HW235526   1.850   0.937   1.607  0.0758 -0.5498 -0.3319
 7964SOL     OW35527   4.272   2.760  14.755  0.5172  0.3356 -0.4313
 7964SOL    HW135528   4.245   2.726  14.841 -1.4809  2.5620 -0.1786
 7964SOL    HW235529   4.341   2.823  14.779  1.3526 -0.5224 -0.5924
 7965SOL     OW35530   1.206   2.312  14.081 -0.3785 -0.5401 -0.2010
 7965SOL    HW135531   1.125   2.282  14.123 -0.8918  1.1200  0.0123
 7965SOL    HW235532   1.249   2.357  14.154  0.9727 -1.4947 -0.4044
 7966SOL     OW35533   2.294   1.079   3.655  0.3993  0.3189 -0.0358
 7966SOL    HW135534   2.250   1.161   3.679  1.1193  0.5514  0.4975
 7966SOL    HW235535   2.217   1.030   3.627  1.1878 -0.5405 -0.7126
 7967SOL     OW35536   2.245   1.166   4.375  0.4552 -0.3279  0.5908
 7967SOL    HW135537   2.180   1.212   4.321  1.9368  1.0572 -0.0016
 7967SOL    HW235538   2.291   1.245   4.400 -1.9302  1.0470  0.6334
 7968SOL     OW35539   2.868   4.025   4.231 -0.0900 -0.0999  0.1538
 7968SOL    HW135540   2.799   4.013   4.296  0.2651 -0.3895  0.4782
 7968SOL    HW235541   2.931   3.957   4.255  1.0405  0.5627 -0.9095
 7969SOL     OW35542   4.652   1.430   5.557 -0.5937 -0.0567  0.6277
 7969SOL    HW135543   4.556   1.435   5.558 -0.5110  1.8226 -0.1521
 7969SOL    HW235544   4.671   1.401   5.647 -2.5753  1.4196  1.5199
 7970SOL     OW35545   3.889   1.769  14.976  0.0894  0.1832 -0.2391
 7970SOL    HW135546   3.887   1.862  14.954 -0.7739 -0.0358 -1.1188
 7970SOL    HW235547   3.888   1.730  14.888  1.2576 -2.2422  0.8551
 7971SOL     OW35548   0.084   1.546   5.050 -0.1213 -0.0430  0.2022
 7971SOL    HW135549   4.730   1.543   5.023  0.4148 -1.1844 -1.4963
 7971SOL    HW235550   0.087   1.494   5.130 -0.7573 -0.5601 -0.1109
 7972SOL     OW35551   3.255   3.857   8.359  0.3455  0.2107 -0.3114
 7972SOL    HW135552   3.219   3.920   8.421  0.0940  0.5668 -0.8204
 7972SOL    HW235553   3.187   3.860   8.292  1.7813 -1.2390 -1.8675
 7973SOL     OW35554   0.225   4.492   6.769 -0.0583  0.0368  0.3102
 7973SOL    HW135555   0.303   4.541   6.797 -0.4833  1.9768 -1.9040
 7973SOL    HW235556   0.174   4.492   6.850  1.0016  0.6101  0.9884
 7974SOL     OW35557   0.679   4.634   5.543 -0.2215  0.3655  0.3790
 7974SOL    HW135558   0.727   4.668   5.468 -0.4294  0.3353  0.2318
 7974SOL    HW235559   0.757   4.615   5.596 -1.3104  1.0126  2.2303
 7975SOL     OW35560   2.703   4.685   2.186  0.1738 -0.3822  0.1388
 7975SOL    HW135561   2.621   4.685   2.136 -0.3657 -1.1258  1.0258
 7975SOL    HW235562   2.677   4.642   2.267  1.3670  0.1968  0.8354
 7976SOL     OW35563   3.343   2.339   0.096 -0.1316 -0.5365  0.1042
 7976SOL    HW135564   3.265   2.377   0.136  1.1634  1.3131  0.8815
 7976SOL    HW235565   3.398   2.416   0.085 -0.1498 -0.6375 -0.6668
 7977SOL     OW35566   1.421   0.938   2.518  0.1434  0.3805 -0.2258
 7977SOL    HW135567   1.332   0.907   2.532  0.8264 -1.9405 -0.9280
 7977SOL    HW235568   1.456   0.862   2.471  0.1925 -0.8609  1.8323
 7978SOL     OW35569   3.143   1.440   2.244  0.1942  0.2719 -0.5088
 7978SOL    HW135570   3.234   1.428   2.272  1.0180  1.6699 -2.6261
 7978SOL    HW235571   3.106   1.474   2.326  0.5116  2.4024 -1.2553
 7979SOL     OW35572   3.530   0.134  16.546  0.1711 -0.0059  0.2613
 7979SOL    HW135573   3.591   0.070  16.581  0.0653  0.1415  0.7104
 7979SOL    HW235574   3.574   0.152  16.463  0.3588 -1.7787 -0.0132
 7980SOL     OW35575   3.213   4.254   0.533  0.2261  0.1294  0.4865
 7980SOL    HW135576   3.203   4.179   0.474  2.8084  1.8296 -2.0531
 7980SOL    HW235577   3.307   4.259   0.550  0.3099  4.0701 -1.3273
 7981SOL     OW35578   1.523   1.850   8.485  0.1200 -0.7157  0.4333
 7981SOL    HW135579   1.428   1.853   8.473  0.3325 -1.4310 -1.3831
 7981SOL    HW235580   1.536   1.791   8.559 -0.9400 -0.2229  1.0072
 7982SOL     OW35581   3.579   2.073   3.480  0.1675 -0.1313 -0.5093
 7982SOL    HW135582   3.597   2.054   3.572 -0.1559 -1.7899 -0.7901
 7982SOL    HW235583   3.637   2.015   3.430 -0.9500 -1.7129  0.0183
 7983SOL     OW35584   1.823   0.101  12.990  0.5181  0.4690 -0.2364
 7983SOL    HW135585   1.840   0.034  13.056  0.4724  1.7361  1.0592
 7983SOL    HW235586   1.799   0.043  12.918 -0.0649 -0.5863  0.8051
 7984SOL     OW35587   4.671   1.498  10.293  0.2640  0.5105 -0.0486
 7984SOL    HW135588   4.672   1.406  10.269 -0.6882 -0.2426  2.7582
 7984SOL    HW235589   4.578   1.521  10.296  0.2724  0.6233 -0.8217
 7985SOL     OW35590   3.401   0.687   8.737 -0.7431  0.1196  0.3245
 7985SOL    HW135591   3.338   0.662   8.803 -1.0127  0.7557  0.3117
 7985SOL    HW235592   3.445   0.755   8.789 -0.4875  0.1487  0.0749
 7986SOL     OW35593   1.039   1.949   6.921 -0.4869 -0.9025 -0.3177
 7986SOL    HW135594   0.968   1.980   6.978  0.2152  2.5694 -1.3568
 7986SOL    HW235595   1.063   1.874   6.976 -0.3818 -0.1929  0.6163
 7987SOL     OW35596   0.855   1.957   4.118 -0.0551 -0.0271  0.2303
 7987SOL    HW135597   0.922   1.910   4.167 -0.1103 -0.7661 -0.4127
 7987SOL    HW235598   0.844   1.895   4.046 -1.8481  0.8544 -0.2549
 7988SOL     OW35599   1.703   1.756  13.744  0.4461  0.0604  0.0509
 7988SOL    HW135600   1.672   1.845  13.764 -0.4968 -0.2117 -0.2190
 7988SOL    HW235601   1.741   1.726  13.826  2.6447  0.2859 -0.8840
 7989SOL     OW35602   0.535   4.048   8.202 -0.1449  0.4073  0.5049
 7989SOL    HW135603   0.458   3.992   8.213 -0.9880  1.7945  1.6977
 7989SOL    HW235604   0.506   4.102   8.128 -1.8695  0.3198  1.1030
 7990SOL     OW35605   0.965   2.978   4.138 -0.0760  0.2445 -0.1302
 7990SOL    HW135606   1.002   3.041   4.077  1.5067 -1.8407 -1.3259
 7990SOL    HW235607   0.909   3.028   4.198  2.5804  0.3235  2.2924
 7991SOL     OW35608   2.714   0.770   3.588 -0.0670  0.0172  0.0655
 7991SOL    HW135609   2.655   0.845   3.583 -0.5805 -0.4553 -0.9507
 7991SOL    HW235610   2.653   0.712   3.635 -0.5509  1.0329  0.7088
 7992SOL     OW35611   4.444   0.064  13.772  0.4837  0.5736 -0.0172
 7992SOL    HW135612   4.509   0.049  13.704  0.9636  1.5875  0.2297
 7992SOL    HW235613   4.453   4.723  13.826 -1.0077  0.3045 -0.1497
 7993SOL     OW35614   4.189   1.548   0.879 -0.0689  0.2985  0.9826
 7993SOL    HW135615   4.227   1.604   0.811  1.8721 -0.5113  1.3958
 7993SOL    HW235616   4.101   1.583   0.892 -0.6874 -1.0650  0.3968
 7994SOL     OW35617   1.719   4.722  15.985 -0.2750  0.0193  0.3854
 7994SOL    HW135618   1.772   0.029  15.919 -1.4919  1.6470  0.5155
 7994SOL    HW235619   1.712   4.633  15.951 -2.1278  0.3182 -0.0574
 7995SOL     OW35620   3.734   0.441   6.690  0.3424 -0.1916  0.0335
 7995SOL    HW135621   3.725   0.423   6.597  2.4717  2.3986 -0.6772
 7995SOL    HW235622   3.661   0.388   6.723 -0.0376 -0.7202 -1.6397
 7996SOL     OW35623   0.390   1.314   2.381  0.0341  0.8189 -0.4062
 7996SOL    HW135624   0.431   1.231   2.404 -2.4034  0.3902  2.5344
 7996SOL    HW235625   0.430   1.364   2.452  2.0524 -0.7943 -0.4202
 7997SOL     OW35626   4.736   1.432   4.492 -0.4541 -0.2463  0.4995
 7997SOL    HW135627   4.688   1.444   4.574 -2.4112 -1.7633 -0.4416
 7997SOL    HW235628   4.672   1.383   4.442 -0.0536 -0.3642  0.1027
 7998SOL     OW35629   1.380   2.058   5.900 -0.1663 -0.2542  0.0105
 7998SOL    HW135630   1.468   2.095   5.903  0.2432 -1.4391  2.9513
 7998SOL    HW235631   1.370   2.052   5.996 -1.6612 -3.3863 -0.3403
 7999SOL     OW35632   1.562   3.285  12.936 -0.5966  0.1801 -0.3834
 7999SOL    HW135633   1.580   3.312  13.026 -1.2466  0.1919 -0.2559
 7999SOL    HW235634   1.638   3.230  12.917 -0.9416 -0.1753 -0.7563
 8000SOL     OW35635   4.569   2.394  10.386 -0.4547  0.1442 -0.4994
 8000SOL    HW135636   4.643   2.449  10.412  0.7075 -1.3097 -0.7602
 8000SOL    HW235637   4.608   2.307  10.380  1.2309  0.9918 -1.9455
 8001SOL     OW35638   2.095   4.355   6.804  0.0309  0.5441  0.5575
 8001SOL    HW135639   2.055   4.442   6.801 -1.2068  0.0015  1.2018
 8001SOL    HW235640   2.052   4.312   6.878 -0.2474  2.5086  1.5508
 8002SOL     OW35641   0.858   3.586   2.781 -0.0352 -0.3601  0.4366
 8002SOL    HW135642   0.903   3.670   2.784 -2.9625  1.2261  0.0440
 8002SOL    HW235643   0.914   3.532   2.725 -2.2580 -1.1422 -1.0703
 8003SOL     OW35644   4.218   3.063   3.584  0.5869 -0.0709 -0.5115
 8003SOL    HW135645   4.166   3.118   3.525 -1.2834 -1.0280  0.2553
 8003SOL    HW235646   4.297   3.117   3.582 -0.8407  2.0810  1.6641
 8004SOL     OW35647   3.626   1.944   5.153 -0.1374  0.4613  0.3980
 8004SOL    HW135648   3.599   1.866   5.104  3.3649 -0.6770  0.2831
 8004SOL    HW235649   3.537   1.974   5.168 -0.9606 -1.3779 -0.7424
 8005SOL     OW35650   2.681   4.329   6.603  0.5595  0.4362  0.0014
 8005SOL    HW135651   2.700   4.237   6.618 -0.6288  0.1723 -0.1231
 8005SOL    HW235652   2.700   4.370   6.687 -0.1224 -0.7685  0.7426
 8006SOL     OW35653   1.860   1.040   3.807  0.2855  0.2080  0.2577
 8006SOL    HW135654   1.829   1.103   3.872 -0.6715 -1.2044  1.1666
 8006SOL    HW235655   1.956   1.033   3.808  0.2734  0.0116  0.0376
 8007SOL     OW35656   0.529   3.360   7.020  0.0220  0.5069  0.1259
 8007SOL    HW135657   0.521   3.394   7.110  1.5892 -1.2090  0.9143
 8007SOL    HW235658   0.613   3.402   7.003  0.5667  0.2584  2.1244
 8008SOL     OW35659   1.332   4.566   6.315 -0.0475  0.2792  0.0161
 8008SOL    HW135660   1.251   4.516   6.301 -0.0014 -0.3918  2.1117
 8008SOL    HW235661   1.387   4.538   6.242  0.3559  2.2868 -0.4428
 8009SOL     OW35662   3.837   2.188  17.200 -0.0749 -0.1085 -0.3088
 8009SOL    HW135663   3.752   2.224  17.223 -0.0842 -1.6647  2.0343
 8009SOL    HW235664   3.885   2.271  17.190  0.2103 -0.3533 -1.0254
 8010SOL     OW35665   1.262   2.006   3.926  0.0152 -0.3080  0.1379
 8010SOL    HW135666   1.198   2.077   3.937  0.9890  0.3444  1.5566
 8010SOL    HW235667   1.332   2.050   3.975 -0.9023  1.0381  0.2569
 8011SOL     OW35668   1.589   2.982   3.991  0.2180 -0.0714  0.3949
 8011SOL    HW135669   1.674   2.937   3.991  0.0153 -0.4511 -0.4275
 8011SOL    HW235670   1.578   2.973   3.896 -1.4855 -0.5542  0.6318
 8012SOL     OW35671   0.368   0.578   0.051  0.2062 -0.4084 -0.1625
 8012SOL    HW135672   0.280   0.546   0.032 -0.0800 -0.9513  2.1079
 8012SOL    HW235673   0.383   0.605  17.710  2.2693 -1.9910 -0.2942
 8013SOL     OW35674   3.010   0.561  16.525 -0.3145  0.3318 -0.1045
 8013SOL    HW135675   3.057   0.641  16.501  0.4262  0.3160  1.2986
 8013SOL    HW235676   3.079   0.495  16.515 -1.6428 -0.9150 -1.1766
 8014SOL     OW35677   2.732   2.933  15.788  0.5358  0.4635 -0.3485
 8014SOL    HW135678   2.749   2.859  15.846 -0.4973  2.0642  2.0215
 8014SOL    HW235679   2.751   2.891  15.704 -0.5955 -1.3748  0.3095
 8015SOL     OW35680   0.034   0.227   1.859  0.3573  0.5332 -0.0266
 8015SOL    HW135681   0.122   0.189   1.853 -0.7192 -2.2001  1.9543
 8015SOL    HW235682   4.734   0.180   1.785 -0.5658 -1.9422  2.0366
 8016SOL     OW35683   2.575   0.593   5.566  0.0524 -0.2261 -0.7812
 8016SOL    HW135684   2.586   0.505   5.603 -0.0319 -0.2231 -0.7484
 8016SOL    HW235685   2.642   0.588   5.498  0.4394  4.3269 -0.7365
 8017SOL     OW35686   0.963   3.473  16.980  0.0673  0.6192  0.5686
 8017SOL    HW135687   0.926   3.533  17.044 -1.9499 -1.3209  1.2262
 8017SOL    HW235688   0.991   3.541  16.918 -0.6906 -0.7869 -1.3247
 8018SOL     OW35689   0.467   1.689   9.262 -0.2359 -0.4436  0.1576
 8018SOL    HW135690   0.407   1.650   9.326 -0.1338 -1.5014 -0.3775
 8018SOL    HW235691   0.450   1.623   9.194  1.9945 -2.6426  1.7228
 8019SOL     OW35692   2.858   2.074   2.203 -0.2405  0.3346 -0.4558
 8019SOL    HW135693   2.940   2.099   2.246 -0.2616  1.3105 -0.9592
 8019SOL    HW235694   2.808   2.151   2.230 -0.0870  0.1113  0.4598
 8020SOL     OW35695   0.539   2.832   7.360  0.0391  0.0541 -0.0587
 8020SOL    HW135696   0.602   2.884   7.309 -0.8834 -0.8339 -2.1205
 8020SOL    HW235697   0.600   2.762   7.383  2.6390  1.2273 -3.3197
 8021SOL     OW35698   2.180   0.750   7.632  0.4418 -0.3961  0.3401
 8021SOL    HW135699   2.160   0.766   7.540  0.9330 -2.3652 -0.1129
 8021SOL    HW235700   2.222   0.832   7.657 -0.9645  0.3159  0.3307
 8022SOL     OW35701   0.593   0.826   1.009  0.1168  0.6747  0.4539
 8022SOL    HW135702   0.567   0.825   1.101  1.5508 -0.4096  0.8575
 8022SOL    HW235703   0.514   0.783   0.977  0.7154  0.9581 -1.4120
 8023SOL     OW35704   1.232   1.820   4.719  0.9414  0.3370 -0.4085
 8023SOL    HW135705   1.317   1.788   4.751  1.0061  0.5582 -0.3614
 8023SOL    HW235706   1.207   1.875   4.793 -0.2033 -1.7876  0.7677
 8024SOL     OW35707   1.645   4.103   3.971 -0.0570  0.4342 -0.4362
 8024SOL    HW135708   1.561   4.058   3.982 -0.3964  0.9236 -1.0125
 8024SOL    HW235709   1.641   4.177   4.030  0.7749  0.2989 -0.2113
 8025SOL     OW35710   1.653   3.072   5.755  0.2709  0.0088  0.0739
 8025SOL    HW135711   1.615   2.988   5.730  2.2927 -0.7042 -0.6020
 8025SOL    HW235712   1.573   3.116   5.783 -0.1272 -1.2792  0.9755
 8026SOL     OW35713   4.431   4.129   4.587 -0.1132 -0.3661  0.4029
 8026SOL    HW135714   4.464   4.040   4.573  1.8013 -0.1069  3.1597
 8026SOL    HW235715   4.431   4.155   4.495  1.3512  2.6137  1.2493
 8027SOL     OW35716   1.012   0.007   4.009  0.4307 -0.0024  0.1520
 8027SOL    HW135717   0.918   0.019   3.995  0.5452  0.3458 -0.3259
 8027SOL    HW235718   1.057   0.027   3.927  1.9622 -3.8333  0.0593
 8028SOL     OW35719   4.046   2.936   6.671 -0.3697  0.0376  0.1300
 8028SOL    HW135720   3.988   2.861   6.680  0.7507 -0.7105  0.9834
 8028SOL    HW235721   3.978   3.000   6.691 -0.0566  0.3954  0.0497
 8029SOL     OW35722   0.805   3.018   7.708 -0.3685 -0.1825  0.1841
 8029SOL    HW135723   0.840   2.934   7.736  0.6248  0.3966  0.6364
 8029SOL    HW235724   0.710   3.004   7.715 -0.2610 -0.4633  0.9945
 8030SOL     OW35725   3.851   2.442  13.379 -0.2421  0.0740 -0.2778
 8030SOL    HW135726   3.835   2.432  13.473  1.0970 -1.5215 -0.2274
 8030SOL    HW235727   3.763   2.422  13.347  0.1278 -0.8894 -0.6894
 8031SOL     OW35728   3.547   2.729   4.056 -0.0545 -0.0116 -0.1314
 8031SOL    HW135729   3.533   2.635   4.070  0.9479 -0.1451 -0.0570
 8031SOL    HW235730   3.564   2.750   4.148 -1.6233 -0.2609  0.2163
 8032SOL     OW35731   2.868   4.698   3.828 -0.0777  0.0747  0.7335
 8032SOL    HW135732   2.899   4.668   3.913 -0.9114  2.2910  1.8211
 8032SOL    HW235733   2.945   0.009   3.800 -0.9856  1.8535  1.3969
 8033SOL     OW35734   3.722   2.446  13.048 -0.1564 -0.4593  0.3006
 8033SOL    HW135735   3.747   2.377  13.109 -2.0161 -1.6765 -0.3120
 8033SOL    HW235736   3.627   2.459  13.049  0.1518  2.0810 -2.6178
 8034SOL     OW35737   3.584   3.167   3.963  0.4223 -0.0499 -0.2155
 8034SOL    HW135738   3.549   3.152   3.876  0.6145 -0.6650 -0.1848
 8034SOL    HW235739   3.613   3.259   3.958  0.1290 -0.0982 -2.8546
 8035SOL     OW35740   0.114   1.247   3.281 -0.1278  0.0135 -0.0197
 8035SOL    HW135741   0.138   1.165   3.238  1.8661  1.0493 -0.8987
 8035SOL    HW235742   0.094   1.215   3.368  0.2081  1.0816  0.4492
 8036SOL     OW35743   2.005   2.935   5.553  0.6622  0.6352  0.2021
 8036SOL    HW135744   2.067   2.874   5.514  1.1950  3.2506 -3.0015
 8036SOL    HW235745   1.968   2.985   5.480 -0.2349 -1.8393 -1.0527
 8037SOL     OW35746   2.628   1.425   6.780 -0.1663 -0.7510 -0.0691
 8037SOL    HW135747   2.664   1.343   6.748 -1.1870 -1.7115  1.2062
 8037SOL    HW235748   2.666   1.416   6.868 -0.0416  1.2552  0.0833
 8038SOL     OW35749   1.983   3.190  10.237  0.0040 -0.2773 -0.3181
 8038SOL    HW135750   1.996   3.252  10.165  0.2469 -0.0750 -0.0964
 8038SOL    HW235751   1.954   3.108  10.197 -0.4293 -0.4663  0.3903
 8039SOL     OW35752   2.400   3.485   9.163  0.3823  0.0733  0.4139
 8039SOL    HW135753   2.423   3.526   9.247 -0.5870  2.3375 -0.4214
 8039SOL    HW235754   2.308   3.463   9.179 -0.0672  1.3672 -0.3309
 8040SOL     OW35755   1.071   0.995   7.082  0.0884  0.3731  0.1561
 8040SOL    HW135756   1.140   0.970   7.144 -1.0839 -2.1727  0.4429
 8040SOL    HW235757   0.995   0.959   7.128 -0.3834  2.2886  0.8708
 8041SOL     OW35758   1.454   3.799   8.106  0.1649  0.1056 -0.1134
 8041SOL    HW135759   1.424   3.758   8.186  0.7205  2.3668  1.2519
 8041SOL    HW235760   1.481   3.887   8.132 -3.3168  1.5119 -1.2356
 8042SOL     OW35761   0.234   2.100   4.346 -0.7258  0.3740 -0.0944
 8042SOL    HW135762   0.265   2.187   4.370 -0.7787  0.3586  0.0303
 8042SOL    HW235763   0.227   2.052   4.428 -1.7015 -0.4403 -0.6416
 8043SOL     OW35764   1.976   3.016   2.271 -0.3412  0.0323 -0.3869
 8043SOL    HW135765   2.061   2.988   2.305 -0.6832 -0.2180  0.2585
 8043SOL    HW235766   1.915   2.961   2.321  0.8785  0.2510  1.3317
 8044SOL     OW35767   4.322   2.833   5.732 -0.4581  0.0790 -0.1703
 8044SOL    HW135768   4.331   2.739   5.717  0.1131  0.4785 -2.3762
 8044SOL    HW235769   4.351   2.862   5.645 -0.5305  0.6341 -0.0131
 8045SOL     OW35770   3.818   1.433   4.824  0.5558  0.3597  0.2119
 8045SOL    HW135771   3.787   1.519   4.851 -3.0855 -0.2229 -1.9396
 8045SOL    HW235772   3.913   1.440   4.824  0.7748 -2.6038  1.0963
 8046SOL     OW35773   0.526   2.152   7.140  0.2861  0.2587 -0.3405
 8046SOL    HW135774   0.540   2.085   7.207 -1.2829  0.9634  0.7100
 8046SOL    HW235775   0.442   2.186   7.173  0.7614  0.2235  0.8715
 8047SOL     OW35776   2.686   0.407   7.130  0.1537 -0.8448 -0.5170
 8047SOL    HW135777   2.612   0.354   7.161 -1.5739  2.2602  0.7051
 8047SOL    HW235778   2.639   0.479   7.088 -2.0714 -0.8141  1.9559
 8048SOL     OW35779   2.852   4.499   1.841 -0.1737 -0.0923 -0.3288
 8048SOL    HW135780   2.897   4.524   1.922  1.2323  0.2087 -1.2073
 8048SOL    HW235781   2.902   4.430   1.798  2.3431  2.7205 -1.8961
 8049SOL     OW35782   3.981   1.062   2.773  0.7398 -0.3942 -0.1698
 8049SOL    HW135783   3.938   1.106   2.846  1.4664  0.7398 -0.4359
 8049SOL    HW235784   4.066   1.047   2.814  0.4155 -0.7521  0.3686
 8050SOL     OW35785   1.149   0.593  17.182 -0.2468  0.1448 -0.3006
 8050SOL    HW135786   1.218   0.527  17.174  0.8928  1.4013 -0.9431
 8050SOL    HW235787   1.079   0.553  17.130 -1.7527  1.0748  1.0042
 8051SOL     OW35788   3.591   3.301   0.760 -0.3067  0.2143  0.4331
 8051SOL    HW135789   3.631   3.343   0.836 -1.9638  1.3957  0.6341
 8051SOL    HW235790   3.509   3.277   0.803 -1.7890  2.3660 -1.2215
 8052SOL     OW35791   1.282   1.508  16.508  0.0167 -0.3442 -0.2293
 8052SOL    HW135792   1.375   1.491  16.491  0.3290 -0.1465  1.2294
 8052SOL    HW235793   1.274   1.601  16.485 -0.2450  0.1523  1.8490
 8053SOL     OW35794   2.415   4.110  10.545  0.0845 -0.7854 -0.0608
 8053SOL    HW135795   2.497   4.146  10.510  0.2331 -0.7415  0.3345
 8053SOL    HW235796   2.344   4.165  10.510  1.8555  2.0417  0.7441
 8054SOL     OW35797   3.266   4.476   5.252 -0.1333  0.4193  0.0556
 8054SOL    HW135798   3.219   4.557   5.271  0.3420  0.6534  0.2116
 8054SOL    HW235799   3.237   4.411   5.316  2.7270 -0.8604  0.0251
 8055SOL     OW35800   1.433   2.521   3.698 -0.1410 -0.1670  0.0401
 8055SOL    HW135801   1.528   2.522   3.705  0.0715  0.1590 -3.2480
 8055SOL    HW235802   1.421   2.426   3.696  0.6471 -0.2636  0.1239
 8056SOL     OW35803   2.060   2.714  15.730 -0.1229 -0.2542 -0.3266
 8056SOL    HW135804   2.029   2.717  15.820 -1.8108 -0.0251 -0.9193
 8056SOL    HW235805   1.976   2.738  15.690  0.6849  2.4035 -0.4551
 8057SOL     OW35806   4.067   1.536   0.010  0.5970 -0.1337  0.2989
 8057SOL    HW135807   4.017   1.555   0.090 -0.0808  0.1344 -0.1934
 8057SOL    HW235808   4.141   1.591   0.038 -0.2026  0.6543  0.8834
 8058SOL     OW35809   1.884   0.995   8.753 -0.3203  0.0456  0.0060
 8058SOL    HW135810   1.870   0.902   8.740 -0.6163  0.0446  0.3294
 8058SOL    HW235811   1.798   1.029   8.729 -0.6684 -0.1445  0.9876
 8059SOL     OW35812   3.055   1.543   2.481  0.5828  0.6258 -0.2057
 8059SOL    HW135813   2.987   1.526   2.546 -0.2273 -1.2816 -1.5391
 8059SOL    HW235814   3.094   1.624   2.514 -0.4156  0.2123  2.0095
 8060SOL     OW35815   3.581   2.328  14.842 -0.6523 -0.1811  0.2931
 8060SOL    HW135816   3.655   2.273  14.865 -0.1390  0.4707  0.2058
 8060SOL    HW235817   3.589   2.320  14.747  3.4912  1.3660  0.5199
 8061SOL     OW35818   4.159   0.201   2.199 -0.0677  0.2574  0.4219
 8061SOL    HW135819   4.064   0.194   2.211 -0.0091 -1.1280  0.0802
 8061SOL    HW235820   4.186   0.109   2.198 -0.9734 -0.0125  0.6860
 8062SOL     OW35821   1.961   3.548  13.157  0.1078  0.0357  0.7387
 8062SOL    HW135822   1.881   3.584  13.118 -0.1562  0.6091  1.8125
 8062SOL    HW235823   1.953   3.556  13.252 -1.1565  2.1382  0.4622
 8063SOL     OW35824   2.293   0.749   8.013  0.4350  0.2985  0.3378
 8063SOL    HW135825   2.279   0.843   8.001  0.1560  0.2551  0.3289
 8063SOL    HW235826   2.240   0.723   8.089 -1.3287  1.5369 -0.4665
 8064SOL     OW35827   0.691   1.385   6.826  0.0826 -0.5645  0.6623
 8064SOL    HW135828   0.774   1.338   6.829 -0.4226 -1.4287  0.8450
 8064SOL    HW235829   0.726   1.463   6.783  2.3054 -1.5612  0.6780
 8065SOL     OW35830   0.151   2.727   1.575  0.4047 -0.0951 -0.5909
 8065SOL    HW135831   0.058   2.743   1.594  0.7311  0.4254  0.5272
 8065SOL    HW235832   0.166   2.790   1.505  0.5248  1.9250  1.2741
 8066SOL     OW35833   4.016   2.524  15.529 -0.0130  0.0457  0.2382
 8066SOL    HW135834   4.038   2.462  15.599 -1.4265  2.5296  2.8583
 8066SOL    HW235835   3.926   2.496  15.509  0.3094 -0.3849 -0.6365
 8067SOL     OW35836   4.062   4.263   5.288 -0.5258  0.2442  0.5687
 8067SOL    HW135837   4.018   4.188   5.248  0.0834 -0.4414  1.1794
 8067SOL    HW235838   4.145   4.244   5.244 -0.6917  1.1179 -0.1155
 8068SOL     OW35839   1.073   4.020   5.160  0.0378  0.0258  0.2163
 8068SOL    HW135840   0.993   4.050   5.118 -0.2231 -3.0576 -1.4984
 8068SOL    HW235841   1.127   4.046   5.085  1.5244 -0.8673  0.9533
 8069SOL     OW35842   0.085   3.114   7.240 -0.3664  0.0077  0.2265
 8069SOL    HW135843   0.051   3.051   7.177 -2.0909  0.7824  0.3973
 8069SOL    HW235844   0.153   3.059   7.279 -1.0917 -1.0259  0.0351
 8070SOL     OW35845   3.129   3.651   7.066 -0.2906  0.5143  0.1749
 8070SOL    HW135846   3.134   3.594   6.989 -0.1041 -0.4804  0.9432
 8070SOL    HW235847   3.083   3.605   7.135 -1.3535  1.8895  0.3894
 8071SOL     OW35848   4.219   2.959   7.850  0.6963 -0.0943  0.2308
 8071SOL    HW135849   4.243   3.046   7.817  2.0528 -0.9023 -0.9157
 8071SOL    HW235850   4.182   2.921   7.770 -0.1737 -0.7757  0.9540
 8072SOL     OW35851   1.281   4.547   8.148  0.0961 -0.0551 -0.3518
 8072SOL    HW135852   1.313   4.556   8.238  0.4171 -1.5495 -0.3246
 8072SOL    HW235853   1.252   4.456   8.148 -0.1017 -0.0069  1.7751
 8073SOL     OW35854   0.428   2.654  11.855  0.0331 -0.2158  0.6097
 8073SOL    HW135855   0.341   2.689  11.876  0.6116  1.2792  0.4531
 8073SOL    HW235856   0.480   2.713  11.909 -2.3985  1.4017  1.1846
 8074SOL     OW35857   1.866   1.016   6.046 -0.4926  0.5254 -0.5548
 8074SOL    HW135858   1.941   0.984   5.997 -0.1286 -0.4901  0.6889
 8074SOL    HW235859   1.825   1.063   5.973 -1.5670  0.1142 -0.2191
 8075SOL     OW35860   2.057   3.302   4.038  0.2357  0.2706  0.3055
 8075SOL    HW135861   2.008   3.292   3.957  1.1732  0.6328 -0.3098
 8075SOL    HW235862   1.994   3.277   4.106 -0.4678 -0.3232 -0.5591
 8076SOL     OW35863   1.692   1.767   9.544  0.2710  0.2022  0.5498
 8076SOL    HW135864   1.722   1.782   9.455  0.1798  1.1026  0.6675
 8076SOL    HW235865   1.694   1.672   9.553  0.1930  0.0595 -1.0082
 8077SOL     OW35866   2.610   1.638  10.131  0.1313 -0.0994 -0.4729
 8077SOL    HW135867   2.591   1.726  10.098 -0.2685 -0.0657 -0.1495
 8077SOL    HW235868   2.546   1.630  10.201  0.5859 -1.0416 -0.1618
 8078SOL     OW35869   4.491   3.688   2.399 -0.5807 -0.0058  0.1224
 8078SOL    HW135870   4.447   3.622   2.346 -2.1199  1.8398 -0.8907
 8078SOL    HW235871   4.566   3.703   2.341 -2.1061  2.2268 -1.2751
 8079SOL     OW35872   3.111   2.863   8.744  0.2697 -0.3592  0.6843
 8079SOL    HW135873   3.202   2.868   8.773  0.2197  2.2868  0.3807
 8079SOL    HW235874   3.054   2.886   8.817  0.1286 -0.9569  0.7564
 8080SOL     OW35875   2.851   0.976  17.296 -0.0230  0.3567 -0.0860
 8080SOL    HW135876   2.810   0.979  17.382 -1.2356  0.0318 -0.6462
 8080SOL    HW235877   2.940   0.979  17.332  0.0994 -0.3245 -0.3334
 8081SOL     OW35878   4.431   1.238   2.291 -0.3353  0.6469 -0.0295
 8081SOL    HW135879   4.522   1.219   2.316 -0.4694 -0.4064 -0.3483
 8081SOL    HW235880   4.411   1.181   2.217 -2.8596 -0.4893  1.5441
 8082SOL     OW35881   4.667   3.635   3.928 -0.0627 -0.1507  0.0422
 8082SOL    HW135882   4.608   3.572   3.886  0.0212 -0.8251  0.9335
 8082SOL    HW235883   4.729   3.645   3.856 -0.8393  2.3480 -0.2863
 8083SOL     OW35884   3.135   3.044   9.959  0.1846 -0.3561  0.5188
 8083SOL    HW135885   3.179   3.127   9.975  0.2770 -0.8495  2.7372
 8083SOL    HW235886   3.044   3.062   9.985 -0.1778 -1.2232 -0.1444
 8084SOL     OW35887   4.061   3.471   4.054 -0.0466 -0.2327 -0.8793
 8084SOL    HW135888   3.997   3.423   4.107  1.8300  0.1934  1.7686
 8084SOL    HW235889   4.053   3.414   3.978 -0.4208 -0.0613 -0.9676
 8085SOL     OW35890   0.067   2.030   5.084  0.7348  0.4500  0.1607
 8085SOL    HW135891   0.096   1.965   5.148 -0.0489  0.8857  0.9440
 8085SOL    HW235892   0.046   2.107   5.137 -0.2325 -0.9240  1.7740
 8086SOL     OW35893   0.279   0.787   6.952 -0.2830  0.4074  0.2298
 8086SOL    HW135894   0.218   0.816   6.884 -1.9556  0.1418  1.6156
 8086SOL    HW235895   0.239   0.834   7.024  0.7432 -0.4404  1.3506
 8087SOL     OW35896   0.220   0.954  10.022  0.0276  0.1865  0.3485
 8087SOL    HW135897   0.236   1.015  10.095  0.5617  1.1092 -0.5338
 8087SOL    HW235898   0.135   0.918  10.046  1.7957 -2.8899  1.9880
 8088SOL     OW35899   2.951   3.881   7.137 -0.2112 -0.4350  0.1840
 8088SOL    HW135900   2.964   3.901   7.230 -2.0626  1.2751  0.0955
 8088SOL    HW235901   3.016   3.815   7.114  0.7081  0.9384 -1.2095
 8089SOL     OW35902   0.311   1.699   2.571  0.4255 -0.1383 -0.5160
 8089SOL    HW135903   0.256   1.758   2.520 -2.5992  0.4362  3.4487
 8089SOL    HW235904   0.252   1.667   2.639  1.0055  1.6816  0.8570
 8090SOL     OW35905   2.486   1.746   4.565 -0.0845  0.2553 -0.5589
 8090SOL    HW135906   2.420   1.804   4.526 -0.7565 -1.3407 -1.8059
 8090SOL    HW235907   2.543   1.725   4.490  1.6571  2.8137  0.0473
 8091SOL     OW35908   2.476   3.134   2.740  0.0534  0.5063  0.2952
 8091SOL    HW135909   2.564   3.119   2.706  1.3137  1.1060  3.2961
 8091SOL    HW235910   2.451   3.046   2.768 -1.6289  0.8793 -0.0596
 8092SOL     OW35911   4.120   0.733   5.952 -0.5283  0.1184  0.2107
 8092SOL    HW135912   4.140   0.743   5.859  0.0095 -0.5988  0.2524
 8092SOL    HW235913   4.184   0.667   5.978 -1.9793 -1.3125  0.1611
 8093SOL     OW35914   0.931   0.577   7.295 -0.2337  0.0296  0.4848
 8093SOL    HW135915   0.933   0.495   7.345 -0.7895  0.2006  0.7912
 8093SOL    HW235916   0.848   0.565   7.250  0.2548 -1.5220 -0.0077
 8094SOL     OW35917   4.192   3.009   3.175  0.2932 -0.3026  0.3222
 8094SOL    HW135918   4.230   3.016   3.088  1.6082 -1.2121  0.8139
 8094SOL    HW235919   4.190   2.915   3.191 -1.0409 -0.4493 -0.7126
 8095SOL     OW35920   4.254   4.360   6.065 -0.3339  0.1705  0.2672
 8095SOL    HW135921   4.341   4.323   6.075  0.2832  0.5982 -3.5213
 8095SOL    HW235922   4.278   4.452   6.058  0.6025 -0.1173 -0.2529
 8096SOL     OW35923   4.057   1.134   0.120 -0.1981 -0.5241 -0.4025
 8096SOL    HW135924   4.052   1.160   0.212 -3.5438 -1.5520 -0.2919
 8096SOL    HW235925   4.108   1.204   0.081  2.5429 -1.0776  2.1907
 8097SOL     OW35926   2.678   3.778  12.008 -0.1050 -0.6515  0.2397
 8097SOL    HW135927   2.651   3.863  11.972  1.2345 -0.8022 -1.1809
 8097SOL    HW235928   2.662   3.795  12.100 -0.2858 -2.0405  0.4640
 8098SOL     OW35929   1.629   2.751   9.290  0.4726  0.0797 -0.5250
 8098SOL    HW135930   1.571   2.826   9.283  0.0974  0.1395  2.9169
 8098SOL    HW235931   1.709   2.795   9.320  2.3860 -3.0191 -1.0651
 8099SOL     OW35932   1.525   3.698   5.153 -0.4874 -1.0524 -0.5125
 8099SOL    HW135933   1.464   3.699   5.227  0.8647 -0.9021  0.6174
 8099SOL    HW235934   1.565   3.613   5.172  2.2082  0.0212 -1.3775
 8100SOL     OW35935   0.385   4.056   6.797 -0.1367  0.3577 -0.6711
 8100SOL    HW135936   0.293   4.079   6.789  0.3169  1.9934 -1.1648
 8100SOL    HW235937   0.404   4.032   6.707  1.4663 -1.0351  0.0371
 8101SOL     OW35938   2.902   2.020  12.149  0.2201  0.2781 -0.4342
 8101SOL    HW135939   2.924   2.098  12.098  0.2071  1.4008  1.2950
 8101SOL    HW235940   2.870   2.069  12.225  1.5964 -1.3929  1.2270
 8102SOL     OW35941   2.511   4.553   7.487  0.0938  0.1084 -0.4838
 8102SOL    HW135942   2.542   4.599   7.408  1.0372  1.6486  0.7833
 8102SOL    HW235943   2.473   4.478   7.441  1.4599  0.2552 -1.8726
 8103SOL     OW35944   3.681   2.267   0.363 -0.1646 -0.3586  0.2773
 8103SOL    HW135945   3.766   2.245   0.326  0.4664  0.7379  1.0769
 8103SOL    HW235946   3.711   2.245   0.452 -2.0495 -1.6692  0.5986
 8104SOL     OW35947   3.603   3.728  10.086 -0.0871 -0.1742 -0.2284
 8104SOL    HW135948   3.580   3.810  10.043  0.9896  0.6864  0.8368
 8104SOL    HW235949   3.537   3.711  10.153  0.1023  0.3372  0.0880
 8105SOL     OW35950   2.795   4.395  10.769  0.1203 -0.4630  0.0709
 8105SOL    HW135951   2.886   4.409  10.746  0.4496  0.7954  2.0930
 8105SOL    HW235952   2.762   4.335  10.702  0.0509  0.7910 -1.0118
 8106SOL     OW35953   0.271   1.307   8.007  0.4017  0.3704  0.2602
 8106SOL    HW135954   0.299   1.216   8.010  0.7213  0.4845  0.6501
 8106SOL    HW235955   0.266   1.324   8.101 -0.3107 -0.9373  0.4663
 8107SOL     OW35956   4.048   2.301   0.453  0.5884  0.0622  0.4811
 8107SOL    HW135957   4.002   2.255   0.382  1.7699 -2.8247  1.6006
 8107SOL    HW235958   4.093   2.364   0.397  0.0886 -1.4799 -1.6311
 8108SOL     OW35959   3.513   3.845   2.243 -0.4625  0.3319  0.3128
 8108SOL    HW135960   3.573   3.770   2.250 -0.7480  0.0599 -0.1473
 8108SOL    HW235961   3.568   3.904   2.192 -1.3382  0.6456 -0.2628
 8109SOL     OW35962   0.834   1.164   5.246  0.2478 -0.6280  0.4027
 8109SOL    HW135963   0.824   1.248   5.292  1.5482  1.3557 -2.9593
 8109SOL    HW235964   0.770   1.109   5.291  1.7420 -2.1696  0.6295
 8110SOL     OW35965   1.757   4.078   3.682  0.4816 -0.0699 -0.4511
 8110SOL    HW135966   1.722   3.989   3.684  3.0224 -0.9599  4.6612
 8110SOL    HW235967   1.705   4.109   3.756 -2.0907 -1.1115 -1.8395
 8111SOL     OW35968   2.762   2.549  11.246 -0.6906 -0.1324  0.2333
 8111SOL    HW135969   2.758   2.518  11.337 -2.0154  0.9355  0.5427
 8111SOL    HW235970   2.713   2.482  11.199 -2.0342  0.0751  1.3278
 8112SOL     OW35971   0.107   2.118  14.509 -0.0459  0.2723 -0.7970
 8112SOL    HW135972   0.041   2.070  14.560  1.7977  1.1543  2.3964
 8112SOL    HW235973   0.182   2.113  14.568 -0.3548 -0.7491 -0.4914
 8113SOL     OW35974   3.397   1.279  16.906  0.0266  0.4699  0.2278
 8113SOL    HW135975   3.383   1.373  16.897 -0.3805  0.3559 -0.2718
 8113SOL    HW235976   3.428   1.240  16.824 -0.8680  0.1046  0.0665
 8114SOL     OW35977   2.823   2.443   2.916  0.1776 -0.0928  0.3751
 8114SOL    HW135978   2.789   2.357   2.895  2.7134 -0.7527 -0.9789
 8114SOL    HW235979   2.918   2.437   2.917  0.2498  0.8097 -0.4741
 8115SOL     OW35980   1.645   0.821   5.763 -0.5244  0.0473 -0.5971
 8115SOL    HW135981   1.596   0.880   5.706  2.4927  1.7657 -1.4408
 8115SOL    HW235982   1.619   0.853   5.849  0.9024 -1.9035  0.5664
 8116SOL     OW35983   3.049   2.391   8.571  0.0358  0.2811  0.2066
 8116SOL    HW135984   2.967   2.343   8.585  1.2673 -1.7463  0.4010
 8116SOL    HW235985   3.108   2.322   8.542 -0.9470 -0.3416 -0.3299
 8117SOL     OW35986   3.550   3.975   9.980  0.2554 -0.4661 -0.0757
 8117SOL    HW135987   3.469   3.966   9.928  1.4098  0.1772 -1.9877
 8117SOL    HW235988   3.512   4.033  10.046  0.0723  1.7474 -2.1251
 8118SOL     OW35989   3.977   0.027   3.294  0.0322 -0.4785  0.1001
 8118SOL    HW135990   3.949   4.729   3.210  0.0087 -1.7265  0.6328
 8118SOL    HW235991   3.991   0.115   3.260  1.3813  0.6880  3.6846
 8119SOL     OW35992   0.524   1.065   9.361 -0.8613  0.3846 -0.1205
 8119SOL    HW135993   0.435   1.085   9.389 -1.1229 -0.6124 -0.2527
 8119SOL    HW235994   0.546   0.996   9.423 -0.2875 -0.1276 -0.9023
 8120SOL     OW35995   1.185   0.845   7.985 -0.0394 -0.2087  0.8699
 8120SOL    HW135996   1.114   0.903   7.957  0.5816  0.4898  0.7373
 8120SOL    HW235997   1.159   0.760   7.951  0.6764 -0.1312  0.1121
 8121SOL     OW35998   2.990   4.632  17.011  0.2685  0.3254  0.1994
 8121SOL    HW135999   2.898   4.649  16.988  0.3467  0.1578 -0.2382
 8121SOL    HW236000   2.968   4.610  17.102 -3.1076 -0.1087 -0.7312
 8122SOL     OW36001   2.399   3.344  16.722 -0.0571 -0.1382 -0.9225
 8122SOL    HW136002   2.381   3.251  16.727 -0.1436  0.1127  3.1475
 8122SOL    HW236003   2.316   3.388  16.706 -0.0013  1.2479  2.5940
 8123SOL     OW36004   2.880   1.523   8.500  0.0135 -0.3712  0.2387
 8123SOL    HW136005   2.868   1.617   8.512 -1.8937 -0.4085 -1.4155
 8123SOL    HW236006   2.934   1.498   8.575  1.0105 -0.1492 -0.4200
 8124SOL     OW36007   3.537   4.404  13.612  0.3071  0.0980 -0.3439
 8124SOL    HW136008   3.630   4.419  13.591  0.0159 -0.2242 -1.9258
 8124SOL    HW236009   3.498   4.404  13.524  0.7437  1.3661 -0.5442
 8125SOL     OW36010   4.625   1.047  11.111  0.1366  0.6366 -0.6396
 8125SOL    HW136011   4.567   1.091  11.049  0.0998  1.7815  0.1992
 8125SOL    HW236012   4.575   1.063  11.191 -0.1939  3.2819 -1.3947
 8126SOL     OW36013   4.370   1.777   9.069  0.2835 -0.0496  0.4204
 8126SOL    HW136014   4.405   1.725   8.997  0.1789  0.4992 -0.0265
 8126SOL    HW236015   4.287   1.732   9.089 -0.6582  2.4461  2.1505
 8127SOL     OW36016   4.350   4.490   5.778 -0.0780  0.8631  0.1020
 8127SOL    HW136017   4.406   4.487   5.856  0.8345  1.6380 -0.5250
 8127SOL    HW236018   4.414   4.534   5.723  0.8559 -0.2854  0.2743
 8128SOL     OW36019   1.470   1.895   1.462 -0.0562 -0.6884 -0.4307
 8128SOL    HW136020   1.438   1.819   1.511  1.1079 -1.2530 -0.5546
 8128SOL    HW236021   1.561   1.867   1.454  1.1563  3.1086  0.0314
 8129SOL     OW36022   0.561   1.807   7.751  0.1798  0.5313 -0.3626
 8129SOL    HW136023   0.502   1.870   7.709 -1.6321 -1.3114 -0.5434
 8129SOL    HW236024   0.603   1.856   7.822  0.5101 -0.7000  0.2920
 8130SOL     OW36025   3.598   0.704  13.727  0.4304  0.0876 -0.0055
 8130SOL    HW136026   3.573   0.668  13.812 -0.5866  1.3020  0.2041
 8130SOL    HW236027   3.677   0.757  13.741  1.5635 -1.1726 -1.5506
 8131SOL     OW36028   2.114   1.725  13.108  0.1215 -0.3221 -0.4636
 8131SOL    HW136029   2.089   1.637  13.082  0.2608 -0.4723 -0.0836
 8131SOL    HW236030   2.114   1.718  13.203  0.2451 -1.1751 -0.5296
 8132SOL     OW36031   2.934   1.932   1.983  0.0160 -0.2444 -0.1408
 8132SOL    HW136032   2.987   1.859   2.014  0.5904  1.1898  2.2350
 8132SOL    HW236033   2.889   1.963   2.062  1.2323 -0.8623  0.7826
 8133SOL     OW36034   4.199   3.627   5.364 -0.3966  0.3715 -0.2466
 8133SOL    HW136035   4.127   3.679   5.328  1.4733  0.5053 -3.8554
 8133SOL    HW236036   4.214   3.684   5.439 -0.0621 -1.0645  0.7707
 8134SOL     OW36037   4.262   3.836   6.133 -0.3484 -0.2031 -0.1255
 8134SOL    HW136038   4.224   3.775   6.195  0.0275 -0.4722 -0.1607
 8134SOL    HW236039   4.189   3.873   6.083 -1.4424 -0.6708  1.1335
 8135SOL     OW36040   4.210   0.758   3.450 -0.2500  0.4488 -0.3005
 8135SOL    HW136041   4.144   0.742   3.382 -0.3925 -1.5125  0.3120
 8135SOL    HW236042   4.143   0.757   3.519  0.6119 -0.5667  0.5205
 8136SOL     OW36043   3.466   4.711   3.473  0.4059  0.5869  0.6624
 8136SOL    HW136044   3.475   0.019   3.557  1.5341 -1.1360  1.4792
 8136SOL    HW236045   3.456   0.040   3.405  1.4590  0.2348  0.1766
 8137SOL     OW36046   0.658   4.665   7.019  0.0131 -0.3292 -0.0513
 8137SOL    HW136047   0.599   4.700   7.086 -1.2516 -0.8362 -0.8932
 8137SOL    HW236048   0.706   4.603   7.073  0.8978  0.5979  0.2258
 8138SOL     OW36049   4.439   4.125   1.913  0.1232  0.2769  0.8024
 8138SOL    HW136050   4.431   4.121   1.818 -0.2024 -0.0446  0.8438
 8138SOL    HW236051   4.425   4.218   1.931  0.8248  0.8861 -1.8505
 8139SOL     OW36052   1.686   4.039   5.799 -0.7334  0.4003 -0.2810
 8139SOL    HW136053   1.780   4.026   5.787 -1.0422  0.8725 -3.2120
 8139SOL    HW236054   1.680   4.129   5.769  0.7325  1.3768  2.3626
 8140SOL     OW36055   3.998   2.265   1.614 -0.5606 -0.5226 -0.1150
 8140SOL    HW136056   4.059   2.245   1.542 -0.7399  0.3347 -0.5046
 8140SOL    HW236057   3.940   2.189   1.613  1.8875 -2.3937  1.0776
 8141SOL     OW36058   0.647   1.437   7.137  0.0824 -0.3181 -0.4030
 8141SOL    HW136059   0.688   1.385   7.068  1.0577  0.0634 -0.1128
 8141SOL    HW236060   0.623   1.515   7.088 -1.8281 -1.2002 -0.8698
 8142SOL     OW36061   4.133   3.705   7.605 -0.4417  0.3521  0.0897
 8142SOL    HW136062   4.078   3.673   7.676 -0.0049  0.1748  0.3459
 8142SOL    HW236063   4.161   3.790   7.638  0.7497  0.5011 -1.3052
 8143SOL     OW36064   2.079   3.981   8.426 -0.8204  0.1522  0.5211
 8143SOL    HW136065   2.175   3.975   8.430 -0.7952 -0.3790 -0.7194
 8143SOL    HW236066   2.059   3.949   8.338 -1.7057 -1.9307  1.4941
 8144SOL     OW36067   3.521   1.961   3.185  0.0850  0.3205  0.3991
 8144SOL    HW136068   3.502   2.000   3.100  1.0102  0.7729  0.3915
 8144SOL    HW236069   3.436   1.958   3.227 -0.7037  3.7544 -0.9180
 8145SOL     OW36070   0.237   3.779   8.036 -0.1769  0.8166 -0.5094
 8145SOL    HW136071   0.164   3.726   8.005  0.1402  0.1203 -0.0772
 8145SOL    HW236072   0.262   3.825   7.956 -1.9729 -0.7777 -1.9853
 8146SOL     OW36073   3.855   3.842  15.834  0.5338  0.2953  0.1245
 8146SOL    HW136074   3.822   3.863  15.746 -1.7007  1.3534  1.2074
 8146SOL    HW236075   3.810   3.904  15.891  1.5326  0.4398  0.7607
 8147SOL     OW36076   0.349   0.679   0.919 -0.3081 -0.6413 -0.4374
 8147SOL    HW136077   0.302   0.621   0.978 -0.3753 -2.1154 -1.9243
 8147SOL    HW236078   0.296   0.685   0.839 -1.1586 -0.7325  0.1228
 8148SOL     OW36079   1.686   4.416   8.245  0.3516 -0.4394  0.6709
 8148SOL    HW136080   1.736   4.391   8.167 -0.4931 -4.2756  1.3558
 8148SOL    HW236081   1.751   4.420   8.315  0.9353 -0.9327  0.1586
 8149SOL     OW36082   2.048   3.463   8.186  0.4472  0.1891  0.6309
 8149SOL    HW136083   2.137   3.440   8.215  0.5105 -0.8287 -0.3983
 8149SOL    HW236084   2.056   3.454   8.091 -2.9064  0.5126  0.3179
 8150SOL     OW36085   0.735   3.543  16.025  0.1152  0.6559 -0.3454
 8150SOL    HW136086   0.719   3.579  15.938 -1.7847  1.6024  0.3895
 8150SOL    HW236087   0.830   3.527  16.029  0.0721  0.8606  1.5507
 8151SOL     OW36088   1.708   2.279   4.736  0.0893 -0.6379  0.7529
 8151SOL    HW136089   1.650   2.281   4.660 -0.7300  0.7085  1.4235
 8151SOL    HW236090   1.764   2.203   4.718 -0.2450 -0.3751 -1.4285
 8152SOL     OW36091   1.477   1.179  17.369  0.0959 -0.5774  0.5314
 8152SOL    HW136092   1.498   1.216  17.283 -2.6671 -0.8636 -0.2614
 8152SOL    HW236093   1.549   1.215  17.421  0.2692  1.7430 -1.2958
 8153SOL     OW36094   2.221   0.931   5.625  0.2086  0.3206  0.2517
 8153SOL    HW136095   2.281   0.970   5.689  1.8613  1.2644 -1.8796
 8153SOL    HW236096   2.268   0.855   5.592 -0.5586  0.4929 -1.2064
 8154SOL     OW36097   0.780   1.375   8.384  0.5073  0.2833 -0.0095
 8154SOL    HW136098   0.868   1.350   8.355  1.2853 -0.9891  3.3932
 8154SOL    HW236099   0.788   1.366   8.479  0.7578 -2.4230 -0.2697
 8155SOL     OW36100   3.550   0.789   4.785  0.7254  0.0233 -0.3619
 8155SOL    HW136101   3.624   0.731   4.800  0.3142 -0.7146 -1.1714
 8155SOL    HW236102   3.486   0.727   4.748  1.2058 -0.2099 -0.7997
 8156SOL     OW36103   1.274   1.807   8.406  0.7393  0.3424  0.7030
 8156SOL    HW136104   1.307   1.801   8.317  4.0191 -1.4605  2.0533
 8156SOL    HW236105   1.230   1.724   8.423 -0.4319  1.1267  1.5227
 8157SOL     OW36106   1.014   3.179  13.156 -0.8699 -0.2237 -0.1646
 8157SOL    HW136107   0.930   3.154  13.194 -0.6254  1.1414  1.2807
 8157SOL    HW236108   1.080   3.131  13.204 -1.9324 -0.1915  1.3183
 8158SOL     OW36109   0.849   3.552   6.408  0.3077  0.3502 -0.2520
 8158SOL    HW136110   0.922   3.557   6.346 -2.5617  0.5431 -3.6094
 8158SOL    HW236111   0.891   3.561   6.494  1.1427 -0.1730 -0.5999
 8159SOL     OW36112   3.757   2.016  17.003  0.2928 -0.6022  0.0341
 8159SOL    HW136113   3.681   1.985  17.053  0.5698 -0.4819  0.5238
 8159SOL    HW236114   3.797   2.076  17.066 -0.4740  1.3077 -1.2778
 8160SOL     OW36115   3.095   0.012  14.192  0.0860  0.5391 -0.4347
 8160SOL    HW136116   3.087   0.089  14.135  0.0358  0.0959 -1.0265
 8160SOL    HW236117   3.030   4.685  14.162 -0.2533  0.1580  1.1666
 8161SOL     OW36118   3.782   0.333  11.792 -0.2514  0.3552  0.0452
 8161SOL    HW136119   3.774   0.369  11.881 -1.6351  2.0219 -0.7608
 8161SOL    HW236120   3.876   0.313  11.794  0.1475  2.2061  0.0374
 8162SOL     OW36121   3.069   4.653   5.680 -0.4475 -0.8215 -0.0268
 8162SOL    HW136122   3.145   4.603   5.651 -1.2442 -0.6976 -2.3161
 8162SOL    HW236123   3.006   4.584   5.697  0.9735 -1.8893  0.8934
 8163SOL     OW36124   1.503   3.660   6.990 -0.0448 -0.3221 -0.3189
 8163SOL    HW136125   1.551   3.591   6.945  2.2504  0.4071  1.0299
 8163SOL    HW236126   1.448   3.611   7.052  1.5245 -0.8627  0.6258
 8164SOL     OW36127   0.502   4.707   9.018 -0.5227  0.6315 -0.9730
 8164SOL    HW136128   0.520   4.622   8.978 -0.5063  0.4047 -0.4829
 8164SOL    HW236129   0.519   0.021   8.940  0.2801  0.9848 -0.5646
 8165SOL     OW36130   4.046   0.485   3.444 -0.2978  0.1721  0.1614
 8165SOL    HW136131   3.988   0.561   3.436 -1.1304 -0.4478  0.3056
 8165SOL    HW236132   3.985   0.427   3.489  1.1484 -1.7189 -0.3458
 8166SOL     OW36133   0.521   4.672   2.867 -0.0908 -0.1620 -0.3672
 8166SOL    HW136134   0.466   0.013   2.868 -1.0469 -0.8537  2.1412
 8166SOL    HW236135   0.569   4.683   2.948  1.1148 -0.4641 -1.0462
 8167SOL     OW36136   0.119   3.406  10.558 -0.3294  0.2089 -0.2304
 8167SOL    HW136137   0.175   3.335  10.590 -1.1898 -0.6861 -0.6894
 8167SOL    HW236138   0.038   3.383  10.603  1.4038 -2.3222  1.6592
 8168SOL     OW36139   4.698   0.365  10.281  0.5217 -0.1040 -0.2823
 8168SOL    HW136140   4.716   0.277  10.249  0.8505 -0.1576  0.0502
 8168SOL    HW236141   0.048   0.399  10.298 -0.4518  2.4611 -0.3062
 8169SOL     OW36142   4.342   3.515   4.154 -0.4352 -0.9942 -0.5001
 8169SOL    HW136143   4.347   3.535   4.061 -0.3603 -0.8428 -0.4626
 8169SOL    HW236144   4.249   3.493   4.159 -0.4132 -0.7062  1.0194
 8170SOL     OW36145   2.517   2.962  10.068  0.5433 -0.4400 -0.4926
 8170SOL    HW136146   2.565   2.890  10.109  0.9382 -0.3603 -0.8192
 8170SOL    HW236147   2.511   3.010  10.151 -4.4970 -0.5620 -0.8044
 8171SOL     OW36148   4.392   3.120   7.269 -0.2635 -0.7132  0.2271
 8171SOL    HW136149   4.471   3.171   7.284 -0.1553 -0.7186 -0.3257
 8171SOL    HW236150   4.376   3.119   7.174  1.6884 -0.3802 -0.0934
 8172SOL     OW36151   2.187   1.936   5.516 -0.0116  0.2892  0.5750
 8172SOL    HW136152   2.177   2.011   5.573 -2.3037  0.4596 -0.0550
 8172SOL    HW236153   2.101   1.894   5.518 -0.9654  2.2753  0.5880
 8173SOL     OW36154   0.146   2.209   6.167  0.6093  0.2186  0.0632
 8173SOL    HW136155   0.175   2.262   6.241  0.1293  0.6725 -0.0713
 8173SOL    HW236156   0.218   2.217   6.104  0.8253 -2.2931  0.0193
 8174SOL     OW36157   3.926   1.751   2.779 -0.0642 -0.0239 -0.1438
 8174SOL    HW136158   3.930   1.717   2.869 -0.3767 -1.7149 -0.7645
 8174SOL    HW236159   3.991   1.822   2.785  0.1186 -0.4110  2.9709
 8175SOL     OW36160   2.039   3.465   7.914  0.1610 -0.4569 -0.0714
 8175SOL    HW136161   2.074   3.431   7.832 -2.1615 -0.3705 -1.0881
 8175SOL    HW236162   1.957   3.416   7.922 -0.8277  1.4260  1.3712
 8176SOL     OW36163   2.554   0.064   2.445  0.4814  0.1812 -0.2922
 8176SOL    HW136164   2.533   4.726   2.500 -0.3481  0.6723  0.0702
 8176SOL    HW236165   2.579   0.131   2.509 -1.1561 -0.2167  0.7635
 8177SOL     OW36166   0.641   2.958  15.012  0.0527  0.1423 -0.0185
 8177SOL    HW136167   0.690   2.998  15.084 -0.5012 -0.8783  0.9275
 8177SOL    HW236168   0.656   2.864  15.018  0.7987  0.1967 -0.9986
 8178SOL     OW36169   0.347   4.563   6.352  0.4880 -0.1620 -0.0940
 8178SOL    HW136170   0.366   4.597   6.265  1.4426 -3.4461 -1.1821
 8178SOL    HW236171   0.402   4.614   6.411 -0.7253  0.7940  0.2114
 8179SOL     OW36172   3.892   2.931   4.735  0.4573  0.2883 -0.4174
 8179SOL    HW136173   3.937   3.009   4.764 -0.0790  1.0971 -1.7340
 8179SOL    HW236174   3.799   2.956   4.732 -0.2557 -2.2631  0.8831
 8180SOL     OW36175   1.773   1.813   2.764  0.0288  0.2473 -0.4129
 8180SOL    HW136176   1.814   1.872   2.700  1.4779 -0.9348 -0.5717
 8180SOL    HW236177   1.847   1.753   2.761  0.3367  0.4598  2.4811
 8181SOL     OW36178   1.187   1.175  15.880  0.2838 -0.9084  0.2934
 8181SOL    HW136179   1.266   1.120  15.875 -0.6550 -2.5707  3.8565
 8181SOL    HW236180   1.214   1.244  15.820 -1.2971 -1.6884 -1.3274
 8182SOL     OW36181   2.010   0.881   5.833  0.3628 -0.1073  0.2478
 8182SOL    HW136182   1.938   0.849   5.778  0.5262 -0.2502  0.1152
 8182SOL    HW236183   2.083   0.893   5.772 -1.7395  4.3127 -1.4437
 8183SOL     OW36184   1.198   4.198   3.950 -0.2976  0.0632 -0.0623
 8183SOL    HW136185   1.163   4.229   4.034  1.4568  0.5213  0.5042
 8183SOL    HW236186   1.201   4.278   3.898  1.1782  1.3823  2.0057
 8184SOL     OW36187   4.704   2.383  16.068 -0.0806 -0.4077 -0.1023
 8184SOL    HW136188   0.007   2.458  16.111  0.3764  0.1952 -1.5713
 8184SOL    HW236189   4.711   2.318  16.138 -1.5785  0.9480  1.2973
 8185SOL     OW36190   0.361   4.493   5.447  0.5947 -0.5746  0.1889
 8185SOL    HW136191   0.447   4.452   5.451 -0.1821 -1.9046  2.5630
 8185SOL    HW236192   0.377   4.564   5.510  3.2000 -0.5466 -0.5240
 8186SOL     OW36193   3.733   0.380   4.611 -0.4065 -0.3805 -0.2834
 8186SOL    HW136194   3.823   0.357   4.634 -0.2274  3.0272  2.2809
 8186SOL    HW236195   3.730   0.451   4.674 -0.0879 -0.1134 -0.5711
 8187SOL     OW36196   2.910   1.421   5.992 -0.6019 -0.0648 -0.1426
 8187SOL    HW136197   2.964   1.351   6.028 -2.2897  0.1893  2.8697
 8187SOL    HW236198   2.916   1.484   6.064 -0.5905  0.1754 -0.3554
 8188SOL     OW36199   2.859   1.722   2.281  0.3487  0.2968 -0.4135
 8188SOL    HW136200   2.873   1.734   2.375 -1.5443 -1.6561  0.0990
 8188SOL    HW236201   2.860   1.813   2.250 -1.2954  0.3534 -0.2628
 8189SOL     OW36202   1.864   3.590   8.319  0.4163 -0.2861 -0.3947
 8189SOL    HW136203   1.943   3.554   8.280  1.9761  2.1872  0.4520
 8189SOL    HW236204   1.893   3.626   8.403  0.7057  1.9052 -1.4256
 8190SOL     OW36205   1.821   2.124  13.768  0.1809 -0.9027 -0.2931
 8190SOL    HW136206   1.741   2.138  13.718  1.4522  1.2782 -1.7167
 8190SOL    HW236207   1.873   2.184  13.715 -0.5309 -0.7162 -0.7856
 8191SOL     OW36208   4.305   3.869   2.853  0.4339 -0.7047  0.2573
 8191SOL    HW136209   4.292   3.826   2.769  0.9115 -0.6836  0.1736
 8191SOL    HW236210   4.274   3.957   2.832 -0.0017 -0.8939  0.1114
 8192SOL     OW36211   1.120   0.698  15.043 -0.4999 -0.0951  0.0602
 8192SOL    HW136212   1.133   0.629  14.977  2.1362  2.0621 -1.6684
 8192SOL    HW236213   1.031   0.680  15.071 -0.3618 -0.5275  0.2175
 8193SOL     OW36214   2.202   3.235   2.992  0.0218 -0.3248  0.0409
 8193SOL    HW136215   2.231   3.192   3.072 -1.9180 -2.2540 -0.3009
 8193SOL    HW236216   2.164   3.172   2.931 -0.6504 -0.0503  0.1787
 8194SOL     OW36217   1.427   2.879  13.371 -0.1232 -0.2060 -0.0756
 8194SOL    HW136218   1.339   2.843  13.362 -0.3979  0.5206 -0.2835
 8194SOL    HW236219   1.426   2.920  13.458  1.3144 -0.8895  0.2746
 8195SOL     OW36220   2.641   0.857   5.272 -0.0494  0.3933 -0.2567
 8195SOL    HW136221   2.687   0.882   5.192 -2.1396  0.2038 -1.5072
 8195SOL    HW236222   2.629   0.941   5.317 -0.9361  0.1102  0.0110
 8196SOL     OW36223   0.744   2.397   5.653 -0.0941  0.0765 -0.3980
 8196SOL    HW136224   0.813   2.345   5.612  0.6351  1.7533 -1.2818
 8196SOL    HW236225   0.792   2.463   5.703 -0.4801 -0.0697  0.1751
 8197SOL     OW36226   1.550   1.193   0.967 -0.0376  0.0556  0.3259
 8197SOL    HW136227   1.627   1.250   0.967 -0.8612  1.1572 -0.2943
 8197SOL    HW236228   1.590   1.112   0.937  1.5866  0.7806  0.5467
 8198SOL     OW36229   3.668   1.585   7.664 -0.0985 -0.5731  0.0708
 8198SOL    HW136230   3.623   1.500   7.665  0.8384 -1.0700 -0.5175
 8198SOL    HW236231   3.736   1.574   7.598 -0.0343 -2.4328  0.4505
 8199SOL     OW36232   0.206   1.385   8.884 -0.2097  0.3293  0.0183
 8199SOL    HW136233   0.124   1.349   8.851 -1.0080  2.4153 -0.3191
 8199SOL    HW236234   0.231   1.448   8.816  0.4819 -1.4870 -1.4125
 8200SOL     OW36235   4.056   4.336   4.988  0.1726 -0.4132 -0.1760
 8200SOL    HW136236   4.087   4.247   5.004  0.9085 -0.2231 -0.5365
 8200SOL    HW236237   4.135   4.390   4.985 -0.0473 -0.1191 -0.7956
 8201SOL     OW36238   4.432   4.561   7.570 -0.0596 -0.1394 -0.4698
 8201SOL    HW136239   4.506   4.595   7.621  0.9507 -2.7545 -0.1422
 8201SOL    HW236240   4.464   4.479   7.533  1.1726 -0.0551  0.3899
 8202SOL     OW36241   1.692   2.451   3.654  0.6601 -0.0282  0.3086
 8202SOL    HW136242   1.714   2.432   3.563 -0.2502 -1.1003  0.3061
 8202SOL    HW236243   1.729   2.379   3.706 -1.9811 -0.8077  1.0908
 8203SOL     OW36244   1.081   4.680   8.434  0.2676  0.1601  0.0368
 8203SOL    HW136245   1.060   4.688   8.341  0.9656  0.2228 -0.1182
 8203SOL    HW236246   1.132   4.600   8.437  0.7029  0.4381  0.0350
 8204SOL     OW36247   3.704   1.161   2.374  0.0355 -0.2704 -0.4957
 8204SOL    HW136248   3.623   1.188   2.330 -0.2073 -0.1981 -0.0124
 8204SOL    HW236249   3.747   1.246   2.383 -1.4452  0.4052  0.3703
 8205SOL     OW36250   1.054   2.795   2.793 -0.4893  0.6184 -0.1439
 8205SOL    HW136251   1.083   2.883   2.817 -0.3377  0.4515  0.2791
 8205SOL    HW236252   1.012   2.811   2.708 -1.7569  2.0780  0.7497
 8206SOL     OW36253   1.102   3.249   8.061 -0.6031 -0.4604 -0.0709
 8206SOL    HW136254   1.023   3.263   8.009 -0.3564 -0.9110 -0.5638
 8206SOL    HW236255   1.168   3.226   7.996 -1.7723 -4.4050  0.0956
 8207SOL     OW36256   0.333   2.164  15.433  0.0457  0.7254  0.6172
 8207SOL    HW136257   0.317   2.253  15.403  0.2081  0.6603  0.3368
 8207SOL    HW236258   0.415   2.154  15.384  0.9797  2.9561  1.7290
 8208SOL     OW36259   3.366   4.491   4.662  0.5901 -0.4961 -0.0636
 8208SOL    HW136260   3.429   4.466   4.730 -0.4970  1.2110  1.5614
 8208SOL    HW236261   3.368   4.585   4.679 -2.7841 -0.3114 -0.7371
 8209SOL     OW36262   2.134   3.928   3.217  0.4014 -0.3819 -0.0699
 8209SOL    HW136263   2.116   4.004   3.272 -0.2308 -1.8507  1.7466
 8209SOL    HW236264   2.188   3.874   3.275 -0.1621 -1.5936 -0.6804
 8210SOL     OW36265   1.535   2.925   7.025  0.2529  0.2502 -0.0225
 8210SOL    HW136266   1.568   3.001   7.071 -0.9068 -0.0088  1.2303
 8210SOL    HW236267   1.469   2.971   6.972 -1.1574 -0.3981  1.1671
 8211SOL     OW36268   2.213   2.342   2.638 -0.0517  0.6728  0.0733
 8211SOL    HW136269   2.187   2.433   2.622  1.6082  0.9202 -1.1757
 8211SOL    HW236270   2.213   2.308   2.548  1.1085 -1.5603  0.8986
 8212SOL     OW36271   3.659   1.189   8.134  0.0373 -0.0714 -0.0986
 8212SOL    HW136272   3.617   1.241   8.066 -0.2797 -0.6874 -0.3746
 8212SOL    HW236273   3.589   1.128   8.157 -0.6129  0.6988 -0.0434
 8213SOL     OW36274   3.522   2.117   8.263 -0.4873 -0.3943  0.1468
 8213SOL    HW136275   3.572   2.093   8.185  0.3296  1.6887  0.0478
 8213SOL    HW236276   3.527   2.212   8.275  1.8210 -0.3143 -1.5105
 8214SOL     OW36277   2.512   3.762   4.278 -0.2942  0.7774 -0.3019
 8214SOL    HW136278   2.589   3.774   4.223 -0.4813 -3.7355 -1.5312
 8214SOL    HW236279   2.559   3.725   4.353 -0.4743  3.0956  0.9688
 8215SOL     OW36280   3.043   2.663  15.879 -0.4025 -0.1321 -0.1631
 8215SOL    HW136281   3.051   2.738  15.820  1.0412 -0.9120 -0.9678
 8215SOL    HW236282   2.950   2.653  15.896 -0.2509 -0.8719  0.2142
 8216SOL     OW36283   2.767   4.450   6.843 -0.0125 -0.2525 -0.7747
 8216SOL    HW136284   2.730   4.426   6.928  1.4226  0.4119  0.0396
 8216SOL    HW236285   2.859   4.452   6.869  0.1841 -1.3109 -1.4100
 8217SOL     OW36286   4.172   2.964  17.682 -0.4223  0.4134  0.0179
 8217SOL    HW136287   4.105   3.030  17.665  2.1525  2.8386 -0.7359
 8217SOL    HW236288   4.231   2.996  17.613  0.0379  4.9778  2.5325
 8218SOL     OW36289   0.919   0.104   2.949 -0.4355 -0.2936 -0.0182
 8218SOL    HW136290   0.988   0.053   2.907  1.4067  1.2987  1.0727
 8218SOL    HW236291   0.914   0.175   2.885  0.0746 -0.1749  0.0715
 8219SOL     OW36292   3.330   0.351   5.692  0.5463  0.0747  0.1662
 8219SOL    HW136293   3.315   0.319   5.780 -0.5867 -0.2269 -0.1429
 8219SOL    HW236294   3.375   0.434   5.708  1.2183 -1.0185  3.8230
 8220SOL     OW36295   1.801   1.473   2.773 -0.4020  0.4683 -0.1147
 8220SOL    HW136296   1.888   1.514   2.780 -0.0111 -0.3602 -0.1699
 8220SOL    HW236297   1.778   1.506   2.687  0.9875  1.2059 -0.2123
 8221SOL     OW36298   0.883   0.472  15.516 -0.1829 -0.6316 -0.0758
 8221SOL    HW136299   0.819   0.540  15.494  2.4471  0.9876 -2.6437
 8221SOL    HW236300   0.934   0.512  15.587 -0.2224  1.3348 -1.1475
 8222SOL     OW36301   1.626   2.486   8.841 -0.0592  0.2064 -0.1802
 8222SOL    HW136302   1.674   2.537   8.777 -0.2676  0.5717 -0.0454
 8222SOL    HW236303   1.668   2.499   8.926  0.3165 -0.6866 -0.2314
 8223SOL     OW36304   2.945   4.736   9.192 -0.1127 -0.1637 -0.4866
 8223SOL    HW136305   2.856   4.707   9.213 -0.6399  0.9582 -1.1476
 8223SOL    HW236306   2.946   4.735   9.096 -0.2685 -0.7045 -0.4811
 8224SOL     OW36307   3.332   3.403  17.128  0.2906 -0.3406 -0.6430
 8224SOL    HW136308   3.281   3.324  17.108 -1.6661  0.4433  1.2679
 8224SOL    HW236309   3.272   3.474  17.102 -0.9094 -1.7029 -1.6034
 8225SOL     OW36310   0.485   0.111  15.497  0.4099 -0.4582 -0.0184
 8225SOL    HW136311   0.575   0.134  15.519 -0.0830  0.7355  0.7173
 8225SOL    HW236312   0.501   0.068  15.413 -0.7544 -1.0227  0.0391
 8226SOL     OW36313   0.116   4.143   9.094  0.3427 -0.5301  0.3522
 8226SOL    HW136314   0.078   4.227   9.122 -1.7906 -1.4872  0.3398
 8226SOL    HW236315   0.209   4.152   9.112 -0.0466  2.3412  0.9610
 8227SOL     OW36316   2.022   2.298   2.951 -0.2193 -0.1924 -0.4905
 8227SOL    HW136317   2.042   2.321   2.860  1.4508  0.3261  0.0244
 8227SOL    HW236318   1.958   2.364   2.978 -1.0205 -1.8195  1.6288
 8228SOL     OW36319   1.648   0.030  13.925 -0.8547 -0.7579  0.2922
 8228SOL    HW136320   1.686   0.026  14.013 -0.9746  0.6928  0.4116
 8228SOL    HW236321   1.722   0.003  13.871  1.5673  0.1023  3.1984
 8229SOL     OW36322   4.177   3.477   6.042  0.3341  0.1081  0.4891
 8229SOL    HW136323   4.259   3.508   6.081  0.4525  0.0815  0.2622
 8229SOL    HW236324   4.132   3.454   6.123 -0.0436  2.6074  0.9758
 8230SOL     OW36325   0.606   0.740   2.508  0.2022 -0.1854 -0.6847
 8230SOL    HW136326   0.613   0.676   2.578 -1.0676 -0.8346 -1.1630
 8230SOL    HW236327   0.577   0.821   2.550  1.5316  0.4758 -0.9937
 8231SOL     OW36328   0.274   2.584   6.765 -0.1766  0.0657 -0.3139
 8231SOL    HW136329   0.196   2.636   6.784 -0.4097  0.0624 -1.2907
 8231SOL    HW236330   0.283   2.517   6.833 -3.9497  0.4104  0.5006
 8232SOL     OW36331   4.284   1.506   5.302  0.9368  0.2288  0.1179
 8232SOL    HW136332   4.286   1.477   5.393  3.1565  2.2006  0.6930
 8232SOL    HW236333   4.321   1.594   5.311  0.4995  0.5028 -0.7171
 8233SOL     OW36334   2.833   1.921   8.920 -0.5786 -0.4045 -0.3186
 8233SOL    HW136335   2.825   1.927   9.015 -0.6129 -2.9298 -0.1766
 8233SOL    HW236336   2.848   1.828   8.906 -0.9597 -0.4090 -0.7020
 8234SOL     OW36337   0.279   0.007   4.009 -0.8427 -0.3043  0.1970
 8234SOL    HW136338   0.195   0.027   3.967 -0.6682  0.2772  0.1262
 8234SOL    HW236339   0.338   0.021   3.935 -1.8977  0.9086 -0.4171
 8235SOL     OW36340   4.182   2.498  12.632 -0.1150  0.3864  0.3693
 8235SOL    HW136341   4.261   2.529  12.587  0.9257 -1.1822  1.0762
 8235SOL    HW236342   4.187   2.404  12.612  1.1442  0.2596  1.2467
 8236SOL     OW36343   3.147   3.820   4.900  0.3056 -0.3421 -0.2048
 8236SOL    HW136344   3.206   3.847   4.970  0.4830 -1.6912  0.1646
 8236SOL    HW236345   3.065   3.857   4.931 -0.1046 -0.8229 -0.6943
 8237SOL     OW36346   1.719   0.875   7.182 -0.3774  0.2742 -0.2484
 8237SOL    HW136347   1.790   0.938   7.188  0.3641 -0.6986  1.4149
 8237SOL    HW236348   1.697   0.877   7.276 -1.0447 -0.7971 -0.3728
 8238SOL     OW36349   0.218   0.987   7.142 -0.6629 -0.0768  0.6298
 8238SOL    HW136350   0.302   1.023   7.169  0.4985 -2.1644 -0.1767
 8238SOL    HW236351   0.177   0.976   7.227  1.2080  0.8523  1.6399
 8239SOL     OW36352   3.745   2.017   6.572  0.0476  0.4581 -0.1403
 8239SOL    HW136353   3.777   1.928   6.581 -2.0618 -0.1939  0.9405
 8239SOL    HW236354   3.779   2.037   6.485  0.7014  3.5803  0.8139
 8240SOL     OW36355   3.799   4.218   3.760  0.3518 -0.2990  0.0552
 8240SOL    HW136356   3.864   4.217   3.690  2.7104  1.7379  2.1946
 8240SOL    HW236357   3.831   4.148   3.817  1.4784 -1.3406 -1.8807
 8241SOL     OW36358   1.829   2.067   7.853  0.2476  0.0151 -0.0119
 8241SOL    HW136359   1.863   2.043   7.767  0.5986  1.4978 -0.2843
 8241SOL    HW236360   1.745   2.109   7.833 -0.2917 -1.9808 -1.9094
 8242SOL     OW36361   1.070   3.051  12.831 -0.5604  0.2167 -0.1690
 8242SOL    HW136362   1.076   2.960  12.802 -0.9619  0.4716 -1.0502
 8242SOL    HW236363   1.132   3.057  12.904  0.2698  0.2880 -0.8874
 8243SOL     OW36364   4.411   4.044   6.720 -0.8776  0.0736  0.3737
 8243SOL    HW136365   4.381   4.123   6.676  1.6802  1.2714  0.7713
 8243SOL    HW236366   4.414   3.983   6.646 -0.6649 -0.8783  1.1617
 8244SOL     OW36367   0.512   2.015   9.553 -0.9416  0.5520  0.5941
 8244SOL    HW136368   0.513   1.986   9.462 -0.2207 -2.1313  1.4465
 8244SOL    HW236369   0.555   2.099   9.544  2.6493 -1.2357  0.9130
 8245SOL     OW36370   4.558   2.320   4.011 -0.3364 -0.1966 -0.5533
 8245SOL    HW136371   4.611   2.386   3.966  0.4220  0.0249  0.6695
 8245SOL    HW236372   4.636   2.286   4.055 -0.4902  0.4834  0.2491
 8246SOL     OW36373   3.983   1.731   3.072  0.0735  0.0957  0.6271
 8246SOL    HW136374   3.984   1.678   3.152  1.8639 -0.9853 -0.1008
 8246SOL    HW236375   4.035   1.809   3.091  1.5035 -0.0053 -2.8522
 8247SOL     OW36376   3.380   2.198  11.633  0.2458  0.2683 -0.0322
 8247SOL    HW136377   3.395   2.178  11.541  0.0223 -1.5962  0.3445
 8247SOL    HW236378   3.316   2.135  11.664 -0.8011  3.3576  4.1653
 8248SOL     OW36379   3.636   3.131   6.475 -0.5362 -0.4950  0.1595
 8248SOL    HW136380   3.669   3.204   6.422 -0.2848 -1.0104 -0.4013
 8248SOL    HW236381   3.588   3.083   6.407 -2.2559  0.8161  0.4475
 8249SOL     OW36382   1.653   3.239   3.219  0.2201 -0.0585 -0.0256
 8249SOL    HW136383   1.673   3.288   3.139 -1.6445  2.0908  0.8154
 8249SOL    HW236384   1.635   3.311   3.278  1.4484 -0.8276  1.2735
 8250SOL     OW36385   1.025   4.397   9.687  0.4883 -0.0619 -0.7496
 8250SOL    HW136386   1.120   4.395   9.687  0.5232  2.4589  2.1080
 8250SOL    HW236387   1.002   4.340   9.760 -1.0229  1.3960 -0.0929
 8251SOL     OW36388   0.623   2.690   8.536 -0.1633 -0.2730  0.6710
 8251SOL    HW136389   0.687   2.622   8.515 -0.1390  0.0717 -0.4232
 8251SOL    HW236390   0.656   2.719   8.621 -0.4801  0.9881  0.3639
 8252SOL     OW36391   4.268   0.663   4.620 -0.0888 -0.3211  0.2890
 8252SOL    HW136392   4.225   0.597   4.565  0.6902 -2.2561  2.0047
 8252SOL    HW236393   4.338   0.671   4.555 -0.6406  2.2374 -0.0089
 8253SOL     OW36394   2.854   1.976   6.581  0.3453 -0.3636  0.1287
 8253SOL    HW136395   2.765   2.007   6.563  0.1498 -0.2801  1.2777
 8253SOL    HW236396   2.863   2.015   6.668 -1.6892 -1.7857  0.9894
 8254SOL     OW36397   1.732   0.699   8.380 -0.0448 -0.2118 -0.3905
 8254SOL    HW136398   1.687   0.710   8.464  2.9343 -2.3079  1.4561
 8254SOL    HW236399   1.744   0.609   8.353  2.1669 -0.7017  2.2145
 8255SOL     OW36400   2.026   2.242  13.585  0.2194 -0.4651  0.0693
 8255SOL    HW136401   2.108   2.292  13.581 -1.4430  2.1737 -0.5825
 8255SOL    HW236402   1.976   2.275  13.511  1.1805 -0.8404 -0.7570
 8256SOL     OW36403   1.746   0.394   2.098 -0.5016  0.1055  0.4359
 8256SOL    HW136404   1.808   0.466   2.094  0.6952 -0.9377  0.3114
 8256SOL    HW236405   1.801   0.316   2.092  0.2789  0.6188  0.9911
 8257SOL     OW36406   0.195   0.290   4.558  0.3339 -0.6167 -0.4529
 8257SOL    HW136407   0.248   0.320   4.632 -2.3257  2.3210  0.2619
 8257SOL    HW236408   0.126   0.237   4.600  1.0956 -1.0772  0.2052
 8258SOL     OW36409   3.324   0.162   9.958  0.6542 -0.3159 -0.3643
 8258SOL    HW136410   3.398   0.218   9.981  0.6101 -0.3369 -0.1676
 8258SOL    HW236411   3.357   0.078   9.990  0.0538 -0.5196 -0.2730
 8259SOL     OW36412   2.687   2.836  16.182  0.0340  0.0975  0.3184
 8259SOL    HW136413   2.719   2.821  16.093  1.8836  0.4685  0.9190
 8259SOL    HW236414   2.761   2.796  16.227  2.4732  0.7269 -3.0915
 8260SOL     OW36415   0.552   0.721   3.795  0.3300  0.1450  0.3255
 8260SOL    HW136416   0.613   0.760   3.857  1.2565  0.9379 -1.0997
 8260SOL    HW236417   0.598   0.639   3.777  0.0777  0.2344 -0.7584
 8261SOL     OW36418   4.187   2.728   2.278  0.2516  0.4379  0.5939
 8261SOL    HW136419   4.138   2.809   2.290  1.0258  0.9872  0.0581
 8261SOL    HW236420   4.269   2.772   2.256  0.2920  0.0384 -0.0536
 8262SOL     OW36421   3.657   4.575   2.014  0.2418  0.5443 -0.1665
 8262SOL    HW136422   3.644   4.669   2.008 -0.9572  0.5310  1.8899
 8262SOL    HW236423   3.646   4.534   1.928 -2.8989 -0.0524  0.5030
 8263SOL     OW36424   1.504   2.098   2.918 -0.3774 -0.2853 -0.3535
 8263SOL    HW136425   1.489   2.169   2.856  1.6249 -2.2462 -3.1044
 8263SOL    HW236426   1.416   2.089   2.954  0.7982 -0.7457  2.3928
 8264SOL     OW36427   3.009   2.698   3.128 -0.5368  0.3952  0.5427
 8264SOL    HW136428   2.963   2.615   3.111 -0.6840  0.5659  0.1054
 8264SOL    HW236429   3.085   2.672   3.179  0.3660 -1.6949 -1.8431
 8265SOL     OW36430   2.564   1.967  16.426 -0.4776  0.5002 -0.3468
 8265SOL    HW136431   2.532   1.901  16.365 -1.4583 -0.4807  1.2071
 8265SOL    HW236432   2.583   1.916  16.504  3.0020  0.4434 -1.2379
 8266SOL     OW36433   1.416   3.228   7.541  0.1366 -0.2210  0.1515
 8266SOL    HW136434   1.411   3.305   7.599 -0.3062  0.1659 -0.3966
 8266SOL    HW236435   1.345   3.171   7.571  0.4227 -0.9455 -0.5583
 8267SOL     OW36436   0.430   1.923   2.645  0.1852  0.0565 -0.3604
 8267SOL    HW136437   0.412   1.833   2.615  1.1327 -0.0376 -0.6301
 8267SOL    HW236438   0.344   1.954   2.675  0.2080 -1.1087  0.9388
 8268SOL     OW36439   1.928   0.184   9.225  0.0463  0.5545 -1.0953
 8268SOL    HW136440   1.835   0.203   9.241 -0.2247 -1.6089  0.0248
 8268SOL    HW236441   1.931   0.205   9.132 -1.4011  0.1856 -1.2321
 8269SOL     OW36442   2.191   2.398   5.285 -0.5261  0.1057  0.1721
 8269SOL    HW136443   2.231   2.437   5.362 -0.3890 -0.0270  0.1686
 8269SOL    HW236444   2.149   2.321   5.323  1.1500  0.7265  3.2312
 8270SOL     OW36445   0.909   2.650   4.894  0.4431 -0.6734 -0.0196
 8270SOL    HW136446   0.954   2.643   4.810  1.5705  1.1875  0.4256
 8270SOL    HW236447   0.946   2.729   4.934 -1.8879 -0.8591  2.5240
 8271SOL     OW36448   3.762   4.234   8.103  0.5578 -0.4510  0.0353
 8271SOL    HW136449   3.739   4.201   8.190  0.5791 -1.8360 -0.4761
 8271SOL    HW236450   3.723   4.321   8.105  0.2758 -0.5415 -1.7736
 8272SOL     OW36451   4.472   2.369   3.526  0.1089  0.0027 -0.4300
 8272SOL    HW136452   4.553   2.416   3.505 -1.4148  1.8742 -2.1245
 8272SOL    HW236453   4.441   2.341   3.440 -1.6159 -1.5796  0.6950
 8273SOL     OW36454   0.104   1.449   6.716  0.4095  0.6104 -0.9125
 8273SOL    HW136455   0.015   1.465   6.747  0.4162  1.3665 -1.2802
 8273SOL    HW236456   0.097   1.355   6.701 -1.9076  0.7960 -1.0066
 8274SOL     OW36457   2.299   0.145   5.363 -0.3869  0.2834  0.0421
 8274SOL    HW136458   2.341   0.191   5.291  0.7517  1.3575  1.4073
 8274SOL    HW236459   2.269   0.212   5.424  1.1114  2.0125 -1.1171
 8275SOL     OW36460   3.752   2.655   8.785  0.4664 -0.2375  0.3690
 8275SOL    HW136461   3.751   2.747   8.811 -1.6161  0.0557 -0.7415
 8275SOL    HW236462   3.844   2.630   8.798  0.7445  0.3387 -0.4894
 8276SOL     OW36463   2.878   0.858   0.025  0.1886  0.5099  0.3826
 8276SOL    HW136464   2.820   0.919   0.070  1.4302  0.1795  2.4400
 8276SOL    HW236465   2.849   0.777   0.068  0.3087  2.3292  3.8828
 8277SOL     OW36466   0.468   2.438  11.523  0.2879 -0.1771  0.7222
 8277SOL    HW136467   0.504   2.429  11.611 -2.1140  5.5683  2.3085
 8277SOL    HW236468   0.379   2.464  11.547  0.4486  0.8210  0.2619
 8278SOL     OW36469   0.807   4.220   7.045  0.6122 -0.3965 -0.1732
 8278SOL    HW136470   0.884   4.163   7.043  0.6444 -0.4386  2.4012
 8278SOL    HW236471   0.811   4.232   7.140  0.2881 -0.1392 -0.1915
 8279SOL     OW36472   1.265   1.524   5.244  0.1598  0.0319 -0.1707
 8279SOL    HW136473   1.172   1.535   5.223  0.2375  0.8782 -0.0592
 8279SOL    HW236474   1.303   1.591   5.187  0.8775 -0.7368 -0.6036
 8280SOL     OW36475   4.157   2.361  17.618  0.6255  0.4036 -0.3088
 8280SOL    HW136476   4.108   2.407  17.549 -1.8512  0.2721  1.3389
 8280SOL    HW236477   4.115   2.406  17.692  0.1080 -0.7633  0.0993
 8281SOL     OW36478   3.052   4.128   4.807  0.1968  0.2913  0.3585
 8281SOL    HW136479   2.986   4.068   4.773 -1.4336  1.8438  0.7361
 8281SOL    HW236480   2.997   4.195   4.848  0.2580  2.0342 -2.4097
 8282SOL     OW36481   0.123   0.250   3.476 -0.0282  0.1754 -0.1112
 8282SOL    HW136482   0.073   0.238   3.556  2.0664 -0.2274  1.1499
 8282SOL    HW236483   0.159   0.338   3.483  0.8062 -0.0545 -1.4483
 8283SOL     OW36484   2.625   3.008  11.005 -0.1014  0.5166 -0.2256
 8283SOL    HW136485   2.606   3.096  10.972  0.8545  1.6008  2.1277
 8283SOL    HW236486   2.540   2.986  11.043  0.4247 -0.3798  0.4400
 8284SOL     OW36487   0.399   4.643   6.904 -0.2369 -0.1897 -0.0655
 8284SOL    HW136488   0.389   4.643   6.999  1.0726 -2.1863  0.0707
 8284SOL    HW236489   0.491   4.620   6.894 -0.2603  0.2331 -1.3397
 8285SOL     OW36490   0.014   3.909  12.111 -0.2652 -0.2761 -0.1647
 8285SOL    HW136491   4.702   3.882  12.035 -0.6900  0.1205 -0.0280
 8285SOL    HW236492   4.729   3.837  12.170  1.5749  0.5310  1.5655
 8286SOL     OW36493   2.424   3.055  10.316  0.0809  0.1602  0.6359
 8286SOL    HW136494   2.405   3.143  10.286  1.0289 -0.3093 -1.3677
 8286SOL    HW236495   2.454   3.062  10.407  0.5343 -0.2832  0.5236
 8287SOL     OW36496   4.508   0.327   8.240 -0.1294 -0.3924 -0.3506
 8287SOL    HW136497   4.504   0.236   8.267  0.7597 -0.0391  0.9684
 8287SOL    HW236498   4.421   0.366   8.250  1.1007  2.3741 -0.3212
 8288SOL     OW36499   2.102   3.056  10.445  0.1158 -0.6690  0.0930
 8288SOL    HW136500   2.152   3.118  10.499 -0.8319 -0.8315  1.1462
 8288SOL    HW236501   2.071   3.116  10.377 -0.5097 -3.1267 -1.7666
 8289SOL     OW36502   2.712   1.471   9.867 -0.8303 -0.2888  0.3611
 8289SOL    HW136503   2.798   1.509   9.847 -0.1014 -0.4704  3.1117
 8289SOL    HW236504   2.726   1.377   9.857 -0.1458 -0.0368 -1.0489
 8290SOL     OW36505   0.465   4.020   4.376 -0.5098  0.1762 -0.1001
 8290SOL    HW136506   0.471   4.017   4.281  0.7044  0.8212 -0.0475
 8290SOL    HW236507   0.559   4.029   4.390 -0.3668 -1.6056  0.0931
 8291SOL     OW36508   2.383   3.274   2.004  0.4415  0.1522  0.2926
 8291SOL    HW136509   2.437   3.222   1.944  0.8435  0.2078  0.6052
 8291SOL    HW236510   2.415   3.364   2.002  2.1634 -0.4788 -0.3583
 8292SOL     OW36511   2.142   3.415  16.664 -0.1356  0.0676  0.0905
 8292SOL    HW136512   2.062   3.364  16.653  0.2804 -0.9111  1.6677
 8292SOL    HW236513   2.147   3.478  16.593 -0.0850  0.1817  0.1946
 8293SOL     OW36514   2.706   1.045   4.621  0.3960 -0.2013 -0.2735
 8293SOL    HW136515   2.782   1.017   4.673  0.2848 -2.5907 -1.4374
 8293SOL    HW236516   2.662   1.106   4.681  0.3256 -0.6872  0.1710
 8294SOL     OW36517   4.565   4.684   1.426 -0.1439  0.1342  0.0733
 8294SOL    HW136518   4.528   0.015   1.371 -3.2817 -2.5947 -1.2776
 8294SOL    HW236519   4.480   4.645   1.447  0.3470 -1.3351 -0.5928
 8295SOL     OW36520   4.154   0.084   4.310  0.2199 -0.1567 -0.0603
 8295SOL    HW136521   4.194   0.123   4.232  0.5231 -0.2848  0.0302
 8295SOL    HW236522   4.064   0.089   4.277 -0.9949  1.6298  3.5537
 8296SOL     OW36523   3.139   0.778   5.232  0.0971 -0.2251 -0.4624
 8296SOL    HW136524   3.082   0.839   5.279 -1.3611 -2.8172  1.1713
 8296SOL    HW236525   3.121   0.708   5.296  0.9145 -1.2967 -1.4038
 8297SOL     OW36526   3.349   4.449   9.205 -0.2886 -0.0343  0.9265
 8297SOL    HW136527   3.332   4.495   9.287 -0.7022 -0.8987  1.3363
 8297SOL    HW236528   3.429   4.398   9.214  1.3367  2.2697 -0.7111
 8298SOL     OW36529   4.093   4.661   1.366 -0.5037 -0.0083  0.6264
 8298SOL    HW136530   4.120   4.737   1.418  0.9017 -1.2352  1.6685
 8298SOL    HW236531   4.148   4.594   1.405 -2.0671 -1.3572  0.4960
 8299SOL     OW36532   4.685   0.600   8.212  0.4902 -0.2111 -0.3551
 8299SOL    HW136533   4.603   0.570   8.251 -0.1966  2.8275  0.5206
 8299SOL    HW236534   4.661   0.649   8.133 -0.0690  1.9508  1.1537
 8300SOL     OW36535   3.040   0.661   4.167  0.0590 -0.6523 -0.1916
 8300SOL    HW136536   3.081   0.641   4.082 -0.1300  0.5070 -0.5604
 8300SOL    HW236537   3.063   0.582   4.215 -1.8586 -1.7883 -1.1404
 8301SOL     OW36538   3.120   2.959   3.328 -0.2596 -1.1340  1.0236
 8301SOL    HW136539   3.195   2.905   3.352  2.7640  1.5762 -2.2892
 8301SOL    HW236540   3.149   3.047   3.354 -0.0195 -1.2288  1.0804
 8302SOL     OW36541   4.372   0.399   7.554 -0.2806 -0.9472  0.1976
 8302SOL    HW136542   4.346   0.365   7.468  0.2783 -0.5865 -0.1184
 8302SOL    HW236543   4.350   0.323   7.607 -2.7006  0.4251  1.1836
 8303SOL     OW36544   1.723   3.777   7.979  0.5932 -0.3309  0.1858
 8303SOL    HW136545   1.700   3.692   8.018  0.3525 -1.0690 -1.5869
 8303SOL    HW236546   1.656   3.803   7.916  0.3029 -1.1933  0.1461
 8304SOL     OW36547   0.348   1.432   6.046 -0.5181 -0.2325 -0.1631
 8304SOL    HW136548   0.368   1.511   5.996  0.5695 -0.9730 -0.9023
 8304SOL    HW236549   0.296   1.389   5.978  1.8589 -0.7045 -1.6940
 8305SOL     OW36550   2.245   1.510   5.974  0.1583 -0.2299 -0.5069
 8305SOL    HW136551   2.278   1.510   6.063 -0.3901 -2.2070 -0.2984
 8305SOL    HW236552   2.150   1.498   5.981 -0.1019  1.6753 -0.6255
 8306SOL     OW36553   4.195   0.393   5.776 -0.1647  0.0147  0.3507
 8306SOL    HW136554   4.153   0.314   5.812  0.4002 -0.1448  0.6557
 8306SOL    HW236555   4.286   0.364   5.779  0.6919  2.8315  1.3483
 8307SOL     OW36556   4.545   1.932  12.558  0.2961 -0.5859 -0.0018
 8307SOL    HW136557   4.512   1.953  12.471  2.7788  0.3367 -0.7164
 8307SOL    HW236558   4.484   1.979  12.615 -0.9548 -0.0839 -1.7654
 8308SOL     OW36559   1.591   2.716   6.878  0.0014  0.1554 -0.2135
 8308SOL    HW136560   1.598   2.801   6.922 -1.1292  0.4421 -0.5979
 8308SOL    HW236561   1.521   2.668   6.923  0.0924 -1.0047 -1.2955
 8309SOL     OW36562   0.446   2.341   4.394 -0.1632 -0.0318 -0.0750
 8309SOL    HW136563   0.535   2.336   4.358 -0.2997 -0.8873 -0.2709
 8309SOL    HW236564   0.450   2.313   4.486 -0.0237 -0.4503 -0.2093
 8310SOL     OW36565   0.423   0.659  16.888  0.1027  0.3146  0.0724
 8310SOL    HW136566   0.465   0.739  16.857 -3.3607  1.4965 -1.5929
 8310SOL    HW236567   0.486   0.607  16.939 -0.3518  0.8266  1.1550
 8311SOL     OW36568   2.379   1.492   5.327  0.6069  0.4825  0.4908
 8311SOL    HW136569   2.381   1.475   5.233  2.1876  0.1066  0.5868
 8311SOL    HW236570   2.469   1.487   5.362  0.1862  0.0218  1.5137
 8312SOL     OW36571   3.620   1.067   7.095 -0.5899  0.0734  0.0602
 8312SOL    HW136572   3.582   1.057   7.008 -0.5602 -0.2658  0.0856
 8312SOL    HW236573   3.622   0.974   7.116 -1.1171  0.3114  1.1219
 8313SOL     OW36574   4.103   1.386   2.890  0.3126 -0.3329 -0.6402
 8313SOL    HW136575   4.162   1.427   2.953  1.8616 -1.9240 -1.0768
 8313SOL    HW236576   4.052   1.317   2.932  0.7703 -1.6571 -2.2680
 8314SOL     OW36577   4.008   0.199   0.725  1.3331  0.0464  0.3917
 8314SOL    HW136578   3.914   0.202   0.740  1.2523 -2.7541  0.4057
 8314SOL    HW236579   4.031   0.140   0.796 -1.3496 -2.5060 -0.8883
 8315SOL     OW36580   2.575   0.593   3.756  0.0988 -0.2004  0.3447
 8315SOL    HW136581   2.536   0.505   3.755 -1.8267  0.6540 -0.9265
 8315SOL    HW236582   2.630   0.601   3.833  0.4687  1.8947 -0.1287
 8316SOL     OW36583   0.872   2.743   8.915 -0.1297  0.2684  0.2704
 8316SOL    HW136584   0.885   2.725   9.008 -0.7354 -1.2551  0.0720
 8316SOL    HW236585   0.962   2.769   8.894 -0.1237 -0.2707 -0.4095
 8317SOL     OW36586   1.284   0.417   5.670 -0.3573 -0.0075  0.4134
 8317SOL    HW136587   1.356   0.480   5.676 -0.6567  0.2716  0.9662
 8317SOL    HW236588   1.271   0.394   5.761 -2.7713 -0.9226 -0.1701
 8318SOL     OW36589   1.966   2.634  13.083  0.8662  0.4937 -0.4664
 8318SOL    HW136590   1.979   2.610  12.991 -2.6887 -0.2285 -0.7904
 8318SOL    HW236591   1.968   2.729  13.080  0.0098  0.4484 -2.8627
 8319SOL     OW36592   0.735   1.592   2.974 -0.1675 -0.6763 -0.4895
 8319SOL    HW136593   0.647   1.629   2.964  0.5527  2.0708  3.5153
 8319SOL    HW236594   0.789   1.670   2.964 -2.5074  0.9383 -0.4375
 8320SOL     OW36595   4.526   2.093   4.418  0.7235 -0.1841  0.3496
 8320SOL    HW136596   4.440   2.106   4.378 -0.3652 -0.2697  2.6531
 8320SOL    HW236597   4.571   2.177   4.419 -0.5646  0.4837  1.2058
 8321SOL     OW36598   2.927   3.209   7.425  0.1945  0.2617  0.2382
 8321SOL    HW136599   2.831   3.212   7.423  0.0942 -2.6225  0.9285
 8321SOL    HW236600   2.947   3.302   7.410 -2.0793  0.7917  0.4811
 8322SOL     OW36601   2.341   2.027  11.831 -0.1892  0.1154  0.9365
 8322SOL    HW136602   2.349   1.980  11.914 -1.9046  0.7901  1.4798
 8322SOL    HW236603   2.264   1.992  11.786  0.3701  0.1644 -0.0519
 8323SOL     OW36604   1.761   1.868   6.846  0.3205  0.0525 -0.6116
 8323SOL    HW136605   1.797   1.790   6.887 -1.5242  0.4542  1.7849
 8323SOL    HW236606   1.799   1.939   6.899 -1.5898 -0.0467  0.8791
 8324SOL     OW36607   1.475   2.519   0.209  0.5961  0.1690  0.2211
 8324SOL    HW136608   1.555   2.567   0.230  1.2073 -0.8858  0.3039
 8324SOL    HW236609   1.424   2.600   0.199 -0.5995 -0.5648  0.3050
 8325SOL     OW36610   0.165   4.118   8.460 -1.2175 -0.0187 -0.0004
 8325SOL    HW136611   0.180   4.212   8.470  0.2904 -0.3382  0.8042
 8325SOL    HW236612   0.200   4.101   8.548 -1.0640 -1.7603 -0.4071
 8326SOL     OW36613   3.071   4.213   5.089  0.1961 -0.0349 -0.2760
 8326SOL    HW136614   3.107   4.125   5.098 -0.9395 -0.3937  0.7173
 8326SOL    HW236615   3.131   4.242   5.021 -2.2269  2.7729 -1.2371
 8327SOL     OW36616   1.531   4.085   1.912  0.4751  0.3006 -0.6401
 8327SOL    HW136617   1.571   4.132   1.986 -1.7511  0.1061  0.6885
 8327SOL    HW236618   1.455   4.035   1.942 -0.5221  0.8404 -2.2457
 8328SOL     OW36619   1.799   0.708   8.720 -0.1465 -0.5024  0.1866
 8328SOL    HW136620   1.756   0.628   8.692  1.4159 -0.9657 -0.8932
 8328SOL    HW236621   1.885   0.684   8.687  0.1229 -0.0443  0.5545
 8329SOL     OW36622   1.882   0.426  13.382  0.4792 -0.4469 -0.4050
 8329SOL    HW136623   1.837   0.502  13.344 -0.0187 -0.4701  0.1377
 8329SOL    HW236624   1.916   0.394  13.299 -0.6286 -3.9299  0.4781
 8330SOL     OW36625   0.640   2.656   5.496  0.3044 -0.1842 -0.3690
 8330SOL    HW136626   0.727   2.648   5.456  1.7221  0.3271  2.6636
 8330SOL    HW236627   0.640   2.584   5.558 -0.0223  0.5548  0.4847
 8331SOL     OW36628   2.031   1.276   8.043 -0.6900 -0.4796  0.2888
 8331SOL    HW136629   1.994   1.189   8.057 -1.4665 -0.0102  1.2328
 8331SOL    HW236630   1.974   1.298   7.969  1.6781  0.3749 -1.2595
 8332SOL     OW36631   0.985   2.804   6.731  0.0117 -0.4998 -0.6835
 8332SOL    HW136632   0.940   2.889   6.731 -1.1519 -1.1270  0.4724
 8332SOL    HW236633   0.924   2.767   6.667  1.5230  0.8975 -2.9380
 8333SOL     OW36634   1.451   2.216   4.292  0.4275  0.1284  0.1996
 8333SOL    HW136635   1.461   2.261   4.375  1.4828  2.1523 -1.0106
 8333SOL    HW236636   1.542   2.187   4.278  1.5847  3.5240  0.8522
 8334SOL     OW36637   3.951   3.452   6.251  0.1322  0.1964 -0.2388
 8334SOL    HW136638   3.872   3.446   6.306 -0.9447 -0.9171 -1.9106
 8334SOL    HW236639   3.981   3.364   6.276  1.3433  0.7934  0.3920
 8335SOL     OW36640   3.724   2.335   4.151 -0.0240 -0.2224 -0.2226
 8335SOL    HW136641   3.683   2.388   4.219  1.5273 -0.0053  0.5654
 8335SOL    HW236642   3.797   2.393   4.129 -0.3697  0.1599 -0.3640
 8336SOL     OW36643   3.229   2.546   6.936 -0.1873 -0.1968 -0.8309
 8336SOL    HW136644   3.214   2.546   7.031  0.6949  1.2195 -0.6832
 8336SOL    HW236645   3.221   2.455   6.910 -2.3318  0.4705 -2.4899
 8337SOL     OW36646   1.030   3.906   6.401  0.1553 -0.0039  0.0634
 8337SOL    HW136647   0.968   3.961   6.450 -0.8822 -0.3847 -0.8183
 8337SOL    HW236648   0.984   3.913   6.317 -0.1078 -4.7794 -0.1970
 8338SOL     OW36649   2.230   1.078   9.776  0.1610 -0.2600 -0.1979
 8338SOL    HW136650   2.196   1.092   9.864  0.8010 -0.2628  0.0451
 8338SOL    HW236651   2.169   1.119   9.715  1.0883  0.9489 -0.3119
 8339SOL     OW36652   4.681   2.096  13.659  0.3022  0.4267  0.0174
 8339SOL    HW136653   4.700   2.035  13.731 -1.0253 -2.1193 -1.7910
 8339SOL    HW236654   0.003   2.167  13.682  0.5028  0.7043 -1.3942
 8340SOL     OW36655   2.040   4.275   4.516  0.1364  0.5459  0.1988
 8340SOL    HW136656   1.949   4.251   4.537  0.0711  0.5494 -0.0898
 8340SOL    HW236657   2.039   4.282   4.421 -2.2125 -0.6125  0.1315
 8341SOL     OW36658   1.405   1.403   5.790 -0.4163 -0.1097 -0.2789
 8341SOL    HW136659   1.317   1.389   5.826 -0.2061 -0.5221  0.0690
 8341SOL    HW236660   1.403   1.320   5.743  1.0083 -0.4678  0.3017
 8342SOL     OW36661   2.052   1.283  14.255  0.9270 -0.3493  0.3737
 8342SOL    HW136662   2.131   1.245  14.295 -0.4931 -1.8453  1.7598
 8342SOL    HW236663   1.985   1.289  14.322  0.3420  1.6062 -0.4000
 8343SOL     OW36664   1.418   2.342   0.843 -0.2920  0.1930 -0.1317
 8343SOL    HW136665   1.438   2.343   0.750  1.0537 -0.4014  0.1479
 8343SOL    HW236666   1.365   2.421   0.856  2.0540  2.0221 -1.7819
 8344SOL     OW36667   4.201   2.087  12.340 -0.9024 -0.0734  0.4080
 8344SOL    HW136668   4.120   2.064  12.294  0.4284  0.2039 -2.1064
 8344SOL    HW236669   4.243   2.006  12.369  3.3414  1.7463 -0.6114
 8345SOL     OW36670   4.040   1.618   9.663 -0.2448 -0.7370  0.3548
 8345SOL    HW136671   3.982   1.545   9.684 -0.9729 -0.8247 -2.0066
 8345SOL    HW236672   3.983   1.694   9.681 -1.5832 -1.6372 -0.0851
 8346SOL     OW36673   4.395   3.510   3.359 -0.4597 -0.8852 -0.1225
 8346SOL    HW136674   4.473   3.501   3.414  1.0089 -0.5333 -2.1632
 8346SOL    HW236675   4.418   3.568   3.286  0.3614 -1.2159 -0.1194
 8347SOL     OW36676   2.410   3.331   5.819  0.2682 -0.4031 -0.0827
 8347SOL    HW136677   2.323   3.353   5.788 -1.1766 -2.5511  2.4590
 8347SOL    HW236678   2.455   3.412   5.797  1.4536 -1.1119 -0.2830
 8348SOL     OW36679   2.296   1.329   3.024 -0.3652 -0.0458  0.1809
 8348SOL    HW136680   2.301   1.389   2.950 -1.7418  1.0827  0.9894
 8348SOL    HW236681   2.387   1.330   3.054 -0.2829 -1.2927 -0.0295
 8349SOL     OW36682   0.539   2.514   4.759 -0.4515 -0.0941  0.0162
 8349SOL    HW136683   0.554   2.573   4.832  0.3868  0.1425 -0.3430
 8349SOL    HW236684   0.455   2.481   4.791 -0.7065  0.3849 -0.1657
 8350SOL     OW36685   4.457   0.573   2.267  0.4652 -0.1166 -0.1887
 8350SOL    HW136686   4.495   0.617   2.190  0.2989  0.8812  0.2968
 8350SOL    HW236687   4.535   0.552   2.318  0.7130  1.0925 -0.0780
 8351SOL     OW36688   2.318   4.380   9.574 -0.4394 -0.0995 -0.2727
 8351SOL    HW136689   2.252   4.446   9.550  0.7092  1.7432  1.6708
 8351SOL    HW236690   2.379   4.389   9.501  0.8062 -2.3441  0.5109
 8352SOL     OW36691   3.176   1.531  11.391 -0.1529  0.1162  0.0424
 8352SOL    HW136692   3.093   1.576  11.376  0.0035  0.5538  0.5059
 8352SOL    HW236693   3.237   1.604  11.383  0.6746 -0.7674 -1.6971
 8353SOL     OW36694   4.476   2.565   9.950 -0.5888 -0.3486 -0.3689
 8353SOL    HW136695   4.499   2.487   9.898 -3.1350 -0.9289 -0.6188
 8353SOL    HW236696   4.556   2.587   9.997 -0.8119 -0.3847  0.0233
 8354SOL     OW36697   0.937   1.660   4.708  0.2693 -0.5589  0.2820
 8354SOL    HW136698   1.016   1.715   4.709  1.0768 -1.7398  0.9721
 8354SOL    HW236699   0.881   1.701   4.642 -0.1277 -1.0027  0.3443
 8355SOL     OW36700   3.934   3.972   7.346  0.3995 -0.4304  0.0370
 8355SOL    HW136701   4.016   3.974   7.395  0.5390 -2.5033 -0.1004
 8355SOL    HW236702   3.872   3.969   7.419  1.3990 -2.1318  0.8149
 8356SOL     OW36703   2.458   0.808  17.132  0.0876 -0.3339  0.6266
 8356SOL    HW136704   2.413   0.885  17.168 -1.6972 -1.2436  0.3167
 8356SOL    HW236705   2.546   0.844  17.120  1.2466 -3.2825  0.2704
 8357SOL     OW36706   3.173   0.539   3.154 -0.1769 -0.2212 -0.1402
 8357SOL    HW136707   3.253   0.574   3.193 -0.9376  0.5561  0.6999
 8357SOL    HW236708   3.123   0.620   3.140  0.0990 -0.3986 -2.1445
 8358SOL     OW36709   3.474   3.695   2.543 -0.6794  0.2405  0.0102
 8358SOL    HW136710   3.541   3.742   2.593 -1.0915  2.1003 -1.1958
 8358SOL    HW236711   3.471   3.749   2.464  0.1564  1.5933  0.8965
 8359SOL     OW36712   2.295   2.882   4.231 -0.0240 -0.2514 -0.2880
 8359SOL    HW136713   2.336   2.798   4.213 -0.0434 -0.1676 -0.7438
 8359SOL    HW236714   2.371   2.941   4.229  0.0169 -0.2711  0.9352
 8360SOL     OW36715   1.833   0.446   7.523  1.0026  0.3426 -0.0735
 8360SOL    HW136716   1.816   0.456   7.430 -0.6633 -1.7129  0.0337
 8360SOL    HW236717   1.883   0.365   7.531  0.5522  0.1486  0.8288
 8361SOL     OW36718   3.441   1.690   2.298 -0.2991  0.0190 -0.3562
 8361SOL    HW136719   3.534   1.706   2.283 -0.5121  2.2392  0.6796
 8361SOL    HW236720   3.430   1.599   2.271 -1.9595 -0.4051  1.7264
 8362SOL     OW36721   4.036   4.695   4.565 -0.0318  0.3900  0.4612
 8362SOL    HW136722   4.093   4.734   4.499 -0.4893 -0.1053 -0.2295
 8362SOL    HW236723   4.093   4.628   4.602 -0.0021  0.1442 -0.0260
 8363SOL     OW36724   3.077   2.673  13.924 -0.1386 -0.5361 -0.2183
 8363SOL    HW136725   3.151   2.718  13.884  1.5338 -1.7654  1.5291
 8363SOL    HW236726   3.018   2.669  13.848 -0.6339 -1.3752  0.2088
 8364SOL     OW36727   4.147   4.225   4.627 -0.0380  0.5534  0.3315
 8364SOL    HW136728   4.077   4.165   4.654  1.6215 -1.7903 -0.5613
 8364SOL    HW236729   4.221   4.165   4.622 -0.6373 -0.1517 -0.1131
 8365SOL     OW36730   2.735   4.374   7.109  0.1066  0.1949 -0.0327
 8365SOL    HW136731   2.788   4.294   7.111 -2.4031 -1.4160  2.4270
 8365SOL    HW236732   2.641   4.357   7.108 -0.3676  2.8283  0.3080
 8366SOL     OW36733   2.697   1.989   6.029  0.2000 -0.0220  0.2432
 8366SOL    HW136734   2.632   1.925   6.057  0.0223 -0.1706 -0.5257
 8366SOL    HW236735   2.752   1.934   5.974  0.1175 -1.0462  1.1833
 8367SOL     OW36736   1.146   1.044  17.568  0.0848 -0.5863 -0.9900
 8367SOL    HW136737   1.236   1.014  17.575  0.7475  1.4535 -0.8285
 8367SOL    HW236738   1.161   1.134  17.597 -0.1565 -0.3237 -1.6756
 8368SOL     OW36739   1.972   0.419   3.955  0.4546 -0.6301  0.5532
 8368SOL    HW136740   1.979   0.477   4.031  3.1649 -1.2445  0.7661
 8368SOL    HW236741   2.064   0.416   3.928  0.1021  1.1971 -0.8843
 8369SOL     OW36742   0.344   1.135   5.969  0.1982 -0.0179 -0.6219
 8369SOL    HW136743   0.250   1.138   5.988  0.4158  1.3681  0.2829
 8369SOL    HW236744   0.355   1.060   5.910 -1.8913 -1.2217  0.5392
 8370SOL     OW36745   2.252   1.438   2.544 -0.0218 -0.5617 -0.7041
 8370SOL    HW136746   2.282   1.368   2.486  0.8499  0.8176 -1.9098
 8370SOL    HW236747   2.161   1.438   2.514  0.0238  1.3841 -0.8151
 8371SOL     OW36748   4.118   0.822   2.107  0.1559 -0.2450 -0.2289
 8371SOL    HW136749   4.202   0.861   2.131 -0.5732  0.4954  1.0818
 8371SOL    HW236750   4.139   0.766   2.032 -1.5386 -1.7752  0.4417
 8372SOL     OW36751   2.200   4.648  10.279 -0.8126 -0.9720 -0.4975
 8372SOL    HW136752   2.269   4.714  10.278 -0.9554 -0.8578 -1.8724
 8372SOL    HW236753   2.249   4.585  10.226  0.4649 -0.8850  0.5828
 8373SOL     OW36754   4.621   2.601   2.876 -0.0556  0.5490 -0.4747
 8373SOL    HW136755   4.685   2.656   2.920 -0.6070  1.1637 -0.4440
 8373SOL    HW236756   4.544   2.612   2.933 -0.5093  0.4091 -1.0634
 8374SOL     OW36757   3.756   3.836  16.612  0.0484  0.3161 -0.5577
 8374SOL    HW136758   3.808   3.780  16.554 -0.1852  1.4900 -1.9055
 8374SOL    HW236759   3.713   3.887  16.543 -1.2789 -0.3022 -0.1877
 8375SOL     OW36760   4.372   1.753   3.998  0.5233 -0.1514  0.1724
 8375SOL    HW136761   4.278   1.739   3.989  0.0272  1.4270  3.1269
 8375SOL    HW236762   4.383   1.741   4.092 -1.7206 -1.5155  0.2697
 8376SOL     OW36763   4.104   3.426  16.338 -0.6263 -0.0168 -0.0184
 8376SOL    HW136764   4.074   3.496  16.281  4.4648 -0.0413 -2.7246
 8376SOL    HW236765   4.189   3.459  16.367 -0.9023  0.6642  0.0038
 8377SOL     OW36766   0.621   0.800   4.940  0.6265  0.1905 -0.0081
 8377SOL    HW136767   0.703   0.824   4.896  2.4155  1.2170  3.9021
 8377SOL    HW236768   0.648   0.750   5.017 -1.2645 -0.6988  0.0709
 8378SOL     OW36769   0.882   4.691  13.357 -0.9500  0.0228  0.2910
 8378SOL    HW136770   0.835   4.642  13.290  0.0589 -1.0813  0.3972
 8378SOL    HW236771   0.966   4.646  13.354 -0.5511  0.6814  1.6565
 8379SOL     OW36772   2.088   1.179  13.333  0.1320 -0.2587 -0.1559
 8379SOL    HW136773   2.016   1.121  13.358  1.3929 -1.5910  0.3122
 8379SOL    HW236774   2.099   1.176  13.238 -0.4331  0.6449 -0.2461
 8380SOL     OW36775   3.046   0.818   0.720 -0.0036 -0.1803  0.1470
 8380SOL    HW136776   3.031   0.907   0.752  0.1148  0.3455 -1.2454
 8380SOL    HW236777   3.051   0.770   0.803  1.4309 -1.8510 -0.8986
 8381SOL     OW36778   4.479   0.342   5.767  0.3621  0.0727 -0.3860
 8381SOL    HW136779   4.501   0.412   5.706  0.7523  1.5691  1.4623
 8381SOL    HW236780   4.517   0.371   5.850 -2.1178 -3.0769  1.8961
 8382SOL     OW36781   2.609   1.564  14.955 -0.5777 -0.5227 -0.1950
 8382SOL    HW136782   2.675   1.515  14.906  0.9042 -0.3556  1.6365
 8382SOL    HW236783   2.651   1.650  14.952 -4.5367  1.3847 -0.5394
 8383SOL     OW36784   0.121   1.316   7.665 -0.3890  0.3249  0.2226
 8383SOL    HW136785   0.128   1.330   7.759  1.1252  1.3070 -0.0416
 8383SOL    HW236786   0.169   1.392   7.634 -1.4389  1.5593  1.6702
 8384SOL     OW36787   2.307   1.120   2.793  0.4720 -0.2957  0.3220
 8384SOL    HW136788   2.322   1.069   2.873  3.2010  1.3176  0.8511
 8384SOL    HW236789   2.274   1.203   2.827  1.2040  0.4794 -0.8477
 8385SOL     OW36790   3.270   4.152   8.788 -0.1203  0.2152  0.0183
 8385SOL    HW136791   3.298   4.237   8.753 -0.5492  0.8118  1.1092
 8385SOL    HW236792   3.186   4.178   8.825 -0.5338 -0.2116 -0.6286
 8386SOL     OW36793   2.357   1.470  17.722 -0.0248  0.3838  0.1796
 8386SOL    HW136794   2.381   1.377  17.721  1.7646  0.8743 -2.2534
 8386SOL    HW236795   2.316   1.489   0.057 -1.9625  1.9639 -1.1154
 8387SOL     OW36796   0.691   1.958   7.949  0.3368 -0.5537 -0.0463
 8387SOL    HW136797   0.768   1.918   7.908 -0.2899  0.2159 -1.9443
 8387SOL    HW236798   0.725   2.036   7.993  1.7951 -0.7162 -0.8732
 8388SOL     OW36799   1.659   0.425   7.748  0.1579  0.0893 -0.5028
 8388SOL    HW136800   1.699   0.424   7.661  1.1601 -0.2980 -0.0319
 8388SOL    HW236801   1.716   0.490   7.788  1.6134 -0.3168 -1.9003
 8389SOL     OW36802   0.259   2.294   7.250 -0.3220 -0.1377  0.2320
 8389SOL    HW136803   0.270   2.234   7.323 -1.3896  0.1090  0.6003
 8389SOL    HW236804   0.177   2.260   7.212 -0.1787 -1.1019  0.8047
 8390SOL     OW36805   3.397   1.854   0.563  0.4581  0.0572 -0.0566
 8390SOL    HW136806   3.395   1.949   0.574  2.8479  0.3510 -1.9528
 8390SOL    HW236807   3.361   1.839   0.476  1.4991 -0.8751 -0.3241
 8391SOL     OW36808   4.248   2.558   9.461 -0.4843 -0.0600 -0.4373
 8391SOL    HW136809   4.289   2.616   9.526 -1.3281  0.7484 -0.6256
 8391SOL    HW236810   4.325   2.505   9.439  1.0267  1.4888  1.0766
 8392SOL     OW36811   4.060   4.064  15.998 -0.0057 -0.4046 -0.1072
 8392SOL    HW136812   4.141   4.110  16.022 -1.1571  1.2353  0.6352
 8392SOL    HW236813   4.091   4.027  15.916  2.7132  2.3054 -0.2987
 8393SOL     OW36814   3.452   3.149   2.908 -0.0506  0.3504 -0.5583
 8393SOL    HW136815   3.528   3.203   2.884 -0.2529 -0.1710 -2.3369
 8393SOL    HW236816   3.500   3.066   2.919 -0.9415 -0.1484 -0.4632
 8394SOL     OW36817   3.547   0.988   2.999  0.6723  0.6053 -0.4362
 8394SOL    HW136818   3.571   1.080   3.010  2.5294 -0.3675  3.5648
 8394SOL    HW236819   3.631   0.946   3.017 -0.6660 -1.6057  0.6615
 8395SOL     OW36820   0.100   3.954   5.542  0.0063  0.1186  0.0222
 8395SOL    HW136821   0.119   3.886   5.477  1.7450 -0.6064  1.2809
 8395SOL    HW236822   0.087   3.903   5.622 -0.2672 -0.8852 -0.6558
 8396SOL     OW36823   1.855   4.307   2.601 -0.0820 -0.4859 -0.2561
 8396SOL    HW136824   1.928   4.370   2.596 -0.6250 -0.0471 -2.5620
 8396SOL    HW236825   1.801   4.348   2.669  1.7496 -0.8872  1.4412
 8397SOL     OW36826   4.083   4.248  17.076 -0.6313  0.1939 -0.2953
 8397SOL    HW136827   3.989   4.252  17.057 -0.1715 -0.6495 -2.8097
 8397SOL    HW236828   4.109   4.336  17.102 -0.9061  0.4924 -1.0264
 8398SOL     OW36829   4.087   1.356   9.315  0.1121 -0.1075  0.4063
 8398SOL    HW136830   4.032   1.278   9.314 -1.0397  0.7070 -0.0760
 8398SOL    HW236831   4.138   1.335   9.393 -0.2718 -1.3765  0.3231
 8399SOL     OW36832   0.390   3.319   3.057  0.2094 -0.3140 -0.3886
 8399SOL    HW136833   0.456   3.351   3.119 -1.0418 -0.4408  0.9976
 8399SOL    HW236834   0.350   3.403   3.033 -0.8590 -0.8478 -0.4414
 8400SOL     OW36835   0.655   3.013   6.513  0.4585 -0.1750  0.2845
 8400SOL    HW136836   0.593   2.952   6.474  0.4595  0.2500 -0.3701
 8400SOL    HW236837   0.634   3.088   6.458 -0.3793 -0.3733  0.3237
 8401SOL     OW36838   2.325   1.785   5.272 -0.3284 -0.2498  0.3118
 8401SOL    HW136839   2.323   1.695   5.303 -0.2744 -1.2967 -2.8062
 8401SOL    HW236840   2.371   1.827   5.345  0.9091  0.7291 -1.0405
 8402SOL     OW36841   1.165   0.691   5.112 -0.2641  0.1899 -0.2180
 8402SOL    HW136842   1.148   0.602   5.083 -2.7091  0.9184 -1.0237
 8402SOL    HW236843   1.140   0.686   5.204  1.6683 -0.3421  0.2886
 8403SOL     OW36844   0.439   3.348   6.581  0.2684  0.2150  0.4613
 8403SOL    HW136845   0.508   3.300   6.627  2.4206  0.1948 -2.8007
 8403SOL    HW236846   0.376   3.361   6.652 -1.9888 -0.5575 -1.4054
 8404SOL     OW36847   2.603   1.920   4.041  0.2168  0.1210 -0.4866
 8404SOL    HW136848   2.561   2.005   4.033 -1.1161 -0.4105  0.9374
 8404SOL    HW236849   2.528   1.879   4.083 -1.5792  3.1509 -0.7825
 8405SOL     OW36850   4.154   0.366  11.499  0.0052  0.0270 -0.1728
 8405SOL    HW136851   4.103   0.305  11.551  0.3409 -0.3152 -0.2500
 8405SOL    HW236852   4.168   0.335  11.410 -3.2455 -2.8610  0.3062
 8406SOL     OW36853   0.386   1.462   2.087  0.0346  0.1363  0.7013
 8406SOL    HW136854   0.457   1.525   2.092 -0.9099  1.4135 -2.0463
 8406SOL    HW236855   0.372   1.449   2.181  0.8642 -0.2093  0.7809
 8407SOL     OW36856   0.845   4.035   1.513  0.4842  0.4010  0.0435
 8407SOL    HW136857   0.881   4.123   1.503 -0.2763  0.6770 -0.3070
 8407SOL    HW236858   0.905   4.005   1.581 -1.1548  0.0333  1.3225
 8408SOL     OW36859   3.932   0.694   4.194 -1.0513  0.3953 -0.6995
 8408SOL    HW136860   3.901   0.637   4.264  0.8976  0.4033  0.1681
 8408SOL    HW236861   3.962   0.769   4.245 -1.4607 -0.0516  0.1964
 8409SOL     OW36862   3.875   2.359  11.346  0.1446  0.1180 -0.5418
 8409SOL    HW136863   3.792   2.330  11.307 -0.0939 -0.9815  0.7746
 8409SOL    HW236864   3.854   2.360  11.439  1.6468 -0.0097 -0.2025
 8410SOL     OW36865   4.392   3.870   6.927  0.5993 -0.2913  0.2985
 8410SOL    HW136866   4.481   3.882   6.960 -0.9353  4.7265  2.6730
 8410SOL    HW236867   4.394   3.925   6.848 -1.1557  2.7364  2.3706
 8411SOL     OW36868   4.419   4.369  15.804 -0.4541 -0.2718 -0.3584
 8411SOL    HW136869   4.502   4.342  15.764 -0.8827 -0.9191 -0.8006
 8411SOL    HW236870   4.435   4.462  15.821  2.3919 -0.5564 -1.5096
 8412SOL     OW36871   0.692   0.633   7.188 -0.3802 -0.3001 -0.5187
 8412SOL    HW136872   0.608   0.587   7.181 -0.6453 -0.0652  1.1595
 8412SOL    HW236873   0.658   0.719   7.215 -1.1916 -1.4295  2.0554
 8413SOL     OW36874   0.383   0.785  13.052  0.0684  0.2405 -0.1117
 8413SOL    HW136875   0.412   0.846  13.120 -1.9257  2.6970 -1.4650
 8413SOL    HW236876   0.389   0.840  12.975 -1.5404 -0.0424 -0.4370
 8414SOL     OW36877   2.681   4.002   8.992  0.0203 -0.3085  0.6405
 8414SOL    HW136878   2.774   3.987   8.974  0.0012  1.2275 -0.6820
 8414SOL    HW236879   2.681   3.974   9.084  2.5916  0.0553  0.7632
 8415SOL     OW36880   2.154   2.427   0.039 -0.4153  0.3117  0.3336
 8415SOL    HW136881   2.149   2.461  17.698  1.0316 -0.7322 -0.1348
 8415SOL    HW236882   2.217   2.485   0.081  0.5838 -1.3163  1.0718
 8416SOL     OW36883   4.242   4.632   0.742 -0.1984 -0.0081 -0.0153
 8416SOL    HW136884   4.331   4.634   0.777  0.6690  0.1019 -2.2197
 8416SOL    HW236885   4.258   4.643   0.649  0.2637 -0.0333  0.0588
 8417SOL     OW36886   0.406   2.247  11.346  0.0402 -0.0367  0.1076
 8417SOL    HW136887   0.424   2.325  11.398 -1.7051  0.8364 -0.6164
 8417SOL    HW236888   0.407   2.189  11.423  1.7193  0.0027  0.1277
 8418SOL     OW36889   1.217   4.377   3.385 -0.6306  0.1284 -0.0547
 8418SOL    HW136890   1.249   4.287   3.381 -0.6552  0.1562 -1.0779
 8418SOL    HW236891   1.123   4.363   3.397 -0.9617 -0.7885 -3.6156
 8419SOL     OW36892   1.032   1.270  12.848  0.3823  0.3499 -0.0173
 8419SOL    HW136893   1.071   1.351  12.816  0.8352 -0.3842 -1.3449
 8419SOL    HW236894   1.115   1.223  12.847 -0.1834 -0.6988  2.2526
 8420SOL     OW36895   1.392   1.973  10.067 -0.3694  0.4884 -0.1648
 8420SOL    HW136896   1.405   2.057  10.023  1.3945  1.3093  1.9296
 8420SOL    HW236897   1.362   1.920   9.994  0.0158 -1.1259  0.8499
 8421SOL     OW36898   1.983   2.492  11.787 -0.3361  0.1894  0.8501
 8421SOL    HW136899   2.007   2.415  11.838 -0.3539 -0.8203 -0.6686
 8421SOL    HW236900   1.960   2.447  11.705  0.6683  1.5699 -0.2003
 8422SOL     OW36901   1.073   0.368   6.233 -0.1614 -0.2090 -0.0356
 8422SOL    HW136902   1.073   0.425   6.310  2.0691 -1.4008  0.8335
 8422SOL    HW236903   1.050   0.438   6.172  0.1763  0.0783  0.1713
 8423SOL     OW36904   0.321   1.508  17.444 -0.0150 -0.0747  0.2343
 8423SOL    HW136905   0.319   1.512  17.348  0.7109 -0.6994  0.1921
 8423SOL    HW236906   0.353   1.596  17.462 -1.3725  0.7311 -1.3399
 8424SOL     OW36907   0.173   1.641   6.557 -0.0405  0.2874  0.1939
 8424SOL    HW136908   0.232   1.594   6.499 -0.2512 -1.6428  1.5642
 8424SOL    HW236909   0.151   1.582   6.629 -1.9812  1.5236  0.6229
 8425SOL     OW36910   3.234   3.463   0.061 -0.2120  0.3983  0.0319
 8425SOL    HW136911   3.279   3.528   0.008 -2.4743  3.1903  1.5296
 8425SOL    HW236912   3.250   3.395  17.745  0.0689  0.0781  0.4361
 8426SOL     OW36913   0.780   1.729   7.395 -0.2738 -0.2572 -0.2571
 8426SOL    HW136914   0.728   1.750   7.318 -0.2483  0.6933 -0.0107
 8426SOL    HW236915   0.823   1.656   7.349 -0.5304 -0.1214 -0.7113
 8427SOL     OW36916   0.308   3.308   6.324 -0.4168  0.0835  0.5708
 8427SOL    HW136917   0.348   3.361   6.255  1.1889 -1.2438  0.4896
 8427SOL    HW236918   0.371   3.303   6.395  1.9164 -2.2470 -1.6434
 8428SOL     OW36919   2.055   1.464  13.052 -0.3628  0.3164 -0.0117
 8428SOL    HW136920   1.978   1.434  13.003 -1.0815  1.5567  0.3784
 8428SOL    HW236921   2.125   1.407  13.019 -0.9037 -1.0467  1.1636
 8429SOL     OW36922   1.038   1.232   7.235  0.1708  0.2239 -0.1241
 8429SOL    HW136923   1.038   1.156   7.177 -2.1745 -0.2111  0.4125
 8429SOL    HW236924   0.951   1.222   7.275  0.8035  0.0550  1.1951
 8430SOL     OW36925   2.582   2.023  13.442  0.2595  0.6582 -0.2044
 8430SOL    HW136926   2.601   1.934  13.472 -2.1842 -0.8390 -3.1324
 8430SOL    HW236927   2.659   2.041  13.388 -0.7373 -0.6245 -2.0476
 8431SOL     OW36928   0.098   0.525   4.407 -0.6220 -0.2783  0.1017
 8431SOL    HW136929   0.162   0.496   4.472 -0.4176 -1.0018 -0.4161
 8431SOL    HW236930   0.023   0.464   4.409  0.1421 -1.2848 -1.8940
 8432SOL     OW36931   4.116   1.386   6.094 -0.1407 -0.8380 -0.7595
 8432SOL    HW136932   4.177   1.389   6.168 -0.9864  2.1480 -0.1550
 8432SOL    HW236933   4.065   1.311   6.124 -1.1362 -0.2445 -0.9617
 8433SOL     OW36934   1.618   2.661   2.875  0.4113 -0.2663 -0.5185
 8433SOL    HW136935   1.535   2.708   2.888 -0.1584 -1.9809  2.0495
 8433SOL    HW236936   1.665   2.688   2.954  2.0960 -0.7115 -1.3787
 8434SOL     OW36937   4.546   2.833   0.546  0.3414  0.5497 -0.0025
 8434SOL    HW136938   4.632   2.805   0.580  0.6085  0.7434 -0.5209
 8434SOL    HW236939   4.556   2.804   0.456  0.3507 -2.6219  1.0441
 8435SOL     OW36940   4.444   4.577   7.248 -0.1365 -0.0857 -0.3040
 8435SOL    HW136941   4.528   4.593   7.204 -1.1915  0.2655 -2.1949
 8435SOL    HW236942   4.441   4.628   7.329  0.1018 -2.1601  1.0228
 8436SOL     OW36943   3.800   1.997   9.782  0.7772 -0.1301 -0.0730
 8436SOL    HW136944   3.783   2.080   9.738 -1.6855 -0.3685  0.4230
 8436SOL    HW236945   3.804   1.938   9.707  3.4730 -0.0660  0.0302
 8437SOL     OW36946   3.990   3.290   3.856  0.0065 -0.3185 -0.3640
 8437SOL    HW136947   3.919   3.262   3.799 -1.0901  1.7657 -0.0156
 8437SOL    HW236948   4.052   3.217   3.853  0.1059 -0.1973 -1.2739
 8438SOL     OW36949   0.904   1.671   4.990  0.0986 -0.1163  0.5463
 8438SOL    HW136950   0.844   1.745   4.982 -0.6105 -0.7776 -0.3445
 8438SOL    HW236951   0.911   1.638   4.901 -0.3719 -0.0074  0.4683
 8439SOL     OW36952   0.558   3.443   5.167  0.9129 -1.0536  0.3082
 8439SOL    HW136953   0.635   3.397   5.201  0.6365 -2.7188 -1.3425
 8439SOL    HW236954   0.583   3.459   5.076  2.7137 -1.6628  0.7070
 8440SOL     OW36955   2.488   4.597   3.187 -0.3255  0.7237  0.3635
 8440SOL    HW136956   2.446   4.670   3.142 -1.3550  0.1464  0.3872
 8440SOL    HW236957   2.414   4.552   3.228 -0.3150  0.5562  0.1991
 8441SOL     OW36958   3.900   2.546   4.191 -0.2082  0.4023  0.1497
 8441SOL    HW136959   3.870   2.522   4.279 -0.5978  2.6140  0.6191
 8441SOL    HW236960   3.989   2.521   4.217 -1.1231  0.2432  3.1032
 8442SOL     OW36961   0.954   1.772   0.449  0.1837 -0.1638 -0.0864
 8442SOL    HW136962   0.888   1.838   0.426  1.2467  0.6490 -0.8033
 8442SOL    HW236963   0.947   1.789   0.543  0.0322  0.3171 -0.1825
 8443SOL     OW36964   1.978   4.623   7.722 -0.5064  0.4579  0.2057
 8443SOL    HW136965   1.912   4.620   7.653 -1.3107 -1.6346  1.0730
 8443SOL    HW236966   1.935   4.676   7.789  3.5043  1.4169  2.0312
 8444SOL     OW36967   0.773   1.445   5.363  0.5124  0.3757  0.2538
 8444SOL    HW136968   0.679   1.428   5.354  0.5343  0.9925 -1.1566
 8444SOL    HW236969   0.764   1.539   5.344  2.8757  0.4814 -0.3041
 8445SOL     OW36970   4.528   1.060   3.422 -1.0504 -0.1431  0.6333
 8445SOL    HW136971   4.531   1.155   3.433  1.8109  0.0681 -1.8085
 8445SOL    HW236972   4.616   1.045   3.457  0.1110 -0.7218 -2.5321
 8446SOL     OW36973   2.111   4.081  14.914 -0.0438 -0.2777 -0.1398
 8446SOL    HW136974   2.079   3.991  14.919 -1.1693  0.1523  0.3592
 8446SOL    HW236975   2.028   4.126  14.927 -0.8538 -1.5387 -0.9977
 8447SOL     OW36976   1.464   4.720   9.008 -0.0493 -0.0623 -0.2599
 8447SOL    HW136977   1.539   4.686   8.959 -1.0452 -1.3857 -0.8378
 8447SOL    HW236978   1.497   4.698   9.096  0.7273 -0.4781 -0.6506
 8448SOL     OW36979   4.195   1.773  10.688  0.1943 -0.2133  0.0574
 8448SOL    HW136980   4.188   1.868  10.682 -1.3573 -0.3008  0.5280
 8448SOL    HW236981   4.267   1.772  10.750 -0.9192  0.3720  1.3634
 8449SOL     OW36982   1.246   3.178   7.843  0.2024  0.3828 -0.1996
 8449SOL    HW136983   1.220   3.086   7.834  2.1446 -0.0572 -1.1741
 8449SOL    HW236984   1.320   3.175   7.903 -2.9966 -0.3641  3.7372
 8450SOL     OW36985   1.752   0.932  13.178  0.6858 -0.0149 -0.7041
 8450SOL    HW136986   1.789   0.957  13.093  1.2739 -0.9130 -0.7106
 8450SOL    HW236987   1.666   0.970  13.161 -0.6034 -1.1178  3.4085
 8451SOL     OW36988   0.646   2.655  12.256  0.4748 -0.2998  0.3147
 8451SOL    HW136989   0.597   2.708  12.319 -0.8142 -1.5341  0.3727
 8451SOL    HW236990   0.655   2.567  12.295 -0.9925 -0.3048  0.6646
 8452SOL     OW36991   3.356   2.003   5.205 -0.2583 -0.2440 -0.6493
 8452SOL    HW136992   3.368   2.094   5.231  0.5749 -0.0884 -1.5931
 8452SOL    HW236993   3.299   2.009   5.128  0.3397  2.5464 -0.8737
 8453SOL     OW36994   0.751   1.219   5.935 -0.5076  0.1091  0.5383
 8453SOL    HW136995   0.715   1.220   5.847 -1.2405  1.1611  0.8624
 8453SOL    HW236996   0.685   1.166   5.979 -0.1196 -1.4475 -0.7265
 8454SOL     OW36997   3.095   1.687  14.424 -0.5240 -0.1512 -0.3879
 8454SOL    HW136998   3.040   1.766  14.421 -1.3534 -0.7303 -0.4064
 8454SOL    HW236999   3.177   1.731  14.446 -0.4331 -1.7407  2.4543
 8455SOL     OW37000   0.841   4.366   8.409  0.1710  0.0783 -0.2070
 8455SOL    HW137001   0.927   4.325   8.419 -0.6873 -2.2699 -2.4832
 8455SOL    HW237002   0.777   4.300   8.435  2.1481 -1.0091  1.9108
 8456SOL     OW37003   2.432   4.040   6.748  0.0185  0.2308 -0.2920
 8456SOL    HW137004   2.396   3.967   6.799  1.3228  0.5279  1.0875
 8456SOL    HW237005   2.406   4.114   6.803  1.6936  0.0003  0.8092
 8457SOL     OW37006   0.449   1.223  13.031  0.1438  0.1329  0.1140
 8457SOL    HW137007   0.468   1.190  12.943  2.6639 -0.0931  0.7580
 8457SOL    HW237008   0.480   1.147  13.080  0.0496 -0.9343 -1.4514
 8458SOL     OW37009   3.141   1.208  15.976  0.0945 -0.1385 -0.0131
 8458SOL    HW137010   3.224   1.172  15.947 -1.2317 -1.5793 -2.0498
 8458SOL    HW237011   3.178   1.278  16.029 -1.0147  2.1270 -2.2639
 8459SOL     OW37012   1.419   1.033   1.758 -0.6434 -0.5528  0.2515
 8459SOL    HW137013   1.343   0.974   1.764 -0.7471 -0.4291  0.1623
 8459SOL    HW237014   1.486   0.981   1.802  0.8664  0.3445 -0.9628
 8460SOL     OW37015   4.501   2.358  15.891  0.1191 -0.4381  0.1986
 8460SOL    HW137016   4.538   2.383  15.976 -1.5826  1.0069  0.5273
 8460SOL    HW237017   4.576   2.379  15.836 -0.1758  0.7411  0.2420
 8461SOL     OW37018   3.677   4.711   4.349 -0.2661  1.1732  0.1485
 8461SOL    HW137019   3.716   4.710   4.436 -1.1993  0.5650  0.5641
 8461SOL    HW237020   3.593   4.664   4.352  0.6118 -0.4092 -0.1680
 8462SOL     OW37021   1.515   3.373  16.661 -0.0106 -0.5715 -0.1418
 8462SOL    HW137022   1.468   3.398  16.741 -0.7468  1.0896 -1.0952
 8462SOL    HW237023   1.576   3.447  16.652 -0.3119 -0.0161  2.3068
 8463SOL     OW37024   1.965   3.785  11.188  0.1746 -0.2186 -0.4734
 8463SOL    HW137025   1.993   3.810  11.100 -1.4668  0.2281 -0.8669
 8463SOL    HW237026   1.875   3.757  11.169  0.5506 -0.5338 -1.8337
 8464SOL     OW37027   1.009   1.285  17.222  0.7023 -0.0787 -0.0113
 8464SOL    HW137028   1.073   1.227  17.181 -0.6921  1.0401 -3.7088
 8464SOL    HW237029   1.059   1.301  17.302  1.5349  3.7036 -1.3292
 8465SOL     OW37030   1.487   2.552  17.168 -0.2548 -0.1679  0.8194
 8465SOL    HW137031   1.567   2.560  17.117 -0.4759  1.7095  0.7718
 8465SOL    HW237032   1.478   2.457  17.172 -2.9035  0.0072 -0.7273
 8466SOL     OW37033   3.781   1.494   9.681  0.4120  0.1799  0.2304
 8466SOL    HW137034   3.758   1.461   9.768  2.1494 -0.6051  0.4029
 8466SOL    HW237035   3.829   1.418   9.648  0.3356  0.3183 -0.1986
 8467SOL     OW37036   1.531   0.056   7.245 -0.4701  0.0512  0.5974
 8467SOL    HW137037   1.444   0.063   7.283 -2.0445 -0.9491 -2.8968
 8467SOL    HW237038   1.585   0.079   7.321  0.3813 -1.5467  0.4803
 8468SOL     OW37039   3.352   0.620   4.565  0.7549 -0.0220 -0.4101
 8468SOL    HW137040   3.391   0.608   4.479  1.2460 -0.9238 -0.0694
 8468SOL    HW237041   3.346   0.527   4.589 -0.1463  0.7585  2.3568
 8469SOL     OW37042   3.274   4.238   2.728  0.3863  0.2801 -0.0708
 8469SOL    HW137043   3.234   4.271   2.808  1.4754 -2.4539  1.5851
 8469SOL    HW237044   3.328   4.171   2.769  0.4050 -0.5863 -1.5257
 8470SOL     OW37045   1.266   1.101   6.189 -0.3840  0.0418  0.3938
 8470SOL    HW137046   1.213   1.129   6.264 -1.8570  1.6369 -1.2658
 8470SOL    HW237047   1.233   1.014   6.167  0.4657 -0.5820  1.5309
 8471SOL     OW37048   1.265   4.297   2.339 -0.5861  0.1226 -0.4299
 8471SOL    HW137049   1.308   4.215   2.365  1.3062  1.1975 -0.1644
 8471SOL    HW237050   1.346   4.347   2.325 -0.3001  0.1264  1.1169
 8472SOL     OW37051   3.952   0.175   6.169 -0.4262  0.1830  0.1312
 8472SOL    HW137052   3.872   0.127   6.193  1.9470 -2.2342  3.2228
 8472SOL    HW237053   4.030   0.120   6.176 -1.2934 -1.1351 -0.4844
 8473SOL     OW37054   2.771   1.120   8.548 -0.0665  0.4221  0.3982
 8473SOL    HW137055   2.846   1.177   8.565 -0.4515  1.0719 -0.0405
 8473SOL    HW237056   2.779   1.055   8.617 -0.1515 -1.6373 -1.5582
 8474SOL     OW37057   4.684   4.503  14.334  0.2628 -0.1580 -0.6755
 8474SOL    HW137058   0.021   4.541  14.287 -0.2970  1.2369 -0.4266
 8474SOL    HW237059   4.642   4.588  14.341  0.5723  0.0029 -0.7826
 8475SOL     OW37060   2.835   4.025   4.671 -0.0506 -1.0472 -0.5345
 8475SOL    HW137061   2.749   4.067   4.678  0.5278 -0.0394  0.6838
 8475SOL    HW237062   2.809   3.935   4.693  0.1409 -0.4533  2.1432
 8476SOL     OW37063   4.246   1.303   6.324 -0.6213 -0.0116  0.2547
 8476SOL    HW137064   4.156   1.317   6.353 -0.4010  0.8211  0.5548
 8476SOL    HW237065   4.275   1.227   6.375  0.7422  0.2611 -0.0997
 8477SOL     OW37066   0.940   0.959   2.972 -0.7099 -0.0585  0.3678
 8477SOL    HW137067   0.885   1.014   2.916  0.9968 -0.0526 -1.3218
 8477SOL    HW237068   0.948   0.874   2.928  0.5973  1.6617 -2.7303
 8478SOL     OW37069   3.655   2.031   4.821 -0.0193 -0.0998 -0.2517
 8478SOL    HW137070   3.748   2.035   4.841  0.1887 -2.6427 -0.6655
 8478SOL    HW237071   3.661   2.015   4.726 -0.0589  0.8528 -0.4173
 8479SOL     OW37072   4.038   4.038  12.110  0.1648 -0.3052  0.8968
 8479SOL    HW137073   3.997   4.002  12.031  1.1065  2.4244 -0.8417
 8479SOL    HW237074   4.063   3.962  12.163  0.2209  0.8151  2.4797
 8480SOL     OW37075   0.923   0.947   9.707  0.1829  0.8595  0.2433
 8480SOL    HW137076   0.896   0.919   9.619 -0.9626 -1.9213  1.4797
 8480SOL    HW237077   0.850   0.924   9.765  0.6761  0.8003  0.8345
 8481SOL     OW37078   1.034   2.864   8.388 -0.1071 -0.1508 -0.2327
 8481SOL    HW137079   1.107   2.809   8.360 -0.0130  0.7231 -1.6684
 8481SOL    HW237080   0.996   2.874   8.301 -1.9407  0.6015  0.6489
 8482SOL     OW37081   4.337   0.669   8.078  0.1345 -0.4101  0.0998
 8482SOL    HW137082   4.372   0.748   8.118 -2.0724  0.5826  0.0227
 8482SOL    HW237083   4.263   0.702   8.029 -1.3583 -2.6007  0.8713
 8483SOL     OW37084   2.160   1.574   4.254  0.1654 -0.8777 -0.1860
 8483SOL    HW137085   2.191   1.568   4.163  1.4784 -1.0654  0.2681
 8483SOL    HW237086   2.180   1.489   4.293  3.6374  0.6373  1.3286
 8484SOL     OW37087   0.358   0.321   3.157 -0.8780 -0.7214  0.1089
 8484SOL    HW137088   0.449   0.323   3.185 -1.0621  0.8629  0.5984
 8484SOL    HW237089   0.325   0.411   3.156 -0.6342 -0.6499 -1.4081
 8485SOL     OW37090   1.334   0.234  10.488  0.5674 -0.3087  0.4046
 8485SOL    HW137091   1.290   0.315  10.514  0.7210 -0.6944  1.8725
 8485SOL    HW237092   1.278   0.202  10.417 -0.7630  1.7883  0.5272
 8486SOL     OW37093   0.055   2.192  16.240 -0.2922  0.3021 -0.3392
 8486SOL    HW137094   0.052   2.131  16.314  0.0276  2.4468  1.4562
 8486SOL    HW237095   0.149   2.194  16.220 -0.2553 -1.9461 -0.3534
 8487SOL     OW37096   4.112   1.077   2.228  0.2236  0.8886  0.3988
 8487SOL    HW137097   4.035   1.032   2.261  3.2634 -1.7016  3.9001
 8487SOL    HW237098   4.187   1.046   2.279 -0.8954 -1.0736  0.8258
 8488SOL     OW37099   1.634   4.223   2.149  0.0359  0.4361  0.1045
 8488SOL    HW137100   1.575   4.298   2.143 -1.2613 -0.5464  0.5316
 8488SOL    HW237101   1.690   4.251   2.221  0.7967 -1.9802  0.4642
 8489SOL     OW37102   2.697   4.628   8.832 -0.1966  0.3129  0.5640
 8489SOL    HW137103   2.619   4.674   8.863  0.9264  0.9462  2.4431
 8489SOL    HW237104   2.693   4.540   8.870  0.7485  0.1427  0.2694
 8490SOL     OW37105   1.007   2.596   3.191  0.7711 -0.1092 -0.0383
 8490SOL    HW137106   1.096   2.575   3.162 -0.4956 -0.9662 -3.2942
 8490SOL    HW237107   1.025   2.669   3.251 -0.2824  0.6964 -0.7077
 8491SOL     OW37108   0.061   4.021   7.982  0.4058  0.3285  0.4075
 8491SOL    HW137109   0.084   3.932   7.957 -1.2636 -0.1013  0.3653
 8491SOL    HW237110   4.734   4.000   8.050 -0.7698  0.4352 -0.6660
 8492SOL     OW37111   0.886   3.726   2.047  0.6292  0.1868  1.0870
 8492SOL    HW137112   0.794   3.748   2.062  0.1136 -2.0607  1.1711
 8492SOL    HW237113   0.902   3.727   1.953  0.1102  0.5566  1.0031
 8493SOL     OW37114   0.973   0.746   4.404 -0.3076  0.2928  0.0331
 8493SOL    HW137115   0.902   0.771   4.346 -0.1374  2.9189  0.9663
 8493SOL    HW237116   0.949   0.654   4.416  1.1316 -0.5274 -3.3783
 8494SOL     OW37117   3.942   3.676   5.787 -0.2046  0.2140 -0.8602
 8494SOL    HW137118   3.957   3.603   5.727  1.9805  0.5521 -0.7176
 8494SOL    HW237119   3.862   3.646   5.830  0.0040 -0.5186 -0.9797
 8495SOL     OW37120   3.635   2.742   8.506  0.4092 -0.3165 -0.3253
 8495SOL    HW137121   3.716   2.735   8.456 -0.3837 -1.0295 -1.5048
 8495SOL    HW237122   3.679   2.730   8.590 -1.1415 -0.3776  0.4831
 8496SOL     OW37123   3.765   0.574   6.915 -0.3361 -0.8640  0.3614
 8496SOL    HW137124   3.740   0.523   6.839 -0.3860  0.0698 -0.2436
 8496SOL    HW237125   3.701   0.645   6.924  1.0369  0.3137  0.7788
 8497SOL     OW37126   4.206   3.439   2.012 -0.4489  0.0726  0.0739
 8497SOL    HW137127   4.118   3.400   2.009 -0.0805 -0.7740  0.3964
 8497SOL    HW237128   4.177   3.531   2.009 -0.7405  0.0375  2.2949
 8498SOL     OW37129   3.235   1.288   2.638 -0.2541  0.6810 -0.3118
 8498SOL    HW137130   3.254   1.377   2.667  0.8273 -0.5377  2.6973
 8498SOL    HW237131   3.140   1.283   2.627 -0.0431 -2.9027 -0.4720
 8499SOL     OW37132   0.711   0.677   1.671  0.0698 -0.0231  0.3183
 8499SOL    HW137133   0.651   0.742   1.708  2.2622  1.7078  0.8886
 8499SOL    HW237134   0.681   0.597   1.714 -1.2196  0.2101 -0.1524
 8500SOL     OW37135   4.720   4.079   3.005 -0.6560  0.4029 -0.7703
 8500SOL    HW137136   0.013   4.087   3.096 -2.6900 -1.1067  0.0355
 8500SOL    HW237137   0.032   4.139   2.949  1.3024 -0.8293 -0.3572
 8501SOL     OW37138   2.799   1.054   3.177  0.3816 -0.5457 -0.0853
 8501SOL    HW137139   2.867   1.001   3.137  1.3942  1.8361 -1.5278
 8501SOL    HW237140   2.731   1.022   3.118  0.6567 -0.6093 -0.3662
 8502SOL     OW37141   0.559   1.489   8.297 -0.0534  0.3217  0.0404
 8502SOL    HW137142   0.508   1.490   8.378  1.3705  1.2802  0.9193
 8502SOL    HW237143   0.639   1.446   8.328 -1.8113 -1.2708  2.4055
 8503SOL     OW37144   0.608   2.241   6.644  0.1549  0.7798  0.0197
 8503SOL    HW137145   0.621   2.336   6.655 -1.3353  1.1602 -1.6024
 8503SOL    HW237146   0.633   2.217   6.733 -0.6155  1.8262  0.5251
 8504SOL     OW37147   3.114   2.857   0.258 -0.2117 -0.4067 -0.4909
 8504SOL    HW137148   3.198   2.896   0.283 -1.2170  1.0540  0.6277
 8504SOL    HW237149   3.139   2.765   0.258 -0.0545 -0.3779  1.5631
 8505SOL     OW37150   1.588   1.770  16.611  0.2863  0.1141 -0.2276
 8505SOL    HW137151   1.496   1.777  16.585  0.1021  1.9192  0.9413
 8505SOL    HW237152   1.627   1.743  16.527  0.9660  0.6765 -0.0980
 8506SOL     OW37153   0.528   4.184   5.745 -0.7175 -0.3847 -0.3610
 8506SOL    HW137154   0.615   4.151   5.766 -0.5596 -0.6327 -1.3950
 8506SOL    HW237155   0.537   4.160   5.653 -0.7100 -2.4552  0.1752
 8507SOL     OW37156   1.907   1.170  12.266  0.6828 -0.3144 -0.4687
 8507SOL    HW137157   1.905   1.075  12.284  0.7478 -0.1100  0.6581
 8507SOL    HW237158   1.813   1.189  12.265  0.3082 -2.1192 -0.8317
 8508SOL     OW37159   1.066   4.133  13.454  0.4021 -0.3197 -0.0069
 8508SOL    HW137160   1.146   4.154  13.502 -0.1135  0.7461  0.3806
 8508SOL    HW237161   1.088   4.129  13.361 -0.4659  0.0329 -0.2262
 8509SOL     OW37162   0.866   3.048   6.679 -0.3658  0.2897  0.3059
 8509SOL    HW137163   0.923   3.051   6.602 -1.1962 -1.4850 -0.3900
 8509SOL    HW237164   0.786   3.035   6.629 -0.5548  1.1326  0.3886
 8510SOL     OW37165   3.698   3.760   6.487 -0.0207 -0.4671  0.2095
 8510SOL    HW137166   3.758   3.696   6.525  0.0590 -1.1169 -0.9889
 8510SOL    HW237167   3.730   3.840   6.527  1.1473 -1.0883  0.5139
 8511SOL     OW37168   2.183   4.515   6.293  0.1949 -0.1776  0.4706
 8511SOL    HW137169   2.231   4.502   6.375  0.0250  1.1675  0.7776
 8511SOL    HW237170   2.239   4.574   6.243 -1.7480  1.9257  0.7781
 8512SOL     OW37171   3.165   2.157  14.502  0.3767  0.8703 -0.0893
 8512SOL    HW137172   3.200   2.234  14.547  1.1130  0.7191 -0.3986
 8512SOL    HW237173   3.237   2.141  14.441  1.0216  1.4642  0.5325
 8513SOL     OW37174   1.126   3.175   2.002  0.1222 -0.4183 -0.0276
 8513SOL    HW137175   1.082   3.254   1.970 -0.7551 -1.0876 -0.4504
 8513SOL    HW237176   1.197   3.172   1.937  0.0250  0.0455 -0.1589
 8514SOL     OW37177   2.491   0.956   9.436 -0.2639  0.3197  0.1705
 8514SOL    HW137178   2.451   0.997   9.359  0.1555  0.8657  0.2479
 8514SOL    HW237179   2.518   0.870   9.400  1.0020  0.4163  0.8749
 8515SOL     OW37180   2.478   4.706   0.841  0.5227  0.0334  0.0449
 8515SOL    HW137181   2.479   0.060   0.813 -0.0871 -0.8062 -2.6418
 8515SOL    HW237182   2.529   4.664   0.772  0.9965 -2.1331  1.7240
 8516SOL     OW37183   2.179   4.107   9.682  0.2587  0.5402  0.4055
 8516SOL    HW137184   2.151   4.096   9.773  0.6811  0.3870  0.5185
 8516SOL    HW237185   2.273   4.128   9.685  1.0849 -2.8667 -1.3871
 8517SOL     OW37186   2.948   1.792   4.397 -0.5874  0.7530  0.1497
 8517SOL    HW137187   2.929   1.847   4.473  1.0951  1.0245  0.3593
 8517SOL    HW237188   2.914   1.708   4.429  0.9865  0.1132  0.1136
 8518SOL     OW37189   4.490   3.068   3.716 -0.1449 -0.3532  0.3704
 8518SOL    HW137190   4.435   3.121   3.773  0.3421  1.4122 -0.8114
 8518SOL    HW237191   4.545   3.021   3.779  0.7983 -1.0383 -0.9628
 8519SOL     OW37192   3.465   0.206   3.913 -0.2180 -0.5241 -0.2729
 8519SOL    HW137193   3.523   0.266   3.867 -1.6094 -0.0616 -1.4392
 8519SOL    HW237194   3.398   0.270   3.938  0.5019 -0.8227  2.4160
 8520SOL     OW37195   3.671   0.038   2.532  0.3040 -0.3288  0.2998
 8520SOL    HW137196   3.767   0.045   2.536  0.1877  0.9683  0.6505
 8520SOL    HW237197   3.649   4.706   2.594 -2.0701  0.6497  0.5468
 8521SOL     OW37198   2.452   2.142   3.869 -0.6059 -0.1944 -0.0720
 8521SOL    HW137199   2.458   2.175   3.780  0.2577 -0.9539 -0.2920
 8521SOL    HW237200   2.356   2.144   3.876 -0.7318 -1.3446 -1.4851
 8522SOL     OW37201   2.206   3.873   1.898  0.5118  0.0362 -0.3637
 8522SOL    HW137202   2.205   3.847   1.806 -0.1669  0.5343 -0.4996
 8522SOL    HW237203   2.144   3.946   1.898 -0.4075 -0.7483 -0.4264
 8523SOL     OW37204   2.476   1.848  10.025 -0.0064  0.5269 -0.0641
 8523SOL    HW137205   2.391   1.823  10.061 -0.0882  1.1638  0.1743
 8523SOL    HW237206   2.475   1.944  10.026 -1.0252  0.5317 -1.2009
 8524SOL     OW37207   3.599   0.065  14.173  0.0424 -0.2904 -0.4665
 8524SOL    HW137208   3.508   0.092  14.162 -0.7729 -2.2136  1.6472
 8524SOL    HW237209   3.626   0.085  14.263 -0.5738 -0.7298 -0.1859
 8525SOL     OW37210   2.904   3.399   5.393  0.5873 -0.1278 -0.5069
 8525SOL    HW137211   2.899   3.327   5.455 -1.5082  0.0182 -0.5067
 8525SOL    HW237212   2.821   3.396   5.346  0.3959 -0.8270 -0.1206
 8526SOL     OW37213   4.574   2.019   8.636  0.0216  0.0200  0.2478
 8526SOL    HW137214   4.562   1.950   8.571  1.3073  0.1736 -0.1686
 8526SOL    HW237215   4.601   2.098   8.589  0.8793 -0.0545  0.5983
 8527SOL     OW37216   4.140   2.411   6.791  0.1744 -0.0218  0.2579
 8527SOL    HW137217   4.096   2.372   6.867 -0.4668  0.5525  0.1871
 8527SOL    HW237218   4.147   2.502   6.821  1.3630 -0.1368  0.3075
 8528SOL     OW37219   1.450   3.133   5.074 -0.4961  0.1334  0.3984
 8528SOL    HW137220   1.429   3.070   5.143  3.1906  1.1281  2.4954
 8528SOL    HW237221   1.464   3.069   5.004  1.3432 -0.1345  1.0117
 8529SOL     OW37222   1.497   2.638   3.251  0.0925 -0.3573  0.4496
 8529SOL    HW137223   1.592   2.635   3.238  0.1756  0.5733  0.8297
 8529SOL    HW237224   1.471   2.546   3.243 -1.6388  0.3599 -1.9548
 8530SOL     OW37225   1.068   4.696   7.455 -0.2100  0.1086 -0.2116
 8530SOL    HW137226   1.012   4.657   7.522 -0.7247  0.6176 -0.3385
 8530SOL    HW237227   1.014   4.685   7.377 -1.5693  1.0313  0.5913
 8531SOL     OW37228   1.589   2.776   9.779 -0.2531  0.0814 -0.3082
 8531SOL    HW137229   1.504   2.804   9.744  0.5022  2.1416 -0.4731
 8531SOL    HW237230   1.634   2.858   9.760  0.2904  0.6948  3.6608
 8532SOL     OW37231   1.518   2.491   6.486 -0.7897  0.2859  0.3723
 8532SOL    HW137232   1.513   2.544   6.406 -0.5052  0.6039  0.5627
 8532SOL    HW237233   1.430   2.455   6.473 -0.4484 -0.3978 -0.0139
 8533SOL     OW37234   1.499   2.634   8.268  0.0847 -0.6948 -0.3482
 8533SOL    HW137235   1.444   2.636   8.190 -2.3624  0.6807  1.4303
 8533SOL    HW237236   1.469   2.555   8.313 -2.2056  0.3491 -0.0424
 8534SOL     OW37237   0.915   4.367  11.613 -0.1293  0.1832  0.3860
 8534SOL    HW137238   0.861   4.426  11.666 -1.8959 -1.7105  0.6923
 8534SOL    HW237239   0.918   4.427  11.539 -0.0218 -1.2891 -0.8065
 8535SOL     OW37240   4.300   1.599   4.892 -0.5681  0.1235  0.0842
 8535SOL    HW137241   4.349   1.594   4.810 -2.7377 -0.0620 -1.2081
 8535SOL    HW237242   4.325   1.687   4.922 -2.3480 -0.4358  3.2310
 8536SOL     OW37243   0.494   3.086   1.788 -0.0759 -0.4184  0.2532
 8536SOL    HW137244   0.406   3.108   1.818  0.2473  2.4396 -0.8379
 8536SOL    HW237245   0.510   3.149   1.717 -1.6631 -0.5939 -0.2522
 8537SOL     OW37246   0.810   2.070  16.049 -0.2292 -0.9294 -0.3081
 8537SOL    HW137247   0.884   2.094  16.105 -0.8640  0.9964 -0.2998
 8537SOL    HW237248   0.858   2.055  15.967 -2.1476 -1.2416 -1.3556
 8538SOL     OW37249   0.142   0.625   9.491 -0.1623  0.4343 -0.1176
 8538SOL    HW137250   0.146   0.530   9.501 -2.8190  0.2087 -0.9762
 8538SOL    HW237251   0.235   0.638   9.503 -0.1318  0.7899 -0.7091
 8539SOL     OW37252   3.960   3.931  13.993  0.5151 -0.6492 -0.5575
 8539SOL    HW137253   3.920   4.003  13.944 -1.3300 -1.3058 -0.0084
 8539SOL    HW237254   3.889   3.897  14.047  0.2284  1.8243  0.6360
 8540SOL     OW37255   0.827   0.143   2.224  0.0167 -0.0255 -0.3098
 8540SOL    HW137256   0.898   0.116   2.166 -1.5232 -1.0132 -1.7338
 8540SOL    HW237257   0.807   0.234   2.203 -0.6410  0.0985  0.8367
 8541SOL     OW37258   4.504   0.262   5.248 -0.4629  0.1580 -0.5695
 8541SOL    HW137259   4.580   0.204   5.254 -0.0206  0.8092  0.2182
 8541SOL    HW237260   4.487   0.288   5.339  0.6241  0.9805 -0.6071
 8542SOL     OW37261   3.382   2.604  15.058 -0.1304 -0.0581 -0.0656
 8542SOL    HW137262   3.289   2.610  15.036 -0.0425 -1.4902 -0.8363
 8542SOL    HW237263   3.416   2.670  14.998 -1.4019  1.1334  0.5089
 8543SOL     OW37264   0.573   1.585   5.045 -0.3698  0.6752 -0.2857
 8543SOL    HW137265   0.516   1.577   4.969  2.2352  1.0058 -2.2672
 8543SOL    HW237266   0.642   1.536   5.000  0.0150  2.8549 -2.0380
 8544SOL     OW37267   2.276   0.514   6.189 -0.4991 -0.6746 -0.0077
 8544SOL    HW137268   2.269   0.445   6.124  3.3618  1.5861 -2.8967
 8544SOL    HW237269   2.224   0.581   6.146  0.8788  1.0903  1.0372
 8545SOL     OW37270   3.584   2.864  14.695 -0.1562  0.4101 -0.0305
 8545SOL    HW137271   3.648   2.843  14.627  0.0990  0.3815  0.2219
 8545SOL    HW237272   3.556   2.939  14.642  1.5754  0.3514 -1.0248
 8546SOL     OW37273   3.975   0.027  15.004  0.3665 -0.1686  0.2020
 8546SOL    HW137274   4.035   4.695  15.030  1.2997  0.1314 -1.1250
 8546SOL    HW237275   3.884   4.737  15.011  0.2479  0.1906  0.1032
 8547SOL     OW37276   0.534   4.554   2.122 -0.3578 -0.0683 -0.0702
 8547SOL    HW137277   0.482   4.596   2.190 -0.9068 -0.5498 -0.1941
 8547SOL    HW237278   0.616   4.563   2.171 -0.2288 -0.4970 -0.2048
 8548SOL     OW37279   0.668   1.014  17.260 -0.1551 -0.1443 -0.0284
 8548SOL    HW137280   0.699   0.973  17.341 -1.1335  4.1843  2.5473
 8548SOL    HW237281   0.605   0.949  17.228 -1.9854  1.0149  1.1874
 8549SOL     OW37282   1.357   1.915  17.490  0.0831 -0.1854  0.1377
 8549SOL    HW137283   1.411   1.837  17.502 -1.2975 -1.0987  0.3951
 8549SOL    HW237284   1.295   1.884  17.424  1.5776 -3.2008  0.1230
 8550SOL     OW37285   1.842   2.770  12.672  0.0235  0.0082 -0.3181
 8550SOL    HW137286   1.827   2.808  12.585 -0.5868  0.6533  0.0715
 8550SOL    HW237287   1.841   2.849  12.725  0.2514  0.5149 -1.0737
 8551SOL     OW37288   0.586   1.876   3.842 -0.3434 -0.0252 -0.2530
 8551SOL    HW137289   0.655   1.898   3.779  0.6529  1.0979  1.2264
 8551SOL    HW237290   0.620   1.799   3.887  0.2995  0.6176  0.3675
 8552SOL     OW37291   4.316   0.925   7.155  0.3240  0.0376  0.5803
 8552SOL    HW137292   4.404   0.905   7.122  0.6044  0.2931  1.1688
 8552SOL    HW237293   4.320   1.020   7.148  0.1206  0.0802  1.0622
 8553SOL     OW37294   1.880   3.675   3.507 -0.0770 -0.1521  0.3364
 8553SOL    HW137295   1.933   3.657   3.584 -1.9353  0.9744  1.8769
 8553SOL    HW237296   1.882   3.771   3.508  0.0552 -0.1877  2.2305
 8554SOL     OW37297   3.110   4.401   3.896  0.2498 -0.0639  0.3348
 8554SOL    HW137298   3.106   4.315   3.938  0.9208  0.6435  1.8321
 8554SOL    HW237299   3.040   4.454   3.934 -0.4532 -1.8691  1.5341
 8555SOL     OW37300   0.203   1.930   6.935  0.2702 -0.6841 -0.0854
 8555SOL    HW137301   0.177   1.844   6.903  0.5661 -1.3728  1.5427
 8555SOL    HW237302   0.172   1.924   7.025 -1.4586  0.9984 -0.5685
 8556SOL     OW37303   4.150   0.824   1.611  0.6255 -0.0658 -0.0579
 8556SOL    HW137304   4.142   0.888   1.681 -0.7441 -1.1167  0.7515
 8556SOL    HW237305   4.179   0.877   1.537  3.1312 -1.3436 -0.0065
 8557SOL     OW37306   4.658   1.383   0.713 -0.5016  0.3966  0.4065
 8557SOL    HW137307   4.563   1.391   0.720 -0.8904 -3.2463 -0.7633
 8557SOL    HW237308   4.667   1.346   0.625 -2.1253 -0.2721  0.5326
 8558SOL     OW37309   2.129   1.644  12.096 -0.1256  0.5765 -0.1396
 8558SOL    HW137310   2.178   1.565  12.119 -0.2990 -0.7106 -4.2593
 8558SOL    HW237311   2.097   1.671  12.182 -0.5588  1.1649 -0.4904
 8559SOL     OW37312   2.519   2.310  11.560  0.6788 -0.2125 -0.0739
 8559SOL    HW137313   2.527   2.282  11.651  0.1494 -0.4518 -0.1005
 8559SOL    HW237314   2.435   2.356  11.567  0.0352 -1.4622  0.5102
 8560SOL     OW37315   1.604   2.965   7.825  0.0323 -0.1489  0.1611
 8560SOL    HW137316   1.688   3.001   7.855 -0.3035  0.8522 -0.1051
 8560SOL    HW237317   1.535   2.996   7.884 -0.1659 -0.0016 -0.1501
 8561SOL     OW37318   1.281   0.390   7.391 -0.1780 -1.2256  0.3125
 8561SOL    HW137319   1.331   0.428   7.463  0.1775 -0.8546 -0.1319
 8561SOL    HW237320   1.325   0.306   7.381  4.0491  1.1782 -1.5986
 8562SOL     OW37321   1.426   2.340  10.956 -0.0846 -0.1086 -0.5438
 8562SOL    HW137322   1.508   2.389  10.956  0.1608 -0.5155  0.1882
 8562SOL    HW237323   1.448   2.273  10.892  0.9771 -0.9544  0.6827
 8563SOL     OW37324   4.172   4.736   5.011  0.2538 -0.0972  0.5062
 8563SOL    HW137325   4.127   4.706   5.090 -2.2948  1.2878 -0.3894
 8563SOL    HW237326   4.260   0.007   5.047 -0.1369  1.1612  1.1563
 8564SOL     OW37327   3.222   4.584  10.409  0.3718 -0.2776 -0.3227
 8564SOL    HW137328   3.191   4.624  10.490 -0.4091 -1.1852 -0.1788
 8564SOL    HW237329   3.137   4.546  10.387 -0.6859  0.4366  2.5582
 8565SOL     OW37330   0.711   4.134   8.718 -0.2208  0.1608  0.5027
 8565SOL    HW137331   0.714   4.052   8.668 -0.3081 -0.7983  2.0717
 8565SOL    HW237332   0.672   4.196   8.657 -1.6101  0.3067  1.5491
 8566SOL     OW37333   1.778   3.677  11.586 -0.3114  0.4542  0.0192
 8566SOL    HW137334   1.755   3.693  11.495 -0.7871  1.7244  0.3578
 8566SOL    HW237335   1.735   3.750  11.631  1.0277  1.0835  0.2724
 8567SOL     OW37336   0.097   1.682   6.890 -0.0600  0.0029  0.5473
 8567SOL    HW137337   0.109   1.641   6.804  2.2239 -0.0508  0.8789
 8567SOL    HW237338   0.118   1.605   6.943  1.2306 -0.5263 -0.7232
 8568SOL     OW37339   3.271   0.615   8.235  0.1777 -0.4692 -0.4089
 8568SOL    HW137340   3.302   0.526   8.253  2.7930  1.0763  2.6631
 8568SOL    HW237341   3.274   0.661   8.319  1.5239  1.1830 -1.3633
 8569SOL     OW37342   2.729   3.336   1.071 -0.0412  0.1222 -0.0713
 8569SOL    HW137343   2.664   3.332   1.141  2.6018 -1.8020  2.2897
 8569SOL    HW237344   2.715   3.426   1.042 -0.9774 -0.0410 -0.1184
 8570SOL     OW37345   0.166   0.906   1.680  0.0193  0.2245  0.2805
 8570SOL    HW137346   0.242   0.964   1.672 -0.0672  0.4372  1.0421
 8570SOL    HW237347   0.119   0.933   1.601  2.0358 -0.5798 -1.2121
 8571SOL     OW37348   2.614   3.113   8.327 -0.2391  0.4250 -0.2495
 8571SOL    HW137349   2.681   3.048   8.306 -1.6763  0.1358 -3.8859
 8571SOL    HW237350   2.561   3.062   8.388 -0.6176 -2.4385 -2.9694
 8572SOL     OW37351   1.612   3.400   4.553  0.3336  0.6891  0.4139
 8572SOL    HW137352   1.597   3.323   4.500  0.7791  0.1442  1.0834
 8572SOL    HW237353   1.707   3.405   4.553  0.3877 -0.2573 -2.1037
 8573SOL     OW37354   0.328   3.119   8.278 -0.5161 -0.0049  0.6706
 8573SOL    HW137355   0.371   3.060   8.338  2.4376  0.8847 -0.5924
 8573SOL    HW237356   0.240   3.123   8.316  0.2703 -0.5383  2.5187
 8574SOL     OW37357   4.483   3.498   5.568 -0.1579  0.0896 -0.3921
 8574SOL    HW137358   4.538   3.571   5.538  0.3932 -0.6201 -1.0899
 8574SOL    HW237359   4.408   3.537   5.614  0.0300 -0.6528  0.5427
 8575SOL     OW37360   1.788   0.339   4.228  0.1451 -0.2380 -0.1178
 8575SOL    HW137361   1.761   0.431   4.236  0.8573  0.1355 -2.2046
 8575SOL    HW237362   1.877   0.345   4.193  0.4721 -0.4734  0.6842
 8576SOL     OW37363   0.713   3.965  16.499 -0.4049  0.5469  0.0005
 8576SOL    HW137364   0.673   3.881  16.475 -0.6816  0.5577  0.4247
 8576SOL    HW237365   0.685   4.025  16.430  0.6753  1.3398  0.2435
 8577SOL     OW37366   0.157   3.124   2.245  0.0248 -0.3369  0.5647
 8577SOL    HW137367   0.147   3.203   2.192 -2.4183  2.0731  4.6256
 8577SOL    HW237368   0.238   3.134   2.294  0.3704 -2.5041  0.4170
 8578SOL     OW37369   1.466   4.680  16.761 -0.6412  0.0116 -0.3400
 8578SOL    HW137370   1.399   0.003  16.729 -2.0797 -1.0216  0.6850
 8578SOL    HW237371   1.443   4.598  16.719  3.7128 -0.0200 -2.5854
 8579SOL     OW37372   3.837   2.826   0.027  0.5278  0.1849  0.2102
 8579SOL    HW137373   3.800   2.738   0.029  0.1846  0.3216 -0.2595
 8579SOL    HW237374   3.791   2.866   0.100 -0.1393 -0.7982  0.3284
 8580SOL     OW37375   3.613   0.037  12.893 -0.2608  0.1183  0.6841
 8580SOL    HW137376   3.633   0.127  12.920  0.6941 -0.0516  0.5483
 8580SOL    HW237377   3.582   0.060  12.805  0.6162 -0.4186  0.2333
 8581SOL     OW37378   2.373   4.545   4.622  0.2841  0.0499  0.0652
 8581SOL    HW137379   2.375   4.640   4.613 -1.4628  0.0882  0.0261
 8581SOL    HW237380   2.396   4.511   4.535  2.3562  0.3706  0.4947
 8582SOL     OW37381   4.592   1.825   2.647  0.4756  0.0694  0.0738
 8582SOL    HW137382   4.551   1.903   2.685 -0.0595 -0.4075  0.4837
 8582SOL    HW237383   4.568   1.837   2.555 -0.7631 -0.9996  0.2489
 8583SOL     OW37384   2.037   1.067   1.429  0.2234 -0.1030 -0.1259
 8583SOL    HW137385   2.062   1.154   1.460 -0.2938 -0.0744  0.2188
 8583SOL    HW237386   1.953   1.090   1.388  0.8258 -0.7641 -1.7257
 8584SOL     OW37387   4.193   3.204   2.461 -0.1384 -0.2394  0.1308
 8584SOL    HW137388   4.160   3.130   2.411 -0.7821  0.9272 -1.1825
 8584SOL    HW237389   4.178   3.176   2.551 -1.3530 -0.2865 -0.0812
 8585SOL     OW37390   2.520   2.395   7.528 -0.6493  0.0418 -0.1183
 8585SOL    HW137391   2.486   2.362   7.612  2.4077 -1.0033  0.6791
 8585SOL    HW237392   2.442   2.388   7.473  0.2848  0.6775 -1.5164
 8586SOL     OW37393   4.197   0.062   6.155 -0.3037 -0.2365 -0.1845
 8586SOL    HW137394   4.276   0.033   6.110 -1.0304  2.3767 -3.0987
 8586SOL    HW237395   4.198   0.014   6.238 -0.3439  0.0991  0.0103
 8587SOL     OW37396   0.214   0.384   6.802 -0.0880  0.4001  0.5836
 8587SOL    HW137397   0.198   0.375   6.896  0.0780 -0.8706  0.4913
 8587SOL    HW237398   0.141   0.435   6.767 -0.0280 -0.6044 -1.0369
 8588SOL     OW37399   4.700   3.225  15.121 -0.0289 -0.0303 -0.6117
 8588SOL    HW137400   4.719   3.160  15.054  1.1852  0.3632 -0.6479
 8588SOL    HW237401   0.044   3.226  15.171  0.8333  0.0494 -2.0354
 8589SOL     OW37402   0.331   3.035   6.654  0.1623  1.0173 -0.0879
 8589SOL    HW137403   0.393   3.086   6.706  1.2535 -0.5608  0.1440
 8589SOL    HW237404   0.378   2.953   6.643 -1.6739 -0.1699  0.8225
 8590SOL     OW37405   1.293   2.986   7.219  0.1139 -0.5192  0.1898
 8590SOL    HW137406   1.350   2.967   7.145  0.3239  0.7842  0.0132
 8590SOL    HW237407   1.205   2.981   7.182 -0.8826 -1.3612  2.6563
 8591SOL     OW37408   0.271   0.848  15.710  0.0812 -0.4260  0.3753
 8591SOL    HW137409   0.201   0.853  15.645  0.7882  0.5390 -0.3092
 8591SOL    HW237410   0.238   0.784  15.772 -0.4380  0.4586  1.0095
 8592SOL     OW37411   1.629   0.031  16.954 -0.3593 -0.2303 -0.7129
 8592SOL    HW137412   1.579   0.002  16.878 -1.2955 -0.4585 -0.0091
 8592SOL    HW237413   1.599   4.710  17.023  3.1791 -1.1341  0.0550
 8593SOL     OW37414   2.395   2.518   4.727 -0.5619 -0.4012 -0.2468
 8593SOL    HW137415   2.465   2.473   4.680 -0.3441  3.0479 -3.2028
 8593SOL    HW237416   2.357   2.444   4.774  1.3977 -1.0796  0.2819
 8594SOL     OW37417   0.061   3.020   5.823 -0.4777 -0.0403 -0.2526
 8594SOL    HW137418   4.718   2.975   5.849 -1.1991 -0.0160 -2.3794
 8594SOL    HW237419   0.102   2.948   5.775  0.7893 -0.6505  1.7792
 8595SOL     OW37420   0.830   3.351   5.143 -0.3774 -0.3403  0.1797
 8595SOL    HW137421   0.839   3.355   5.048 -3.0475 -0.1429 -0.0765
 8595SOL    HW237422   0.908   3.303   5.171 -0.6096 -0.6014  0.3761
 8596SOL     OW37423   2.105   1.817   4.878  0.7792 -0.1722  0.3193
 8596SOL    HW137424   2.066   1.903   4.891  1.6552  0.3335 -0.3629
 8596SOL    HW237425   2.195   1.845   4.896  0.1541  0.0855  2.8838
 8597SOL     OW37426   0.005   3.892   1.631 -0.3134 -0.1093  0.3240
 8597SOL    HW137427   4.736   3.880   1.726  1.6530 -0.4575  0.4275
 8597SOL    HW237428   4.704   3.980   1.635  1.0510  0.4686  1.0152
 8598SOL     OW37429   0.218   1.843   4.754 -0.2717 -0.1559 -0.2212
 8598SOL    HW137430   0.149   1.861   4.689 -0.9492  2.4887  1.2285
 8598SOL    HW237431   0.273   1.921   4.764 -1.3473  0.6388 -0.4067
 8599SOL     OW37432   0.549   3.570  17.039 -0.1674 -0.5202 -0.8218
 8599SOL    HW137433   0.520   3.483  17.008  2.1346 -0.3529 -3.4557
 8599SOL    HW237434   0.477   3.608  17.089  0.8081  1.2580 -0.7764
 8600SOL     OW37435   2.601   2.571   3.689 -0.0295  0.3415 -0.0240
 8600SOL    HW137436   2.624   2.627   3.615 -1.4600  0.2364 -0.5410
 8600SOL    HW237437   2.687   2.538   3.715  0.3972 -0.9002 -2.9710
 8601SOL     OW37438   0.679   4.108   5.398 -0.1096  0.1944  0.4246
 8601SOL    HW137439   0.697   4.016   5.416  0.9010  0.5335  1.1587
 8601SOL    HW237440   0.763   4.142   5.369  0.0152  0.0702  0.6425
 8602SOL     OW37441   4.708   3.318  16.743  0.8061 -0.0327  0.8045
 8602SOL    HW137442   4.700   3.401  16.697 -1.0952 -0.0733  1.0466
 8602SOL    HW237443   4.734   3.257  16.674 -0.2041  0.3940  0.0518
 8603SOL     OW37444   0.976   0.314   0.462  0.3916 -0.0004 -0.4597
 8603SOL    HW137445   0.905   0.377   0.449 -0.3652 -0.8331 -0.2870
 8603SOL    HW237446   0.962   0.283   0.551 -0.0159  0.8733 -0.2157
 8604SOL     OW37447   0.738   0.075   3.998 -0.0144  0.2750 -0.3134
 8604SOL    HW137448   0.708   0.020   4.070 -1.4403 -1.1981 -2.0311
 8604SOL    HW237449   0.678   0.147   4.018 -1.3357 -1.2375  1.1098
 8605SOL     OW37450   3.481   3.034  12.382  0.6231  0.3553  0.1991
 8605SOL    HW137451   3.571   3.028  12.349  0.4937  2.6908 -0.6296
 8605SOL    HW237452   3.495   3.050  12.475 -0.2688  0.0470  0.3876
 8606SOL     OW37453   0.025   1.601  17.288 -0.5740  0.1458 -0.0006
 8606SOL    HW137454   0.091   1.607  17.219 -0.6091 -1.1290 -0.1389
 8606SOL    HW237455   0.036   1.512  17.321  1.6779  0.4099 -0.0741
 8607SOL     OW37456   2.028   4.568   8.201 -0.2008 -0.2877  0.3759
 8607SOL    HW137457   1.993   4.657   8.207  1.2587  0.3769 -1.0528
 8607SOL    HW237458   1.997   4.535   8.117 -0.0206 -0.1641  0.2606
 8608SOL     OW37459   1.549   2.190   6.430  0.1703 -0.1137 -0.4164
 8608SOL    HW137460   1.573   2.111   6.479 -1.5510 -0.1859  0.3340
 8608SOL    HW237461   1.570   2.256   6.496  0.2435  0.3522 -0.9127
 8609SOL     OW37462   0.633   1.026   5.363  0.3344  0.2258 -0.2801
 8609SOL    HW137463   0.566   1.048   5.428  1.2520  0.9573  0.4290
 8609SOL    HW237464   0.571   1.026   5.290  2.1730 -2.8239 -1.8131
 8610SOL     OW37465   4.047   2.562   6.544  0.4896 -0.2590  0.0440
 8610SOL    HW137466   4.101   2.604   6.611 -0.3059  0.6281  0.1323
 8610SOL    HW237467   3.960   2.555   6.584  0.1822 -0.4085 -0.6427
 8611SOL     OW37468   2.417   3.481   1.347 -0.3147  0.2150  0.2054
 8611SOL    HW137469   2.443   3.407   1.293 -0.0519 -0.5491  1.3798
 8611SOL    HW237470   2.504   3.499   1.382  0.6243 -1.2145 -1.4032
 8612SOL     OW37471   3.545   4.507   5.583 -0.0114  0.4345  0.5094
 8612SOL    HW137472   3.461   4.464   5.598  0.1964  0.1048  0.7137
 8612SOL    HW237473   3.604   4.433   5.592 -0.2562  0.2691  0.7532
 8613SOL     OW37474   1.939   0.337   5.588 -0.0751  0.2002 -0.1796
 8613SOL    HW137475   1.914   0.311   5.500  0.3784 -2.9408  0.6162
 8613SOL    HW237476   1.859   0.314   5.634 -0.7655  1.1778 -0.9091
 8614SOL     OW37477   3.681   3.021   1.024 -0.1249 -0.9979  0.1318
 8614SOL    HW137478   3.745   3.039   1.093  0.2253  1.7864 -0.9397
 8614SOL    HW237479   3.737   3.015   0.947  0.5302 -0.7926  0.5909
 8615SOL     OW37480   4.041   3.246   3.191 -0.0471  0.0450  0.1324
 8615SOL    HW137481   4.088   3.316   3.145  0.8146 -1.3796 -1.1580
 8615SOL    HW237482   4.112   3.182   3.194 -0.3381 -0.2540  0.7113
 8616SOL     OW37483   1.314   2.673   3.894  0.0687 -0.5548 -0.0743
 8616SOL    HW137484   1.297   2.754   3.846 -1.3238  0.4716  2.1625
 8616SOL    HW237485   1.341   2.605   3.831  1.1434 -0.1528 -0.0469
 8617SOL     OW37486   4.248   0.836   2.644 -0.0111 -0.2706 -0.9637
 8617SOL    HW137487   4.264   0.928   2.664  0.4991 -0.3102 -1.1718
 8617SOL    HW237488   4.273   0.837   2.552  2.1680 -1.8578 -0.4055
 8618SOL     OW37489   1.850   3.476   7.055 -1.1017 -0.4409 -0.5595
 8618SOL    HW137490   1.856   3.432   6.970  0.4154  0.5536 -0.9576
 8618SOL    HW237491   1.761   3.456   7.085 -0.5590 -1.4838  0.3511
 8619SOL     OW37492   1.322   0.938   6.966 -0.5411 -0.1200 -0.3856
 8619SOL    HW137493   1.252   0.952   7.029 -0.5535  0.0824 -0.4451
 8619SOL    HW237494   1.260   0.912   6.897 -0.8124 -1.3593  0.3182
 8620SOL     OW37495   1.184   4.459   3.803 -0.0208 -0.3047  0.2793
 8620SOL    HW137496   1.129   4.476   3.727  1.4389  0.9535 -0.4937
 8620SOL    HW237497   1.151   4.520   3.870  1.8332 -1.0330  1.8782
 8621SOL     OW37498   0.214   0.944   3.338 -0.4153  0.2444 -0.3146
 8621SOL    HW137499   0.232   0.948   3.244  2.0071 -0.7317  0.0924
 8621SOL    HW237500   0.299   0.921   3.376  0.7058  1.1237 -2.3055
 8622SOL     OW37501   0.471   4.366   7.226  0.2184 -0.5627 -0.1993
 8622SOL    HW137502   0.381   4.364   7.257  0.5959 -0.3407  0.9269
 8622SOL    HW237503   0.449   4.374   7.133 -1.4448  2.7675  0.5042
 8623SOL     OW37504   0.731   3.692   5.610 -0.3414 -0.1309 -0.0632
 8623SOL    HW137505   0.650   3.647   5.637 -1.2198  0.3192 -1.9602
 8623SOL    HW237506   0.752   3.729   5.696 -2.7148 -1.0526  0.9250
 8624SOL     OW37507   0.987   1.794   4.327 -0.0033 -0.5699  0.4496
 8624SOL    HW137508   1.081   1.784   4.343  0.1227  0.0323  0.0986
 8624SOL    HW237509   0.963   1.702   4.327  2.0211 -1.0975 -0.1584
 8625SOL     OW37510   3.017   0.673   4.874  0.5216 -0.5604  0.0148
 8625SOL    HW137511   3.044   0.651   4.785 -0.0943 -1.1553 -0.0265
 8625SOL    HW237512   3.031   0.589   4.917 -0.5654  0.5086  2.4976
 8626SOL     OW37513   3.948   0.120   8.838  0.4926 -0.1255 -0.0028
 8626SOL    HW137514   3.881   0.158   8.782 -0.3399  1.6512  2.1744
 8626SOL    HW237515   3.963   0.037   8.792 -1.3994 -0.8023  0.5628
 8627SOL     OW37516   1.872   3.156  16.163  0.3025 -0.4032  0.0177
 8627SOL    HW137517   1.801   3.198  16.213 -0.8691 -2.5288  0.1318
 8627SOL    HW237518   1.926   3.235  16.154 -0.1191  0.1828  2.6623
 8628SOL     OW37519   2.690   3.862   9.244  0.1510  0.1269 -0.2456
 8628SOL    HW137520   2.605   3.883   9.283  1.2432 -0.8756  2.6840
 8628SOL    HW237521   2.737   3.857   9.327  1.6959  0.5445 -1.1109
 8629SOL     OW37522   2.636   0.144   3.018  0.0552  0.1699 -0.5142
 8629SOL    HW137523   2.553   0.154   2.971  0.4204 -2.2673 -1.6837
 8629SOL    HW237524   2.622   0.171   3.108  2.5465 -4.3346  1.2237
 8630SOL     OW37525   4.013   3.017   5.581 -0.4761 -0.8033 -0.5845
 8630SOL    HW137526   3.963   3.086   5.538  1.4729  0.3478 -0.9866
 8630SOL    HW237527   4.052   2.976   5.505  1.1650  0.5865 -0.4908
 8631SOL     OW37528   4.691   1.981   8.972  0.2683  0.1084 -0.0074
 8631SOL    HW137529   4.712   1.893   8.939  0.3718 -0.2291  0.9557
 8631SOL    HW237530   4.730   2.040   8.908 -0.5837 -0.0930 -0.7044
 8632SOL     OW37531   0.556   3.111  16.442 -0.7366 -0.3739  0.2899
 8632SOL    HW137532   0.595   3.123  16.529  0.4711 -1.7845 -0.0698
 8632SOL    HW237533   0.554   3.015  16.442  0.8494 -0.4083 -0.1740
 8633SOL     OW37534   2.538   1.465   0.846  0.1047  0.1071  0.5012
 8633SOL    HW137535   2.538   1.371   0.860 -1.9262 -0.3647 -2.6287
 8633SOL    HW237536   2.608   1.484   0.783 -1.7534  3.4496 -0.5694
 8634SOL     OW37537   2.215   2.022   9.858  0.0416 -0.0080  0.2236
 8634SOL    HW137538   2.275   2.033   9.931 -0.3117  1.2873  0.3301
 8634SOL    HW237539   2.200   2.113   9.830  0.0365 -0.2193 -0.4740
 8635SOL     OW37540   0.871   0.494   8.084 -0.4148  0.2139 -0.2212
 8635SOL    HW137541   0.864   0.585   8.115  2.1820  0.6012 -0.7717
 8635SOL    HW237542   0.963   0.480   8.107 -0.5466  1.9156  1.3445
 8636SOL     OW37543   3.733   2.976   0.219 -0.3473  0.6994 -0.3906
 8636SOL    HW137544   3.674   3.034   0.171 -0.1615  0.3684 -1.0250
 8636SOL    HW237545   3.709   3.000   0.308 -1.4135 -1.5118 -0.0824
 8637SOL     OW37546   3.109   0.149   5.801 -0.2197 -0.5325  0.3578
 8637SOL    HW137547   3.186   0.128   5.855 -1.1602  0.0605  1.9304
 8637SOL    HW237548   3.083   0.063   5.769  0.5591 -0.3691 -0.7134
 8638SOL     OW37549   0.849   4.632  12.479 -0.0027  0.2662 -0.4671
 8638SOL    HW137550   0.830   4.721  12.508 -0.6178  0.8158 -2.6325
 8638SOL    HW237551   0.767   4.614  12.433 -1.3636  0.1534  1.9778
 8639SOL     OW37552   1.877   3.265   9.796  0.0229 -0.0634  0.1856
 8639SOL    HW137553   1.812   3.291   9.861 -1.1715 -1.1406 -0.5442
 8639SOL    HW237554   1.848   3.300   9.712  0.5667 -0.3659 -0.1253
 8640SOL     OW37555   2.375   0.812  13.807  0.5194  0.3145 -0.2107
 8640SOL    HW137556   2.326   0.778  13.882  0.6553 -1.1770 -0.7999
 8640SOL    HW237557   2.301   0.840  13.753  1.5873  1.5489 -1.0314
 8641SOL     OW37558   4.443   0.656   7.627  0.0965 -0.3773  0.1869
 8641SOL    HW137559   4.353   0.656   7.659 -0.1793 -0.1516 -0.6011
 8641SOL    HW237560   4.449   0.576   7.575  0.5970 -0.0045 -0.3212
 8642SOL     OW37561   0.354   1.841   6.465 -0.2930  0.1017  0.4765
 8642SOL    HW137562   0.281   1.810   6.519 -1.1945 -0.3663 -1.0035
 8642SOL    HW237563   0.368   1.931   6.494 -2.7523  0.4477  0.6139
 8643SOL     OW37564   4.415   3.139   3.353 -0.1281  0.3730  0.2027
 8643SOL    HW137565   4.423   3.203   3.282 -0.3353 -0.0324 -0.1881
 8643SOL    HW237566   4.372   3.074   3.297  0.8055 -0.2231  0.1732
 8644SOL     OW37567   2.848   2.735   4.564 -0.3200 -0.0660  0.1951
 8644SOL    HW137568   2.941   2.758   4.562 -0.6386  1.2712  1.2789
 8644SOL    HW237569   2.823   2.811   4.616  2.1185  2.2970 -2.0619
 8645SOL     OW37570   3.630   1.491   2.638  0.2271 -0.2768  0.2754
 8645SOL    HW137571   3.668   1.557   2.579 -0.5282  0.3117  0.4413
 8645SOL    HW237572   3.703   1.468   2.696  0.7598  0.1094 -0.2410
 8646SOL     OW37573   0.604   2.245  14.601  0.2710 -0.3175  0.1135
 8646SOL    HW137574   0.691   2.210  14.622  0.6165  0.0121 -0.7822
 8646SOL    HW237575   0.598   2.301  14.678 -0.6189 -0.4538  0.1480
 8647SOL     OW37576   1.587   4.151  13.568 -0.0152 -0.1740  0.3994
 8647SOL    HW137577   1.681   4.164  13.556 -0.3167 -0.2067 -2.0002
 8647SOL    HW237578   1.586   4.060  13.539 -0.5253  0.0966 -0.4274
 8648SOL     OW37579   0.361   1.669  16.203  0.4009  0.5843  0.1912
 8648SOL    HW137580   0.328   1.652  16.291 -0.1394  1.0015  0.0685
 8648SOL    HW237581   0.288   1.630  16.154  0.9307 -0.1429 -0.0243
 8649SOL     OW37582   1.041   2.551   7.945 -0.2219 -0.1627  0.5777
 8649SOL    HW137583   1.021   2.458   7.941  1.2335 -0.5161  1.3712
 8649SOL    HW237584   1.078   2.566   8.032 -0.4696  0.2563  0.6110
 8650SOL     OW37585   0.211   0.431   9.813  0.5734  0.4979  0.3381
 8650SOL    HW137586   0.285   0.483   9.781  0.2474  0.0793 -1.1145
 8650SOL    HW237587   0.244   0.380   9.887 -1.2167  2.6989  2.6102
 8651SOL     OW37588   3.146   0.134   6.474 -0.6229 -0.4914 -0.2132
 8651SOL    HW137589   3.182   0.200   6.416  1.1201 -0.4522  0.9200
 8651SOL    HW237590   3.224   0.088   6.504  0.3628  0.4707 -1.3107
 8652SOL     OW37591   3.824   3.670   8.508 -0.3490 -0.1745 -0.5327
 8652SOL    HW137592   3.757   3.628   8.454 -1.6692 -0.0555  0.9906
 8652SOL    HW237593   3.789   3.651   8.595  1.0092  0.9832  0.2622
 8653SOL     OW37594   2.377   1.823   4.149  0.3264  0.0653  0.2049
 8653SOL    HW137595   2.399   1.763   4.220 -0.3264  0.7513  1.0009
 8653SOL    HW237596   2.364   1.758   4.080  1.4228  0.2987 -0.2166
 8654SOL     OW37597   2.460   1.211   0.441  0.0101 -0.2622 -0.3588
 8654SOL    HW137598   2.425   1.220   0.352  1.9507 -2.6016 -1.3553
 8654SOL    HW237599   2.516   1.135   0.425  0.4555 -0.5766  2.8265
 8655SOL     OW37600   0.340   1.897   7.595 -0.2022  0.5014  0.1317
 8655SOL    HW137601   0.332   1.911   7.690  0.2236 -1.3061  0.4302
 8655SOL    HW237602   0.251   1.876   7.565 -1.3151  1.9876  2.3479
 8656SOL     OW37603   1.160   0.327   9.171  0.5240  0.0211 -0.5800
 8656SOL    HW137604   1.066   0.326   9.187  0.3515 -1.6109 -1.6621
 8656SOL    HW237605   1.182   0.412   9.135  0.3040 -0.4247 -1.7588
 8657SOL     OW37606   1.782   3.141  12.895  0.4475 -0.1028 -0.0082
 8657SOL    HW137607   1.874   3.165  12.908  0.6627 -0.2349 -1.3382
 8657SOL    HW237608   1.787   3.109  12.805 -0.2396  0.2052 -0.1532
 8658SOL     OW37609   3.663   1.975   4.545  0.2324  0.4126  0.0180
 8658SOL    HW137610   3.582   1.943   4.506  0.4939 -1.3934  0.9617
 8658SOL    HW237611   3.653   2.068   4.525  0.3039  0.6830  1.1974
 8659SOL     OW37612   2.538   3.580   5.802 -0.0231  0.7671  0.0784
 8659SOL    HW137613   2.556   3.661   5.755  3.3578  0.1081  0.2251
 8659SOL    HW237614   2.497   3.607   5.884  2.8027  0.8980  1.4595
 8660SOL     OW37615   1.906   1.074   7.229  0.4950  0.2875 -0.3486
 8660SOL    HW137616   1.935   1.087   7.138 -0.9321  0.8123 -0.7292
 8660SOL    HW237617   1.988   1.110   7.262  0.0898 -0.1417  1.0879
 8661SOL     OW37618   0.278   3.048   6.977 -0.3350  0.3424  0.3358
 8661SOL    HW137619   0.252   3.140   6.988 -0.0169  0.4088  0.5492
 8661SOL    HW237620   0.358   3.055   6.923 -1.5196  1.7120 -1.2682
 8662SOL     OW37621   0.401   1.703   4.382  0.4844 -0.0051  0.2468
 8662SOL    HW137622   0.320   1.752   4.366 -0.0390 -1.6311 -2.0054
 8662SOL    HW237623   0.361   1.632   4.432  0.0188  0.3924  0.4412
 8663SOL     OW37624   2.729   2.297  12.003 -0.2308 -0.2766  0.5090
 8663SOL    HW137625   2.821   2.293  12.026  0.1741 -0.9390 -1.2208
 8663SOL    HW237626   2.737   2.323  11.911 -0.1173 -0.6568  0.4123
 8664SOL     OW37627   4.536   2.706  15.995  0.1698 -0.3064  0.3338
 8664SOL    HW137628   4.550   2.789  16.042  1.6166 -0.0073 -0.6485
 8664SOL    HW237629   4.478   2.659  16.056 -0.5106  2.0222  1.4850
 8665SOL     OW37630   0.139   1.077   2.517  0.4120 -0.0043  0.2745
 8665SOL    HW137631   0.182   1.081   2.431 -0.6598 -0.3077 -0.2734
 8665SOL    HW237632   0.189   1.000   2.546  0.6760 -0.5921 -1.7318
 8666SOL     OW37633   2.104   3.368   3.683  0.5000 -0.5870 -0.2918
 8666SOL    HW137634   2.098   3.455   3.721 -0.1490 -0.3159 -1.0214
 8666SOL    HW237635   2.018   3.342   3.717 -0.6645  2.1244 -1.1655
 8667SOL     OW37636   0.681   3.331   6.378 -0.5470 -0.1228 -0.4174
 8667SOL    HW137637   0.741   3.405   6.385  0.5119 -1.0354  0.2477
 8667SOL    HW237638   0.601   3.382   6.394 -0.6374  0.0958 -1.6030
 8668SOL     OW37639   0.948   2.581   5.651  0.1312  0.2996  0.3363
 8668SOL    HW137640   1.033   2.545   5.626 -0.5513  0.4587 -2.2621
 8668SOL    HW237641   0.920   2.645   5.586 -3.7685 -0.5712  1.1330
 8669SOL     OW37642   3.044   3.287   3.054 -0.3028  0.0536  0.0838
 8669SOL    HW137643   3.103   3.216   3.030 -1.1549 -0.9602  1.0214
 8669SOL    HW237644   3.019   3.255   3.140 -1.3071 -0.4670 -0.4052
 8670SOL     OW37645   2.424   2.336   8.744 -0.6548 -0.5066 -0.1112
 8670SOL    HW137646   2.503   2.303   8.787 -1.2015 -0.2150  1.1135
 8670SOL    HW237647   2.352   2.299   8.793  0.1391 -0.0390  1.4161
 8671SOL     OW37648   1.516   3.741   7.371  0.3993 -0.3381 -0.4679
 8671SOL    HW137649   1.521   3.817   7.314 -2.3973  0.5748  0.4780
 8671SOL    HW237650   1.445   3.690   7.331  0.4201 -1.0164  0.3444
 8672SOL     OW37651   3.073   2.173   6.442  0.0366  0.3197  0.1250
 8672SOL    HW137652   3.007   2.142   6.505 -0.4905 -1.8140 -1.4759
 8672SOL    HW237653   3.015   2.197   6.369  0.7320  1.8901  0.0994
 8673SOL     OW37654   1.872   1.433   1.818  0.3830  0.1829 -0.3862
 8673SOL    HW137655   1.863   1.478   1.734 -1.2056  2.0326  0.7858
 8673SOL    HW237656   1.941   1.373   1.789  0.5440 -0.6504  1.7196
 8674SOL     OW37657   3.628   2.462   6.160 -0.2594  0.3116 -0.2290
 8674SOL    HW137658   3.614   2.369   6.175  1.3214 -0.2453 -2.3225
 8674SOL    HW237659   3.694   2.458   6.091 -0.4343  0.3078 -0.3969
 8675SOL     OW37660   2.795   3.863   8.563 -0.0053  0.4425  0.5292
 8675SOL    HW137661   2.811   3.840   8.471 -1.3757 -0.1730  0.4466
 8675SOL    HW237662   2.882   3.845   8.598  0.5122  0.2489 -0.8363
 8676SOL     OW37663   2.959   3.373   7.196  0.3002 -0.5338 -0.2887
 8676SOL    HW137664   2.970   3.373   7.101 -1.2847 -3.7123 -0.4583
 8676SOL    HW237665   3.050   3.357   7.220  0.5827 -0.3519 -1.2669
 8677SOL     OW37666   3.062   0.898  13.332 -0.2189 -0.5868 -0.1087
 8677SOL    HW137667   3.134   0.960  13.325  0.0191 -0.6218  2.0765
 8677SOL    HW237668   3.008   0.907  13.254  0.3378  0.2662 -0.3886
 8678SOL     OW37669   0.721   2.707   2.148 -0.2492  1.0346  0.3451
 8678SOL    HW137670   0.641   2.675   2.190  0.4263 -0.6486  0.3108
 8678SOL    HW237671   0.682   2.780   2.100  0.8575  0.7690 -0.9420
 8679SOL     OW37672   0.851   1.055  15.240 -0.0954 -0.3948 -0.0368
 8679SOL    HW137673   0.789   1.027  15.173  1.4974 -0.0586 -1.6356
 8679SOL    HW237674   0.792   1.102  15.299  1.0924  2.3395 -1.0769
 8680SOL     OW37675   0.817   4.475  13.185  0.0954  0.3698 -0.4758
 8680SOL    HW137676   0.794   4.419  13.111 -0.5649  3.6176 -2.7212
 8680SOL    HW237677   0.876   4.415  13.231  0.1625 -0.1849 -1.2887
 8681SOL     OW37678   1.051   2.338   9.010  0.3058  0.5191  0.3454
 8681SOL    HW137679   1.052   2.433   9.018  0.5308  0.6254 -0.9280
 8681SOL    HW237680   1.124   2.316   9.068 -0.2621  1.2242  1.3220
 8682SOL     OW37681   2.960   0.046  13.618 -0.5659  0.1730 -0.2517
 8682SOL    HW137682   2.866   0.029  13.603 -1.1150  1.4258  1.7897
 8682SOL    HW237683   2.979   4.707  13.672  0.9601  1.7385  1.4377
 8683SOL     OW37684   4.150   3.665  12.426  0.0054  0.2752  0.0601
 8683SOL    HW137685   4.116   3.626  12.506 -0.1587 -1.9433 -1.0897
 8683SOL    HW237686   4.178   3.749  12.462  1.2473 -0.2273  0.2762
 8684SOL     OW37687   0.754   1.732   1.303  0.3065  0.1592 -0.0092
 8684SOL    HW137688   0.671   1.778   1.317 -0.2919 -1.0553  0.4517
 8684SOL    HW237689   0.757   1.729   1.207  1.0949 -1.6532  0.0667
 8685SOL     OW37690   1.982   0.797  12.960  0.1220  0.8554  0.8380
 8685SOL    HW137691   1.979   0.804  13.056 -0.7010 -3.2849  1.1004
 8685SOL    HW237692   1.933   0.872  12.924 -1.3289 -0.2076  0.6026
 8686SOL     OW37693   2.088   1.829  12.662  0.5638 -0.5628 -0.2374
 8686SOL    HW137694   2.038   1.748  12.654 -1.7110  0.7686  0.6838
 8686SOL    HW237695   2.046   1.888  12.600  0.7799 -3.4736 -3.1184
 8687SOL     OW37696   1.992   3.768   5.552 -1.0381  0.0203  0.7298
 8687SOL    HW137697   1.947   3.719   5.621 -0.2930  1.2851  2.1023
 8687SOL    HW237698   1.929   3.770   5.479 -2.4033  1.0413  1.9490
 8688SOL     OW37699   1.922   2.384   6.670 -0.2913 -0.7718 -0.3298
 8688SOL    HW137700   1.837   2.371   6.713 -0.7241  0.6611 -0.7431
 8688SOL    HW237701   1.968   2.439   6.732  0.6109  0.1749 -1.8432
 8689SOL     OW37702   2.743   3.987  16.970 -0.0772  0.8169  0.2224
 8689SOL    HW137703   2.804   4.045  16.924 -0.0974 -1.5512 -2.7563
 8689SOL    HW237704   2.668   4.046  16.979 -0.1551  0.6767  0.5160
 8690SOL     OW37705   2.462   3.430  10.099 -0.1047 -0.3289  0.3298
 8690SOL    HW137706   2.412   3.502  10.137  0.6540  0.2461  0.2354
 8690SOL    HW237707   2.438   3.366  10.166 -0.9878  1.0987  1.3733
 8691SOL     OW37708   3.299   2.887  11.058 -0.1857 -0.5680  0.1192
 8691SOL    HW137709   3.264   2.967  11.019  0.0560 -0.7640 -0.5007
 8691SOL    HW237710   3.393   2.904  11.058 -0.0511 -1.3535 -2.4978
 8692SOL     OW37711   1.739   3.770  15.129 -0.4227  0.0894 -0.1409
 8692SOL    HW137712   1.738   3.856  15.086 -0.5088 -0.3194 -0.9633
 8692SOL    HW237713   1.671   3.789  15.193 -1.0229  0.4265 -0.8720
 8693SOL     OW37714   3.387   4.034  15.221 -0.2497 -0.3240 -0.1669
 8693SOL    HW137715   3.465   3.985  15.243  0.5077  0.8816 -0.1739
 8693SOL    HW237716   3.400   4.035  15.126  2.0608  1.9949  0.1742
 8694SOL     OW37717   4.218   4.482  17.111 -0.2092  0.1136  0.5790
 8694SOL    HW137718   4.201   4.576  17.123  2.4896  0.6207  0.3820
 8694SOL    HW237719   4.313   4.479  17.112 -0.1409  2.1668 -1.6481
 8695SOL     OW37720   2.831   0.235   5.420 -0.4221  0.0221 -0.4939
 8695SOL    HW137721   2.866   0.146   5.429 -0.6106  0.0780  0.7993
 8695SOL    HW237722   2.898   0.281   5.471  1.7182 -0.6489 -2.6720
 8696SOL     OW37723   0.874   1.546  11.614  0.3796  0.0056  0.6442
 8696SOL    HW137724   0.794   1.503  11.583 -0.4840  1.0147  1.4882
 8696SOL    HW237725   0.834   1.620  11.660  2.3442  1.1533  0.4911
 8697SOL     OW37726   1.557   4.367   4.464  0.1232 -0.2108  0.4270
 8697SOL    HW137727   1.625   4.426   4.495  1.4730 -0.5795 -1.8366
 8697SOL    HW237728   1.598   4.310   4.399  0.9469 -0.0695  0.8291
 8698SOL     OW37729   0.677   4.412   3.927  0.3549 -0.1982  0.0631
 8698SOL    HW137730   0.633   4.458   3.856  1.0298  0.9165  0.3756
 8698SOL    HW237731   0.658   4.470   4.001  2.5726  0.1630  0.3520
 8699SOL     OW37732   3.133   1.894   6.812  0.4952 -0.3597  0.2835
 8699SOL    HW137733   3.129   1.817   6.755 -2.2668  0.5921 -0.7966
 8699SOL    HW237734   3.219   1.932   6.795 -0.3941  2.0751  1.3253
 8700SOL     OW37735   0.311   3.933   8.258  0.0957 -0.0452 -0.1518
 8700SOL    HW137736   0.267   3.993   8.317  0.4650 -1.2733  1.3516
 8700SOL    HW237737   0.242   3.896   8.203  0.8671 -2.0246  0.1967
 8701SOL     OW37738   1.119   4.240   8.638 -0.0765  0.2843 -0.1396
 8701SOL    HW137739   1.212   4.262   8.648 -0.5036  2.6288 -1.3381
 8701SOL    HW237740   1.124   4.166   8.578 -1.1300  0.1703 -0.0963
 8702SOL     OW37741   0.355   4.674   2.304  0.7679  0.2787 -0.1835
 8702SOL    HW137742   0.379   4.667   2.397 -0.6572 -1.3865  0.0608
 8702SOL    HW237743   0.276   4.622   2.320  0.4264  0.6304 -0.7559
 8703SOL     OW37744   1.722   3.528  16.589  0.0439  0.0454 -0.3518
 8703SOL    HW137745   1.780   3.540  16.664  0.3087 -2.2289 -0.1822
 8703SOL    HW237746   1.695   3.620  16.581  0.5837  0.3446  1.2504
 8704SOL     OW37747   1.100   1.141   3.725 -0.3510  0.0943  0.3228
 8704SOL    HW137748   1.114   1.221   3.675 -0.6803 -0.2471 -0.3157
 8704SOL    HW237749   1.005   1.132   3.731 -0.2105 -1.2013  0.6049
 8705SOL     OW37750   1.299   4.176   4.761 -0.3002 -0.6016  0.9515
 8705SOL    HW137751   1.279   4.268   4.748 -1.1718 -1.2667 -2.6738
 8705SOL    HW237752   1.358   4.145   4.692 -1.0995  3.0398 -1.3894
 8706SOL     OW37753   2.801   0.749   7.848  0.2247  0.0073 -0.7011
 8706SOL    HW137754   2.838   0.673   7.804 -1.8459 -1.5783  0.3307
 8706SOL    HW237755   2.742   0.721   7.917  0.6268 -2.7768 -1.5066
 8707SOL     OW37756   0.145   1.872  11.112 -0.5115  0.2951 -0.2196
 8707SOL    HW137757   0.224   1.919  11.085 -0.1579 -1.0292 -1.5091
 8707SOL    HW237758   0.088   1.943  11.142  1.1260  1.7306 -0.5058
 8708SOL     OW37759   4.122   3.035   4.127  0.3485  0.2319  0.5420
 8708SOL    HW137760   4.121   2.996   4.039  0.4864  3.4008 -0.8729
 8708SOL    HW237761   4.069   2.974   4.178 -0.8562  0.5159 -0.3793
 8709SOL     OW37762   0.736   1.327  10.622  0.0544 -0.0951 -0.4242
 8709SOL    HW137763   0.653   1.368  10.599 -0.1261  0.4486  1.2106
 8709SOL    HW237764   0.785   1.409  10.630 -0.8503  0.3703  0.3120
 8710SOL     OW37765   1.386   3.233   1.913  0.6369  1.0636 -0.1048
 8710SOL    HW137766   1.442   3.264   1.842  2.6271 -0.5285  0.7451
 8710SOL    HW237767   1.447   3.197   1.978 -0.2818 -0.3888 -0.0420
 8711SOL     OW37768   3.403   1.008   7.390 -0.1394 -0.5228  0.0450
 8711SOL    HW137769   3.393   1.067   7.464  0.7903  1.5321 -1.4906
 8711SOL    HW237770   3.311   0.979   7.383 -0.4688 -0.0295  2.4676
 8712SOL     OW37771   4.275   4.146  15.760 -0.4756 -0.1073 -0.0030
 8712SOL    HW137772   4.201   4.189  15.717  0.8923  2.3442  0.0933
 8712SOL    HW237773   4.327   4.222  15.788 -1.4687  1.1041 -1.4348
 8713SOL     OW37774   3.314   0.546   3.632 -0.4760  0.0204  0.2475
 8713SOL    HW137775   3.390   0.522   3.685 -1.3427  0.0224  1.4913
 8713SOL    HW237776   3.316   0.637   3.662  0.3864 -0.3661  1.3829
 8714SOL     OW37777   3.939   0.288   5.566  0.6371  0.6419 -0.3309
 8714SOL    HW137778   3.959   0.268   5.475 -2.7613  3.3139 -1.6522
 8714SOL    HW237779   4.012   0.244   5.611 -0.7325  0.6206  1.9004
 8715SOL     OW37780   2.515   3.180   9.127 -0.0520 -0.6639 -0.1464
 8715SOL    HW137781   2.586   3.198   9.065  0.7792  1.0381  1.2890
 8715SOL    HW237782   2.490   3.264   9.165  0.3449 -0.4538 -0.3430
 8716SOL     OW37783   2.363   4.301   6.844  0.1873  0.4381 -0.3311
 8716SOL    HW137784   2.369   4.342   6.758  0.0871  0.0414 -0.5253
 8716SOL    HW237785   2.271   4.327   6.854 -0.6149 -2.1342 -1.0745
 8717SOL     OW37786   4.485   1.705   6.479 -0.2478 -0.3819  0.5073
 8717SOL    HW137787   4.427   1.730   6.408 -1.0738 -1.7556  0.7116
 8717SOL    HW237788   4.527   1.629   6.438  0.3522  0.8217 -1.1218
 8718SOL     OW37789   4.466   0.901   2.083 -0.4824  0.5271  0.6031
 8718SOL    HW137790   4.520   0.889   2.161 -0.1390  1.4245  0.4971
 8718SOL    HW237791   4.509   0.840   2.024 -0.8622 -0.1812  1.0579
 8719SOL     OW37792   0.042   3.196   6.747 -0.0351  0.0963  0.8256
 8719SOL    HW137793   0.106   3.146   6.796  0.7953  0.8484  0.5081
 8719SOL    HW237794   0.081   3.176   6.662  0.6388 -0.1897  1.2028
 8720SOL     OW37795   0.318   2.971  17.174 -0.2488 -0.2650 -0.3435
 8720SOL    HW137796   0.324   2.961  17.269 -2.8668 -0.2250 -0.1755
 8720SOL    HW237797   0.252   2.904  17.158  0.1547 -0.6270 -0.4809
 8721SOL     OW37798   1.374   2.043   2.145 -0.3292  0.1341  0.0132
 8721SOL    HW137799   1.352   1.955   2.175 -0.2433 -0.0644 -0.5002
 8721SOL    HW237800   1.320   2.101   2.198  0.4505 -0.7447  1.7919
 8722SOL     OW37801   0.472   1.411  13.234  0.2698 -0.0700 -0.0871
 8722SOL    HW137802   0.475   1.344  13.166  1.6360 -0.6099  0.4955
 8722SOL    HW237803   0.459   1.486  13.176 -4.3045  1.4382  2.9241
 8723SOL     OW37804   3.334   1.544   8.159  0.1041  0.4478 -0.1690
 8723SOL    HW137805   3.259   1.603   8.163  1.9644  2.6937  2.6219
 8723SOL    HW237806   3.298   1.486   8.092 -0.5100 -1.1267  1.5173
 8724SOL     OW37807   1.161   2.552  16.914  0.4734  0.7815 -0.4294
 8724SOL    HW137808   1.157   2.501  16.995 -0.1761 -1.0444 -1.6267
 8724SOL    HW237809   1.211   2.491  16.860  1.4358  0.2329  1.0779
 8725SOL     OW37810   0.680   1.695  14.442 -0.2424 -0.0468 -0.8551
 8725SOL    HW137811   0.645   1.732  14.361  0.4737  2.7806  0.1369
 8725SOL    HW237812   0.773   1.695  14.418 -0.2841 -0.5163 -1.0104
 8726SOL     OW37813   0.890   1.777   3.922  0.3660 -0.0017 -0.8978
 8726SOL    HW137814   0.818   1.714   3.923  0.0775  0.3460  1.5197
 8726SOL    HW237815   0.933   1.750   3.841  1.4699 -0.0327 -0.2983
 8727SOL     OW37816   1.446   4.338   9.266  0.0093  0.0205  0.3365
 8727SOL    HW137817   1.491   4.345   9.182 -1.8079 -0.7048 -0.7091
 8727SOL    HW237818   1.456   4.245   9.284 -0.3301 -0.1873 -0.5541
 8728SOL     OW37819   3.521   3.228   6.205 -0.1658  0.1173 -0.6964
 8728SOL    HW137820   3.450   3.286   6.178 -0.2702  0.8150  1.0488
 8728SOL    HW237821   3.543   3.193   6.119 -0.9956  0.5455 -1.0826
 8729SOL     OW37822   3.088   3.625   6.192  0.7065 -0.0573 -0.6679
 8729SOL    HW137823   3.032   3.632   6.115  1.4656  0.8906 -1.1472
 8729SOL    HW237824   3.079   3.532   6.212  0.7897  0.1444  0.2891
 8730SOL     OW37825   3.039   3.607   8.529  0.2057 -0.2408 -0.0236
 8730SOL    HW137826   3.100   3.566   8.467  1.2014  0.2716  0.6287
 8730SOL    HW237827   2.975   3.536   8.542 -1.0777  1.0693  0.7624
 8731SOL     OW37828   1.585   3.093   9.541 -0.1448 -0.0486 -0.5934
 8731SOL    HW137829   1.541   3.176   9.525  0.4348  0.5259  0.8219
 8731SOL    HW237830   1.591   3.070   9.448  2.3295  0.4765 -0.5772
 8732SOL     OW37831   4.630   0.826   0.321 -0.1548  0.1092  0.2552
 8732SOL    HW137832   4.674   0.909   0.304 -1.3756  1.0171  1.4985
 8732SOL    HW237833   4.576   0.851   0.396 -2.5226  2.2079 -2.1210
 8733SOL     OW37834   2.725   1.695   1.564  0.3546  0.2582 -0.2304
 8733SOL    HW137835   2.770   1.713   1.647 -1.2423 -0.2776  0.7485
 8733SOL    HW237836   2.638   1.715   1.598 -0.7770 -2.5933 -1.4382
 8734SOL     OW37837   2.991   2.499   9.247 -0.0978  0.2622 -0.7453
 8734SOL    HW137838   2.986   2.530   9.157  0.8356  0.9727 -0.5581
 8734SOL    HW237839   3.072   2.447   9.240 -0.0600  0.0137  1.4434
 8735SOL     OW37840   2.616   0.523  15.714 -0.3617  0.3168 -0.0525
 8735SOL    HW137841   2.637   0.441  15.758 -1.9734 -0.9262 -1.6033
 8735SOL    HW237842   2.522   0.504  15.710 -0.0461 -1.7163  2.1523
 8736SOL     OW37843   0.621   1.847  16.280 -0.0905 -0.0423 -0.1799
 8736SOL    HW137844   0.560   1.773  16.280  4.1388 -3.5698  1.4642
 8736SOL    HW237845   0.637   1.852  16.374  1.6197  0.9580 -0.5279
 8737SOL     OW37846   3.155   2.545  13.023  0.2702 -0.5096  0.1049
 8737SOL    HW137847   3.071   2.566  12.984  0.1177 -0.3317  0.5306
 8737SOL    HW237848   3.139   2.585  13.108 -1.9982 -0.5774 -0.2904
 8738SOL     OW37849   4.408   0.489   4.179 -0.0545 -0.1640  0.2079
 8738SOL    HW137850   4.315   0.511   4.180 -0.1582 -0.6112  0.1155
 8738SOL    HW237851   4.446   0.564   4.132 -1.3506 -0.4013 -1.1914
 8739SOL     OW37852   0.578   0.810  14.741  0.4423  0.2483  0.3917
 8739SOL    HW137853   0.643   0.746  14.769  2.9780  1.7847 -1.9006
 8739SOL    HW237854   0.617   0.838  14.657  0.6755  0.0373  0.4294
 8740SOL     OW37855   3.545   0.057   8.105 -0.1514  0.1595  0.5894
 8740SOL    HW137856   3.632   0.096   8.095  0.0457 -0.3840  0.1769
 8740SOL    HW237857   3.497   0.090   8.029 -2.1758  0.6453  2.1026
 8741SOL     OW37858   1.970   1.367   8.762 -0.4569 -1.0327 -0.7374
 8741SOL    HW137859   2.003   1.344   8.675  0.8599 -0.1226 -0.4775
 8741SOL    HW237860   1.875   1.358   8.752 -0.8412  3.8188 -1.2380
 8742SOL     OW37861   4.376   0.808  10.303 -0.1097  0.4252 -0.0124
 8742SOL    HW137862   4.443   0.741  10.314  1.1368  1.2725 -2.4729
 8742SOL    HW237863   4.307   0.753  10.265 -2.2336  2.5636  0.7525
 8743SOL     OW37864   3.861   3.010   0.575  0.1423  0.0648 -0.1582
 8743SOL    HW137865   3.882   3.030   0.666  2.8963 -2.1473 -0.2936
 8743SOL    HW237866   3.947   3.011   0.534  1.6337  1.3588  3.0570
 8744SOL     OW37867   4.465   0.564   8.402  0.5090  0.0803 -0.0965
 8744SOL    HW137868   4.533   0.530   8.461  0.5186  1.1600  0.5072
 8744SOL    HW237869   4.392   0.521   8.446  0.9804 -0.9156 -0.2856
 8745SOL     OW37870   1.848   3.149   2.074 -0.0073  0.3559  0.6009
 8745SOL    HW137871   1.910   3.094   2.122 -0.6727 -0.4116  0.5841
 8745SOL    HW237872   1.881   3.236   2.094 -0.9016  0.5973  1.0384
 8746SOL     OW37873   3.399   2.776   8.795 -0.0622 -0.2713  0.1540
 8746SOL    HW137874   3.387   2.813   8.882  0.0746 -1.7539  0.8068
 8746SOL    HW237875   3.397   2.682   8.814 -0.1709 -0.9133 -3.0659
 8747SOL     OW37876   2.226   2.594  10.225  0.3415  0.1385 -0.0214
 8747SOL    HW137877   2.275   2.671  10.253  0.9144 -0.7026  1.3389
 8747SOL    HW237878   2.140   2.634  10.236 -0.7575 -1.7303 -1.8778
 8748SOL     OW37879   1.901   4.221   1.500  0.2632 -0.2471 -0.4059
 8748SOL    HW137880   1.810   4.244   1.519  0.0612 -1.9090  0.6513
 8748SOL    HW237881   1.938   4.267   1.575  0.6316 -0.5562 -0.4010
 8749SOL     OW37882   1.105   2.005   6.183 -0.5354 -0.3769 -0.3657
 8749SOL    HW137883   1.168   2.041   6.245 -2.5332 -0.1100  1.5001
 8749SOL    HW237884   1.140   1.918   6.161  2.6180  0.6154  0.6908
 8750SOL     OW37885   3.143   3.680  16.989  0.2487 -0.5097 -0.2275
 8750SOL    HW137886   3.126   3.662  17.081  1.9544 -0.0895  0.1547
 8750SOL    HW237887   3.054   3.666  16.954 -0.4949  3.2631  0.2292
 8751SOL     OW37888   4.424   1.217   7.104  0.0750 -0.1306 -0.0253
 8751SOL    HW137889   4.465   1.193   7.020  2.6242 -1.3138  1.5522
 8751SOL    HW237890   4.390   1.304   7.087 -1.2553 -0.5354  0.5864
 8752SOL     OW37891   2.521   4.480   8.550 -0.5297  0.5399  0.2826
 8752SOL    HW137892   2.597   4.424   8.565 -0.7716 -0.2681 -1.5517
 8752SOL    HW237893   2.553   4.569   8.566  1.0743 -0.0136  0.0694
 8753SOL     OW37894   3.393   2.820   4.885 -0.3129 -0.5268  0.1663
 8753SOL    HW137895   3.365   2.830   4.976  2.8761  1.2526  0.9398
 8753SOL    HW237896   3.398   2.725   4.877 -0.6814 -0.3712 -1.8169
 8754SOL     OW37897   3.555   3.557   7.902  0.1404 -0.0694 -0.0792
 8754SOL    HW137898   3.624   3.501   7.868  1.1955  1.6858 -0.8658
 8754SOL    HW237899   3.502   3.570   7.824  2.4370  0.7747 -1.5059
 8755SOL     OW37900   1.499   3.186  11.116 -0.0946 -0.0567  0.2107
 8755SOL    HW137901   1.452   3.261  11.152  4.4756  2.3486  1.1724
 8755SOL    HW237902   1.560   3.229  11.056 -0.3508  0.8910  0.6336
 8756SOL     OW37903   1.085   2.754   6.165  0.0528 -0.0741 -0.1998
 8756SOL    HW137904   1.041   2.669   6.156  0.1578 -0.1229 -0.2492
 8756SOL    HW237905   1.174   2.720   6.172 -0.4812 -1.7755 -1.5769
 8757SOL     OW37906   1.189   1.217   1.231 -0.9940 -0.4048 -0.1422
 8757SOL    HW137907   1.145   1.277   1.291  0.8542  2.4104 -1.5922
 8757SOL    HW237908   1.212   1.155   1.301 -1.0003 -2.3261 -1.8465
 8758SOL     OW37909   4.612   3.501   3.520  0.2350  0.1668  0.1350
 8758SOL    HW137910   4.603   3.509   3.615 -1.9174  0.1136 -0.0648
 8758SOL    HW237911   4.672   3.427   3.516 -1.2964 -1.0872  0.7322
 8759SOL     OW37912   4.486   2.979   2.965 -0.0959  0.5038  0.7734
 8759SOL    HW137913   4.552   3.014   2.906 -1.3278 -1.1948 -1.6166
 8759SOL    HW237914   4.514   2.890   2.983 -0.1305  0.3580  0.0768
 8760SOL     OW37915   4.163   2.439   4.332 -0.2664 -0.3322 -0.6093
 8760SOL    HW137916   4.227   2.504   4.362  1.6443 -2.7947  0.6338
 8760SOL    HW237917   4.216   2.398   4.264  1.6092  0.7425  0.2073
 8761SOL     OW37918   2.080   3.274   8.698 -0.2129 -0.3672  0.0995
 8761SOL    HW137919   2.126   3.327   8.763 -1.3478 -2.9179  2.9819
 8761SOL    HW237920   2.151   3.221   8.661 -1.2269 -1.0739 -0.8718
 8762SOL     OW37921   3.650   0.696   6.197 -0.1479  0.1953  0.0016
 8762SOL    HW137922   3.638   0.791   6.194 -0.9871  0.0790 -0.4063
 8762SOL    HW237923   3.676   0.697   6.289  0.0166 -0.1160 -0.0431
 8763SOL     OW37924   1.250   0.648   4.600  0.0039 -0.0416 -0.2406
 8763SOL    HW137925   1.218   0.734   4.573 -0.1156 -0.4066 -1.2539
 8763SOL    HW237926   1.203   0.636   4.682 -0.7703 -1.7047 -0.9356
 8764SOL     OW37927   0.424   0.397   5.943 -0.0755  0.6891 -0.0069
 8764SOL    HW137928   0.462   0.340   5.876 -1.1873  0.4982 -0.4767
 8764SOL    HW237929   0.452   0.358   6.026 -1.7231  2.5868  1.4588
 8765SOL     OW37930   0.668   3.410   4.183 -0.0808 -0.1162 -0.3774
 8765SOL    HW137931   0.618   3.336   4.148 -1.1725 -0.7157  2.5064
 8765SOL    HW237932   0.627   3.428   4.267  0.5777  0.0767 -0.0982
 8766SOL     OW37933   4.613   4.084   0.326 -0.0695  0.4465 -0.3506
 8766SOL    HW137934   4.551   4.011   0.329 -2.2194  2.3878  1.5036
 8766SOL    HW237935   4.682   4.045   0.380 -1.9057 -0.8594  1.0716
 8767SOL     OW37936   0.711   3.359   8.793  0.0531  0.0236  0.5844
 8767SOL    HW137937   0.796   3.344   8.754  0.8000  1.1199  1.7943
 8767SOL    HW237938   0.716   3.453   8.809  3.3765 -0.2900  1.2094
 8768SOL     OW37939   0.848   2.778   0.815 -0.0986  0.0103  0.3403
 8768SOL    HW137940   0.849   2.704   0.877 -2.7578  0.0144  0.4274
 8768SOL    HW237941   0.754   2.798   0.807 -0.1409  0.2233  1.2902
 8769SOL     OW37942   0.392   2.241   1.934 -0.0274  0.5478 -0.1403
 8769SOL    HW137943   0.396   2.145   1.927 -3.1821  0.3680  0.2230
 8769SOL    HW237944   0.365   2.270   1.847  1.0496  2.6949  0.2518
 8770SOL     OW37945   3.059   3.750   0.868 -0.3649 -0.1126  0.4411
 8770SOL    HW137946   3.017   3.771   0.951  0.6424 -1.0389  1.1906
 8770SOL    HW237947   3.146   3.782   0.892 -2.0220  4.1033  0.6887
 8771SOL     OW37948   0.387   3.695   3.435 -0.2280 -0.4525 -0.4273
 8771SOL    HW137949   0.325   3.759   3.469  1.1353  1.7171 -2.0448
 8771SOL    HW237950   0.472   3.721   3.471 -0.1613 -0.7947 -0.3330
 8772SOL     OW37951   3.930   0.383   3.807  0.2336  0.4203  0.1985
 8772SOL    HW137952   3.900   0.305   3.855  0.2456 -0.1810 -0.7743
 8772SOL    HW237953   3.852   0.412   3.759 -0.8966 -0.8237  1.2523
 8773SOL     OW37954   3.042   3.897  16.255  0.4458 -0.4760 -0.0981
 8773SOL    HW137955   3.031   3.892  16.160 -1.2943  0.4794  0.0414
 8773SOL    HW237956   2.951   3.915  16.281  0.5780  1.6709 -1.1585
 8774SOL     OW37957   2.131   3.796  16.639  0.2986  0.3540  0.5365
 8774SOL    HW137958   2.057   3.754  16.684  0.5916  0.0192  0.7108
 8774SOL    HW237959   2.135   3.742  16.560 -0.0643 -0.4166  1.0374
 8775SOL     OW37960   2.049   1.208   5.763 -0.1498 -0.2164  0.0585
 8775SOL    HW137961   2.076   1.273   5.698 -1.9760 -1.6981 -2.1735
 8775SOL    HW237962   2.099   1.130   5.739  0.6651  0.0281  0.9180
 8776SOL     OW37963   2.087   1.346   1.499 -0.8514 -0.2440 -0.1395
 8776SOL    HW137964   2.028   1.421   1.504 -0.8431 -0.2522  0.0818
 8776SOL    HW237965   2.118   1.359   1.409  0.3527  0.1075  0.3321
 8777SOL     OW37966   0.756   3.011   1.085 -0.5579 -0.8763 -0.6010
 8777SOL    HW137967   0.827   2.967   1.133  2.3460  4.1236 -0.2708
 8777SOL    HW237968   0.796   3.048   1.006 -0.0358 -1.6745 -0.7080
 8778SOL     OW37969   2.493   1.073  10.401 -0.0900  0.1138  0.7172
 8778SOL    HW137970   2.501   1.080  10.306 -0.0575 -1.6344  0.5885
 8778SOL    HW237971   2.423   1.008  10.415  0.7677 -0.8112  0.7011
 8779SOL     OW37972   0.713   0.141   4.814  0.4418 -0.0666 -0.0786
 8779SOL    HW137973   0.706   0.231   4.847  2.9049 -0.7780  2.3390
 8779SOL    HW237974   0.640   0.093   4.854  0.8299 -0.8319 -0.2866
 8780SOL     OW37975   3.021   4.195   8.892 -0.4394  0.6134 -0.0687
 8780SOL    HW137976   3.009   4.106   8.923 -1.3873  0.2929 -1.3872
 8780SOL    HW237977   2.982   4.245   8.964 -0.1030  3.0285 -1.5654
 8781SOL     OW37978   3.622   2.089   7.665 -0.4926  0.1138  0.0393
 8781SOL    HW137979   3.667   2.009   7.691 -0.7578  0.6570  2.2187
 8781SOL    HW237980   3.638   2.082   7.571  0.8495  0.1584  0.2674
 8782SOL     OW37981   4.009   2.756  16.767 -0.3704 -0.7983  0.0179
 8782SOL    HW137982   4.038   2.847  16.768 -2.1048 -0.2460 -0.2087
 8782SOL    HW237983   3.929   2.769  16.717 -0.0374 -1.8603 -0.7907
 8783SOL     OW37984   4.150   0.778   1.205 -0.1892  0.0417 -0.1720
 8783SOL    HW137985   4.226   0.719   1.197 -0.5889 -0.3712 -0.9472
 8783SOL    HW237986   4.148   0.827   1.123  4.4199  1.2097  0.4209
 8784SOL     OW37987   0.640   1.684   5.334  0.2267  0.5147 -0.1240
 8784SOL    HW137988   0.583   1.680   5.411  1.8444  2.1995  1.1751
 8784SOL    HW237989   0.573   1.699   5.268 -0.0720 -1.9134 -0.3715
 8785SOL     OW37990   4.521   2.807   4.446 -0.2447 -0.5577  0.3234
 8785SOL    HW137991   4.567   2.825   4.528 -1.8936  1.4140  0.8216
 8785SOL    HW237992   4.515   2.895   4.409  0.9536 -1.3846 -1.8162
 8786SOL     OW37993   3.490   0.004   7.669 -0.1010  0.1115 -0.1145
 8786SOL    HW137994   3.415   0.051   7.705 -1.3041 -0.1924 -2.2304
 8786SOL    HW237995   3.526   0.066   7.606 -1.4712 -0.3616 -1.3588
 8787SOL     OW37996   2.655   4.534   4.051 -0.0461 -0.1300  0.4546
 8787SOL    HW137997   2.649   4.438   4.060  0.7581 -0.2126  0.1292
 8787SOL    HW237998   2.661   4.543   3.956  1.9148 -0.1036  0.5870
 8788SOL     OW37999   0.276   2.174   6.837 -0.1966  0.2478  0.0316
 8788SOL    HW138000   0.194   2.221   6.821 -2.1395 -2.6901  1.2965
 8788SOL    HW238001   0.253   2.084   6.864  0.0410  0.0075 -0.5701
 8789SOL     OW38002   1.782   1.154   9.685  0.2495 -0.5923  0.2016
 8789SOL    HW138003   1.757   1.228   9.740  2.9758  2.1478 -2.2568
 8789SOL    HW238004   1.720   1.094   9.726 -1.4965  2.0591  1.4429
 8790SOL     OW38005   0.828   0.832   3.670 -0.5047 -0.5326  0.0764
 8790SOL    HW138006   0.820   0.927   3.681 -1.3629 -0.5984  0.0261
 8790SOL    HW238007   0.863   0.805   3.755 -0.5867 -3.1524 -0.7142
 8791SOL     OW38008   2.470   3.994   2.150 -0.0849 -0.1378  0.1265
 8791SOL    HW138009   2.532   3.985   2.222  0.4428 -1.3220 -0.4739
 8791SOL    HW238010   2.405   3.926   2.169 -1.7850  1.5171  0.3104
 8792SOL     OW38011   1.664   4.665  14.391  0.1079  0.5001 -0.2617
 8792SOL    HW138012   1.739   4.712  14.427 -0.0567  1.2125 -0.8394
 8792SOL    HW238013   1.618   4.626  14.466 -0.7591  0.9519 -0.5606
 8793SOL     OW38014   2.560   3.432  17.323 -0.2610  0.1340 -0.5904
 8793SOL    HW138015   2.499   3.507  17.322 -2.4049 -1.5883  1.2633
 8793SOL    HW238016   2.596   3.430  17.235 -0.0509  0.5833 -0.5194
 8794SOL     OW38017   3.742   0.078  11.871 -0.7937 -0.2808  0.5327
 8794SOL    HW138018   3.730   0.166  11.836 -0.8713 -1.0585 -1.3893
 8794SOL    HW238019   3.652   0.056  11.896 -0.9297 -0.8925 -0.5012
 8795SOL     OW38020   2.296   1.647   2.076  0.1108 -0.6943  0.4855
 8795SOL    HW138021   2.388   1.637   2.099 -0.0146  0.3659  1.4580
 8795SOL    HW238022   2.254   1.636   2.161 -0.1589  0.1695  0.4631
 8796SOL     OW38023   0.308   0.315   2.516 -0.0234  0.0339 -0.2578
 8796SOL    HW138024   0.279   0.403   2.541 -0.6952 -0.4864  0.7944
 8796SOL    HW238025   0.385   0.334   2.462  0.5145 -1.5078 -0.0202
 8797SOL     OW38026   3.147   2.448  11.665  0.7174 -0.2817 -0.1423
 8797SOL    HW138027   3.145   2.533  11.620 -0.1070 -0.8228 -1.1203
 8797SOL    HW238028   3.183   2.392  11.597 -0.3077 -0.7177 -0.3302
 8798SOL     OW38029   1.816   4.335   9.839 -0.3008  0.2339  0.4468
 8798SOL    HW138030   1.787   4.412   9.790 -0.9215 -0.5309 -0.3815
 8798SOL    HW238031   1.747   4.270   9.827  0.9103 -1.4076  2.3936
 8799SOL     OW38032   1.877   1.953   8.610  0.0306 -0.2975 -0.2749
 8799SOL    HW138033   1.825   1.997   8.544  0.7922 -2.4233 -2.3213
 8799SOL    HW238034   1.960   1.955   8.562  1.8187 -0.4238  2.8097
 8800SOL     OW38035   4.457   0.381   1.433  0.3403 -0.0628  0.6328
 8800SOL    HW138036   4.396   0.451   1.456 -1.4883 -0.9497 -1.4801
 8800SOL    HW238037   4.535   0.411   1.479  1.3667  1.6331 -2.1931
 8801SOL     OW38038   1.252   1.713   0.181  0.0801 -0.3760  0.1087
 8801SOL    HW138039   1.204   1.772   0.123  0.0668 -0.3029  0.1935
 8801SOL    HW238040   1.250   1.769   0.258 -1.1323 -0.9851  0.5297
 8802SOL     OW38041   4.123   4.641   5.752 -0.2659 -0.6943 -0.4012
 8802SOL    HW138042   4.070   4.582   5.700 -0.8885  1.2233 -1.9538
 8802SOL    HW238043   4.198   4.583   5.768 -0.3713 -1.0596 -1.2849
 8803SOL     OW38044   1.644   1.510   7.597  0.1337  0.2452  0.0408
 8803SOL    HW138045   1.690   1.591   7.576 -0.6121  0.4555 -0.7367
 8803SOL    HW238046   1.712   1.444   7.585  0.6362  1.2952 -2.8094
 8804SOL     OW38047   1.527   2.109   7.487  0.4865  0.1023  0.4289
 8804SOL    HW138048   1.517   2.067   7.402  0.9129 -0.2368  0.5471
 8804SOL    HW238049   1.602   2.163   7.465  1.0962 -1.3081 -0.9519
 8805SOL     OW38050   1.608   0.550   3.860  0.2380 -0.1517  0.3182
 8805SOL    HW138051   1.610   0.512   3.772  2.6917 -1.2044  0.8375
 8805SOL    HW238052   1.561   0.482   3.908 -0.2498  0.4251  0.6755
 8806SOL     OW38053   4.218   0.470   2.265 -0.3801 -0.3536  0.2694
 8806SOL    HW138054   4.212   0.389   2.214  1.6335 -1.2397  1.4273
 8806SOL    HW238055   4.307   0.501   2.248 -0.5422  0.8041  1.5219
 8807SOL     OW38056   2.759   3.431  17.004  0.1490 -0.0892  0.4903
 8807SOL    HW138057   2.793   3.507  16.957  0.8899  0.6336  2.2104
 8807SOL    HW238058   2.826   3.405  17.066 -2.0582 -0.6777  2.6377
 8808SOL     OW38059   4.039   4.120   7.118 -0.5906  0.1454  0.3390
 8808SOL    HW138060   3.995   4.078   7.192 -1.0177 -1.6901 -0.9313
 8808SOL    HW238061   4.125   4.080   7.132 -0.6339 -0.9622 -2.5572
 8809SOL     OW38062   0.740   0.315   6.372 -0.2523 -0.4448  0.8268
 8809SOL    HW138063   0.696   0.278   6.449 -2.0320  1.3092  0.6561
 8809SOL    HW238064   0.744   0.410   6.386 -0.9005 -0.4759  1.2073
 8810SOL     OW38065   1.203   3.606   6.089  0.5964 -0.1233 -0.0269
 8810SOL    HW138066   1.249   3.639   6.166  0.3130 -1.8806  0.8940
 8810SOL    HW238067   1.131   3.554   6.126  1.2627 -0.4350  0.8414
 8811SOL     OW38068   3.899   4.318   6.279  0.2155 -0.0607  0.2365
 8811SOL    HW138069   3.866   4.228   6.278 -1.5433  0.5578  3.1658
 8811SOL    HW238070   3.873   4.357   6.195  0.5481 -1.2732 -0.4302
 8812SOL     OW38071   4.457   0.932   2.913 -0.4589 -0.3594  0.2911
 8812SOL    HW138072   4.483   0.847   2.948  0.0875 -0.4513 -0.3312
 8812SOL    HW238073   4.538   0.980   2.930 -0.5564 -0.3225  0.6454
 8813SOL     OW38074   4.640   2.138  16.905 -0.3640 -0.7076  0.5666
 8813SOL    HW138075   4.545   2.147  16.900 -0.4211 -2.1147 -1.0396
 8813SOL    HW238076   4.656   2.048  16.877  2.4277  0.5383 -1.7701
 8814SOL     OW38077   4.620   0.144   9.371 -0.2096 -0.2105  0.4815
 8814SOL    HW138078   4.538   0.159   9.418 -0.4839  1.5492 -0.5675
 8814SOL    HW238079   4.635   0.051   9.387  1.2496  0.0105  0.4289
 8815SOL     OW38080   3.757   3.405   7.812 -0.5567 -0.2124 -0.0679
 8815SOL    HW138081   3.818   3.338   7.843 -1.0133  0.4701  2.3172
 8815SOL    HW238082   3.726   3.362   7.732  0.9811 -0.1198 -0.7159
 8816SOL     OW38083   3.074   0.271   9.930  0.0596 -0.7794 -0.2036
 8816SOL    HW138084   3.163   0.235   9.930 -0.4253 -1.9701 -0.4660
 8816SOL    HW238085   3.045   0.252  10.019  2.6074 -1.2089  0.5416
 8817SOL     OW38086   1.467   4.163  16.911 -0.0441  0.4756  0.0260
 8817SOL    HW138087   1.400   4.094  16.916 -0.2239  0.6718  0.3169
 8817SOL    HW238088   1.470   4.186  16.819  2.1912 -0.8364 -0.2229
 8818SOL     OW38089   3.814   1.838   8.157  0.3650  0.0384  0.1601
 8818SOL    HW138090   3.815   1.742   8.158  0.5191  0.0475  1.0302
 8818SOL    HW238091   3.830   1.867   8.247  1.4284 -1.2114  0.3839
 8819SOL     OW38092   2.596   4.046   8.578 -0.3404 -0.0859  0.2320
 8819SOL    HW138093   2.660   3.976   8.591 -0.8441 -0.4130  0.9207
 8819SOL    HW238094   2.616   4.084   8.492 -1.2245 -1.4114 -0.5642
 8820SOL     OW38095   1.713   1.586   0.045 -0.0006 -0.0951 -0.4920
 8820SOL    HW138096   1.645   1.573   0.111  0.3702 -1.8422 -0.4533
 8820SOL    HW238097   1.747   1.500   0.024  0.9866  0.1469  0.1539
 8821SOL     OW38098   4.452   4.077   3.238  0.3816 -0.5192  0.0748
 8821SOL    HW138099   4.527   4.026   3.269  0.4335  0.8586  2.2144
 8821SOL    HW238100   4.464   4.167   3.269 -3.4696  0.7789 -2.2711
 8822SOL     OW38101   2.345   0.561   9.518 -0.3903  0.3717  0.1009
 8822SOL    HW138102   2.417   0.522   9.468  0.0291 -0.1075  1.0880
 8822SOL    HW238103   2.295   0.602   9.447 -1.3098 -0.0176  0.5319
 8823SOL     OW38104   1.647   2.808   0.592 -0.1063  0.1732 -0.2779
 8823SOL    HW138105   1.599   2.863   0.654 -0.5202  1.6765 -1.9162
 8823SOL    HW238106   1.606   2.725   0.614  0.7316 -0.2767 -0.4376
 8824SOL     OW38107   4.335   4.569   3.214  0.2779  0.5501  0.5184
 8824SOL    HW138108   4.286   4.563   3.296 -0.4672 -1.5965 -0.0823
 8824SOL    HW238109   4.331   4.481   3.176  3.2373  0.2961  0.7862
 8825SOL     OW38110   2.915   2.837   7.581 -0.2296  0.6013  0.4974
 8825SOL    HW138111   2.978   2.771   7.607  1.2227  1.5675 -0.5814
 8825SOL    HW238112   2.841   2.785   7.548  0.7129 -0.8768  0.7442
 8826SOL     OW38113   1.701   1.054   7.524 -0.5774 -0.4127 -0.3952
 8826SOL    HW138114   1.691   1.084   7.614 -0.8130  0.5502 -0.7421
 8826SOL    HW238115   1.774   0.993   7.516  0.1842  0.7524 -2.3029
 8827SOL     OW38116   4.571   0.687   0.775  0.0095  0.5548  0.1057
 8827SOL    HW138117   4.566   0.743   0.697 -1.9553 -0.8191 -0.7433
 8827SOL    HW238118   4.539   0.746   0.843  0.4862 -0.3000  1.0718
 8828SOL     OW38119   4.626   3.812  16.165 -0.1482  0.1279 -0.2139
 8828SOL    HW138120   4.615   3.840  16.256 -1.9854 -0.7614 -0.1616
 8828SOL    HW238121   4.636   3.717  16.164 -2.1400 -0.0543 -2.3982
 8829SOL     OW38122   2.446   0.612   3.433  0.4712  0.0571 -0.2070
 8829SOL    HW138123   2.415   0.657   3.512  0.6085 -2.2697  1.1587
 8829SOL    HW238124   2.485   0.678   3.376  0.2621  1.5557  1.3824
 8830SOL     OW38125   2.240   3.200   0.949 -0.2411 -0.0061 -0.5429
 8830SOL    HW138126   2.200   3.170   1.030 -2.2339  0.4175 -1.3680
 8830SOL    HW238127   2.201   3.287   0.944  1.2940  0.7189  0.0859
 8831SOL     OW38128   2.779   2.443  11.497 -1.2692  0.5125 -0.4053
 8831SOL    HW138129   2.719   2.370  11.478 -1.9366  1.3566 -1.5859
 8831SOL    HW238130   2.762   2.457  11.590  0.4440  0.8904 -0.1602
 8832SOL     OW38131   2.056   4.240   5.248  0.4083 -0.4801  0.3972
 8832SOL    HW138132   2.027   4.261   5.158  1.8672 -0.7093 -0.1211
 8832SOL    HW238133   2.130   4.185   5.222 -1.2665 -2.8676  0.7211
 8833SOL     OW38134   3.056   3.984   2.147  0.0192  0.0211  0.5405
 8833SOL    HW138135   3.128   3.924   2.168 -0.2363 -0.5640 -0.2560
 8833SOL    HW238136   2.996   3.928   2.098  1.9889 -0.2396 -1.5892
 8834SOL     OW38137   3.086   3.792   9.986 -0.3595  0.0250 -0.0224
 8834SOL    HW138138   3.089   3.862   9.920  0.4136  0.7918  0.8358
 8834SOL    HW238139   3.119   3.841  10.061 -2.1211  2.2533 -0.6772
 8835SOL     OW38140   2.001   1.753   0.939  0.3816  0.0056 -0.2891
 8835SOL    HW138141   2.049   1.785   0.863  1.7615  0.2482  0.6754
 8835SOL    HW238142   2.071   1.735   1.002 -0.7316  0.0852  0.9828
 8836SOL     OW38143   0.918   2.215  12.941 -0.3986  0.7866  0.3062
 8836SOL    HW138144   0.946   2.148  12.879  1.8203 -0.0759  2.2035
 8836SOL    HW238145   0.941   2.292  12.890  2.7426 -1.5876 -1.8379
 8837SOL     OW38146   4.312   3.426   5.251 -0.1120 -0.4950 -0.3867
 8837SOL    HW138147   4.337   3.353   5.308  1.7573  0.9814  0.6724
 8837SOL    HW238148   4.266   3.481   5.315  0.9325 -0.4656  0.3346
 8838SOL     OW38149   1.280   4.309  13.134 -0.0698  0.0752 -0.7751
 8838SOL    HW138150   1.309   4.348  13.217  0.1819 -0.3599 -0.6640
 8838SOL    HW238151   1.293   4.390  13.084 -1.1186 -0.3968 -1.8054
 8839SOL     OW38152   4.162   0.696   1.876 -0.3452 -0.1147  0.4616
 8839SOL    HW138153   4.205   0.740   1.802  0.8384  0.0934  1.2678
 8839SOL    HW238154   4.154   0.608   1.838  1.9334 -1.0015  2.0445
 8840SOL     OW38155   4.075   0.339  11.839  0.1317  0.3200  0.3867
 8840SOL    HW138156   4.162   0.312  11.869 -1.0930 -0.3763  3.3510
 8840SOL    HW238157   4.055   0.413  11.897 -2.8684  0.5628 -0.9427
 8841SOL     OW38158   3.760   2.528   2.936  0.6869 -0.9193  0.1313
 8841SOL    HW138159   3.842   2.482   2.920  1.9964  0.0956  3.9821
 8841SOL    HW238160   3.781   2.609   2.983 -0.1180  1.2126 -3.1348
 8842SOL     OW38161   3.738   1.193   6.059 -0.2134  0.1119  0.1915
 8842SOL    HW138162   3.705   1.272   6.016 -2.2227 -0.3983  0.7872
 8842SOL    HW238163   3.762   1.138   5.985  1.0239  0.1143  0.5822
 8843SOL     OW38164   1.080   1.803  17.729 -0.0602  0.1092 -0.8879
 8843SOL    HW138165   1.009   1.850  17.685  0.0283  0.2913 -0.8382
 8843SOL    HW238166   1.044   1.714  17.736 -2.7930  1.2209 -0.7189
 8844SOL     OW38167   0.663   2.758  17.362  0.0982  0.4979  0.1223
 8844SOL    HW138168   0.652   2.733  17.271  1.8067 -0.9486  0.2994
 8844SOL    HW238169   0.582   2.723  17.399 -0.3555  0.5835 -0.8008
 8845SOL     OW38170   3.401   2.527   8.552  0.1132 -0.0059 -0.2240
 8845SOL    HW138171   3.465   2.593   8.525  1.8103 -1.8314 -0.6640
 8845SOL    HW238172   3.427   2.520   8.644 -1.6931 -0.8473  0.2478
 8846SOL     OW38173   2.909   0.943   5.028 -0.1623  0.1199  0.7738
 8846SOL    HW138174   2.893   0.852   5.052 -1.1711 -0.2877 -1.4245
 8846SOL    HW238175   2.828   0.993   5.033 -0.6301 -0.5775  0.2034
 8847SOL     OW38176   0.196   0.611   8.423  0.0864  0.1198 -0.0204
 8847SOL    HW138177   0.163   0.684   8.476  1.2924  1.4906 -1.1175
 8847SOL    HW238178   0.124   0.594   8.363  0.2721  1.0994 -0.5352
 8848SOL     OW38179   4.013   0.544   0.335  0.1970 -0.1412  0.2843
 8848SOL    HW138180   4.080   0.546   0.267 -0.0112  4.4213  0.2376
 8848SOL    HW238181   3.971   0.459   0.321  0.4911 -0.4720  1.4657
 8849SOL     OW38182   1.713   1.682   4.924 -0.3717  0.4738 -0.5168
 8849SOL    HW138183   1.745   1.620   4.858 -0.7759  0.7424 -0.9691
 8849SOL    HW238184   1.729   1.639   5.008  1.1686  1.7973 -0.1325
 8850SOL     OW38185   3.552   3.218   2.334 -0.1410  0.5639  0.1996
 8850SOL    HW138186   3.481   3.261   2.382  1.1114  0.7408  1.9133
 8850SOL    HW238187   3.623   3.261   2.382 -0.5319  2.2458 -0.7576
 8851SOL     OW38188   3.367   1.674   4.342 -0.2781 -0.2560  0.0764
 8851SOL    HW138189   3.324   1.672   4.427 -0.1229 -1.3545  0.1265
 8851SOL    HW238190   3.304   1.630   4.285 -0.7460 -0.7436  0.9850
 8852SOL     OW38191   0.983   1.247   0.682 -0.1547  0.0048 -0.5841
 8852SOL    HW138192   0.980   1.267   0.775 -0.1081  2.3245 -1.0845
 8852SOL    HW238193   0.926   1.172   0.667 -0.3650  0.2682 -1.1179
 8853SOL     OW38194   4.441   4.118   2.658  0.1952 -0.0099  0.2657
 8853SOL    HW138195   4.428   4.142   2.566  1.7010 -2.5337 -0.6133
 8853SOL    HW238196   4.380   4.173   2.707  0.7568  2.1578 -1.4398
 8854SOL     OW38197   1.936   2.589   9.740  0.0704 -0.4752  0.4152
 8854SOL    HW138198   1.969   2.679   9.736 -0.0297 -0.4475  0.1911
 8854SOL    HW238199   1.994   2.567   9.812 -0.2956 -2.8135  0.0083
 8855SOL     OW38200   2.743   4.187   5.821  0.7847  0.3155  0.0859
 8855SOL    HW138201   2.669   4.236   5.857  1.2400  0.8735  0.2607
 8855SOL    HW238202   2.818   4.247   5.825  1.4106 -0.3392 -1.5649
 8856SOL     OW38203   4.689   2.477   3.420 -0.1057  0.3737  0.4465
 8856SOL    HW138204   4.689   2.556   3.366  1.0126  0.0532 -0.0203
 8856SOL    HW238205   0.041   2.471   3.452 -0.1163  2.0851  0.8008
 8857SOL     OW38206   4.617   4.612   9.445 -0.0165  0.0663  0.0720
 8857SOL    HW138207   4.556   4.569   9.385  0.6718 -1.3507  0.3627
 8857SOL    HW238208   4.573   4.599   9.529 -0.3358  3.1313  0.3741
 8858SOL     OW38209   4.662   2.717  13.927 -0.3409  0.5372 -0.6375
 8858SOL    HW138210   4.655   2.739  14.020 -3.7768  0.3579 -0.8779
 8858SOL    HW238211   4.622   2.630  13.928  2.1438 -0.6216  0.3010
 8859SOL     OW38212   3.276   4.567  16.777  0.1196 -0.5427 -0.2872
 8859SOL    HW138213   3.341   4.549  16.846 -1.8416  0.5905  1.8591
 8859SOL    HW238214   3.305   4.654  16.749  1.0639 -1.0990 -1.0525
 8860SOL     OW38215   3.415   4.698  10.122  0.3614 -0.1095 -0.0217
 8860SOL    HW138216   3.433   4.690  10.216  2.1825 -1.2209 -0.4526
 8860SOL    HW238217   3.442   4.608  10.100  2.1535 -0.2390  2.7595
 8861SOL     OW38218   1.386   0.790   0.701  0.4805 -0.3733  0.7413
 8861SOL    HW138219   1.313   0.849   0.719 -0.9488 -2.3425  1.3299
 8861SOL    HW238220   1.360   0.715   0.755 -1.2402  0.5213  1.1405
 8862SOL     OW38221   4.680   0.250   3.040 -0.4362  0.6413 -0.3477
 8862SOL    HW138222   4.612   0.309   3.073 -2.5131 -3.7029  3.0935
 8862SOL    HW238223   4.728   0.303   2.975 -1.5471  1.4046 -0.5551
 8863SOL     OW38224   2.462   1.556   9.923 -0.2270 -0.2156 -0.3211
 8863SOL    HW138225   2.513   1.580  10.000 -2.2525  1.4718  0.4862
 8863SOL    HW238226   2.541   1.523   9.881 -0.3395 -0.7466 -0.1140
 8864SOL     OW38227   3.308   2.953   2.237  0.1149  0.4334  0.2664
 8864SOL    HW138228   3.217   2.936   2.212 -0.3689  1.3164  1.4744
 8864SOL    HW238229   3.332   2.875   2.287 -1.7317 -0.1519  0.2028
 8865SOL     OW38230   1.748   0.483   8.216  0.0154  0.4050 -0.0215
 8865SOL    HW138231   1.687   0.454   8.149 -0.8751 -2.5661  2.0441
 8865SOL    HW238232   1.832   0.454   8.181  0.2109 -0.1036  0.8488
 8866SOL     OW38233   3.500   4.657   2.762  0.2864  0.2677 -0.1167
 8866SOL    HW138234   3.590   4.628   2.775  0.6563  1.4752 -0.0118
 8866SOL    HW238235   3.512   0.008   2.794  2.1264  0.2677 -0.7904
 8867SOL     OW38236   3.701   2.998   9.266  0.9267  0.6901  0.0791
 8867SOL    HW138237   3.790   2.965   9.280 -0.5916 -3.4977 -0.0110
 8867SOL    HW238238   3.655   2.930   9.316 -1.1705  2.6826  0.8408
 8868SOL     OW38239   0.941   1.784   9.902 -0.3715 -0.5612 -0.0664
 8868SOL    HW138240   0.892   1.866   9.909  0.1337 -0.3432  0.8169
 8868SOL    HW238241   0.955   1.779   9.807 -0.6192 -0.3811 -0.1142
 8869SOL     OW38242   0.931   4.224   5.375  0.3257 -0.5012 -0.2135
 8869SOL    HW138243   0.990   4.165   5.421  1.5109  1.5489  0.9072
 8869SOL    HW238244   0.963   4.311   5.398  0.1060 -0.1543 -1.2157
 8870SOL     OW38245   1.323   3.189   8.965  0.0469  0.5137  0.3351
 8870SOL    HW138246   1.305   3.183   8.871  1.3022 -0.3138  0.1459
 8870SOL    HW238247   1.245   3.150   9.004 -0.5090  2.9206  1.6434
 8871SOL     OW38248   1.237   0.620  15.281  0.2139 -0.1383 -0.0280
 8871SOL    HW138249   1.262   0.701  15.326  0.2983 -1.3805  2.1377
 8871SOL    HW238250   1.214   0.658  15.196 -3.4170 -1.1515  0.4999
 8872SOL     OW38251   2.163   4.445   5.475 -0.0030  0.2351 -0.3468
 8872SOL    HW138252   2.211   4.424   5.395  1.8286 -1.5625  1.2412
 8872SOL    HW238253   2.126   4.358   5.488 -1.2914  0.6407 -1.2835
 8873SOL     OW38254   1.727   1.043   9.432 -0.4019 -0.3084  0.7635
 8873SOL    HW138255   1.789   1.055   9.505  1.3555 -0.7833 -0.6566
 8873SOL    HW238256   1.641   1.046   9.473 -0.8185 -2.0308  0.0259
 8874SOL     OW38257   2.868   2.551  13.020 -0.0488 -0.4212 -0.0220
 8874SOL    HW138258   2.815   2.479  12.984  1.3358 -0.6399 -1.6254
 8874SOL    HW238259   2.809   2.619  12.988  1.5389  0.9992  0.0981
 8875SOL     OW38260   1.388   0.257   9.002  0.0665 -0.4422 -0.1934
 8875SOL    HW138261   1.394   0.162   8.992  0.5355 -0.2376 -1.8579
 8875SOL    HW238262   1.337   0.264   9.083 -0.4006 -0.8389 -0.4499
 8876SOL     OW38263   3.694   4.685   6.953 -0.5052 -0.4917  0.6797
 8876SOL    HW138264   3.729   0.030   6.919 -1.9813 -0.2673 -0.2982
 8876SOL    HW238265   3.754   4.672   7.026  1.5516 -4.3301 -1.7204
 8877SOL     OW38266   4.235   1.546   0.349 -0.6122 -0.1396 -0.4474
 8877SOL    HW138267   4.251   1.570   0.258 -0.0454 -2.1540 -0.8687
 8877SOL    HW238268   4.298   1.610   0.382 -0.2871 -1.2372  1.0330
 8878SOL     OW38269   1.401   2.281   6.924 -0.0972 -0.2679  0.4564
 8878SOL    HW138270   1.375   2.190   6.915 -1.2175 -0.0570  1.4189
 8878SOL    HW238271   1.410   2.289   7.019 -2.1071 -0.8747  0.6964
 8879SOL     OW38272   1.007   2.447  12.572  0.3964 -0.5038  0.1416
 8879SOL    HW138273   0.932   2.507  12.581 -0.5411 -1.6734  0.1415
 8879SOL    HW238274   1.080   2.508  12.583 -0.4938  0.2813  1.7190
 8880SOL     OW38275   2.226   2.887  15.529 -0.4344 -0.3304  0.2124
 8880SOL    HW138276   2.165   2.836  15.582 -0.4083 -1.8775 -1.2716
 8880SOL    HW238277   2.291   2.871  15.598  1.5349  2.2183 -1.0312
 8881SOL     OW38278   3.855   2.007   3.663  0.1176  0.3015  0.7327
 8881SOL    HW138279   3.887   2.094   3.689  0.9630 -0.1218  1.1401
 8881SOL    HW238280   3.930   1.948   3.677  0.8314  1.1821  0.6537
 8882SOL     OW38281   2.774   0.116   6.801  0.0783 -0.2457  0.2145
 8882SOL    HW138282   2.798   0.126   6.709  0.0819 -4.0092 -0.1749
 8882SOL    HW238283   2.855   0.143   6.844  0.3894  1.0944 -1.2294
 8883SOL     OW38284   2.154   3.340   9.652  0.1518  0.0154 -0.0444
 8883SOL    HW138285   2.202   3.418   9.681 -1.5205  1.2314 -0.5543
 8883SOL    HW238286   2.063   3.363   9.672  0.5708  1.5835  0.0621
 8884SOL     OW38287   2.767   4.568  10.461  0.5639 -0.0442  0.1666
 8884SOL    HW138288   2.763   4.642  10.401 -1.0631  0.2639  0.6466
 8884SOL    HW238289   2.772   4.614  10.545 -0.7979  1.3448 -0.5141
 8885SOL     OW38290   0.024   3.612  16.647  0.7519  0.0060 -0.6378
 8885SOL    HW138291   0.091   3.662  16.694  0.9618 -0.6554 -0.2244
 8885SOL    HW238292   0.053   3.606  16.556  0.4125  0.1689 -0.7560
 8886SOL     OW38293   2.336   0.162  15.733 -0.3988 -0.2546 -0.0691
 8886SOL    HW138294   2.276   0.097  15.697  0.0256 -2.1792  2.6260
 8886SOL    HW238295   2.358   0.130  15.821 -0.2414 -2.4657 -0.9166
 8887SOL     OW38296   3.304   2.754   4.532 -0.0931 -0.0105  0.5843
 8887SOL    HW138297   3.263   2.675   4.569  0.3589  0.3637  1.8985
 8887SOL    HW238298   3.288   2.755   4.438 -0.4774  0.3601  0.6536
 8888SOL     OW38299   1.250   0.123   8.109 -0.6329  0.0523 -0.9659
 8888SOL    HW138300   1.178   0.062   8.127  0.6796 -1.3600 -0.4648
 8888SOL    HW238301   1.323   0.062   8.102  1.0431  1.7560  1.8431
 8889SOL     OW38302   3.399   2.877   5.391  0.5937  1.0623 -0.1659
 8889SOL    HW138303   3.495   2.875   5.382  0.5518 -0.3569 -0.2501
 8889SOL    HW238304   3.380   2.955   5.443 -1.2459 -0.3166  1.1982
 8890SOL     OW38305   2.670   0.040   8.292  0.4793 -0.4861 -0.5335
 8890SOL    HW138306   2.636   4.688   8.297  0.5325 -0.5511 -1.3666
 8890SOL    HW238307   2.741   0.015   8.233  1.4199 -0.6007  0.6513
 8891SOL     OW38308   1.059   2.328  15.035  0.5342 -0.3859 -0.1636
 8891SOL    HW138309   1.084   2.290  15.119 -2.3858 -2.0554 -0.0364
 8891SOL    HW238310   1.111   2.408  15.033 -2.3434  1.4521 -2.4466
 8892SOL     OW38311   0.059   2.965   0.286 -0.0006  0.2313 -0.7265
 8892SOL    HW138312   0.043   3.029   0.216 -1.0929  0.7672  0.0029
 8892SOL    HW238313   0.077   2.884   0.239  3.7924  0.5469  0.1937
 8893SOL     OW38314   2.291   3.355   8.299  0.7665  0.0147 -0.2639
 8893SOL    HW138315   2.381   3.351   8.267  0.7062  2.9336 -0.7969
 8893SOL    HW238316   2.300   3.307   8.382 -0.0861  0.9655  0.3829
 8894SOL     OW38317   1.267   2.245   9.155 -0.3848  0.6239 -0.2595
 8894SOL    HW138318   1.310   2.237   9.240  0.1826 -1.4441 -0.7588
 8894SOL    HW238319   1.344   2.260   9.100 -1.4808  1.7598 -1.5141
 8895SOL     OW38320   0.714   4.506   3.637 -0.4565  0.3855  0.2363
 8895SOL    HW138321   0.741   4.415   3.628 -0.5783  0.5138 -1.3893
 8895SOL    HW238322   0.623   4.507   3.667  0.5348 -0.5770  3.3170
 8896SOL     OW38323   3.889   4.478   4.191  0.1666 -0.0853  0.1850
 8896SOL    HW138324   3.814   4.527   4.159  0.9558  0.4111 -0.8778
 8896SOL    HW238325   3.834   4.400   4.193 -1.5526  1.0507 -2.5628
 8897SOL     OW38326   1.638   3.771   5.761 -0.1852  0.2310  0.3067
 8897SOL    HW138327   1.600   3.768   5.673  1.3393 -1.1495 -0.3112
 8897SOL    HW238328   1.650   3.865   5.773  2.4995 -0.3141  2.0067
 8898SOL     OW38329   4.034   2.556   9.089  0.1004 -0.1329 -0.1569
 8898SOL    HW138330   3.941   2.534   9.093  0.1004  0.0923  1.3344
 8898SOL    HW238331   4.042   2.570   8.995  0.7511 -0.6792 -0.1783
 8899SOL     OW38332   3.901   4.187   0.939  0.1953  0.2449  0.0027
 8899SOL    HW138333   3.924   4.230   1.021  0.4670  0.5723 -0.2475
 8899SOL    HW238334   3.982   4.157   0.900  1.1332  1.4153  1.0442
 8900SOL     OW38335   4.367   1.743  17.292 -0.8689  0.1888  0.1319
 8900SOL    HW138336   4.354   1.685  17.368 -0.4925 -0.0395  0.0203
 8900SOL    HW238337   4.457   1.771  17.306 -0.3712 -0.2832 -2.2227
 8901SOL     OW38338   4.232   1.674   2.213 -0.5530 -0.0314  0.2512
 8901SOL    HW138339   4.268   1.608   2.273  0.1138  1.4458  1.4853
 8901SOL    HW238340   4.298   1.743   2.215 -1.5968  1.0489 -2.3296
 8902SOL     OW38341   2.060   3.865  10.921 -0.5260 -0.2870 -0.2659
 8902SOL    HW138342   2.120   3.938  10.936  1.0593 -1.9612  1.6738
 8902SOL    HW238343   2.118   3.798  10.884 -0.2900 -0.6858  0.8199
 8903SOL     OW38344   3.328   2.407   3.119 -0.2519  0.0192  0.2037
 8903SOL    HW138345   3.401   2.373   3.171  1.1952  1.9980 -0.5348
 8903SOL    HW238346   3.365   2.461   3.049  0.2127 -0.4195  0.1114
 8904SOL     OW38347   4.487   0.790   4.061  0.6773  0.3595  0.4115
 8904SOL    HW138348   4.581   0.802   4.074  0.7573  0.4094 -0.2224
 8904SOL    HW238349   4.474   0.789   3.967  3.0103  1.2220  0.0653
 8905SOL     OW38350   4.024   0.717   3.265  0.1677 -0.4732 -0.0134
 8905SOL    HW138351   3.943   0.690   3.221 -0.3294  1.2335 -0.1451
 8905SOL    HW238352   4.051   0.803   3.233  0.6957 -0.1219  1.3362
 8906SOL     OW38353   2.625   3.985   1.390  0.3728 -0.1103 -0.1174
 8906SOL    HW138354   2.688   4.017   1.455 -2.1693  1.7716  1.4219
 8906SOL    HW238355   2.579   4.065   1.362 -0.9040 -0.0593  2.1412
 8907SOL     OW38356   3.793   0.248  16.737  0.3827  0.0257  0.3223
 8907SOL    HW138357   3.843   0.291  16.806 -0.2483 -2.0371  2.0617
 8907SOL    HW238358   3.736   0.187  16.784 -1.2819  0.0216 -1.6837
 8908SOL     OW38359   2.175   0.351   3.602  0.4168  0.0556  0.2367
 8908SOL    HW138360   2.178   0.359   3.697  0.4717 -1.2524  0.3499
 8908SOL    HW238361   2.159   0.257   3.589  2.7829 -0.2765 -0.2979
 8909SOL     OW38362   1.972   3.027  16.367 -0.3893  0.3104 -0.0077
 8909SOL    HW138363   1.917   3.061  16.297 -0.0319  1.0298  0.0575
 8909SOL    HW238364   2.035   2.974  16.317 -1.8225  0.8680 -2.3749
 8910SOL     OW38365   3.452   4.474  13.317 -0.0050 -0.1510  0.0537
 8910SOL    HW138366   3.417   4.500  13.232  0.5327  2.4422  0.6199
 8910SOL    HW238367   3.479   4.556  13.359  0.4506 -0.7205  0.8562
 8911SOL     OW38368   0.970   4.458   5.072  0.1530 -0.6785  0.1354
 8911SOL    HW138369   1.054   4.461   5.119  0.2827  1.1860 -0.2070
 8911SOL    HW238370   0.950   4.551   5.063  2.5085 -0.2301 -0.6104
 8912SOL     OW38371   2.227   0.784   3.541  0.9513 -0.6336 -0.1724
 8912SOL    HW138372   2.169   0.711   3.522  0.7931 -0.4471 -0.4116
 8912SOL    HW238373   2.164   0.850   3.568 -0.9638 -2.4877 -0.1368
 8913SOL     OW38374   0.535   3.284  11.716  0.0980 -0.3518 -0.0827
 8913SOL    HW138375   0.534   3.244  11.803  1.6145  2.6611  1.3123
 8913SOL    HW238376   0.532   3.378  11.733 -2.1875 -0.0863 -2.0322
 8914SOL     OW38377   0.182   0.131   9.403 -0.0178 -0.2887 -0.1619
 8914SOL    HW138378   0.096   0.125   9.362 -1.1764  2.8586  1.8021
 8914SOL    HW238379   0.242   0.089   9.340 -1.5206 -0.7994 -1.2528
 8915SOL     OW38380   2.079   4.545   3.632  0.4820  0.1774 -0.1620
 8915SOL    HW138381   2.128   4.470   3.665  0.9974  0.2873 -0.6685
 8915SOL    HW238382   2.069   4.499   3.549 -2.4679  2.3721 -1.0064
 8916SOL     OW38383   1.349   3.688   7.619  0.2215  0.3036  0.1489
 8916SOL    HW138384   1.422   3.701   7.558  0.2708 -1.1689 -0.0974
 8916SOL    HW238385   1.312   3.608   7.582  2.3674 -0.7451  0.2693
 8917SOL     OW38386   2.312   3.215  17.160 -0.1214 -0.3827  0.4285
 8917SOL    HW138387   2.331   3.287  17.220  1.8203 -0.3104 -0.2878
 8917SOL    HW238388   2.389   3.230  17.105 -0.1553 -0.4304  0.3685
 8918SOL     OW38389   0.978   1.359   6.060 -0.0310  0.2557 -0.2410
 8918SOL    HW138390   0.920   1.299   6.013  0.2423  1.4916 -2.1396
 8918SOL    HW238391   0.915   1.431   6.051  0.2994  0.2681 -2.2863
 8919SOL     OW38392   0.838   1.657  16.389 -0.6973 -0.2274 -0.0412
 8919SOL    HW138393   0.776   1.625  16.324  0.8748  0.7688 -2.0429
 8919SOL    HW238394   0.776   1.700  16.448 -1.7117  0.7116 -1.8167
 8920SOL     OW38395   1.154   2.360   3.374 -0.4678  0.4392 -0.3204
 8920SOL    HW138396   1.168   2.346   3.468  1.7905  1.5516 -0.5007
 8920SOL    HW238397   1.106   2.442   3.387  1.1995  1.6432 -1.7777
 8921SOL     OW38398   1.919   2.808   5.231  0.1741 -0.5057 -0.1518
 8921SOL    HW138399   1.912   2.894   5.274 -1.6419 -0.5736 -0.3060
 8921SOL    HW238400   1.989   2.831   5.170 -1.8903  0.9994 -1.9465
 8922SOL     OW38401   2.432   0.146  13.987 -0.3029 -0.2414  0.2485
 8922SOL    HW138402   2.525   0.165  13.997  0.3324 -2.3505 -1.7807
 8922SOL    HW238403   2.396   0.226  13.949  0.9000 -0.4360 -1.2733
 8923SOL     OW38404   3.519   0.659   0.394 -0.0537  0.3004 -0.3121
 8923SOL    HW138405   3.546   0.681   0.484 -1.8035 -0.0115  0.2978
 8923SOL    HW238406   3.584   0.706   0.342 -1.7302  2.3308 -0.6082
 8924SOL     OW38407   0.051   1.224  15.007  0.2911 -0.0187 -0.2210
 8924SOL    HW138408   0.043   1.253  14.916 -2.8541 -0.0319  0.0429
 8924SOL    HW238409   0.116   1.281  15.047 -1.8993  0.2406  3.0231
 8925SOL     OW38410   3.586   2.252   9.917  0.3714 -0.5914  0.3242
 8925SOL    HW138411   3.565   2.253   9.824 -2.2611 -2.2280  0.9147
 8925SOL    HW238412   3.615   2.162   9.931 -1.3558 -1.0838  0.7447
 8926SOL     OW38413   1.576   3.862  13.549  0.1206 -0.0143 -0.0367
 8926SOL    HW138414   1.482   3.859  13.532 -0.0325  2.5200  0.4039
 8926SOL    HW238415   1.584   3.816  13.632 -2.4533  1.1989  0.8743
 8927SOL     OW38416   0.577   4.359  15.082  0.2226 -0.9361  0.0610
 8927SOL    HW138417   0.605   4.310  15.160 -0.1632  1.9367  1.9981
 8927SOL    HW238418   0.503   4.410  15.114  1.7571  2.2839 -1.4995
 8928SOL     OW38419   0.985   2.066   1.310  0.4731  0.8934  0.1091
 8928SOL    HW138420   1.055   2.078   1.374 -0.0459  1.3348  0.5903
 8928SOL    HW238421   1.028   2.010   1.244 -1.2968  0.3467 -0.5884
 8929SOL     OW38422   0.197   1.162   9.764  0.5128  0.3544  0.4566
 8929SOL    HW138423   0.192   1.099   9.835 -2.4775 -0.5623 -0.5364
 8929SOL    HW238424   0.247   1.234   9.803 -0.5884  1.5868 -0.3658
 8930SOL     OW38425   2.485   3.828   1.893 -0.3185 -0.1472 -0.7426
 8930SOL    HW138426   2.390   3.822   1.904  0.3732 -3.3683  3.5347
 8930SOL    HW238427   2.482   3.889   1.819 -2.8788  0.2425 -0.3263
 8931SOL     OW38428   0.111   0.161   2.389  0.0529 -0.1486  0.0026
 8931SOL    HW138429   0.126   0.195   2.301  1.1335 -2.3689 -0.6586
 8931SOL    HW238430   0.180   0.202   2.441 -1.0155 -0.6143  1.8129
 8932SOL     OW38431   1.839   4.317   1.985  0.1111  0.2029  0.5030
 8932SOL    HW138432   1.758   4.283   2.023  0.3436 -0.5099  0.3661
 8932SOL    HW238433   1.798   4.358   1.909  1.1105  0.6080  0.1851
 8933SOL     OW38434   3.549   0.718   6.958  0.1598 -0.0324  0.0487
 8933SOL    HW138435   3.491   0.793   6.945 -0.8922 -0.6936  1.0582
 8933SOL    HW238436   3.488   0.664   7.008  1.6064 -0.5231  1.2736
 8934SOL     OW38437   4.327   4.635   8.508 -0.1207 -0.0983  0.0047
 8934SOL    HW138438   4.297   4.591   8.587  0.7465  0.1044  0.4424
 8934SOL    HW238439   4.312   4.558   8.453 -1.8915  0.0529  0.2807
 8935SOL     OW38440   3.873   3.602   4.678 -0.7304  0.1887  0.3163
 8935SOL    HW138441   3.820   3.669   4.635  1.0647  0.8870 -0.8136
 8935SOL    HW238442   3.838   3.607   4.767  0.2284 -1.4487  0.7853
 8936SOL     OW38443   4.267   3.792  11.059  0.4833 -0.1992 -0.4098
 8936SOL    HW138444   4.336   3.823  10.999  0.7783  0.8757  0.4847
 8936SOL    HW238445   4.194   3.847  11.030  1.3604  0.8243 -0.6838
 8937SOL     OW38446   1.133   3.073   9.649  0.2130 -0.6792  0.1351
 8937SOL    HW138447   1.046   3.063   9.685 -0.5799 -0.1485 -1.6213
 8937SOL    HW238448   1.179   3.105   9.726  0.8905  0.3387 -0.6914
 8938SOL     OW38449   1.468   1.167  10.506 -0.2402  0.1800  0.4234
 8938SOL    HW138450   1.440   1.255  10.481 -1.4254 -0.5213 -0.7178
 8938SOL    HW238451   1.385   1.121  10.518  0.4776 -1.0544  0.7005
 8939SOL     OW38452   3.829   4.736   1.329  0.0751  0.2143 -0.0349
 8939SOL    HW138453   3.810   0.029   1.241 -0.1632 -1.4681 -0.5693
 8939SOL    HW238454   3.918   4.701   1.323 -0.4247 -1.1153  0.3418
 8940SOL     OW38455   4.627   3.578   7.008  0.5961 -0.0331  0.3082
 8940SOL    HW138456   4.547   3.577   7.060  1.0938  0.1825  1.0862
 8940SOL    HW238457   4.638   3.493   6.966 -1.6286  1.4662 -3.2553
 8941SOL     OW38458   3.864   4.631  14.455  0.3269  0.2423 -0.2985
 8941SOL    HW138459   3.886   4.671  14.371 -0.0844 -0.3594 -0.6949
 8941SOL    HW238460   3.952   4.606  14.484  0.5499  1.5783  0.1624
 8942SOL     OW38461   0.902   3.537   8.365 -0.3027  0.2158  0.5081
 8942SOL    HW138462   0.915   3.507   8.455  0.7018  0.1263  0.3393
 8942SOL    HW238463   0.821   3.508   8.323 -0.3081  1.0895 -0.0787
 8943SOL     OW38464   4.691   1.672   4.132  0.0705  0.3642  0.1201
 8943SOL    HW138465   4.604   1.657   4.170 -0.3761  0.1975 -0.9500
 8943SOL    HW238466   4.678   1.757   4.088  1.7465  0.2577 -0.5652
 8944SOL     OW38467   4.574   4.624   4.983  0.1276 -0.0630  0.0328
 8944SOL    HW138468   4.619   4.657   4.905 -0.3544  0.2066 -0.1287
 8944SOL    HW238469   4.522   4.697   5.015 -0.8209 -0.3471 -0.8841
 8945SOL     OW38470   2.623   1.795   2.664  0.3486 -0.1926  0.0458
 8945SOL    HW138471   2.547   1.852   2.677 -0.8150 -1.7281  0.0047
 8945SOL    HW238472   2.579   1.725   2.616 -0.1264 -0.0452  0.2615
 8946SOL     OW38473   0.510   1.819   5.135  0.0225  0.2458  1.0176
 8946SOL    HW138474   0.415   1.817   5.127  0.3554 -1.9115 -2.5465
 8946SOL    HW238475   0.539   1.736   5.097 -2.2438  0.1860 -0.5665
 8947SOL     OW38476   3.810   3.948   4.948  0.7856  0.0802 -0.1191
 8947SOL    HW138477   3.806   3.868   4.895 -0.2189 -0.3445  0.6150
 8947SOL    HW238478   3.898   3.945   4.987  1.9326  0.1969 -2.6563
 8948SOL     OW38479   2.355   1.066   9.191 -0.4740 -0.1516 -0.0792
 8948SOL    HW138480   2.400   1.149   9.206 -1.7109  1.1546 -3.7002
 8948SOL    HW238481   2.265   1.093   9.210 -0.5436  0.1262 -0.7899
 8949SOL     OW38482   1.651   3.717   2.633 -0.2336  0.2964 -0.4621
 8949SOL    HW138483   1.627   3.668   2.712 -0.8444  0.2296 -0.6803
 8949SOL    HW238484   1.648   3.656   2.559 -1.8528 -1.5272  1.0984
 8950SOL     OW38485   3.238   2.646   8.166  0.1751 -0.2309 -0.0601
 8950SOL    HW138486   3.298   2.721   8.161 -0.0183 -0.0531  0.2777
 8950SOL    HW238487   3.215   2.645   8.259  0.2127  0.3824 -0.0438
 8951SOL     OW38488   3.953   4.390  16.811 -0.0015 -1.0029 -0.0329
 8951SOL    HW138489   3.903   4.310  16.827 -2.8041  1.0294  1.4689
 8951SOL    HW238490   3.948   4.439  16.893  3.1775  0.9223 -0.9868
 8952SOL     OW38491   0.208   4.527  12.004  0.8352  0.1342  0.3372
 8952SOL    HW138492   0.264   4.455  11.975 -0.5624 -0.9253  0.3127
 8952SOL    HW238493   0.238   4.599  11.948  2.1313  0.7458  1.8369
 8953SOL     OW38494   1.089   3.718   4.938  0.1739 -0.2587  0.3580
 8953SOL    HW138495   1.157   3.673   4.988 -1.2819 -1.0842  1.6181
 8953SOL    HW238496   1.137   3.789   4.896  0.1113 -1.0828 -1.0961
 8954SOL     OW38497   4.116   0.327   9.247 -0.1600  0.1081  0.3747
 8954SOL    HW138498   4.118   0.242   9.202  2.6167 -0.3861  1.3967
 8954SOL    HW238499   4.208   0.355   9.250 -0.6042  1.3078  2.6906
 8955SOL     OW38500   3.476   0.813   4.078 -0.3586  0.7480  0.1473
 8955SOL    HW138501   3.391   0.849   4.049 -0.8477  0.3806  1.1488
 8955SOL    HW238502   3.526   0.895   4.073  0.7045  0.1217  0.5927
 8956SOL     OW38503   3.084   3.105   0.587 -0.5689  0.1456 -0.1477
 8956SOL    HW138504   3.042   3.173   0.641  0.0522  2.3230 -2.3949
 8956SOL    HW238505   3.062   3.025   0.634 -1.8118  0.0456 -0.9089
 8957SOL     OW38506   2.503   0.547  17.246  0.5555  0.2179  0.4061
 8957SOL    HW138507   2.471   0.628  17.206  1.9956  1.0346  0.9178
 8957SOL    HW238508   2.596   0.546  17.226  0.3460  0.6014 -0.5815
 8958SOL     OW38509   3.175   1.575   3.978  0.1455 -0.2750 -0.3816
 8958SOL    HW138510   3.217   1.493   3.952  0.4574  0.1032 -1.0902
 8958SOL    HW238511   3.172   1.578   4.073 -0.1253  1.4397 -0.4349
 8959SOL     OW38512   2.569   2.040  14.432 -0.4441  0.0179 -0.4262
 8959SOL    HW138513   2.539   2.131  14.430  1.6313  0.6942  0.0039
 8959SOL    HW238514   2.595   2.021  14.342 -2.0519 -0.0694 -0.8794
 8960SOL     OW38515   1.043   1.063   7.519  0.5883 -0.2643  0.3031
 8960SOL    HW138516   1.039   1.011   7.599  0.5873  0.2154  0.6189
 8960SOL    HW238517   1.016   1.002   7.451  0.3466  1.3311 -1.0464
 8961SOL     OW38518   4.596   1.583   2.806 -0.6470  0.4702 -0.4827
 8961SOL    HW138519   4.600   1.657   2.746 -3.2815  1.5461  0.6573
 8961SOL    HW238520   4.603   1.635   2.887  2.2370 -1.7721  0.7139
 8962SOL     OW38521   3.677   2.869   5.407 -0.2474  0.1058  0.3878
 8962SOL    HW138522   3.699   2.888   5.316 -0.3353 -0.1762  0.3087
 8962SOL    HW238523   3.764   2.863   5.446  1.3976  0.0899 -3.2468
 8963SOL     OW38524   0.299   1.591   9.432  0.1060 -0.1019  0.4722
 8963SOL    HW138525   0.246   1.669   9.421  2.7911  2.0128  2.5624
 8963SOL    HW238526   0.233   1.526   9.459 -0.1638 -0.7351 -1.7373
 8964SOL     OW38527   0.477   2.436  13.942  0.2930  0.0158  0.4768
 8964SOL    HW138528   0.482   2.508  14.005 -1.7739  0.3122  0.3076
 8964SOL    HW238529   0.465   2.355  13.991  0.1112 -0.3219 -0.1312
 8965SOL     OW38530   0.962   3.729   6.968  0.2191 -0.2818 -0.1454
 8965SOL    HW138531   0.907   3.768   7.036  0.0888  0.6873 -0.7999
 8965SOL    HW238532   0.904   3.657   6.944  0.9963 -1.0698  0.3390
 8966SOL     OW38533   3.647   1.852  10.332 -0.1524  0.5589 -0.2217
 8966SOL    HW138534   3.705   1.870  10.406 -0.2368  1.8557 -0.4688
 8966SOL    HW238535   3.697   1.868  10.251 -1.1803 -2.6045 -1.4758
 8967SOL     OW38536   2.403   3.340  11.050 -0.5617 -0.4645 -0.1548
 8967SOL    HW138537   2.338   3.296  10.995  0.4047 -0.3110 -1.4273
 8967SOL    HW238538   2.477   3.317  10.994  1.0742  0.5538  1.5570
 8968SOL     OW38539   2.108   1.408   9.096  0.4772  0.1175  0.0263
 8968SOL    HW138540   2.131   1.485   9.146 -0.5136  0.7296 -0.4520
 8968SOL    HW238541   2.022   1.425   9.056  1.7611  2.5326 -1.6525
 8969SOL     OW38542   2.100   2.416   4.683  0.1063 -0.5025  0.0345
 8969SOL    HW138543   2.153   2.448   4.756  1.0223 -0.0479 -0.8303
 8969SOL    HW238544   2.021   2.465   4.707 -0.1137 -1.3553  1.0503
 8970SOL     OW38545   1.649   0.432   2.532 -0.1037 -0.2098  0.1516
 8970SOL    HW138546   1.717   0.421   2.598  2.1609 -0.0455 -2.1946
 8970SOL    HW238547   1.572   0.381   2.561 -1.2133  0.6656 -1.2694
 8971SOL     OW38548   4.066   0.374   2.926  0.0916 -0.4902 -0.3810
 8971SOL    HW138549   4.120   0.434   2.876 -0.3978  0.8605  0.6801
 8971SOL    HW238550   4.119   0.295   2.917  0.1894 -0.3642 -0.8806
 8972SOL     OW38551   2.859   4.025   3.507  0.8390 -0.5108  0.5434
 8972SOL    HW138552   2.792   4.059   3.566 -0.3652 -1.3512 -0.3659
 8972SOL    HW238553   2.850   3.931   3.517  1.3024 -0.6478 -0.2697
 8973SOL     OW38554   4.388   2.934   0.778  0.2314  0.7226 -0.3932
 8973SOL    HW138555   4.422   2.862   0.831  3.0616  1.8013 -0.7311
 8973SOL    HW238556   4.416   2.913   0.689 -0.0176  3.3620 -1.1146
 8974SOL     OW38557   1.600   1.839   2.987  0.2894  0.1483 -0.4824
 8974SOL    HW138558   1.551   1.922   2.993 -2.4898 -1.5298 -0.0946
 8974SOL    HW238559   1.670   1.865   2.927  2.0152  1.1990  1.9912
 8975SOL     OW38560   1.307   3.752   3.296  0.5254 -0.5479 -1.2333
 8975SOL    HW138561   1.321   3.666   3.256  0.8721 -0.9567 -0.2304
 8975SOL    HW238562   1.254   3.789   3.226  0.1877  2.6456  0.7193
 8976SOL     OW38563   4.552   3.880   4.517 -0.1119 -0.5987 -0.1770
 8976SOL    HW138564   4.609   3.827   4.573 -0.5141 -1.7777 -0.8917
 8976SOL    HW238565   4.510   3.807   4.472 -0.0111 -0.8560  0.1410
 8977SOL     OW38566   1.631   3.172   4.393  0.5323  0.3450 -0.1483
 8977SOL    HW138567   1.570   3.153   4.322  1.6671  2.6360 -1.7600
 8977SOL    HW238568   1.669   3.085   4.398  1.1454  0.7076  1.3916
 8978SOL     OW38569   3.600   3.821   5.325 -0.2607  0.4970  0.4601
 8978SOL    HW138570   3.649   3.840   5.406  0.0759 -0.4192  0.4667
 8978SOL    HW238571   3.665   3.761   5.289 -0.5482 -0.0468  0.8464
 8979SOL     OW38572   3.726   2.493   0.652  0.6167 -0.2717  0.0213
 8979SOL    HW138573   3.716   2.582   0.686 -0.6586 -0.1590 -0.6331
 8979SOL    HW238574   3.633   2.471   0.643  0.7247 -1.1867  1.2751
 8980SOL     OW38575   3.490   4.414  12.820  0.2650 -0.2717  0.1221
 8980SOL    HW138576   3.413   4.470  12.829  0.5457 -0.0242  1.0088
 8980SOL    HW238577   3.462   4.329  12.852  0.0037  0.5491  2.0644
 8981SOL     OW38578   3.125   1.180   4.079 -0.1284  0.2456  0.1007
 8981SOL    HW138579   3.129   1.227   4.162 -0.0101 -1.2074  0.9203
 8981SOL    HW238580   3.035   1.182   4.046 -0.2166 -1.0567  0.2313
 8982SOL     OW38581   0.994   1.202   4.501  0.1555 -0.6743  0.4947
 8982SOL    HW138582   0.899   1.206   4.495  0.1716 -0.3946  0.4263
 8982SOL    HW238583   1.017   1.199   4.594 -0.8363  0.8975  0.7987
 8983SOL     OW38584   4.400   0.122   4.400 -0.1114 -0.5081 -0.4961
 8983SOL    HW138585   4.317   0.120   4.353 -0.4242  0.3470  0.0133
 8983SOL    HW238586   4.377   0.174   4.477 -0.0120  2.4194 -2.4180
 8984SOL     OW38587   0.594   0.212   5.116  0.5582  0.4606  0.2196
 8984SOL    HW138588   0.562   0.200   5.206 -1.2206 -3.5356 -0.9482
 8984SOL    HW238589   0.515   0.239   5.070  1.1125 -0.1005 -1.0638
 8985SOL     OW38590   2.310   2.968   6.531 -0.4973  0.1904 -0.7312
 8985SOL    HW138591   2.370   2.995   6.601 -1.3088 -1.4234  0.5960
 8985SOL    HW238592   2.314   3.052   6.486  0.5545 -0.1313 -1.2333
 8986SOL     OW38593   4.661   2.100   6.273  0.2935  0.7643 -0.5195
 8986SOL    HW138594   0.018   2.117   6.275  0.5693 -1.1624  2.3332
 8986SOL    HW238595   4.637   2.193   6.264  0.0089  0.7020 -0.4089
 8987SOL     OW38596   4.622   2.663   3.237 -0.0664  0.1501  0.6846
 8987SOL    HW138597   4.558   2.656   3.167  0.1554 -1.7842  0.6766
 8987SOL    HW238598   4.565   2.699   3.305  0.1987 -2.3555  2.2127
 8988SOL     OW38599   0.004   4.268   2.466  0.4990  0.6150  0.6658
 8988SOL    HW138600   4.729   4.285   2.559  1.9636  1.8437  0.6619
 8988SOL    HW238601   4.659   4.224   2.450  2.3209 -2.1538 -1.2160
 8989SOL     OW38602   3.915   3.033   2.733 -0.2257 -0.3490  0.0557
 8989SOL    HW138603   3.953   3.120   2.743  2.6471 -1.5054 -0.9532
 8989SOL    HW238604   3.973   2.998   2.665 -1.1413 -1.6411 -0.0704
 8990SOL     OW38605   3.339   3.900   5.611  0.0801  0.7206 -0.3426
 8990SOL    HW138606   3.394   3.830   5.646  2.4307  2.3105 -0.7963
 8990SOL    HW238607   3.265   3.889   5.670  1.3128 -0.0484  1.0646
 8991SOL     OW38608   3.196   3.625   3.390 -0.3425  0.0973  0.4605
 8991SOL    HW138609   3.275   3.587   3.353  0.6548  0.5674  2.1089
 8991SOL    HW238610   3.249   3.662   3.460 -0.2788 -0.8084  0.8825
 8992SOL     OW38611   3.794   1.405  15.504 -0.0405 -0.0111  0.0963
 8992SOL    HW138612   3.807   1.316  15.471 -1.2601  0.5756 -1.9796
 8992SOL    HW238613   3.863   1.456  15.462  0.8399 -1.1676  0.1207
 8993SOL     OW38614   0.505   2.503   3.551  0.1406  0.3489 -0.5799
 8993SOL    HW138615   0.559   2.500   3.473 -1.2375 -1.7927 -1.4506
 8993SOL    HW238616   0.553   2.432   3.594 -0.8097 -0.2522 -0.5108
 8994SOL     OW38617   1.796   3.315   9.532  0.5214 -0.2874  0.2981
 8994SOL    HW138618   1.840   3.252   9.476  1.3267  0.8856 -0.3906
 8994SOL    HW238619   1.705   3.293   9.509  0.4171 -0.3398  0.7579
 8995SOL     OW38620   0.759   2.464   5.023  0.2821 -0.2960 -0.4387
 8995SOL    HW138621   0.727   2.551   5.045 -0.5342 -0.6477 -0.2175
 8995SOL    HW238622   0.849   2.484   4.997 -0.1318  0.1912 -1.5074
 8996SOL     OW38623   0.197   0.388   0.534  0.3966  0.1514  0.3024
 8996SOL    HW138624   0.252   0.310   0.539 -1.6079 -1.0960  3.1841
 8996SOL    HW238625   0.220   0.441   0.610  0.4354  1.2053 -0.4473
 8997SOL     OW38626   4.565   3.961  10.119 -1.1391 -0.2734  0.1128
 8997SOL    HW138627   4.612   3.944  10.200 -2.5982  1.8138  1.3977
 8997SOL    HW238628   4.526   3.877  10.094 -0.8422 -0.3680 -0.0398
 8998SOL     OW38629   1.843   1.115   1.700  0.1713  0.0897  0.3255
 8998SOL    HW138630   1.773   1.136   1.762 -0.2166 -0.7258  0.1744
 8998SOL    HW238631   1.925   1.147   1.738  0.9427 -1.3210 -0.1582
 8999SOL     OW38632   3.731   3.314   7.211  0.0276 -0.2221  0.3950
 8999SOL    HW138633   3.807   3.340   7.159 -0.9522 -1.1482 -1.4968
 8999SOL    HW238634   3.688   3.394   7.241  0.2105 -0.3667  1.0521
 9000SOL     OW38635   3.287   4.425   1.341  0.9087  0.2188  0.0560
 9000SOL    HW138636   3.240   4.353   1.297  1.3804  0.1359 -0.3133
 9000SOL    HW238637   3.310   4.382   1.423 -0.0065 -1.2081 -0.4267
 9001SOL     OW38638   2.005   3.666   8.544  0.2437 -0.3452 -0.4896
 9001SOL    HW138639   1.977   3.757   8.550 -0.9097 -0.6850 -0.7001
 9001SOL    HW238640   2.039   3.653   8.633 -2.2348 -1.4494  0.3129
 9002SOL     OW38641   2.446   3.296   1.624 -0.1879  0.2003  0.5042
 9002SOL    HW138642   2.387   3.367   1.598  0.8798  1.3938  1.3441
 9002SOL    HW238643   2.512   3.339   1.678 -0.3205 -0.6321  1.3385
 9003SOL     OW38644   3.119   3.098   6.093  0.5878  0.6385  0.1474
 9003SOL    HW138645   3.180   3.031   6.123 -0.2529 -0.3892 -0.4509
 9003SOL    HW238646   3.049   3.095   6.158 -0.1281 -2.2050 -0.7661
 9004SOL     OW38647   3.598   1.721   9.956 -0.3155 -0.0381  0.4189
 9004SOL    HW138648   3.559   1.802   9.989 -1.6659  0.3173 -2.0018
 9004SOL    HW238649   3.531   1.659   9.985  0.4030 -0.6332  0.7871
 9005SOL     OW38650   2.257   1.088   2.114  0.2295 -0.6570 -0.0433
 9005SOL    HW138651   2.323   1.018   2.105  1.1103  0.0485  0.8795
 9005SOL    HW238652   2.229   1.117   2.028 -1.2517  1.2546  1.0875
 9006SOL     OW38653   2.533   1.820  16.012 -0.0272  0.1712  0.6383
 9006SOL    HW138654   2.505   1.899  15.965 -1.2989 -0.7655 -0.1862
 9006SOL    HW238655   2.548   1.764  15.936 -1.3456 -2.0598  2.0130
 9007SOL     OW38656   0.598   2.474   7.272  0.6862  0.2782 -0.0525
 9007SOL    HW138657   0.540   2.535   7.227 -0.2351 -1.8177 -1.7231
 9007SOL    HW238658   0.670   2.459   7.210  0.0928  1.8480 -1.1215
 9008SOL     OW38659   1.993   3.863  15.015  0.3241 -0.0280  0.9150
 9008SOL    HW138660   2.037   3.903  15.090  0.6434  1.0356  0.1595
 9008SOL    HW238661   1.916   3.829  15.059 -0.6881  2.6129  1.1838
 9009SOL     OW38662   3.342   4.468   2.938 -0.0725 -0.0018 -0.2420
 9009SOL    HW138663   3.384   4.503   2.859 -0.6389  0.7366 -0.2174
 9009SOL    HW238664   3.345   4.541   3.000 -1.1648 -0.1443 -0.0295
 9010SOL     OW38665   3.474   4.475   7.618  0.0593 -0.8686  0.4779
 9010SOL    HW138666   3.383   4.475   7.589  0.0772  1.1788  0.4216
 9010SOL    HW238667   3.489   4.568   7.636 -0.6088 -0.7058  0.1944
 9011SOL     OW38668   2.673   3.412   5.619 -0.0046 -0.2790  0.4843
 9011SOL    HW138669   2.726   3.345   5.660  1.0009 -0.9095 -1.8347
 9011SOL    HW238670   2.653   3.475   5.688  1.5625  1.1141 -0.3248
 9012SOL     OW38671   1.993   3.875   4.593 -0.0488 -0.0008  0.1794
 9012SOL    HW138672   1.965   3.791   4.629 -1.6902  0.0595 -0.9429
 9012SOL    HW238673   2.029   3.917   4.671  2.5205 -4.1649  1.2266
 9013SOL     OW38674   3.930   0.919   7.623  0.5391  0.3988  0.9211
 9013SOL    HW138675   3.903   0.847   7.567  1.6398  0.6505  0.0784
 9013SOL    HW238676   3.844   0.953   7.648  0.0500 -0.9679  1.0919
 9014SOL     OW38677   2.646   1.896  11.879 -0.5692 -0.6295 -0.2356
 9014SOL    HW138678   2.660   1.897  11.974 -0.6933  1.4865 -0.2287
 9014SOL    HW238679   2.608   1.809  11.881 -1.1566 -0.3099  2.8874
 9015SOL     OW38680   2.087   1.576   4.990 -0.5303  0.5044  0.0693
 9015SOL    HW138681   2.087   1.661   4.946 -0.4932 -0.6833 -2.2377
 9015SOL    HW238682   2.171   1.532   4.979 -0.5698  0.4962 -0.1959
 9016SOL     OW38683   1.086   2.813  16.950  0.9563 -0.3123  0.0133
 9016SOL    HW138684   1.112   2.724  16.927 -1.2592 -0.4836 -1.8480
 9016SOL    HW238685   1.055   2.797  17.040 -0.8575 -2.5907 -1.0104
 9017SOL     OW38686   4.292   0.632   8.731 -0.0874  0.7538  0.5852
 9017SOL    HW138687   4.336   0.605   8.811 -1.1376 -1.8502  0.2741
 9017SOL    HW238688   4.300   0.551   8.681 -0.2783  1.3451 -0.4075
 9018SOL     OW38689   3.607   2.135   3.832 -0.3405 -0.1097 -0.4822
 9018SOL    HW138690   3.676   2.181   3.785 -1.2881  1.7907  0.0008
 9018SOL    HW238691   3.525   2.172   3.799 -0.5937 -1.9859 -1.9624
 9019SOL     OW38692   2.020   0.189   3.074 -0.6821  0.0894  0.0962
 9019SOL    HW138693   1.998   0.282   3.068 -1.3076 -0.0962 -0.4984
 9019SOL    HW238694   1.963   0.164   3.147 -0.3696 -2.2495 -0.4516
 9020SOL     OW38695   1.117   0.556   7.103 -0.1363  0.4198  0.2770
 9020SOL    HW138696   1.061   0.566   7.180  0.1685  0.7469  0.4615
 9020SOL    HW238697   1.068   0.601   7.034 -1.5193 -1.9009 -0.2558
 9021SOL     OW38698   3.275   4.054   2.931  0.4323  0.3950 -0.0032
 9021SOL    HW138699   3.264   4.047   3.026  0.0821 -0.8272 -0.1357
 9021SOL    HW238700   3.184   4.043   2.906  0.4238  0.0977  0.1497
 9022SOL     OW38701   3.802   3.266   3.478  0.2308 -0.1154 -0.5744
 9022SOL    HW138702   3.827   3.210   3.551 -1.1106 -0.0816 -0.0845
 9022SOL    HW238703   3.890   3.302   3.467 -0.1818  1.2991  0.7660
 9023SOL     OW38704   1.532   1.612   2.861 -0.2811  0.2920 -1.0132
 9023SOL    HW138705   1.571   1.688   2.904  0.3775  0.6602 -2.2482
 9023SOL    HW238706   1.586   1.552   2.911 -0.4729 -1.0903 -2.4479
 9024SOL     OW38707   3.073   3.844   8.127 -0.3500  0.8057 -0.5060
 9024SOL    HW138708   3.068   3.758   8.085  1.1841  0.1603  0.6280
 9024SOL    HW238709   2.986   3.858   8.165 -0.4354 -1.9397  0.2981
 9025SOL     OW38710   2.584   2.082  17.600 -0.1954 -0.1529  0.2390
 9025SOL    HW138711   2.659   2.141  17.613 -0.2146  0.1232 -0.9136
 9025SOL    HW238712   2.613   2.003  17.645  0.3086 -0.4895 -0.6866
 9026SOL     OW38713   3.668   0.005   1.572 -0.3198  0.2179 -0.0341
 9026SOL    HW138714   3.601   0.070   1.551  0.1534  0.9489  0.7336
 9026SOL    HW238715   3.724   0.005   1.494 -1.5729  3.0106 -0.9376
 9027SOL     OW38716   1.018   3.589   7.984 -0.2288 -0.6589  0.3958
 9027SOL    HW138717   0.934   3.627   8.008 -0.6974 -1.7341  0.4492
 9027SOL    HW238718   0.990   3.573   7.894  0.0778 -0.0642  0.1963
 9028SOL     OW38719   3.959   3.411  15.849 -0.0203  0.0888 -1.0776
 9028SOL    HW138720   3.901   3.479  15.814 -0.7931 -0.4744 -0.8984
 9028SOL    HW238721   4.035   3.416  15.791  1.5397  2.1420  1.1837
 9029SOL     OW38722   3.453   0.325   6.336 -0.3242 -0.3567 -0.4422
 9029SOL    HW138723   3.421   0.260   6.274  1.2301  0.8865 -2.5599
 9029SOL    HW238724   3.375   0.367   6.373 -0.2766 -0.9773  0.3393
 9030SOL     OW38725   0.763   1.981   1.787  0.3252 -0.2051  0.1415
 9030SOL    HW138726   0.706   1.958   1.713  3.2746 -3.6996 -1.0275
 9030SOL    HW238727   0.755   2.076   1.783 -0.5126 -0.2952 -0.4042
 9031SOL     OW38728   2.874   1.645   8.876 -0.5187  0.2004  0.1045
 9031SOL    HW138729   2.956   1.658   8.828 -1.2672  0.9200 -0.9735
 9031SOL    HW238730   2.893   1.575   8.938 -1.2778 -1.2023 -1.2513
 9032SOL     OW38731   2.375   3.843  17.539 -0.0552  0.2397 -0.2822
 9032SOL    HW138732   2.455   3.876  17.500 -0.1453 -0.9615 -1.4883
 9032SOL    HW238733   2.353   3.910  17.603  0.0011  0.9241 -0.9882
 9033SOL     OW38734   1.357   0.905   4.314  0.6794 -0.4821 -0.6638
 9033SOL    HW138735   1.306   0.899   4.395 -0.3807  0.2649 -1.2710
 9033SOL    HW238736   1.288   0.926   4.251 -0.0607  1.8773  0.9144
 9034SOL     OW38737   2.489   0.403  10.067  0.3504  1.0095 -0.4328
 9034SOL    HW138738   2.469   0.493  10.040 -0.8384  0.7346 -0.4773
 9034SOL    HW238739   2.531   0.364   9.991 -0.2421  2.4652 -1.4980
 9035SOL     OW38740   2.850   2.501   3.755 -0.7200 -0.1965  0.4219
 9035SOL    HW138741   2.913   2.436   3.722 -1.8040 -2.0790  2.0785
 9035SOL    HW238742   2.856   2.458   3.840 -0.6752  0.0689  0.5498
 9036SOL     OW38743   3.431   4.171   6.488 -0.5100 -0.2979 -0.0450
 9036SOL    HW138744   3.356   4.204   6.438 -1.8918 -2.7818  0.3464
 9036SOL    HW238745   3.435   4.080   6.456  3.0670 -0.2978  0.4311
 9037SOL     OW38746   0.908   1.129  13.446  0.1198  0.2115  0.1668
 9037SOL    HW138747   0.852   1.205  13.460  0.7720  0.8184 -0.5252
 9037SOL    HW238748   0.993   1.167  13.426  0.0890  1.1482  1.8459
 9038SOL     OW38749   0.828   0.442  12.375  0.6821  0.1096 -0.0332
 9038SOL    HW138750   0.824   0.498  12.453  0.7880 -0.0906  0.1177
 9038SOL    HW238751   0.921   0.450  12.353  0.0431 -1.5387 -3.3342
 9039SOL     OW38752   3.155   2.585   2.210  0.5125 -0.2293  0.3396
 9039SOL    HW138753   3.245   2.590   2.180 -0.7284  2.0367 -3.0091
 9039SOL    HW238754   3.108   2.599   2.128 -0.4639 -1.7515  0.6421
 9040SOL     OW38755   3.918   4.449   4.762  0.1651  0.1846 -0.4162
 9040SOL    HW138756   4.005   4.423   4.731  0.6180  0.5655  0.5309
 9040SOL    HW238757   3.901   4.374   4.820 -1.2891  0.8082 -0.0314
 9041SOL     OW38758   2.039   1.342   8.485 -0.4765 -0.4424  0.3094
 9041SOL    HW138759   2.018   1.359   8.393 -1.2537  2.1594  0.9802
 9041SOL    HW238760   2.107   1.408   8.497 -2.1203  1.2881  0.1188
 9042SOL     OW38761   0.718   4.675   3.062 -0.3136 -0.6068  0.0467
 9042SOL    HW138762   0.772   0.016   3.059  0.2966 -1.0007  0.6396
 9042SOL    HW238763   0.711   4.654   3.156 -1.3448 -0.8532 -0.0789
 9043SOL     OW38764   0.280   3.241   5.102  0.1202 -0.3064  0.6396
 9043SOL    HW138765   0.311   3.306   5.164 -0.5184  2.9429 -2.4497
 9043SOL    HW238766   0.217   3.292   5.052  0.6693 -0.6823 -0.4470
 9044SOL     OW38767   0.604   2.098  14.308 -0.6539  0.2774  0.4306
 9044SOL    HW138768   0.640   2.142  14.385  1.4745 -0.3628 -0.1914
 9044SOL    HW238769   0.517   2.099  14.347 -1.0094 -1.6146 -0.3060
 9045SOL     OW38770   4.466   3.889   9.770  0.1561 -0.0843 -0.2370
 9045SOL    HW138771   4.464   3.818   9.835  0.8227  1.4005  1.3855
 9045SOL    HW238772   4.498   3.837   9.696  0.3970  2.3573 -1.8531
 9046SOL     OW38773   3.402   1.426  12.283  0.2600 -0.3204  0.0616
 9046SOL    HW138774   3.364   1.513  12.268 -2.0860 -1.3831 -0.0555
 9046SOL    HW238775   3.362   1.393  12.363 -0.7621 -0.6951 -0.6051
 9047SOL     OW38776   0.369   1.337   9.945 -0.3547  0.1247  0.5088
 9047SOL    HW138777   0.336   1.395  10.014  0.3023  1.7131 -0.5361
 9047SOL    HW238778   0.461   1.338   9.972 -0.3239 -1.2533  0.4503
 9048SOL     OW38779   1.990   1.927  10.852 -0.3164 -0.2548 -0.0273
 9048SOL    HW138780   2.035   1.852  10.890  0.8305 -0.2371 -1.3284
 9048SOL    HW238781   1.899   1.897  10.860 -1.2529  3.4727  2.8219
 9049SOL     OW38782   1.840   2.565  13.309 -0.5963  0.0979 -0.5677
 9049SOL    HW138783   1.772   2.631  13.297  1.6447  2.3011 -1.2371
 9049SOL    HW238784   1.894   2.572  13.230 -0.1085  1.2156 -0.1464
 9050SOL     OW38785   3.560   1.630   6.428  0.0911  0.5469  0.2666
 9050SOL    HW138786   3.555   1.575   6.350  2.5112  0.6516  0.0194
 9050SOL    HW238787   3.646   1.608   6.465  1.3370  2.4146 -1.5145
 9051SOL     OW38788   1.521   3.105   2.524 -0.2344  0.1830 -0.0252
 9051SOL    HW138789   1.596   3.165   2.525 -0.8084  0.9020 -0.8947
 9051SOL    HW238790   1.479   3.133   2.442 -2.8671 -0.5539  1.0836
 9052SOL     OW38791   4.400   1.448   3.959 -0.3955  0.0522  0.1202
 9052SOL    HW138792   4.427   1.466   3.869 -0.3198  0.5651  0.2457
 9052SOL    HW238793   4.308   1.468   3.940 -0.1596  0.2771 -0.8038
 9053SOL     OW38794   0.027   0.078  11.772 -0.1853  0.1010 -0.4609
 9053SOL    HW138795   0.034   0.082  11.867  0.8787  1.0077 -0.5667
 9053SOL    HW238796   0.117   0.102  11.749 -0.7791 -0.3465 -3.3173
 9054SOL     OW38797   1.751   0.081   7.713  0.1998 -0.3268  0.3403
 9054SOL    HW138798   1.742   0.112   7.803  0.8372  0.4559  0.1355
 9054SOL    HW238799   1.826   0.132   7.683  1.6150 -2.1432  0.7442
 9055SOL     OW38800   2.919   1.426  11.184  0.5831  0.3577  0.2493
 9055SOL    HW138801   3.005   1.443  11.147  0.9316 -2.5795 -0.3657
 9055SOL    HW238802   2.918   1.483  11.260  1.0574 -0.9713  1.2534
 9056SOL     OW38803   2.370   3.242  11.889  0.5607  0.0640  0.0868
 9056SOL    HW138804   2.380   3.332  11.860  0.4715  0.0890  0.1333
 9056SOL    HW238805   2.278   3.227  11.909  0.8925 -2.1330  0.0136
 9057SOL     OW38806   1.148   0.832   6.077 -0.1776 -0.1951  0.1822
 9057SOL    HW138807   1.114   0.747   6.105  0.4168 -0.3860  0.3231
 9057SOL    HW238808   1.072   0.878   6.042  0.5611  0.3499 -0.7255
 9058SOL     OW38809   4.191   2.560   8.061 -0.4019 -0.4052  0.3900
 9058SOL    HW138810   4.260   2.507   8.021 -0.2776  0.2905 -0.2981
 9058SOL    HW238811   4.236   2.639   8.090  0.4234 -1.1734  1.1937
 9059SOL     OW38812   2.100   4.696   5.892  0.1427  0.0314 -0.2885
 9059SOL    HW138813   2.137   4.647   5.819 -1.5027 -0.9551 -0.4848
 9059SOL    HW238814   2.171   4.732   5.944 -1.3571  0.8103  1.2192
 9060SOL     OW38815   2.747   4.221   0.028  0.2093  0.5659  0.8043
 9060SOL    HW138816   2.802   4.276   0.085  0.8659  1.7639 -0.9981
 9060SOL    HW238817   2.792   4.222  17.693 -1.2071 -1.0063  0.0316
 9061SOL     OW38818   3.265   3.881   1.931 -0.7810  0.2621 -0.2883
 9061SOL    HW138819   3.348   3.839   1.955  0.4966  2.2969 -1.1328
 9061SOL    HW238820   3.202   3.809   1.929 -0.6848  0.1384  1.5862
 9062SOL     OW38821   2.629   1.177   0.970 -0.3974 -0.2385  0.4314
 9062SOL    HW138822   2.641   1.091   1.010 -0.7403 -0.2186  0.5747
 9062SOL    HW238823   2.548   1.167   0.919  0.5535 -2.4090 -0.6761
 9063SOL     OW38824   2.809   0.142  14.212 -0.6805  0.2050 -0.4099
 9063SOL    HW138825   2.811   0.090  14.293  2.4238  1.1865  0.1235
 9063SOL    HW238826   2.852   0.219  14.250 -2.3173  0.7756  0.3075
 9064SOL     OW38827   0.708   0.941  15.070 -0.1711 -0.2030  0.2507
 9064SOL    HW138828   0.652   0.865  15.088 -3.3009  1.4393 -2.5274
 9064SOL    HW238829   0.718   0.927  14.976  0.8089 -1.1856  0.5077
 9065SOL     OW38830   4.195   2.306   7.285  0.2748  0.4570  0.0485
 9065SOL    HW138831   4.123   2.369   7.285  0.1295  0.2906 -0.3055
 9065SOL    HW238832   4.214   2.285   7.376 -2.1030  1.4432  0.7649
 9066SOL     OW38833   3.285   1.895   2.185  0.2162  0.0728 -0.0706
 9066SOL    HW138834   3.329   1.821   2.228 -0.8312 -0.3066  0.3318
 9066SOL    HW238835   3.219   1.845   2.138 -0.3140 -0.6558  1.4473
 9067SOL     OW38836   2.947   3.098   3.681 -0.5536  0.2522 -0.3763
 9067SOL    HW138837   2.923   3.056   3.764  2.8306  2.0352  1.4597
 9067SOL    HW238838   3.006   3.031   3.646  2.3006  1.5627  2.0091
 9068SOL     OW38839   3.683   4.733  17.674  0.2385  0.0582  0.2156
 9068SOL    HW138840   3.630   4.654  17.678  1.6944 -0.9859 -1.3477
 9068SOL    HW238841   3.758   4.715  17.731 -0.6275  1.5228  1.7976
 9069SOL     OW38842   4.476   4.500  17.083  0.3307 -0.3042 -0.4470
 9069SOL    HW138843   4.472   4.595  17.100 -0.7183  0.0113 -2.4028
 9069SOL    HW238844   4.541   4.494  17.013 -0.6833 -0.0482 -1.4256
 9070SOL     OW38845   2.998   4.295   5.854 -0.2326  0.1421  0.9207
 9070SOL    HW138846   2.981   4.384   5.822  0.4126 -0.1891 -0.3301
 9070SOL    HW238847   3.090   4.277   5.839 -0.1543  1.8350 -0.6848
 9071SOL     OW38848   2.396   3.799   9.204  0.2810  0.3660 -0.0648
 9071SOL    HW138849   2.341   3.811   9.126  1.4402 -1.2876 -1.1380
 9071SOL    HW238850   2.360   3.871   9.256 -2.7128  0.5446 -2.4001
 9072SOL     OW38851   0.050   0.202   5.829  0.5500 -0.3314 -0.1240
 9072SOL    HW138852   0.022   0.117   5.862 -0.4640  0.5688  1.2802
 9072SOL    HW238853   0.064   0.270   5.895 -1.0710 -1.3678  1.2463
 9073SOL     OW38854   3.397   2.380   8.120  0.1432 -0.3465 -0.3368
 9073SOL    HW138855   3.406   2.411   8.210 -1.0255  1.7933 -0.9486
 9073SOL    HW238856   3.337   2.449   8.091 -0.3215 -0.0034  1.4493
 9074SOL     OW38857   0.376   3.385   7.285 -0.5600  0.3880  0.7657
 9074SOL    HW138858   0.404   3.294   7.283 -2.2743 -0.0918 -1.1781
 9074SOL    HW238859   0.382   3.396   7.380  0.7158 -1.6334  0.9191
 9075SOL     OW38860   2.947   4.359  13.329  0.5784 -0.3740  0.2617
 9075SOL    HW138861   2.910   4.383  13.414 -2.1742 -0.2911 -0.9404
 9075SOL    HW238862   3.035   4.329  13.351  0.9907  1.4385  1.1172
 9076SOL     OW38863   4.240   4.015   9.667  0.0269  0.5688 -0.1127
 9076SOL    HW138864   4.311   3.962   9.705 -0.9248  0.2285  1.2008
 9076SOL    HW238865   4.170   4.001   9.731  0.4970 -0.0945  0.2667
 9077SOL     OW38866   0.350   2.582   1.706 -0.0160  0.2161  0.2604
 9077SOL    HW138867   0.402   2.656   1.740 -1.6830  1.0934  0.9393
 9077SOL    HW238868   0.281   2.632   1.662  1.3485  0.1147 -1.9459
 9078SOL     OW38869   3.909   0.697   7.324 -0.3843  0.0901  0.6142
 9078SOL    HW138870   3.991   0.650   7.338  0.2167  0.9188 -0.1753
 9078SOL    HW238871   3.848   0.636   7.368  0.0773 -1.9466 -1.5711
 9079SOL     OW38872   1.835   2.481   4.162  0.1202 -0.0303  0.0638
 9079SOL    HW138873   1.791   2.518   4.086 -3.2864 -0.9421  1.5829
 9079SOL    HW238874   1.899   2.423   4.119  0.4302 -0.8731  1.6533
 9080SOL     OW38875   1.641   2.750   2.254 -0.7706  0.2167  0.5477
 9080SOL    HW138876   1.695   2.673   2.237 -1.7537  0.1142 -2.0328
 9080SOL    HW238877   1.654   2.786   2.166  0.2274 -1.2980  0.0791
 9081SOL     OW38878   2.652   3.596   8.611 -0.2709 -0.3333 -0.4846
 9081SOL    HW138879   2.594   3.643   8.550 -0.0637  1.1439  0.4516
 9081SOL    HW238880   2.731   3.649   8.609  0.8220 -1.9398  0.0931
 9082SOL     OW38881   2.896   2.765   7.174  0.0511  0.0685 -0.2610
 9082SOL    HW138882   2.940   2.850   7.183 -0.8274  0.4752  0.1613
 9082SOL    HW238883   2.971   2.708   7.156  0.1938  0.6009 -1.3309
 9083SOL     OW38884   1.117   1.432   7.077  0.2215 -0.0000  0.0161
 9083SOL    HW138885   1.093   1.366   7.142  3.2977  1.0770  2.2365
 9083SOL    HW238886   1.191   1.384   7.037  1.3203  0.6462  1.2723
 9084SOL     OW38887   1.656   1.839  10.055 -0.0029  0.2067 -0.7376
 9084SOL    HW138888   1.572   1.856  10.096  0.3761  1.1918 -0.3657
 9084SOL    HW238889   1.632   1.807   9.968 -0.8587  0.7000 -0.6779
 9085SOL     OW38890   4.597   3.934   7.387 -0.3753  0.2756 -0.2425
 9085SOL    HW138891   4.589   3.920   7.292 -0.5501 -0.4618 -0.1241
 9085SOL    HW238892   4.690   3.952   7.398 -0.4895  1.4729 -1.2373
 9086SOL     OW38893   1.601   4.410   2.810 -0.3682  0.2399 -0.1258
 9086SOL    HW138894   1.507   4.391   2.807 -0.2974 -0.3791  1.7297
 9086SOL    HW238895   1.620   4.349   2.882  0.0795 -1.8033 -1.9594
 9087SOL     OW38896   1.812   2.491   5.053 -0.0184 -0.4997 -0.7600
 9087SOL    HW138897   1.756   2.531   5.119 -0.8146 -0.5593 -1.4036
 9087SOL    HW238898   1.828   2.405   5.093 -2.9375  0.0077  1.5072
 9088SOL     OW38899   0.174   3.866  14.812  0.2056 -0.2886 -0.0761
 9088SOL    HW138900   0.200   3.863  14.904 -1.6827 -0.7864  0.4467
 9088SOL    HW238901   0.225   3.788  14.790  0.7469 -0.1873  0.8219
 9089SOL     OW38902   0.732   1.302   2.142  0.1875 -0.0807 -0.0569
 9089SOL    HW138903   0.727   1.397   2.151  1.1605 -0.0268 -0.1051
 9089SOL    HW238904   0.769   1.288   2.054 -1.1856 -0.7914 -0.5246
 9090SOL     OW38905   4.264   3.326   4.798  0.2248  0.1848  0.3622
 9090SOL    HW138906   4.279   3.249   4.853  0.9613  1.6492  2.2035
 9090SOL    HW238907   4.351   3.353   4.771  1.2904 -3.0851  0.5615
 9091SOL     OW38908   1.618   1.289   6.712 -0.7003  0.3403  0.7374
 9091SOL    HW138909   1.539   1.242   6.685 -0.2732 -1.3631  2.4802
 9091SOL    HW238910   1.662   1.321   6.634  0.9163 -0.7547  1.2064
 9092SOL     OW38911   2.983   2.173   4.859 -0.5657 -0.0755 -0.2169
 9092SOL    HW138912   3.011   2.238   4.924  0.1200  1.5503 -2.1428
 9092SOL    HW238913   2.982   2.227   4.780  2.8139 -1.6669 -1.3486
 9093SOL     OW38914   4.284   1.493   3.296 -0.4416  0.1556 -0.0553
 9093SOL    HW138915   4.230   1.415   3.306  0.2972 -0.0724  2.0837
 9093SOL    HW238916   4.229   1.560   3.337  1.9254  0.8646  1.9552
 9094SOL     OW38917   2.772   1.165   0.515  0.0466 -0.3392  0.1164
 9094SOL    HW138918   2.760   1.097   0.581 -1.1433 -0.2289  0.0088
 9094SOL    HW238919   2.818   1.119   0.445  0.3605  0.4869 -0.2193
 9095SOL     OW38920   2.374   3.140   5.609  0.1519  0.1590 -0.6914
 9095SOL    HW138921   2.453   3.115   5.562 -0.0819  0.7122 -1.3688
 9095SOL    HW238922   2.405   3.206   5.671 -0.6371  0.7650 -0.9509
 9096SOL     OW38923   1.409   4.393   0.631 -0.0546 -0.1493  0.1882
 9096SOL    HW138924   1.349   4.424   0.563  1.0728  1.3378 -0.1388
 9096SOL    HW238925   1.429   4.470   0.685  0.8320 -0.8700  0.8785
 9097SOL     OW38926   4.268   1.829  14.824  0.3144 -0.2781  0.0581
 9097SOL    HW138927   4.226   1.864  14.745  2.8400  1.0949 -0.6518
 9097SOL    HW238928   4.319   1.906  14.844  1.3322 -1.6229  2.5467
 9098SOL     OW38929   1.400   2.322   3.238  0.1511  0.2185 -0.2240
 9098SOL    HW138930   1.403   2.234   3.275  1.1171  0.3776  0.0743
 9098SOL    HW238931   1.318   2.343   3.282  0.4121  1.1160 -0.1678
 9099SOL     OW38932   3.328   4.128   4.874 -0.2856 -0.4341 -0.5881
 9099SOL    HW138933   3.239   4.143   4.841  0.2136  2.2927 -0.6869
 9099SOL    HW238934   3.337   4.203   4.932 -2.9697  0.5743 -1.4371
 9100SOL     OW38935   1.361   2.944   3.674  0.0476 -0.3213  0.1785
 9100SOL    HW138936   1.392   2.881   3.610 -0.3960  0.9582 -1.2958
 9100SOL    HW238937   1.445   2.965   3.713  0.9222 -1.8313 -0.8902
 9101SOL     OW38938   3.176   1.102   3.538 -0.3709  0.1164  0.1949
 9101SOL    HW138939   3.196   1.036   3.472  0.9244  0.6063  0.0977
 9101SOL    HW238940   3.115   1.158   3.491  0.8195 -0.3900 -1.9435
 9102SOL     OW38941   3.275   0.413   5.088  0.4670 -0.3017  0.1793
 9102SOL    HW138942   3.261   0.502   5.120 -1.2712 -1.2065  2.0202
 9102SOL    HW238943   3.206   0.406   5.022  1.7754  1.1306 -1.3160
 9103SOL     OW38944   1.955   1.390  12.447  0.8294  0.4405 -0.3388
 9103SOL    HW138945   1.931   1.310  12.494  0.7471 -0.5652 -2.0932
 9103SOL    HW238946   1.981   1.346  12.366 -0.3990 -0.5453 -0.1932
 9104SOL     OW38947   1.599   3.234   0.475  0.2581 -0.5720  0.2259
 9104SOL    HW138948   1.594   3.165   0.409  1.9798 -0.9316  0.4933
 9104SOL    HW238949   1.693   3.240   0.493  0.0476  3.2859  0.1926
 9105SOL     OW38950   3.521   4.407  11.656 -0.0910  0.2819  0.5446
 9105SOL    HW138951   3.528   4.335  11.720  2.9801 -1.9011 -2.2145
 9105SOL    HW238952   3.431   4.401  11.626  0.1769  0.0387 -0.2067
 9106SOL     OW38953   3.141   4.522   8.145  0.2407  0.5467  0.0926
 9106SOL    HW138954   3.049   4.497   8.133  0.4186 -0.5026  0.8803
 9106SOL    HW238955   3.174   4.511   8.056  2.2934  3.6800  0.4901
 9107SOL     OW38956   0.928   4.507   7.621 -0.0137 -0.2866  0.7442
 9107SOL    HW138957   0.908   4.486   7.530 -0.3484 -1.7324  1.1499
 9107SOL    HW238958   0.884   4.431   7.659 -0.5738 -0.7405 -0.8399
 9108SOL     OW38959   3.726   2.927   8.054 -0.1261 -0.6869 -0.3709
 9108SOL    HW138960   3.777   2.980   7.993  0.6751 -1.7882 -0.6641
 9108SOL    HW238961   3.675   2.876   7.991  2.0883 -0.3720 -2.3823
 9109SOL     OW38962   2.746   1.423   0.657 -0.4259 -0.0580  0.4909
 9109SOL    HW138963   2.758   1.347   0.600  2.2401 -0.0190  0.9694
 9109SOL    HW238964   2.772   1.387   0.742 -3.3553 -2.4202  0.3682
 9110SOL     OW38965   3.131   3.390   2.615  0.4118 -0.0977 -0.2107
 9110SOL    HW138966   3.163   3.424   2.698 -0.3455 -0.4472  0.2263
 9110SOL    HW238967   3.039   3.407   2.635  0.1604 -0.9902 -0.6158
 9111SOL     OW38968   2.626   4.338  10.054  0.5197  0.9430 -0.4177
 9111SOL    HW138969   2.573   4.388   9.992 -0.3465  2.0105  1.1958
 9111SOL    HW238970   2.580   4.257  10.077  2.6821  0.1827  1.2849
 9112SOL     OW38971   1.350   1.561   2.660  0.8351 -0.2083 -0.0664
 9112SOL    HW138972   1.419   1.581   2.723  0.2726 -1.0053  0.7966
 9112SOL    HW238973   1.314   1.480   2.695 -0.3384  0.2190 -0.2693
 9113SOL     OW38974   2.918   2.406  13.686 -0.5031  0.6377  0.1414
 9113SOL    HW138975   2.900   2.406  13.780 -0.2041 -2.7073  0.2222
 9113SOL    HW238976   3.009   2.436  13.676  0.0849 -0.2609  2.6995
 9114SOL     OW38977   2.776   0.480   1.026 -0.3398  0.5075  0.4629
 9114SOL    HW138978   2.793   0.446   0.938 -0.3406 -1.2349  1.1359
 9114SOL    HW238979   2.791   0.573   1.011  0.7412  0.4247  1.0759
 9115SOL     OW38980   4.187   4.727   2.593 -0.1365 -0.0982 -0.2156
 9115SOL    HW138981   4.265   4.674   2.610 -1.0348 -1.5087 -0.4568
 9115SOL    HW238982   4.242   0.066   2.581 -2.2647  1.2132 -1.7279
 9116SOL     OW38983   3.457   0.557   1.188 -0.1959 -0.1810  0.0666
 9116SOL    HW138984   3.494   0.606   1.115 -0.4026  0.2944  0.2836
 9116SOL    HW238985   3.523   0.579   1.253 -0.8554 -0.0732  0.7009
 9117SOL     OW38986   2.116   0.634   8.709  0.1679 -0.4336 -0.2836
 9117SOL    HW138987   2.180   0.689   8.664 -0.1939  1.3161  1.3495
 9117SOL    HW238988   2.128   0.545   8.675 -1.5017 -0.8971  0.3182
 9118SOL     OW38989   1.470   0.633   6.713 -0.1454 -0.0203  0.4809
 9118SOL    HW138990   1.543   0.624   6.774  0.9129  0.4920 -0.7122
 9118SOL    HW238991   1.513   0.706   6.667  2.4001 -0.1863  2.6216
 9119SOL     OW38992   1.272   2.544  12.088 -0.7568 -0.2178 -0.3094
 9119SOL    HW138993   1.248   2.634  12.066 -0.0140 -0.2629 -1.3341
 9119SOL    HW238994   1.184   2.509  12.102 -0.2467 -1.2082  0.4056
 9120SOL     OW38995   4.473   2.241   8.326  0.0423  0.2280  0.0812
 9120SOL    HW138996   4.501   2.252   8.417 -0.5797 -1.4029  0.4628
 9120SOL    HW238997   4.475   2.333   8.299 -0.6428  0.3261  0.3837
 9121SOL     OW38998   1.997   0.104   4.290 -0.3561 -0.1292 -0.0854
 9121SOL    HW138999   1.942   0.027   4.304  1.1234 -1.3595 -1.1273
 9121SOL    HW239000   1.989   0.114   4.196  3.1066  0.1738 -0.3526
 9122SOL     OW39001   2.169   4.608   9.841 -0.1258 -0.8300 -0.0962
 9122SOL    HW139002   2.121   4.525   9.847  0.6414 -1.4694 -2.8226
 9122SOL    HW239003   2.095   4.669   9.835  1.4204  0.8088 -2.5432
 9123SOL     OW39004   3.151   0.681   0.954 -0.1076  0.0116 -0.1328
 9123SOL    HW139005   3.223   0.632   0.913 -0.3241 -1.6541  1.4966
 9123SOL    HW239006   3.138   0.627   1.031 -0.4765  0.4320  0.0984
 9124SOL     OW39007   4.386   1.779   6.727 -0.0320  0.5138 -0.2232
 9124SOL    HW139008   4.298   1.747   6.745  0.7962 -2.2779 -1.1674
 9124SOL    HW239009   4.395   1.752   6.636 -1.2299  0.0386 -0.1999
 9125SOL     OW39010   3.699   2.502  16.481  0.3251 -0.3287 -0.3458
 9125SOL    HW139011   3.636   2.521  16.551 -0.5236  0.0703 -1.2158
 9125SOL    HW239012   3.716   2.409  16.497 -0.5268 -0.5616 -0.8002
 9126SOL     OW39013   2.513   2.005   3.128  0.5775 -0.9567  0.4107
 9126SOL    HW139014   2.587   1.986   3.070  0.1115 -2.3520  0.2534
 9126SOL    HW239015   2.517   1.921   3.173  0.2977 -1.9109 -1.3269
 9127SOL     OW39016   4.402   2.657   3.039 -0.3906  0.4933 -0.3529
 9127SOL    HW139017   4.387   2.577   3.090  0.5998 -0.0272 -0.8798
 9127SOL    HW239018   4.317   2.666   2.996 -0.7984  1.1251  0.5826
 9128SOL     OW39019   0.113   3.964   7.005 -0.3550  0.0538  0.0900
 9128SOL    HW139020   0.133   3.872   6.988  1.0982  0.7401 -1.8890
 9128SOL    HW239021   0.186   3.990   7.061  0.5390 -1.0341 -0.5783
 9129SOL     OW39022   1.734   2.230   3.161 -0.1976 -0.1104  0.1098
 9129SOL    HW139023   1.665   2.197   3.103 -1.1946 -1.4539  2.0784
 9129SOL    HW239024   1.765   2.310   3.118  1.0587 -0.6220  0.0573
 9130SOL     OW39025   1.966   0.336  13.107  0.4249 -0.0427 -0.0459
 9130SOL    HW139026   2.026   0.377  13.045  1.2530  1.2448  1.6159
 9130SOL    HW239027   1.925   0.266  13.056 -0.6350  0.6794 -0.1925
 9131SOL     OW39028   3.363   1.427   5.115  0.0150  0.1032  0.2655
 9131SOL    HW139029   3.402   1.350   5.158 -0.1000  0.3132  0.7455
 9131SOL    HW239030   3.360   1.486   5.190  1.6262  0.1671  0.2902
 9132SOL     OW39031   4.619   2.121   7.355  0.3550 -0.5162  0.4138
 9132SOL    HW139032   4.593   2.147   7.443  0.8001  0.2175  0.3231
 9132SOL    HW239033   4.528   2.120   7.326  0.1529 -0.5716  1.0596
 9133SOL     OW39034   0.614   2.799   2.626  0.2278  0.0091 -0.1143
 9133SOL    HW139035   0.666   2.858   2.571  0.5060  1.9347  2.2101
 9133SOL    HW239036   0.684   2.734   2.638 -1.7931 -2.1708 -0.1782
 9134SOL     OW39037   2.973   4.048   5.595  0.5201 -0.1561  0.4938
 9134SOL    HW139038   2.891   3.999   5.594  0.3678  0.0986  0.4499
 9134SOL    HW239039   3.021   3.997   5.659  0.2362  1.1661  1.7633
 9135SOL     OW39040   2.733   0.969   6.448  0.5321 -0.1963  0.3099
 9135SOL    HW139041   2.677   0.961   6.371  0.5259 -0.5383  0.3487
 9135SOL    HW239042   2.818   0.959   6.406  0.6581  0.0509  0.5061
 9136SOL     OW39043   4.133   3.665   9.551  0.4109  0.0282 -0.1775
 9136SOL    HW139044   4.126   3.636   9.642 -1.5033  0.1634 -0.2739
 9136SOL    HW239045   4.218   3.626   9.532  0.4178 -0.2663  0.4775
 9137SOL     OW39046   2.103   1.020   3.932  0.3136  0.2287 -0.1798
 9137SOL    HW139047   2.164   1.019   4.005  1.4011 -1.0806 -1.1046
 9137SOL    HW239048   2.133   1.107   3.907 -0.9463  0.4629 -0.9289
 9138SOL     OW39049   1.065   0.226  15.168  0.4503  0.4578  0.0451
 9138SOL    HW139050   1.148   0.266  15.142  0.6310  0.8267  1.2057
 9138SOL    HW239051   1.014   0.296  15.209  0.2125  0.5316 -0.3783
 9139SOL     OW39052   0.943   1.205  16.433 -0.1362 -0.7303 -0.0958
 9139SOL    HW139053   1.000   1.263  16.382 -0.1282  0.3697  1.1634
 9139SOL    HW239054   0.913   1.143  16.366 -0.8571 -2.2199  1.5878
 9140SOL     OW39055   3.598   0.348  16.288 -0.3306  0.6642 -0.0987
 9140SOL    HW139056   3.644   0.428  16.311  2.0397 -0.5497 -0.6785
 9140SOL    HW239057   3.546   0.399  16.225 -0.7666  1.3892  0.8471
 9141SOL     OW39058   1.501   0.847   1.326 -0.3500 -0.2724  0.2080
 9141SOL    HW139059   1.550   0.865   1.245  1.6815  0.3708  1.6001
 9141SOL    HW239060   1.533   0.914   1.386 -0.8513  2.1480 -2.2072
 9142SOL     OW39061   1.453   2.583   4.953 -0.4394  0.0635  0.2853
 9142SOL    HW139062   1.366   2.600   4.988  0.9604  1.5174  3.1198
 9142SOL    HW239063   1.514   2.618   5.019 -0.6662 -1.2013  1.1492
 9143SOL     OW39064   3.526   0.832  11.613  0.0495 -0.0059 -0.4085
 9143SOL    HW139065   3.445   0.867  11.651 -0.2507  0.7874 -1.7866
 9143SOL    HW239066   3.530   0.745  11.651 -1.2659 -0.0941 -0.4827
 9144SOL     OW39067   1.830   0.913  12.296 -0.2476 -0.9143  0.3667
 9144SOL    HW139068   1.913   0.872  12.275  2.0967  3.2557  1.5480
 9144SOL    HW239069   1.780   0.881  12.220 -1.7124  3.2133 -0.4000
 9145SOL     OW39070   2.717   2.267   8.047  0.2677 -0.7228 -0.4834
 9145SOL    HW139071   2.767   2.340   8.009  1.3022 -0.4688  1.3661
 9145SOL    HW239072   2.775   2.199   8.014  1.9516  0.6032 -0.2466
 9146SOL     OW39073   2.935   1.250   4.999 -0.7556  0.5547  0.1536
 9146SOL    HW139074   2.856   1.222   5.045 -0.2402  0.2850  0.8794
 9146SOL    HW239075   2.989   1.173   5.016 -2.1420 -0.2488  0.9723
 9147SOL     OW39076   2.500   2.295   3.141 -0.5999  0.3003 -0.2321
 9147SOL    HW139077   2.444   2.348   3.084  1.7897  1.5478 -1.3896
 9147SOL    HW239078   2.431   2.229   3.149  0.5669 -0.7715  1.0330
 9148SOL     OW39079   2.901   2.079   3.277  0.9124 -0.4445  0.3810
 9148SOL    HW139080   2.868   1.989   3.272 -0.3346  0.0005  0.5351
 9148SOL    HW239081   2.851   2.119   3.206  1.7181  0.2372  0.2026
 9149SOL     OW39082   3.872   3.946   1.590  0.4736 -0.2183  0.3124
 9149SOL    HW139083   3.822   3.918   1.513  0.7638  1.6526 -0.5593
 9149SOL    HW239084   3.859   3.875   1.653 -1.1514  2.2293  2.7187
 9150SOL     OW39085   2.315   2.856   4.624  0.4845  0.3510  0.3528
 9150SOL    HW139086   2.316   2.762   4.603  0.4295  0.7947 -1.6265
 9150SOL    HW239087   2.224   2.866   4.653  0.8285  1.3947  1.0549
 9151SOL     OW39088   3.030   0.658   2.708  0.3478 -0.3095  0.3955
 9151SOL    HW139089   3.048   0.597   2.779  0.1546  0.5157  1.1585
 9151SOL    HW239090   3.115   0.700   2.701  1.1948 -2.4412 -2.0473
 9152SOL     OW39091   0.935   1.698   5.665  0.0696  0.2367  0.1319
 9152SOL    HW139092   1.006   1.640   5.693  0.1314  0.9126  1.3826
 9152SOL    HW239093   0.857   1.649   5.690  1.4058 -1.6560  0.6010
 9153SOL     OW39094   1.531   2.271   4.965  0.4670  0.5024 -0.0792
 9153SOL    HW139095   1.602   2.268   4.901  1.2794 -0.5272  0.8626
 9153SOL    HW239096   1.526   2.365   4.985 -0.7694  0.9479 -2.5054
 9154SOL     OW39097   1.147   3.637   3.987 -0.3057 -0.0769 -0.0912
 9154SOL    HW139098   1.084   3.651   3.917 -0.1806 -0.0919 -0.2087
 9154SOL    HW239099   1.104   3.670   4.065 -1.1963 -1.6748  0.0757
 9155SOL     OW39100   3.548   2.872   4.574  0.2694  0.2735 -0.3943
 9155SOL    HW139101   3.552   2.947   4.634  0.7919  0.3679 -0.5469
 9155SOL    HW239102   3.464   2.829   4.591  0.7928 -0.1906  0.9472
 9156SOL     OW39103   0.999   3.374   3.557 -0.3944  0.4111 -0.5107
 9156SOL    HW139104   1.010   3.279   3.556 -1.7695  0.2461 -1.1882
 9156SOL    HW239105   1.089   3.402   3.540  0.0598  0.2164  1.5848
 9157SOL     OW39106   1.341   1.533   6.774 -0.1725  0.0387  0.1918
 9157SOL    HW139107   1.292   1.516   6.693  0.3805 -2.7014  0.4012
 9157SOL    HW239108   1.374   1.620   6.756 -2.3021  1.1921  1.8953
 9158SOL     OW39109   3.160   4.175   6.408  0.5903  0.5652  0.1060
 9158SOL    HW139110   3.070   4.189   6.379  0.1621 -2.4120 -0.0372
 9158SOL    HW239111   3.167   4.079   6.407 -0.4140  0.5083 -1.2117
 9159SOL     OW39112   2.957   0.755   3.669 -0.5884  0.5108 -0.9109
 9159SOL    HW139113   2.996   0.802   3.595  1.2393  2.1182  1.0686
 9159SOL    HW239114   2.864   0.760   3.646 -0.6317  0.2291 -0.7910
 9160SOL     OW39115   3.139   1.576   4.250  0.4996  0.0285 -0.0484
 9160SOL    HW139116   3.086   1.647   4.286  1.9112  0.8411  0.3873
 9160SOL    HW239117   3.092   1.499   4.284 -1.2354  0.5351 -1.2723
 9161SOL     OW39118   1.708   1.432   2.040 -0.2042 -0.2806 -0.0616
 9161SOL    HW139119   1.766   1.499   2.078 -0.0775 -1.1687  1.3123
 9161SOL    HW239120   1.765   1.412   1.966 -0.1450 -1.3593  0.2764
 9162SOL     OW39121   0.530   4.369   4.588 -0.2742 -0.1541  0.1059
 9162SOL    HW139122   0.525   4.398   4.679 -1.5807 -2.9829  0.9513
 9162SOL    HW239123   0.607   4.311   4.589 -1.6522 -1.9683  1.6213
 9163SOL     OW39124   1.865   3.401   2.252 -0.0426  0.0775 -0.1101
 9163SOL    HW139125   1.872   3.463   2.179 -0.7947 -0.1237 -0.3462
 9163SOL    HW239126   1.950   3.413   2.295 -0.3121 -3.3218  1.3307
 9164SOL     OW39127   2.758   3.494   7.929  0.6462 -0.1204  0.0284
 9164SOL    HW139128   2.767   3.407   7.968 -0.0854  0.5429  1.6773
 9164SOL    HW239129   2.698   3.533   7.993  0.2832 -0.6666  0.0139
 9165SOL     OW39130   2.358   1.052   5.837  0.7349  0.0565  0.3232
 9165SOL    HW139131   2.354   1.131   5.891  1.7577  1.1492 -1.2047
 9165SOL    HW239132   2.449   1.024   5.836  0.2322 -1.5259 -1.2100
 9166SOL     OW39133   1.494   1.537   2.197  0.8400 -0.4804  0.3267
 9166SOL    HW139134   1.510   1.500   2.284  0.0619  1.0579  1.1110
 9166SOL    HW239135   1.555   1.496   2.136  1.1984 -1.2331  1.1850
 9167SOL     OW39136   3.959   3.477   5.569  0.2984 -0.1868 -0.2780
 9167SOL    HW139137   4.015   3.477   5.492  0.9500  0.9942  0.1904
 9167SOL    HW239138   4.011   3.435   5.637  1.4758  0.7123 -0.6366
 9168SOL     OW39139   2.251   3.589   1.165  0.2689  0.3580  0.1593
 9168SOL    HW139140   2.304   3.566   1.241  0.2112  1.8731  0.6502
 9168SOL    HW239141   2.168   3.607   1.209  0.5017 -0.5321  0.9655
 9169SOL     OW39142   4.711   2.390  15.707  0.1105 -0.1528  0.3570
 9169SOL    HW139143   4.710   2.481  15.736 -1.8906  0.2144 -0.8726
 9169SOL    HW239144   4.730   2.407  15.615  0.9148  1.7615  0.8822
 9170SOL     OW39145   3.718   3.958  12.230  0.2328 -0.6704  0.3769
 9170SOL    HW139146   3.795   3.910  12.263  0.5305  1.4484  2.7059
 9170SOL    HW239147   3.659   3.885  12.213 -0.4236 -0.2048  0.6752
 9171SOL     OW39148   2.941   1.065   0.315 -0.6934  0.4803  0.1455
 9171SOL    HW139149   2.972   1.011   0.243  0.2517  0.8725  0.2684
 9171SOL    HW239150   3.020   1.113   0.338 -0.6813  0.5142  0.0306
 9172SOL     OW39151   2.620   1.920   7.162 -0.0418 -0.2171 -0.0721
 9172SOL    HW139152   2.686   1.938   7.094 -0.6654 -1.8765 -1.1196
 9172SOL    HW239153   2.643   1.839   7.206 -2.6378 -1.1935 -0.5320
 9173SOL     OW39154   3.301   2.295  11.889 -0.5051 -0.0518 -0.5327
 9173SOL    HW139155   3.268   2.379  11.857  0.0367  0.9877  1.5921
 9173SOL    HW239156   3.361   2.271  11.818 -0.9369 -1.8506 -0.2786
 9174SOL     OW39157   3.076   2.117   8.128 -0.0081  0.0173 -0.3511
 9174SOL    HW139158   3.154   2.113   8.184  0.6819  1.2043 -1.2181
 9174SOL    HW239159   3.017   2.052   8.166  0.9893 -1.2088 -0.9036
 9175SOL     OW39160   3.515   2.368   9.366  0.0028  0.1154 -0.1406
 9175SOL    HW139161   3.524   2.316   9.445  0.2789 -0.8675 -0.8260
 9175SOL    HW239162   3.598   2.415   9.370  0.4091 -0.4720 -1.7990
 9176SOL     OW39163   3.676   4.572   4.089  0.1503 -0.1035 -0.2733
 9176SOL    HW139164   3.592   4.542   4.054  0.4719  2.3715 -3.0768
 9176SOL    HW239165   3.648   4.609   4.173  0.7576 -2.5890  1.0553
 9177SOL     OW39166   0.005   2.854   2.969  0.1631 -0.0910  0.0369
 9177SOL    HW139167   0.088   2.816   2.942  0.5051  0.3279  0.4960
 9177SOL    HW239168   0.026   2.916   3.039  0.0370 -0.0832  0.0691
 9178SOL     OW39169   0.230   1.755   8.548  0.0748 -0.2452  0.0638
 9178SOL    HW139170   0.204   1.772   8.458 -0.5157 -1.7174 -0.0457
 9178SOL    HW239171   0.141   1.752   8.584  1.0184  1.2332  2.4871
 9179SOL     OW39172   3.635   3.949   3.593  0.0155  0.1393 -0.0767
 9179SOL    HW139173   3.629   4.035   3.635 -0.3524 -0.5156  1.2023
 9179SOL    HW239174   3.693   3.904   3.655  0.2844  1.4306  0.6175
 9180SOL     OW39175   4.149   4.282  12.137  0.1878 -0.0053 -0.3555
 9180SOL    HW139176   4.097   4.312  12.063 -0.5507 -1.4065 -0.4027
 9180SOL    HW239177   4.132   4.188  12.141 -1.9152  0.4907  2.0200
 9181SOL     OW39178   0.492   0.092   8.774  0.0513  0.0638 -0.0684
 9181SOL    HW139179   0.406   0.133   8.765  0.2728  0.6164  0.3770
 9181SOL    HW239180   0.555   0.142   8.722 -2.2127  1.4327 -1.5362
 9182SOL     OW39181   0.509   1.894   8.193  0.3986 -0.2315  0.1843
 9182SOL    HW139182   0.547   1.868   8.109 -0.5719 -2.3105  0.4000
 9182SOL    HW239183   0.455   1.965   8.159  0.8211  0.5438  1.1255
 9183SOL     OW39184   2.527   4.454   1.904  0.4660  0.3301  0.3650
 9183SOL    HW139185   2.615   4.473   1.871 -0.0748  2.1681  0.0256
 9183SOL    HW239186   2.546   4.405   1.985 -0.7326 -0.5489  0.1086
 9184SOL     OW39187   4.162   0.934  17.689 -0.2594 -0.1927 -0.4112
 9184SOL    HW139188   4.142   0.984  17.610  0.7062 -0.3946 -0.7794
 9184SOL    HW239189   4.090   0.965  17.744 -0.4394 -2.0664  0.4226
 9185SOL     OW39190   1.577   2.065  13.696  0.1611  0.0989  0.1865
 9185SOL    HW139191   1.498   2.117  13.688  0.7277  0.7889 -0.9996
 9185SOL    HW239192   1.608   2.058  13.605 -2.3611 -0.8655 -0.6017
 9186SOL     OW39193   1.078   4.714  16.078  0.3832 -0.7991 -0.4366
 9186SOL    HW139194   1.067   0.024  15.995  1.7595 -1.3404 -0.9329
 9186SOL    HW239195   0.998   4.732  16.128 -0.0689  0.9340 -1.7751
 9187SOL     OW39196   0.697   0.316   0.369 -0.3441 -0.0129  0.0333
 9187SOL    HW139197   0.738   0.254   0.309 -2.6301  0.1611 -1.6956
 9187SOL    HW239198   0.610   0.277   0.376 -1.0198  1.3728 -0.5801
 9188SOL     OW39199   4.664   3.691  12.229 -0.7444 -0.1285 -0.3060
 9188SOL    HW139200   4.642   3.706  12.322 -0.8630 -1.0772 -0.1816
 9188SOL    HW239201   4.615   3.612  12.209 -0.2795 -0.5551  0.2253
 9189SOL     OW39202   0.148   3.395   2.137 -0.4996 -0.0532  0.3003
 9189SOL    HW139203   0.056   3.391   2.110  0.0762  0.9452 -1.8106
 9189SOL    HW239204   0.144   3.418   2.230 -0.1625 -0.6842  0.4697
 9190SOL     OW39205   2.731   0.181  16.382  0.0493 -0.2671  0.4112
 9190SOL    HW139206   2.784   0.158  16.459  1.9548  1.1390 -0.4733
 9190SOL    HW239207   2.648   0.216  16.413  1.1042  0.4844  2.3862
 9191SOL     OW39208   0.526   0.130   2.182 -0.7076 -0.2924 -0.4036
 9191SOL    HW139209   0.606   0.110   2.229 -1.1808  2.0260  1.3561
 9191SOL    HW239210   0.472   0.056   2.211 -2.9266  0.9104 -1.4979
 9192SOL     OW39211   2.574   0.934   4.241  0.7047 -0.0735 -0.0250
 9192SOL    HW139212   2.664   0.920   4.270  0.1521  0.5074  1.9854
 9192SOL    HW239213   2.594   0.951   4.149  1.0900 -0.2370  0.0294
 9193SOL     OW39214   1.777   4.604   9.320  0.2496  0.4431  0.1150
 9193SOL    HW139215   1.803   4.663   9.391 -0.4066  3.0088 -1.7901
 9193SOL    HW239216   1.690   4.638   9.300  0.3923  0.5617 -0.2945
 9194SOL     OW39217   0.451   1.131   7.320  0.0066 -0.5306  0.2005
 9194SOL    HW139218   0.469   1.224   7.307  1.4603 -0.9207 -0.5885
 9194SOL    HW239219   0.500   1.116   7.402  0.4142  1.0730  0.2552
 9195SOL     OW39220   0.802   1.989  17.450  0.3258 -0.3895 -0.1349
 9195SOL    HW139221   0.779   2.032  17.532 -1.7001 -0.7263 -0.5175
 9195SOL    HW239222   0.821   1.901  17.481  0.0861 -0.6540 -0.7428
 9196SOL     OW39223   4.601   4.054   7.778 -0.4528  0.8552  0.6186
 9196SOL    HW139224   4.594   3.965   7.811 -0.6980  1.4475  2.1519
 9196SOL    HW239225   4.693   4.069   7.760  0.2148 -0.5923  2.8689
 9197SOL     OW39226   2.913   1.651  11.373  0.4784  0.2103 -0.1288
 9197SOL    HW139227   2.844   1.706  11.410 -1.8955 -0.4292 -3.6140
 9197SOL    HW239228   2.967   1.705  11.316  0.0512  1.8053  0.9701
 9198SOL     OW39229   4.252   2.275   6.599  0.1652  0.7256 -0.1888
 9198SOL    HW139230   4.232   2.331   6.674  1.7643 -0.6664  1.2961
 9198SOL    HW239231   4.306   2.340   6.556 -0.2543  0.0309 -1.7547
 9199SOL     OW39232   1.180   4.552   0.200 -0.2795 -0.6461 -0.5261
 9199SOL    HW139233   1.174   4.490   0.127 -1.3911 -0.6925 -0.3927
 9199SOL    HW239234   1.098   4.600   0.194 -0.4071 -0.7940  0.0314
 9200SOL     OW39235   4.413   0.095   5.057 -0.4090  0.5339 -0.4836
 9200SOL    HW139236   4.396   0.175   5.008 -0.0013  0.3224 -0.9679
 9200SOL    HW239237   4.435   0.135   5.141  0.4125  1.1722 -1.0018
 9201SOL     OW39238   0.351   0.106   3.419  0.4689  0.6527 -0.0049
 9201SOL    HW139239   0.293   0.167   3.464 -0.5295 -0.9419  0.8650
 9201SOL    HW239240   0.358   0.164   3.343 -0.6312 -0.4720 -0.9600
 9202SOL     OW39241   3.493   2.559  12.450 -0.3276 -0.1297 -0.4043
 9202SOL    HW139242   3.447   2.630  12.493 -1.2918 -0.4995 -0.8397
 9202SOL    HW239243   3.533   2.601  12.374  2.3712 -0.3717  0.8672
 9203SOL     OW39244   1.209   0.031   7.041  0.7653 -0.3615  0.0328
 9203SOL    HW139245   1.240   0.062   7.126  1.7717 -0.0009 -0.4758
 9203SOL    HW239246   1.140   0.095   7.023  4.2153  3.3772  0.4725
 9204SOL     OW39247   4.534   4.316   3.414  0.2788 -0.2866  0.9266
 9204SOL    HW139248   4.540   4.410   3.397 -0.3511 -0.4130 -0.0318
 9204SOL    HW239249   4.461   4.317   3.476 -1.7066  0.5114 -1.4090
 9205SOL     OW39250   0.149   4.478   9.389 -0.9709  0.0496  0.5234
 9205SOL    HW139251   0.079   4.536   9.419 -1.4072  0.4952 -1.3742
 9205SOL    HW239252   0.113   4.393   9.415  0.1661 -0.2885  0.9688
 9206SOL     OW39253   1.308   4.184  13.587  0.1351 -0.5844 -0.0897
 9206SOL    HW139254   1.398   4.196  13.618  0.3492 -1.7040 -0.2863
 9206SOL    HW239255   1.265   4.206  13.669 -1.1994  0.3699 -1.0339
 9207SOL     OW39256   2.973   2.269  12.068 -0.2765  0.1859  0.7679
 9207SOL    HW139257   3.023   2.282  11.987  0.9184  0.9324  1.6245
 9207SOL    HW239258   3.047   2.284  12.127  2.1793 -0.8043 -2.0257
 9208SOL     OW39259   0.237   4.139  13.506  0.3749  0.6109 -0.0776
 9208SOL    HW139260   0.239   4.232  13.528  0.1667  0.4754  0.5012
 9208SOL    HW239261   0.199   4.143  13.418  0.3187  2.5013  0.0379
 9209SOL     OW39262   0.531   0.147   9.795 -0.2538 -0.3377  0.7352
 9209SOL    HW139263   0.595   0.195   9.743 -1.0870  1.2064  1.1423
 9209SOL    HW239264   0.460   0.139   9.730  0.2844 -2.9421  0.4721
 9210SOL     OW39265   1.126   1.313   0.383  0.3945  0.1527  0.0243
 9210SOL    HW139266   1.175   1.371   0.442 -0.6830 -0.3946  1.4752
 9210SOL    HW239267   1.072   1.370   0.329 -0.6316 -0.2707  0.5974
 9211SOL     OW39268   2.150   1.783   5.930 -0.3118  0.3862  0.1019
 9211SOL    HW139269   2.217   1.716   5.940 -0.2825  0.6007  1.2949
 9211SOL    HW239270   2.106   1.763   5.847  1.0464 -1.7253 -0.1079
 9212SOL     OW39271   2.383   1.941   9.656 -0.1597 -0.5158 -0.3772
 9212SOL    HW139272   2.376   2.030   9.620 -1.0175  0.5356  2.4097
 9212SOL    HW239273   2.301   1.935   9.705  1.5838 -0.1362  2.5528
 9213SOL     OW39274   0.189   2.675  13.811 -0.4070  0.5403 -0.2398
 9213SOL    HW139275   0.183   2.589  13.853 -0.0857  0.3699 -0.5461
 9213SOL    HW239276   0.108   2.716  13.843 -0.5267  0.1910 -0.0945
 9214SOL     OW39277   1.542   0.725   2.376  0.2052 -0.8938  0.2992
 9214SOL    HW139278   1.553   0.650   2.317  0.0001  0.1851 -1.1239
 9214SOL    HW239279   1.629   0.763   2.390  0.5363 -2.6985  3.0965
 9215SOL     OW39280   3.217   0.349   7.995 -0.2830 -0.2467  0.2946
 9215SOL    HW139281   3.144   0.346   7.933  0.9185  2.9343 -1.2189
 9215SOL    HW239282   3.171   0.324   8.075  0.9164 -2.2692  0.3389
 9216SOL     OW39283   0.645   0.300   8.937 -0.4373  0.0385 -1.0446
 9216SOL    HW139284   0.736   0.271   8.944 -0.3557  0.3550 -0.7643
 9216SOL    HW239285   0.629   0.305   8.842 -0.0248  1.2044 -1.0600
 9217SOL     OW39286   2.903   1.773  10.540 -0.5913  0.1438 -0.1057
 9217SOL    HW139287   2.995   1.783  10.512 -1.1268 -1.8341 -2.6083
 9217SOL    HW239288   2.868   1.774  10.451 -2.3549 -2.8876  0.5606
 9218SOL     OW39289   3.988   2.300   6.498  0.2763  0.3897  0.3793
 9218SOL    HW139290   4.079   2.288   6.527 -0.0198 -1.5938  0.4940
 9218SOL    HW239291   3.990   2.394   6.514  0.1336  0.5238 -0.3981
 9219SOL     OW39292   3.352   3.243   7.122 -0.2647  0.3208 -0.6595
 9219SOL    HW139293   3.320   3.280   7.204  2.7827 -0.8949  1.0868
 9219SOL    HW239294   3.275   3.226   7.066  0.9293  2.1778 -2.8369
 9220SOL     OW39295   4.004   3.978   5.239  0.1907  0.1787  0.2803
 9220SOL    HW139296   3.966   3.891   5.234  1.1749 -0.4237  2.8389
 9220SOL    HW239297   4.046   3.992   5.154  0.2876 -0.1675  0.2699
 9221SOL     OW39298   0.796   3.083  13.699 -0.0192 -0.0738  0.4009
 9221SOL    HW139299   0.706   3.050  13.691 -0.1651 -0.0750  1.9764
 9221SOL    HW239300   0.783   3.178  13.694  0.9295 -0.0741 -1.9944
 9222SOL     OW39301   2.710   2.399   4.832  0.4725 -0.0357 -0.7000
 9222SOL    HW139302   2.773   2.461   4.797  0.7152  0.0233 -0.1614
 9222SOL    HW239303   2.662   2.381   4.751  0.5246  2.4023 -1.2584
 9223SOL     OW39304   1.816   2.995   1.199 -0.1889  0.5053 -0.2185
 9223SOL    HW139305   1.850   2.912   1.165 -2.0265 -0.7728  1.0883
 9223SOL    HW239306   1.756   2.960   1.265 -0.6458 -1.1785 -1.5225
 9224SOL     OW39307   0.088   3.700   0.579 -0.0509 -0.0346  0.2715
 9224SOL    HW139308   0.035   3.699   0.659 -0.3404  0.9043  0.0906
 9224SOL    HW239309   0.027   3.752   0.527  0.8846  2.1607  1.4103
 9225SOL     OW39310   1.210   4.523   2.692  0.1451 -0.9295  0.0814
 9225SOL    HW139311   1.302   4.529   2.667 -0.1097  1.1847 -0.3131
 9225SOL    HW239312   1.167   4.504   2.609 -0.3721 -1.0217  0.3699
 9226SOL     OW39313   3.671   0.078  16.297  0.2225 -0.7030 -0.2909
 9226SOL    HW139314   3.630   0.165  16.286  0.0608 -0.6862  0.4540
 9226SOL    HW239315   3.681   0.048  16.206 -1.6714  0.9438 -1.0501
 9227SOL     OW39316   3.692   3.900  16.871 -0.0388  0.0521  0.5765
 9227SOL    HW139317   3.710   3.889  16.778  1.2594 -3.3955  1.2411
 9227SOL    HW239318   3.704   3.809  16.897 -0.1043  0.4228  1.9467
 9228SOL     OW39319   2.924   3.563   3.109  0.2514 -0.4813  0.3166
 9228SOL    HW139320   3.018   3.575   3.098  0.4930 -0.8671  1.9640
 9228SOL    HW239321   2.928   3.468   3.096  1.8906 -0.5270  1.1856
 9229SOL     OW39322   1.527   0.896  15.422 -0.0267 -1.1542  0.0632
 9229SOL    HW139323   1.432   0.899  15.415 -0.1093  0.1452  1.6657
 9229SOL    HW239324   1.560   0.955  15.353  0.2175 -3.2842 -1.6323
 9230SOL     OW39325   1.364   2.744   0.125  0.2468  0.1135  0.4679
 9230SOL    HW139326   1.323   2.812   0.178  0.3070  0.3316  0.2409
 9230SOL    HW239327   1.408   2.804   0.064 -0.3613 -1.9835 -2.0122
 9231SOL     OW39328   3.119   0.415   6.712 -0.5343  0.2912  0.5259
 9231SOL    HW139329   3.033   0.443   6.680  0.0609  1.2078 -0.2530
 9231SOL    HW239330   3.153   0.380   6.630 -0.8748 -0.7929  0.8380
 9232SOL     OW39331   2.658   2.393   8.608  0.0363 -0.1551 -0.0072
 9232SOL    HW139332   2.669   2.426   8.519  0.2296  1.2415  0.5274
 9232SOL    HW239333   2.726   2.325   8.610 -0.8171 -1.0470 -1.5865
 9233SOL     OW39334   1.286   1.028   1.436 -0.3453  0.8475  0.0049
 9233SOL    HW139335   1.282   1.013   1.531  0.5556  2.1274  0.2384
 9233SOL    HW239336   1.362   0.976   1.409 -1.2191  0.8819 -2.4613
 9234SOL     OW39337   3.564   0.024   5.709 -0.1703 -0.2176  0.2609
 9234SOL    HW139338   3.632   0.025   5.776  0.7269  0.2953 -0.6555
 9234SOL    HW239339   3.573   4.678   5.663  1.5946  0.4428 -0.6289
 9235SOL     OW39340   1.008   0.278   8.700 -0.0818 -0.5001 -0.2515
 9235SOL    HW139341   0.968   0.193   8.679 -1.0116  0.6938 -3.3236
 9235SOL    HW239342   1.017   0.313   8.611 -0.6752 -2.3892 -1.0685
 9236SOL     OW39343   0.439   4.279   3.497 -0.2083 -0.0317 -0.4206
 9236SOL    HW139344   0.434   4.372   3.475  1.4499  0.2545  0.3806
 9236SOL    HW239345   0.382   4.275   3.574  1.0222 -1.8072  0.3999
 9237SOL     OW39346   2.657   1.523   5.475  0.0152  0.7586 -0.4158
 9237SOL    HW139347   2.675   1.617   5.476  2.2786  0.3519 -0.9281
 9237SOL    HW239348   2.662   1.488   5.563  0.8623 -0.0385 -0.7748
 9238SOL     OW39349   1.885   4.516   5.970  0.5038  0.0042  0.0204
 9238SOL    HW139350   1.950   4.571   5.927  2.3977 -1.5892  0.8624
 9238SOL    HW239351   1.829   4.588   5.999  0.8369 -0.7339  2.5735
 9239SOL     OW39352   3.407   2.343  13.236 -0.0266 -0.4489  0.5454
 9239SOL    HW139353   3.494   2.306  13.225  0.4514  0.5402  1.0776
 9239SOL    HW239354   3.433   2.427  13.273  1.7374 -0.7821  0.0457
 9240SOL     OW39355   1.107   2.821   5.776 -0.3668 -1.1766 -0.3168
 9240SOL    HW139356   1.039   2.851   5.838  1.5206  0.1798  1.1054
 9240SOL    HW239357   1.110   2.896   5.717 -0.6214 -1.2987 -0.4871
 9241SOL     OW39358   4.399   2.690   7.685  0.1995  0.5616  0.3753
 9241SOL    HW139359   4.308   2.716   7.696  0.3799  0.1844  2.7379
 9241SOL    HW239360   4.408   2.609   7.734 -1.5538 -1.5771 -2.8767
 9242SOL     OW39361   3.042   1.637   3.119  0.2181 -0.1560  0.5941
 9242SOL    HW139362   3.105   1.667   3.184 -1.4117 -0.8897  2.5256
 9242SOL    HW239363   2.960   1.616   3.165  1.0677  0.7365  2.5067
 9243SOL     OW39364   0.178   3.787   3.157  0.0408  0.1399 -0.1087
 9243SOL    HW139365   0.260   3.759   3.195 -0.2546  0.0480  0.4607
 9243SOL    HW239366   0.209   3.861   3.104  0.1769  0.6576  0.6933
 9244SOL     OW39367   2.359   2.424   6.161  0.0113 -0.3804  0.0316
 9244SOL    HW139368   2.268   2.441   6.185 -0.0394 -1.0513  0.3065
 9244SOL    HW239369   2.407   2.426   6.244  0.4415 -0.6491 -0.2092
 9245SOL     OW39370   2.586   4.135   4.613 -0.0386  0.0395 -0.1620
 9245SOL    HW139371   2.605   4.229   4.607  0.9486 -0.1947 -0.7335
 9245SOL    HW239372   2.493   4.128   4.637 -0.4366  2.1055 -1.0108
 9246SOL     OW39373   2.423   0.121   4.079  0.4195  0.3948 -0.3670
 9246SOL    HW139374   2.515   0.094   4.089 -0.7774 -2.0267  4.0929
 9246SOL    HW239375   2.416   0.210   4.112 -1.1716 -0.3197  1.1991
 9247SOL     OW39376   1.672   0.605   5.200  0.1297  0.3015 -0.3131
 9247SOL    HW139377   1.667   0.538   5.132 -1.0349 -0.6577  0.7202
 9247SOL    HW239378   1.690   0.555   5.280 -0.2441  0.1246 -0.3386
 9248SOL     OW39379   4.667   2.260  13.979 -0.2090 -0.1422 -0.4511
 9248SOL    HW139380   4.637   2.350  13.974 -1.1686 -0.4215  0.1836
 9248SOL    HW239381   4.584   2.224  14.011 -0.9098  1.4003 -0.5444
 9249SOL     OW39382   1.159   2.999   2.551 -0.8115 -1.2036  0.3269
 9249SOL    HW139383   1.089   3.053   2.514 -0.4459 -0.9912 -0.0492
 9249SOL    HW239384   1.205   2.962   2.476  1.9159  0.9770  0.8984
 9250SOL     OW39385   3.760   1.967   0.343 -0.5616 -1.0264 -0.5233
 9250SOL    HW139386   3.780   2.020   0.420  2.1454 -1.1173 -1.1835
 9250SOL    HW239387   3.810   1.888   0.362  1.7798  0.4558 -0.5484
 9251SOL     OW39388   3.373   1.917   4.554 -0.3399 -0.2803 -0.0268
 9251SOL    HW139389   3.347   1.828   4.577 -1.7162  0.5984  1.7915
 9251SOL    HW239390   3.310   1.951   4.490  0.3203  2.4224  0.7888
 9252SOL     OW39391   1.778   0.231   9.905  0.4265 -0.0334  0.6365
 9252SOL    HW139392   1.814   0.286   9.835  1.9932  0.1283  1.5660
 9252SOL    HW239393   1.771   0.293   9.977 -1.5812  1.0128 -0.4613
 9253SOL     OW39394   1.303   1.887   7.156  0.4439  0.0585  0.4072
 9253SOL    HW139395   1.252   1.920   7.229  0.5076  1.3409 -0.1253
 9253SOL    HW239396   1.255   1.805   7.145 -0.5678  0.5823  0.9755
 9254SOL     OW39397   0.145   1.570   7.546 -0.0475  0.1108  0.0109
 9254SOL    HW139398   0.115   1.658   7.525 -4.6182 -1.3439  0.5170
 9254SOL    HW239399   0.062   1.523   7.537  0.4657 -0.3842 -2.2948
 9255SOL     OW39400   2.018   1.627   2.719 -0.6197  0.1471  0.3532
 9255SOL    HW139401   2.085   1.662   2.778 -0.2745  2.3624 -1.3276
 9255SOL    HW239402   2.057   1.654   2.635 -0.8805 -0.5510  0.0017
 9256SOL     OW39403   3.732   0.979   4.211 -0.4057 -0.0782  0.6017
 9256SOL    HW139404   3.816   0.975   4.257  0.1019 -0.5529 -0.3753
 9256SOL    HW239405   3.669   0.932   4.266 -0.2968 -0.3147  0.5231
 9257SOL     OW39406   2.835   1.032   7.406  0.0312  0.6283  0.2234
 9257SOL    HW139407   2.803   1.040   7.316  1.2092 -0.8462 -0.3192
 9257SOL    HW239408   2.779   0.972   7.455  0.0374  0.8246  0.4711
 9258SOL     OW39409   1.218   3.545   1.769 -0.1445  0.4967 -0.3172
 9258SOL    HW139410   1.171   3.553   1.852  1.2178 -0.5266  0.5509
 9258SOL    HW239411   1.150   3.557   1.704 -0.9440  0.2623  0.4776
 9259SOL     OW39412   1.199   2.914  17.701  0.3140 -0.6475  0.6889
 9259SOL    HW139413   1.192   2.830  17.746 -1.6566 -0.7755  0.1459
 9259SOL    HW239414   1.188   2.875  17.614 -2.2011 -1.1996  1.2436
 9260SOL     OW39415   3.924   1.026   4.637 -0.4820 -0.6031  0.3539
 9260SOL    HW139416   3.845   1.076   4.658  0.1269  0.8022 -0.7103
 9260SOL    HW239417   3.993   1.073   4.685 -0.2922 -0.0327 -0.4815
 9261SOL     OW39418   3.160   3.371   9.522  0.4167 -0.6622  0.1201
 9261SOL    HW139419   3.106   3.296   9.549 -0.3793  0.5113  1.8380
 9261SOL    HW239420   3.241   3.351   9.569  0.4146 -3.6143 -1.1298
 9262SOL     OW39421   1.713   1.743   8.873 -0.5456  0.2302  0.0245
 9262SOL    HW139422   1.712   1.742   8.969 -1.2901  0.3250  0.0185
 9262SOL    HW239423   1.773   1.816   8.857  0.8857 -0.3082  2.8376
 9263SOL     OW39424   0.502   3.488   2.809  0.3385  0.0838 -0.1282
 9263SOL    HW139425   0.503   3.557   2.875  0.7009  2.1932 -2.3703
 9263SOL    HW239426   0.416   3.505   2.769 -0.6477 -0.0581  1.8986
 9264SOL     OW39427   0.215   4.283   2.121 -0.5242 -0.4195 -0.7048
 9264SOL    HW139428   0.301   4.288   2.079  1.0186 -1.6454  2.3019
 9264SOL    HW239429   0.189   4.374   2.104 -0.5595 -0.3961 -0.5329
 9265SOL     OW39430   0.436   4.144   6.086 -0.1423  0.3276 -0.0976
 9265SOL    HW139431   0.392   4.095   6.017 -0.1077 -0.4385  0.4254
 9265SOL    HW239432   0.465   4.224   6.041 -0.9015 -0.3448 -1.7611
 9266SOL     OW39433   2.672   0.128   8.581  0.0103 -0.3559 -0.4222
 9266SOL    HW139434   2.599   0.103   8.638  0.0773  1.1301  0.3272
 9266SOL    HW239435   2.630   0.124   8.495 -1.8329 -0.0572  0.4542
 9267SOL     OW39436   0.668   0.703   3.493  0.3274  0.3229  0.2137
 9267SOL    HW139437   0.719   0.711   3.412 -0.9712  0.2985 -0.6066
 9267SOL    HW239438   0.728   0.745   3.555 -0.4517 -0.3425  1.4208
 9268SOL     OW39439   4.707   0.274   8.905 -0.6918  0.4123  0.4076
 9268SOL    HW139440   4.693   0.367   8.924  0.4503  0.2339  2.1212
 9268SOL    HW239441   4.630   0.258   8.851 -0.1801 -1.2044  0.1672
 9269SOL     OW39442   1.559   0.291   2.924  0.5057 -0.1763 -0.2015
 9269SOL    HW139443   1.604   0.207   2.912  1.9083  0.5965 -0.3732
 9269SOL    HW239444   1.499   0.279   2.850 -1.6502 -3.2027  2.0335
 9270SOL     OW39445   3.574   0.439   9.236  0.3702 -0.5990 -0.1855
 9270SOL    HW139446   3.513   0.513   9.244 -0.7967 -1.8108  1.9296
 9270SOL    HW239447   3.605   0.426   9.326 -2.0067  1.3862  0.9359
 9271SOL     OW39448   1.904   4.444   8.432 -0.3891  0.6173  0.7952
 9271SOL    HW139449   1.941   4.369   8.478  2.5971  2.1520  0.8935
 9271SOL    HW239450   1.976   4.458   8.370 -0.8264 -0.5686  0.0112
 9272SOL     OW39451   2.806   2.252  17.684 -0.3088 -0.5087 -0.6758
 9272SOL    HW139452   2.815   2.327  17.625 -0.1200 -0.2242 -0.2873
 9272SOL    HW239453   2.729   2.280  17.734  2.0113 -0.3317  2.7308
 9273SOL     OW39454   1.568   1.244   6.065  0.0378  0.2631  0.2028
 9273SOL    HW139455   1.653   1.260   6.024 -0.0557 -1.7798 -0.7752
 9273SOL    HW239456   1.555   1.160   6.020  1.9087 -0.3782  0.8437
 9274SOL     OW39457   2.851   4.490   6.447 -0.1791  0.4039  0.0967
 9274SOL    HW139458   2.812   4.570   6.482 -0.1089  1.6432 -2.6982
 9274SOL    HW239459   2.805   4.423   6.499 -1.4029  1.8229  0.8519
 9275SOL     OW39460   4.023   1.467   6.472 -0.4130  0.5860  0.2926
 9275SOL    HW139461   4.024   1.551   6.517 -2.0802  2.0137 -2.2885
 9275SOL    HW239462   4.061   1.494   6.388  0.7901 -0.9108  0.3464
 9276SOL     OW39463   2.464   2.556   9.007 -0.5841  0.5047  0.5232
 9276SOL    HW139464   2.554   2.527   8.996 -0.9845 -0.2082 -0.8448
 9276SOL    HW239465   2.426   2.477   9.046 -0.4895  0.9356  1.4907
 9277SOL     OW39466   4.154   1.111  13.936  0.1277 -0.8487 -0.1122
 9277SOL    HW139467   4.184   1.126  14.026 -3.4126  1.0944  0.7468
 9277SOL    HW239468   4.184   1.021  13.924  3.8078  0.0228  2.6072
 9278SOL     OW39469   2.420   1.132   6.138  0.7844  0.1232  0.2567
 9278SOL    HW139470   2.408   1.193   6.211 -1.9558  1.1439 -1.0296
 9278SOL    HW239471   2.339   1.150   6.090  0.0260 -0.7873  1.2218
 9279SOL     OW39472   1.880   0.150   2.122  0.1087 -0.0045 -0.2350
 9279SOL    HW139473   1.948   0.138   2.189  0.7029  0.5609 -0.7376
 9279SOL    HW239474   1.916   0.082   2.065  2.1502  0.4676  0.4716
 9280SOL     OW39475   4.688   4.694   7.653 -0.7232 -0.4822  0.4987
 9280SOL    HW139476   0.035   4.654   7.676 -0.0744 -0.4602 -1.9089
 9280SOL    HW239477   4.665   4.738   7.735 -0.6834 -1.1682  0.8774
 9281SOL     OW39478   1.151   3.846  12.237 -1.2594  0.5027  0.5350
 9281SOL    HW139479   1.112   3.903  12.171 -3.1058  0.2367  1.3791
 9281SOL    HW239480   1.133   3.890  12.319  2.1783 -0.6804  1.9236
 9282SOL     OW39481   3.685   1.945   2.907  0.3205 -0.3386  0.0683
 9282SOL    HW139482   3.729   1.883   2.850  0.0432 -0.1665 -0.3349
 9282SOL    HW239483   3.595   1.913   2.905  0.7510 -1.6867  2.7813
 9283SOL     OW39484   3.138   2.467   4.169 -0.1201 -0.0817  0.5316
 9283SOL    HW139485   3.182   2.453   4.253  1.6456 -0.6982 -0.5003
 9283SOL    HW239486   3.133   2.377   4.137 -1.0060  0.6299 -1.3366
 9284SOL     OW39487   3.782   2.553   0.115 -0.1803 -0.0367 -0.3261
 9284SOL    HW139488   3.818   2.481   0.063  1.5986 -0.0955  0.9829
 9284SOL    HW239489   3.822   2.525   0.197 -1.4931 -0.2857  0.2361
 9285SOL     OW39490   0.115   1.441  14.836 -0.4565  0.3550  0.7804
 9285SOL    HW139491   0.073   1.489  14.907 -1.3669 -1.4169  1.4280
 9285SOL    HW239492   0.149   1.516  14.787  0.5212 -0.8105 -0.3517
 9286SOL     OW39493   1.240   2.995   2.275  0.2165 -0.6051  0.1603
 9286SOL    HW139494   1.169   3.005   2.211  0.3993 -0.9553 -0.0922
 9286SOL    HW239495   1.268   2.905   2.257  0.2990 -0.3852 -0.8332
 9287SOL     OW39496   0.381   1.377   3.561  0.2588  0.3237  0.3200
 9287SOL    HW139497   0.377   1.449   3.624  0.3754  2.2186 -1.8464
 9287SOL    HW239498   0.372   1.428   3.481  1.5011  0.2518  0.1395
 9288SOL     OW39499   1.603   4.453  13.264 -0.1706  0.6720  0.1176
 9288SOL    HW139500   1.660   4.498  13.326 -0.0065 -1.3405  1.4196
 9288SOL    HW239501   1.544   4.527  13.246 -1.2972  0.2291  1.9302
 9289SOL     OW39502   0.675   0.460   1.208  0.3775 -0.0629 -0.6912
 9289SOL    HW139503   0.726   0.525   1.160  0.6582  1.8482  2.1575
 9289SOL    HW239504   0.750   0.412   1.244  0.6673  0.8593 -0.0664
 9290SOL     OW39505   4.549   4.544   5.268 -0.3911 -0.5084  0.0740
 9290SOL    HW139506   4.641   4.568   5.279 -0.8509  1.6330 -0.7903
 9290SOL    HW239507   4.548   4.559   5.174 -0.2960 -1.4829 -0.0801
 9291SOL     OW39508   2.084   4.266   7.280 -0.2857  0.7246 -0.9633
 9291SOL    HW139509   2.073   4.197   7.344  0.1197 -0.5409 -2.2593
 9291SOL    HW239510   2.155   4.233   7.224  0.8993  0.9032  0.4552
 9292SOL     OW39511   0.749   1.059  11.209  0.8474 -0.1471  0.0007
 9292SOL    HW139512   0.813   1.128  11.229  0.6641 -0.3784  1.3524
 9292SOL    HW239513   0.677   1.111  11.174  1.0190 -0.4493 -0.8061
 9293SOL     OW39514   0.363   3.511  13.504 -0.4253 -0.2567  0.2000
 9293SOL    HW139515   0.358   3.473  13.416  0.1692  0.3193 -0.0837
 9293SOL    HW239516   0.274   3.501  13.538 -0.4433 -0.9511 -0.0524
 9294SOL     OW39517   1.543   1.771   7.447  0.3721  0.2106 -0.3424
 9294SOL    HW139518   1.539   1.833   7.374  0.4370  0.4680 -0.1261
 9294SOL    HW239519   1.540   1.687   7.402 -0.2605  0.8432 -1.5166
 9295SOL     OW39520   2.148   3.585   8.759 -0.2259 -0.0937  0.0334
 9295SOL    HW139521   2.138   3.653   8.825 -1.9574 -0.5339  0.2241
 9295SOL    HW239522   2.236   3.553   8.775  0.6739  2.5222  0.3654
 9296SOL     OW39523   2.772   4.586  16.501 -0.1329  0.2145 -0.0972
 9296SOL    HW139524   2.852   4.611  16.546 -1.0002  0.5003  1.2840
 9296SOL    HW239525   2.748   4.500  16.537 -0.6799  0.7170  0.7093
 9297SOL     OW39526   1.373   4.636   5.176 -0.4967  0.9965 -0.0227
 9297SOL    HW139527   1.427   4.588   5.113 -1.8584 -0.0258 -0.4065
 9297SOL    HW239528   1.448   4.664   5.228  1.1763 -1.2922 -1.2371
 9298SOL     OW39529   2.835   0.305   8.352 -0.3445  0.0075 -0.8808
 9298SOL    HW139530   2.907   0.273   8.298  1.2687 -1.7350  2.2616
 9298SOL    HW239531   2.781   0.226   8.344  0.4045 -0.3034 -2.6853
 9299SOL     OW39532   2.602   3.634   6.240 -0.2389 -0.4676 -1.3734
 9299SOL    HW139533   2.662   3.699   6.204 -2.1204  0.1043 -3.4740
 9299SOL    HW239534   2.654   3.562   6.274  0.2651 -0.1119 -1.3896
 9300SOL     OW39535   2.393   2.977  13.369  0.5969  0.2652  0.2068
 9300SOL    HW139536   2.343   3.047  13.411  1.1680  0.1822  1.0405
 9300SOL    HW239537   2.409   3.014  13.283 -0.3546  0.2084  0.0078
 9301SOL     OW39538   1.793   1.484   4.393 -0.5977  0.1243 -0.8213
 9301SOL    HW139539   1.719   1.463   4.450 -0.0048 -0.9068 -0.4287
 9301SOL    HW239540   1.861   1.479   4.460 -1.0966  2.7922 -0.1100
 9302SOL     OW39541   4.284   4.426   4.031 -0.2716  0.2889 -0.1070
 9302SOL    HW139542   4.340   4.501   4.051 -1.2025  0.3225  2.3601
 9302SOL    HW239543   4.210   4.440   4.090  1.2346  0.4545  1.7284
 9303SOL     OW39544   4.376   0.653   7.019  0.3832  0.0351  0.1308
 9303SOL    HW139545   4.381   0.637   7.114  2.6733 -1.4985 -0.2382
 9303SOL    HW239546   4.395   0.744   6.997 -2.2030  0.2177 -1.3372
 9304SOL     OW39547   3.059   4.374   2.588 -0.3189  0.2094 -0.2560
 9304SOL    HW139548   3.124   4.321   2.633 -0.3410  1.7736  1.5980
 9304SOL    HW239549   3.095   4.461   2.609 -0.4249 -0.0681  1.0637
 9305SOL     OW39550   2.329   1.439   5.036  0.0375 -0.0917 -0.2663
 9305SOL    HW139551   2.411   1.405   5.001  1.8950  1.3245  2.7218
 9305SOL    HW239552   2.291   1.351   5.037 -0.0627 -0.0404  0.2476
 9306SOL     OW39553   1.217   1.808  17.268  0.3370  0.9142  0.0894
 9306SOL    HW139554   1.143   1.851  17.227 -0.0683 -1.4523 -1.6593
 9306SOL    HW239555   1.218   1.731  17.211  0.1314 -1.1178  2.7852
 9307SOL     OW39556   2.778   4.148  13.818 -0.3549 -0.6128  0.6856
 9307SOL    HW139557   2.785   4.103  13.902  2.7089 -1.0926  0.1843
 9307SOL    HW239558   2.683   4.153  13.819 -0.4607 -2.7835  1.2168
 9308SOL     OW39559   0.670   1.716  12.637  0.2620 -0.5206  0.1949
 9308SOL    HW139560   0.711   1.655  12.699 -0.2747 -0.5706  0.5080
 9308SOL    HW239561   0.602   1.746  12.698  1.4369  1.0381  0.7339
 9309SOL     OW39562   0.235   0.574   5.689 -0.0137  0.2238 -0.5961
 9309SOL    HW139563   0.222   0.484   5.658  1.8380 -0.2295 -0.0510
 9309SOL    HW239564   0.145   0.603   5.676  0.1853  0.1526 -2.1753
 9310SOL     OW39565   2.115   0.734   4.920  0.0884  0.5794 -0.2211
 9310SOL    HW139566   2.160   0.763   5.000 -0.2894  1.4935 -0.3348
 9310SOL    HW239567   2.030   0.696   4.941 -0.6749  1.6766 -1.3020
 9311SOL     OW39568   4.015   3.954   3.661  0.3123 -0.3959 -0.2041
 9311SOL    HW139569   4.088   3.893   3.672 -0.5760 -1.0845  1.9051
 9311SOL    HW239570   4.010   3.984   3.752 -1.5761 -1.2811 -0.0350
 9312SOL     OW39571   2.434   0.672   3.122 -0.1487  0.5410 -0.0973
 9312SOL    HW139572   2.452   0.716   3.039 -1.8044 -2.1695 -1.9156
 9312SOL    HW239573   2.338   0.668   3.129 -0.1880  0.7936 -0.5370
 9313SOL     OW39574   2.175   3.952  10.371  0.2197 -0.5664  0.3263
 9313SOL    HW139575   2.241   4.014  10.340  0.1728 -0.7832 -0.1971
 9313SOL    HW239576   2.157   3.988  10.458  1.3263  0.8794 -0.0582
 9314SOL     OW39577   3.940   4.670   7.647  0.9343  0.0841  0.0715
 9314SOL    HW139578   4.005   4.624   7.593  0.5727 -0.3059 -0.0327
 9314SOL    HW239579   4.001   4.715   7.705 -1.4385 -0.6182  3.0818
 9315SOL     OW39580   2.038   0.012   9.422  0.9374 -0.1984 -0.8767
 9315SOL    HW139581   1.981   0.043   9.492  1.6764 -1.8685  0.4667
 9315SOL    HW239582   2.008   0.052   9.340  0.4728  2.0387  0.3955
 9316SOL     OW39583   4.609   2.641  15.752 -0.0511 -0.0336  0.5218
 9316SOL    HW139584   4.554   2.664  15.827 -1.3858 -0.2569 -0.3880
 9316SOL    HW239585   4.543   2.613  15.688  0.6858 -0.1136 -0.2032
 9317SOL     OW39586   3.163   4.091   8.115  0.1301 -0.0726 -0.3518
 9317SOL    HW139587   3.080   4.131   8.142 -2.2993 -4.3390 -1.5770
 9317SOL    HW239588   3.130   4.002   8.127  1.3589 -0.6093 -0.9899
 9318SOL     OW39589   4.406   1.293   5.161 -0.8810 -0.0552  0.2120
 9318SOL    HW139590   4.329   1.257   5.119  1.1478 -0.3277 -3.2929
 9318SOL    HW239591   4.363   1.354   5.220  0.2041  0.4656  0.4784
 9319SOL     OW39592   1.504   3.888   4.935  1.1428 -0.1509 -0.4582
 9319SOL    HW139593   1.500   3.798   4.967 -0.6671  0.0862 -0.0208
 9319SOL    HW239594   1.459   3.883   4.851  1.0143  1.9286 -0.5186
 9320SOL     OW39595   0.708   1.940   4.793  0.9103 -0.4175  0.5638
 9320SOL    HW139596   0.761   1.934   4.714 -0.2570 -2.1665 -0.0879
 9320SOL    HW239597   0.673   2.029   4.795  0.9795 -0.4070  1.6002
 9321SOL     OW39598   3.899   2.289   6.115  0.7053 -0.2359  0.3635
 9321SOL    HW139599   3.946   2.254   6.040  0.9621 -0.1149  0.4684
 9321SOL    HW239600   3.867   2.375   6.088 -3.2125 -1.9272 -0.4009
 9322SOL     OW39601   3.076   4.360   1.709 -0.5481  0.0446  0.7367
 9322SOL    HW139602   3.137   4.429   1.733 -0.3124  0.2143 -0.3513
 9322SOL    HW239603   3.086   4.283   1.764  2.4586 -0.5183 -0.6115
 9323SOL     OW39604   0.098   2.792   6.250 -0.6352  0.2792  0.2692
 9323SOL    HW139605   0.141   2.709   6.231 -2.3742 -0.3899 -0.7655
 9323SOL    HW239606   0.100   2.798   6.346  0.0761 -2.0826  0.4081
 9324SOL     OW39607   4.476   4.619  15.974 -0.0021  0.2293 -0.3967
 9324SOL    HW139608   4.437   4.568  16.045  1.3316 -2.8373 -1.8368
 9324SOL    HW239609   4.487   4.708  16.008  4.2438 -0.6038  0.4893
 9325SOL     OW39610   2.894   2.685  10.016  0.7344  0.0380 -0.2835
 9325SOL    HW139611   2.803   2.684  10.045  0.9118  0.8541  0.3160
 9325SOL    HW239612   2.937   2.641  10.090  0.6991  2.3486  1.1261
 9326SOL     OW39613   1.786   3.512   1.937  0.2432  0.0741  0.1053
 9326SOL    HW139614   1.880   3.505   1.917  0.2547  0.1320  0.1382
 9326SOL    HW239615   1.775   3.606   1.926 -1.0940  0.4040  4.1069
 9327SOL     OW39616   1.043   0.536   6.461 -0.1476  0.3273 -0.4614
 9327SOL    HW139617   1.085   0.515   6.544 -0.0287 -0.7673 -0.7999
 9327SOL    HW239618   0.960   0.496   6.486  0.9156 -1.7018 -0.1167
 9328SOL     OW39619   3.086   0.664   6.928  0.1309 -0.3530  0.1549
 9328SOL    HW139620   3.162   0.625   6.885  0.3150 -2.5327  2.4107
 9328SOL    HW239621   3.019   0.650   6.861 -0.1253 -2.1004  0.7795
 9329SOL     OW39622   4.665   0.612  16.666  0.4807 -0.4681  0.1484
 9329SOL    HW139623   0.015   0.618  16.627  0.4008  1.2289  0.2337
 9329SOL    HW239624   4.616   0.575  16.592 -0.6691  2.1647 -0.4077
 9330SOL     OW39625   0.728   0.497   3.784  0.1731 -0.1735 -0.2914
 9330SOL    HW139626   0.752   0.511   3.875 -1.6886 -0.7432  0.2843
 9330SOL    HW239627   0.767   0.412   3.761  0.3882 -0.0905 -0.2322
 9331SOL     OW39628   1.369   4.010  12.866  0.5098  0.3554  0.1952
 9331SOL    HW139629   1.423   3.996  12.788  0.8101  2.6538 -0.0223
 9331SOL    HW239630   1.434   4.022  12.935  1.1523  1.5814 -0.6246
 9332SOL     OW39631   4.312   4.381   8.422 -0.1304  0.0768  0.7563
 9332SOL    HW139632   4.225   4.348   8.441 -0.4905  0.0534 -0.8992
 9332SOL    HW239633   4.358   4.303   8.391 -0.4146  0.1603  0.1232
 9333SOL     OW39634   3.015   3.391   1.060 -0.2522  0.5321 -0.2974
 9333SOL    HW139635   3.022   3.324   0.991 -0.0619  1.2019 -0.9312
 9333SOL    HW239636   2.921   3.380   1.075 -0.2420 -2.0440 -2.0030
 9334SOL     OW39637   3.503   0.801  15.327 -0.6540  0.1034  0.2067
 9334SOL    HW139638   3.596   0.794  15.348 -0.6045  0.1030 -0.0103
 9334SOL    HW239639   3.513   0.860  15.253 -2.6150 -2.2275 -1.9152
 9335SOL     OW39640   0.467   4.674   4.665 -0.0858 -0.1654  0.1801
 9335SOL    HW139641   0.383   4.638   4.695  0.3539 -1.4245 -0.1104
 9335SOL    HW239642   0.525   4.608   4.701 -0.7190 -0.6501  0.3255
 9336SOL     OW39643   3.372   2.144   7.944 -0.3857  0.6534 -0.3797
 9336SOL    HW139644   3.287   2.180   7.921 -0.6010  1.2671  1.4154
 9336SOL    HW239645   3.396   2.198   8.019  0.2371 -0.8042  0.4819
 9337SOL     OW39646   1.517   1.453   7.839 -0.5412 -0.1527  0.6599
 9337SOL    HW139647   1.520   1.523   7.903  1.8731  0.3001  0.0612
 9337SOL    HW239648   1.561   1.494   7.764 -0.0289  0.4221  1.2807
 9338SOL     OW39649   4.428   1.729   0.447  0.4895 -0.2947  0.2326
 9338SOL    HW139650   4.472   1.803   0.406 -0.9964  1.7041  2.2590
 9338SOL    HW239651   4.488   1.707   0.518 -0.2414  0.3893  1.0700
 9339SOL     OW39652   0.411   2.629   3.806  0.0765 -0.0716  0.4177
 9339SOL    HW139653   0.440   2.574   3.733 -1.9383  1.4906 -1.5478
 9339SOL    HW239654   0.365   2.702   3.763  1.5730 -0.3321 -1.6310
 9340SOL     OW39655   2.880   3.218   2.881  0.0241  0.1306 -0.0331
 9340SOL    HW139656   2.939   3.273   2.932 -1.0427  0.2771  1.0372
 9340SOL    HW239657   2.912   3.129   2.896  0.3121 -0.3174 -3.2307
 9341SOL     OW39658   4.539   4.620  12.385  0.3334  0.1982 -0.4179
 9341SOL    HW139659   4.516   4.713  12.379  3.7557  1.0242 -0.6803
 9341SOL    HW239660   4.463   4.581  12.341  0.0684 -0.0509  0.2670
 9342SOL     OW39661   3.667   2.211   5.081  0.0804  0.3245 -0.1488
 9342SOL    HW139662   3.631   2.229   4.995  1.7923 -0.7745 -1.0795
 9342SOL    HW239663   3.709   2.126   5.067  0.4158  0.2321  1.3939
 9343SOL     OW39664   1.757   3.014   9.750  0.4739  0.3366  0.2778
 9343SOL    HW139665   1.699   3.047   9.683  1.2548  1.8131  0.3290
 9343SOL    HW239666   1.802   3.094   9.778  0.6789  0.2099  0.3127
 9344SOL     OW39667   0.187   1.593   1.945  0.2273 -0.3364 -0.4392
 9344SOL    HW139668   0.236   1.675   1.953 -0.2557 -0.2025  1.2880
 9344SOL    HW239669   0.257   1.531   1.967 -0.9219 -1.0596  1.1800
 9345SOL     OW39670   3.084   2.521  12.374  0.0316 -0.5494  0.0045
 9345SOL    HW139671   3.134   2.464  12.432  2.2396  0.0502 -1.3415
 9345SOL    HW239672   2.996   2.484  12.365  0.3226 -1.1413 -0.4177
 9346SOL     OW39673   0.828   4.670   9.047 -0.1463 -0.4127  0.5145
 9346SOL    HW139674   0.779   4.645   8.968  0.9811  0.4218 -0.4656
 9346SOL    HW239675   0.906   4.622   9.020  0.2900 -0.6743  2.2473
 9347SOL     OW39676   1.978   1.444  13.312  0.6916 -0.1195 -0.2845
 9347SOL    HW139677   2.018   1.439  13.225  1.7733 -0.5062  0.2394
 9347SOL    HW239678   2.018   1.367  13.352 -2.1006 -0.7104  1.3669
 9348SOL     OW39679   2.838   2.526   1.238  0.2799 -0.5524  0.3924
 9348SOL    HW139680   2.751   2.488   1.252  0.6095 -1.2646  0.5349
 9348SOL    HW239681   2.884   2.499   1.317  1.5490  1.6858  0.3990
 9349SOL     OW39682   4.090   1.551   7.525 -0.3783  0.2108 -0.1801
 9349SOL    HW139683   4.150   1.621   7.549 -0.9365  0.9453 -0.9299
 9349SOL    HW239684   4.097   1.478   7.586  1.6942  1.3014  0.8794
 9350SOL     OW39685   2.095   0.222   9.735  0.4890  0.1769  0.0602
 9350SOL    HW139686   2.033   0.258   9.671  0.4404 -2.3570 -1.3191
 9350SOL    HW239687   2.041   0.164   9.789  0.4834  0.3595  0.2515
 9351SOL     OW39688   2.143   1.811   0.702 -0.4514  0.0715 -0.0128
 9351SOL    HW139689   2.138   1.906   0.712  1.9617  0.1885  0.1007
 9351SOL    HW239690   2.225   1.795   0.655  1.2352  1.0445  2.6251
 9352SOL     OW39691   0.951   4.483  17.631 -0.6325  0.1810 -0.8802
 9352SOL    HW139692   0.913   4.396  17.627  2.5743 -1.2191 -0.8590
 9352SOL    HW239693   0.907   4.523  17.556 -1.3541 -0.8915 -1.0167
 9353SOL     OW39694   2.269   2.837  10.316  0.0176 -0.4271  0.1238
 9353SOL    HW139695   2.345   2.892  10.296  0.0649 -1.3219 -2.1552
 9353SOL    HW239696   2.196   2.895  10.337  0.4872  0.2055  0.0335
 9354SOL     OW39697   4.443   0.744   5.737 -0.3508  0.3686 -0.4230
 9354SOL    HW139698   4.462   0.811   5.802  1.1929 -1.4701  1.0312
 9354SOL    HW239699   4.371   0.705   5.785  1.8973 -0.3071  2.3662
 9355SOL     OW39700   3.478   1.694   7.178 -0.0656 -0.1377  0.4596
 9355SOL    HW139701   3.526   1.767   7.140 -1.7984  1.5739  1.5329
 9355SOL    HW239702   3.479   1.724   7.269  1.5752 -2.3688  1.1738
 9356SOL     OW39703   0.518   2.230   5.974 -0.0636  0.4268 -0.4614
 9356SOL    HW139704   0.546   2.187   5.894  0.3053  0.9005 -0.5874
 9356SOL    HW239705   0.429   2.252   5.946 -0.6501 -2.5017 -0.9487
 9357SOL     OW39706   4.317   3.022   4.567  0.2934 -0.1115  0.0542
 9357SOL    HW139707   4.222   3.019   4.559  0.3075  0.4817 -0.2987
 9357SOL    HW239708   4.338   3.063   4.484 -0.6470  1.5100  0.6040
 9358SOL     OW39709   1.598   0.844   5.063  0.0763  0.6080  0.0691
 9358SOL    HW139710   1.607   0.762   5.112  2.0626  1.7046  1.5243
 9358SOL    HW239711   1.608   0.809   4.974  1.5627 -1.8804  1.1956
 9359SOL     OW39712   2.172   4.320   3.145 -0.3678  0.3188  0.1136
 9359SOL    HW139713   2.147   4.232   3.174  1.8612 -0.8800 -1.5272
 9359SOL    HW239714   2.249   4.299   3.091 -0.0897  1.5493  0.0340
 9360SOL     OW39715   4.351   2.294   8.612 -0.4357  0.1246  0.3420
 9360SOL    HW139716   4.347   2.366   8.675  0.0189  1.0464 -0.6978
 9360SOL    HW239717   4.407   2.224   8.646 -0.4418  0.4518  1.0241
 9361SOL     OW39718   2.549   1.226   2.329  0.5074  0.2395 -0.6265
 9361SOL    HW139719   2.505   1.198   2.409  1.2494  0.6901 -0.0644
 9361SOL    HW239720   2.476   1.272   2.288 -1.0748 -1.1595  0.6445
 9362SOL     OW39721   3.038   1.836   6.291 -0.1526  0.1875 -0.7110
 9362SOL    HW139722   3.109   1.800   6.345 -0.6412 -0.5125 -0.5485
 9362SOL    HW239723   3.092   1.903   6.248  0.1880 -0.2865 -1.0145
 9363SOL     OW39724   0.260   1.020   3.062 -0.3326  0.4086 -0.5667
 9363SOL    HW139725   0.253   1.061   2.976  0.1107 -2.6781 -2.0673
 9363SOL    HW239726   0.320   0.951   3.037 -1.3730 -0.4962 -0.5594
 9364SOL     OW39727   4.067   0.974   7.272 -0.6661  0.1049 -0.3629
 9364SOL    HW139728   4.154   0.980   7.233 -1.5623  0.9429 -2.2208
 9364SOL    HW239729   4.047   0.881   7.280 -0.0768 -0.0666 -0.9058
 9365SOL     OW39730   3.358   3.799   3.544 -0.7975 -0.2435  0.0974
 9365SOL    HW139731   3.325   3.883   3.512  0.5643  0.0114 -0.6150
 9365SOL    HW239732   3.425   3.817   3.610 -2.1481  4.1787  0.2494
 9366SOL     OW39733   2.352   2.130   4.662 -0.0087  0.2482  0.4002
 9366SOL    HW139734   2.433   2.078   4.663  2.0377  3.3716 -3.9431
 9366SOL    HW239735   2.374   2.191   4.732  1.6428  1.1277 -0.8810
 9367SOL     OW39736   1.280   1.774   2.500 -0.3916  0.6292  0.3162
 9367SOL    HW139737   1.299   1.859   2.539 -2.8760  2.5217 -2.5764
 9367SOL    HW239738   1.290   1.710   2.570  1.8314  1.5456  0.8139
 9368SOL     OW39739   0.068   1.138   6.019  0.5585 -0.2850  0.3828
 9368SOL    HW139740   0.010   1.215   6.028  2.8592  1.3496  1.1726
 9368SOL    HW239741   0.053   1.119   5.927 -0.3296 -1.0642  0.6823
 9369SOL     OW39742   0.230   3.104  14.951  0.1006 -0.0274 -0.2021
 9369SOL    HW139743   0.204   3.195  14.940 -0.3236  0.0560  1.4295
 9369SOL    HW239744   0.220   3.098  15.046 -0.7363 -0.4576 -0.3198
 9370SOL     OW39745   3.338   1.730   0.297 -0.0260 -0.0791 -0.4346
 9370SOL    HW139746   3.264   1.708   0.241  1.8137  0.5104 -3.0657
 9370SOL    HW239747   3.399   1.774   0.238 -1.4931  1.1613 -1.0143
 9371SOL     OW39748   3.453   2.139   8.614  0.9224  0.1545  0.1719
 9371SOL    HW139749   3.497   2.054   8.615 -3.0989 -1.9496  0.7287
 9371SOL    HW239750   3.407   2.130   8.698  1.5218 -0.0613  0.4755
 9372SOL     OW39751   0.959   1.311   6.869  0.6219 -0.4244 -0.2113
 9372SOL    HW139752   0.999   1.376   6.928  0.6560  0.4120 -1.1472
 9372SOL    HW239753   0.981   1.236   6.924 -1.9809  0.9729  2.7128
 9373SOL     OW39754   4.543   1.072   8.804  0.2913  0.2565 -0.4616
 9373SOL    HW139755   4.502   0.989   8.831 -1.3678  1.3011  0.2553
 9373SOL    HW239756   4.549   1.057   8.710  0.9362  0.5682 -0.4667
 9374SOL     OW39757   0.095   3.318   8.512  0.2713 -0.7377  0.0118
 9374SOL    HW139758   0.068   3.235   8.473  2.2606 -1.3872  0.0569
 9374SOL    HW239759   0.084   3.377   8.437 -0.5455  0.0292  0.7257
 9375SOL     OW39760   1.851   0.806   5.600 -0.3469  0.2852  0.3783
 9375SOL    HW139761   1.807   0.844   5.524 -0.6827 -0.8770 -0.0189
 9375SOL    HW239762   1.772   0.788   5.651  0.9138 -2.7538  1.2918
 9376SOL     OW39763   1.121   1.524  12.805 -0.4006 -0.3296  0.1683
 9376SOL    HW139764   1.095   1.614  12.823  1.0833  0.0156  0.6155
 9376SOL    HW239765   1.098   1.525  12.712  0.2528 -2.8722 -0.0218
 9377SOL     OW39766   2.395   4.079   0.749 -0.1680 -0.7937 -0.4482
 9377SOL    HW139767   2.470   4.117   0.704 -1.1198  2.5540  0.7331
 9377SOL    HW239768   2.334   4.150   0.770  1.0844  0.3004 -0.5282
 9378SOL     OW39769   3.772   0.372  13.540  0.2579 -0.0326 -0.2150
 9378SOL    HW139770   3.854   0.322  13.532  0.8325  0.8225  0.3715
 9378SOL    HW239771   3.767   0.374  13.635  2.5958 -1.4396 -0.0564
 9379SOL     OW39772   1.538   2.348   4.520  0.2733 -0.2949 -0.0572
 9379SOL    HW139773   1.561   2.410   4.452 -0.3113 -0.2440 -0.2050
 9379SOL    HW239774   1.496   2.406   4.583 -0.5615 -2.0002  0.9720
 9380SOL     OW39775   4.715   3.180   1.898  1.0439 -0.4187  0.2232
 9380SOL    HW139776   4.684   3.122   1.968 -0.5503 -0.4637 -0.5081
 9380SOL    HW239777   4.636   3.225   1.867  0.4148 -0.5623  1.5652
 9381SOL     OW39778   2.129   0.991  14.058  0.3007  0.1623 -0.3418
 9381SOL    HW139779   2.188   1.012  14.131  0.2457  0.2485 -0.3207
 9381SOL    HW239780   2.052   1.045  14.079  0.2054 -0.2104  0.2906
 9382SOL     OW39781   0.659   2.211   4.824 -0.0411 -0.0342 -0.3430
 9382SOL    HW139782   0.728   2.261   4.779  0.9713  0.5306  1.8228
 9382SOL    HW239783   0.667   2.242   4.914  0.4202 -0.8665 -0.1017
 9383SOL     OW39784   0.918   0.841  12.820 -0.4103 -0.3554 -0.7833
 9383SOL    HW139785   0.847   0.867  12.879  0.5569  0.3283  0.0727
 9383SOL    HW239786   0.904   0.895  12.742  0.9202  0.7847 -0.2358
 9384SOL     OW39787   0.979   1.684   8.757 -0.4698  0.2871  0.2250
 9384SOL    HW139788   0.931   1.698   8.675 -0.2617  1.8529  0.3820
 9384SOL    HW239789   1.024   1.767   8.773 -0.3839  0.7347 -2.3371
 9385SOL     OW39790   3.404   2.059   2.939  0.4472  0.1139  0.3148
 9385SOL    HW139791   3.459   2.137   2.928  1.5800 -0.6713  0.3831
 9385SOL    HW239792   3.422   1.996   2.869  2.7861  2.2918 -1.0585
 9386SOL     OW39793   3.860   1.369   2.466  0.2622 -0.3765 -0.0480
 9386SOL    HW139794   3.863   1.411   2.552 -1.3566  1.6586 -0.9999
 9386SOL    HW239795   3.940   1.317   2.466 -0.4828 -1.5322 -1.1693
 9387SOL     OW39796   4.630   3.034   6.488  0.2481 -0.0705  0.0137
 9387SOL    HW139797   4.576   3.110   6.467  1.2670 -0.0201 -2.4795
 9387SOL    HW239798   4.721   3.063   6.479 -0.2677  1.4922 -0.0989
 9388SOL     OW39799   1.734   4.544   1.352  0.4916  0.1808 -0.7969
 9388SOL    HW139800   1.726   4.466   1.408  1.0305  1.4623  1.0577
 9388SOL    HW239801   1.646   4.570   1.327  0.6301  1.4267  0.0430
 9389SOL     OW39802   1.406   3.003   8.025 -0.0101 -0.1070  0.1102
 9389SOL    HW139803   1.366   2.976   8.107  1.2646 -2.3440 -0.0104
 9389SOL    HW239804   1.494   3.001   8.061 -0.7747  0.0039  1.9689
 9390SOL     OW39805   0.984   0.004  12.226  0.0279 -0.0053 -0.5586
 9390SOL    HW139806   0.997   4.689  12.305  1.7199  1.3868  0.0993
 9390SOL    HW239807   0.971   0.090  12.266 -1.5559 -0.8492  0.7695
 9391SOL     OW39808   2.208   0.780  16.718 -0.4953 -0.7866  0.3852
 9391SOL    HW139809   2.164   0.740  16.793 -3.4882  3.8124  1.0755
 9391SOL    HW239810   2.135   0.797  16.659 -1.8805  2.5250  3.0724
 9392SOL     OW39811   3.285   3.995   7.482  0.0834  0.3047  0.1458
 9392SOL    HW139812   3.278   3.967   7.391  1.7080  1.7418 -0.4077
 9392SOL    HW239813   3.238   4.078   7.482  2.6404  1.7297 -0.1168
 9393SOL     OW39814   3.279   1.348  16.456 -0.5246 -0.3339 -0.2907
 9393SOL    HW139815   3.302   1.255  16.464  1.0310  0.0978  0.2761
 9393SOL    HW239816   3.310   1.387  16.537  0.3593 -0.1568 -0.7110
 9394SOL     OW39817   1.084   3.054   8.566 -0.7558 -0.4391 -0.3197
 9394SOL    HW139818   1.076   2.974   8.513  1.0703  0.7144 -2.3412
 9394SOL    HW239819   1.060   3.123   8.504  0.3924  0.0638 -0.2009
 9395SOL     OW39820   3.615   0.561   3.540 -0.5753  0.1781 -0.3537
 9395SOL    HW139821   3.623   0.652   3.513  0.3460  0.3011  0.3493
 9395SOL    HW239822   3.604   0.512   3.459  0.0732  0.8450 -0.8480
 9396SOL     OW39823   0.104   4.248   4.181  0.1512  0.2398 -0.3927
 9396SOL    HW139824   0.035   4.314   4.186  1.7800  1.9772 -1.3198
 9396SOL    HW239825   0.186   4.278   4.219 -1.1930  0.9861  1.8933
 9397SOL     OW39826   4.153   3.551   8.563 -0.0906 -0.0887 -0.3636
 9397SOL    HW139827   4.205   3.479   8.599  1.7587  0.8502 -1.1611
 9397SOL    HW239828   4.154   3.615   8.635  1.7974 -1.0279  0.4580
 9398SOL     OW39829   1.132   0.076   5.291  0.2324 -0.1971 -0.1766
 9398SOL    HW139830   1.096   0.084   5.203 -2.3529  0.7052  0.9749
 9398SOL    HW239831   1.220   0.040   5.276  0.2118 -0.1649 -0.3737
 9399SOL     OW39832   2.798   2.766  17.667  0.2642  0.3830 -0.0769
 9399SOL    HW139833   2.809   2.712  17.745  0.0102 -0.1645 -0.4217
 9399SOL    HW239834   2.840   2.850  17.685 -0.9420  1.3886 -1.9713
 9400SOL     OW39835   3.732   1.998  11.162  0.1120  0.5028 -0.0366
 9400SOL    HW139836   3.816   1.958  11.140 -0.1300  0.7495 -1.3992
 9400SOL    HW239837   3.749   2.021  11.254 -3.1494  0.1602  0.6686
 9401SOL     OW39838   0.881   2.511   8.229 -0.2078  0.2884  0.3834
 9401SOL    HW139839   0.885   2.420   8.258  0.8026 -0.0923 -0.9665
 9401SOL    HW239840   0.967   2.541   8.257  0.6349 -0.8820 -0.9446
 9402SOL     OW39841   2.519   3.114   7.956 -0.5947  0.1363 -0.1166
 9402SOL    HW139842   2.500   3.036   8.009 -0.6348  1.3921  1.7362
 9402SOL    HW239843   2.464   3.081   7.885  0.1817  1.5853 -1.3798
 9403SOL     OW39844   0.262   2.292   5.886  0.5494  0.1858 -0.1234
 9403SOL    HW139845   0.258   2.280   5.791 -0.4806 -0.1444 -0.0426
 9403SOL    HW239846   0.249   2.386   5.883  1.7275  0.4243  2.1156
 9404SOL     OW39847   0.603   1.134  13.694  0.5699 -0.0598 -1.0031
 9404SOL    HW139848   0.522   1.084  13.705  0.2752  0.5429 -0.4665
 9404SOL    HW239849   0.596   1.163  13.603  0.8707 -0.5799 -1.1947
 9405SOL     OW39850   1.295   0.892  12.262  0.1055  0.4232 -0.5178
 9405SOL    HW139851   1.247   0.958  12.310 -1.1931  0.3059 -1.6658
 9405SOL    HW239852   1.230   0.871  12.195 -0.8217 -1.2780  0.8895
 9406SOL     OW39853   4.648   2.303   8.518  0.1726 -0.3890  0.5172
 9406SOL    HW139854   4.633   2.330   8.608 -1.5480 -1.6756  0.6064
 9406SOL    HW239855   4.712   2.370   8.494  1.7057 -2.2661 -0.5798
 9407SOL     OW39856   3.447   1.792  16.680  0.0927 -0.4435  0.3521
 9407SOL    HW139857   3.406   1.788  16.593  0.9150  1.7107 -0.1315
 9407SOL    HW239858   3.515   1.860  16.673  2.3637 -2.7061  0.4989
 9408SOL     OW39859   1.974   3.915   3.537 -0.1251 -0.1301 -0.0704
 9408SOL    HW139860   2.013   3.975   3.473  1.5150  0.4599  1.4949
 9408SOL    HW239861   1.888   3.957   3.543 -0.3137 -0.7353  1.3366
 9409SOL     OW39862   2.098   1.854   7.775  0.1442  0.4344 -0.1377
 9409SOL    HW139863   2.167   1.867   7.709  2.2929  0.1189  2.0512
 9409SOL    HW239864   2.042   1.915   7.727  0.2593  0.4555 -0.2462
 9410SOL     OW39865   3.219   2.019   6.147  0.5167  0.3181  0.0795
 9410SOL    HW139866   3.141   2.030   6.092  0.8188  0.4932 -0.3175
 9410SOL    HW239867   3.231   2.108   6.178  1.0325 -0.1984  1.3533
 9411SOL     OW39868   4.199   3.667  11.628  0.0894  0.0049 -0.0007
 9411SOL    HW139869   4.244   3.684  11.545  1.3690 -1.1141  0.4620
 9411SOL    HW239870   4.179   3.575  11.646 -2.8038  0.7339  0.5892
 9412SOL     OW39871   2.430   1.721   8.552 -0.1964 -0.6290  0.2839
 9412SOL    HW139872   2.417   1.815   8.564 -3.2849 -1.0518  0.3333
 9412SOL    HW239873   2.492   1.704   8.623  1.0666 -0.3468 -0.7388
 9413SOL     OW39874   4.328   4.518  12.238 -0.2590  0.3284  0.8619
 9413SOL    HW139875   4.358   4.427  12.229  0.2784  0.6137 -0.1763
 9413SOL    HW239876   4.233   4.515  12.251 -0.0800  0.2393  2.1275
 9414SOL     OW39877   3.770   3.370   9.860  0.3686  0.1735  0.0457
 9414SOL    HW139878   3.691   3.410   9.895  1.7055  1.6760  1.3627
 9414SOL    HW239879   3.791   3.335   9.946  0.4964 -2.2700 -0.9561
 9415SOL     OW39880   1.836   2.898   4.011  0.4548 -0.2280 -0.0647
 9415SOL    HW139881   1.887   2.944   4.077  0.6589  0.6629 -0.8440
 9415SOL    HW239882   1.884   2.920   3.932 -0.0861 -0.2978 -0.4131
 9416SOL     OW39883   0.441   3.288   4.457 -0.1431  0.1910  0.5766
 9416SOL    HW139884   0.417   3.252   4.372 -0.7072 -0.1864  0.8895
 9416SOL    HW239885   0.387   3.238   4.519 -0.7254  0.6796  0.4686
 9417SOL     OW39886   2.863   0.111   6.137  0.3903  0.6337  0.1100
 9417SOL    HW139887   2.823   0.091   6.052  0.8834  0.1968 -0.0238
 9417SOL    HW239888   2.787   0.134   6.190  0.4212  0.4147  0.2510
 9418SOL     OW39889   1.850   0.262   5.323 -0.2400  0.1972 -0.3713
 9418SOL    HW139890   1.925   0.306   5.283 -0.9136 -0.3088 -2.1943
 9418SOL    HW239891   1.803   0.220   5.251 -1.3628  0.5941  0.1377
 9419SOL     OW39892   3.911   0.717   2.935  0.2563  0.4521 -0.1922
 9419SOL    HW139893   3.879   0.627   2.927 -0.1844  0.3581  2.5083
 9419SOL    HW239894   3.933   0.740   2.845  1.7874  1.8943  0.5461
 9420SOL     OW39895   1.030   2.483   6.868  0.1912  0.6457 -0.5947
 9420SOL    HW139896   1.121   2.459   6.847 -0.0829 -1.0023  0.1438
 9420SOL    HW239897   1.024   2.563   6.815 -1.4786  1.9666  1.6290
 9421SOL     OW39898   1.646   1.688  16.342 -0.2859 -0.6682  0.6337
 9421SOL    HW139899   1.623   1.730  16.259 -0.3901 -1.0669  0.4628
 9421SOL    HW239900   1.581   1.618  16.345 -0.8905 -0.2729 -2.9185
 9422SOL     OW39901   0.461   0.366  15.354  0.2804  0.3917 -0.0189
 9422SOL    HW139902   0.442   0.322  15.271  2.0593  0.8762 -0.6867
 9422SOL    HW239903   0.475   0.292  15.414 -0.9747  0.5565  0.4794
 9423SOL     OW39904   2.322   4.336   1.779  0.0431  0.5609 -0.3252
 9423SOL    HW139905   2.378   4.397   1.827  1.1881 -1.1244  0.4936
 9423SOL    HW239906   2.325   4.263   1.842  0.7532  1.1432  0.3144
 9424SOL     OW39907   2.568   1.237   9.196  0.2459 -0.2636 -0.0682
 9424SOL    HW139908   2.502   1.294   9.158  0.4775  0.6921  0.9635
 9424SOL    HW239909   2.637   1.298   9.221 -0.0888 -0.0030  0.2134
 9425SOL     OW39910   2.477   1.348   3.388 -0.1584  0.5861 -0.2417
 9425SOL    HW139911   2.505   1.440   3.392  0.2490  0.5508 -2.4286
 9425SOL    HW239912   2.481   1.323   3.296  0.0830 -0.4529  0.0607
 9426SOL     OW39913   3.765   1.304   3.513  0.3450 -0.2665  0.2994
 9426SOL    HW139914   3.711   1.289   3.590  1.1672  1.6310  1.2290
 9426SOL    HW239915   3.693   1.311   3.450  1.1677 -2.5434 -0.8964
 9427SOL     OW39916   1.494   3.343   9.512  0.0438 -0.1516 -0.4413
 9427SOL    HW139917   1.494   3.337   9.607  1.1842  0.0702 -0.4284
 9427SOL    HW239918   1.477   3.437   9.498  0.4411  0.4959  3.3564
 9428SOL     OW39919   1.327   1.163   8.952  0.2286 -0.2788 -0.5468
 9428SOL    HW139920   1.295   1.248   8.922 -2.9219 -0.5968  1.9208
 9428SOL    HW239921   1.419   1.187   8.937  0.7085 -1.3324  0.7114
 9429SOL     OW39922   4.160   0.661   7.646  0.8297 -0.2483 -0.1860
 9429SOL    HW139923   4.071   0.627   7.638  0.3043  0.7477  1.5284
 9429SOL    HW239924   4.201   0.606   7.579  1.7313  0.4406 -0.1959
 9430SOL     OW39925   4.723   3.681   2.257 -0.7478  1.1838 -0.4558
 9430SOL    HW139926   4.711   3.707   2.166 -0.1961  0.9296 -0.6015
 9430SOL    HW239927   0.080   3.683   2.266 -0.6109 -2.1903 -0.8592
 9431SOL     OW39928   0.168   3.056  17.609 -0.3838  0.4339 -0.2331
 9431SOL    HW139929   0.144   3.146  17.588 -2.5249  0.0579  0.5107
 9431SOL    HW239930   0.189   3.076  17.700  1.4103 -2.8831  0.0961
 9432SOL     OW39931   3.104   0.287   2.259 -0.7030  0.6077 -0.0687
 9432SOL    HW139932   3.133   0.377   2.277  2.1713 -0.1468 -0.8698
 9432SOL    HW239933   3.027   0.287   2.316  0.2501 -1.4200  1.2318
 9433SOL     OW39934   2.832   1.213  17.693 -0.6527 -0.2496 -0.3667
 9433SOL    HW139935   2.781   1.286  17.728 -0.5638 -0.2378 -0.2616
 9433SOL    HW239936   2.914   1.256  17.671 -1.0149  0.9205  0.5686
 9434SOL     OW39937   4.717   0.813   6.548 -0.1105  0.2228 -0.5775
 9434SOL    HW139938   4.634   0.856   6.570 -0.9447 -1.5875 -0.2112
 9434SOL    HW239939   4.711   0.830   6.454 -1.7405  1.0646 -0.3253
 9435SOL     OW39940   0.424   3.194  10.498  0.1155  0.4372  0.3988
 9435SOL    HW139941   0.510   3.164  10.470 -0.2698 -2.0958  1.9664
 9435SOL    HW239942   0.446   3.281  10.532 -1.2639  0.9780 -0.1120
 9436SOL     OW39943   0.963   1.202   3.403  0.2456 -0.2444  0.0131
 9436SOL    HW139944   0.978   1.122   3.353  0.5704  0.8778 -1.6605
 9436SOL    HW239945   1.049   1.222   3.441  0.5615 -0.3453 -0.6508
 9437SOL     OW39946   1.096   3.274   9.253  0.0829  0.8534 -0.0566
 9437SOL    HW139947   1.045   3.256   9.332 -0.1994  0.5329 -0.3123
 9437SOL    HW239948   1.029   3.249   9.190 -0.8183 -1.4372  1.7979
 9438SOL     OW39949   3.014   2.979   3.937 -0.7455 -0.0883  0.3880
 9438SOL    HW139950   3.005   2.891   3.902 -3.5887  0.1569  0.5272
 9438SOL    HW239951   3.025   2.968   4.032 -0.5341 -3.3873 -0.0148
 9439SOL     OW39952   3.131   4.004   1.275  0.1617  0.3658 -0.6725
 9439SOL    HW139953   3.148   4.079   1.219 -0.0986  2.5195  2.1414
 9439SOL    HW239954   3.126   4.055   1.356  1.4427 -2.9815  1.5500
 9440SOL     OW39955   1.927   0.111   8.218 -0.4583 -0.2704 -0.3579
 9440SOL    HW139956   1.896   0.176   8.281  1.8345  0.9843 -0.4844
 9440SOL    HW239957   1.935   0.177   8.148 -0.7465  1.2920  1.0949
 9441SOL     OW39958   4.724   0.810  10.096 -0.3571  0.0466  0.3571
 9441SOL    HW139959   4.653   0.756  10.062 -0.6277  1.7591 -1.8825
 9441SOL    HW239960   0.051   0.741  10.105  1.1295  1.5414  1.1046
 9442SOL     OW39961   1.969   1.379   3.578  0.0911 -0.4484  0.1860
 9442SOL    HW139962   1.962   1.335   3.493 -3.6064 -1.1255  0.8287
 9442SOL    HW239963   1.949   1.468   3.550  0.2852 -1.2099 -2.3596
 9443SOL     OW39964   4.170   3.814   7.086  0.0141 -0.4465 -0.4346
 9443SOL    HW139965   4.251   3.811   7.036  0.7685 -0.2665  0.7617
 9443SOL    HW239966   4.200   3.882   7.146  3.6178 -2.1511 -0.2996
 9444SOL     OW39967   0.893   1.833   5.250 -0.2056  0.3019  0.2247
 9444SOL    HW139968   0.916   1.743   5.228 -1.7171 -0.1196  0.3443
 9444SOL    HW239969   0.811   1.817   5.297  0.7789  0.0343  1.8548
 9445SOL     OW39970   1.768   3.783  13.383 -0.2266  0.2146 -0.1968
 9445SOL    HW139971   1.693   3.802  13.439 -0.8001  0.0638 -0.9080
 9445SOL    HW239972   1.805   3.702  13.417 -0.5219 -0.0547 -0.5198
 9446SOL     OW39973   3.440   2.864   5.829  0.0685  0.1330  0.0294
 9446SOL    HW139974   3.504   2.807   5.786 -0.1643 -0.7318  0.8323
 9446SOL    HW239975   3.501   2.912   5.885  1.2573  1.1921 -2.1796
 9447SOL     OW39976   3.643   1.068   6.727 -0.1005 -0.3847 -0.4847
 9447SOL    HW139977   3.669   0.979   6.703  2.5210  0.4168 -0.6332
 9447SOL    HW239978   3.555   1.082   6.693  0.5347 -0.2130 -2.0514
 9448SOL     OW39979   4.062   3.963   4.691 -0.2576  0.1859 -0.2267
 9448SOL    HW139980   4.047   3.907   4.615  2.1501 -0.6039 -0.0991
 9448SOL    HW239981   4.148   3.935   4.721 -0.2618 -1.1421 -1.4915
 9449SOL     OW39982   4.249   4.110   1.117  0.4785  0.8067 -0.9610
 9449SOL    HW139983   4.268   4.204   1.119 -1.8523  1.1926  1.8275
 9449SOL    HW239984   4.216   4.098   1.028 -1.2382 -0.9172 -0.0987
 9450SOL     OW39985   3.772   1.071   3.932 -0.4687 -0.0649 -0.2242
 9450SOL    HW139986   3.744   1.060   4.023 -1.3527 -3.0020 -0.8375
 9450SOL    HW239987   3.798   1.163   3.939 -1.0519  0.1759 -1.2655
 9451SOL     OW39988   0.702   2.917  16.242  0.3590 -0.4029  0.0586
 9451SOL    HW139989   0.714   2.986  16.176 -0.2159 -1.1470 -0.8269
 9451SOL    HW239990   0.762   2.930  16.315  0.2583  0.9672 -0.1073
 9452SOL     OW39991   1.861   2.290  13.353  0.0564 -0.3811 -0.7514
 9452SOL    HW139992   1.828   2.379  13.339  2.0484  0.6828  1.2536
 9452SOL    HW239993   1.871   2.268  13.260 -0.4422 -0.2697 -0.8315
 9453SOL     OW39994   3.557   0.715   8.033  0.4346 -0.1865 -0.0392
 9453SOL    HW139995   3.629   0.656   8.010  1.4334  1.6205 -1.4997
 9453SOL    HW239996   3.478   0.677   7.994 -1.0132  0.4813  2.2158
 9454SOL     OW39997   3.710   3.873   9.084  0.1120  0.2112 -0.3118
 9454SOL    HW139998   3.683   3.853   8.994 -1.6129 -0.0690  0.2756
 9454SOL    HW239999   3.736   3.965   9.079  1.2744 -0.0955  0.1969
 9455SOL     OW40000   4.085   0.041  11.858 -0.0359 -0.4043 -0.0002
 9455SOL    HW140001   4.165   0.042  11.806  0.8099  1.3010  1.3041
 9455SOL    HW240002   4.081   0.136  11.866  0.0063 -0.3819 -0.2588
 9456SOL     OW40003   4.356   0.130   3.666 -0.3138 -0.0017  0.4026
 9456SOL    HW140004   4.282   0.147   3.608  1.9526  0.7964 -2.2915
 9456SOL    HW240005   4.420   0.178   3.614  0.4464 -2.6151 -1.0917
 9457SOL     OW40006   1.548   0.491   9.395 -0.3088 -0.6910  0.2136
 9457SOL    HW140007   1.602   0.516   9.470 -0.2704 -2.5536  0.8078
 9457SOL    HW240008   1.571   0.399   9.386 -0.8799 -0.8920  0.8430
 9458SOL     OW40009   3.008   3.856   6.337 -0.1934  0.0831  0.1184
 9458SOL    HW140010   2.945   3.849   6.265  0.2703  0.5851 -0.3310
 9458SOL    HW240011   3.059   3.778   6.319  0.3819  0.5303 -0.1920
 9459SOL     OW40012   4.075   1.809   5.675 -0.5417 -0.2119 -0.1268
 9459SOL    HW140013   4.081   1.728   5.625 -1.0586 -0.0349 -0.4760
 9459SOL    HW240014   3.988   1.793   5.712 -0.5745  1.8284  0.6579
 9460SOL     OW40015   4.337   0.101   7.647  0.0849 -0.4910  0.5249
 9460SOL    HW140016   4.359   0.018   7.605 -0.7492 -0.2966 -0.2903
 9460SOL    HW240017   4.261   0.077   7.700  0.4158 -1.3583  0.6038
 9461SOL     OW40018   0.590   1.204   0.230  0.2210  0.2531 -0.0982
 9461SOL    HW140019   0.564   1.211   0.321 -0.8060  3.1963 -0.6216
 9461SOL    HW240020   0.685   1.205   0.236  0.4382 -0.2867 -3.0480
 9462SOL     OW40021   2.359   1.848  12.043 -0.0443  0.4227  0.1716
 9462SOL    HW140022   2.430   1.835  12.106  0.7985 -0.6530 -1.0014
 9462SOL    HW240023   2.289   1.810  12.097 -0.4635 -1.1590 -1.5073
 9463SOL     OW40024   2.833   3.856   5.145 -0.1216 -0.6726 -0.2072
 9463SOL    HW140025   2.884   3.869   5.225 -2.9661 -0.0574  1.5024
 9463SOL    HW240026   2.748   3.891   5.172 -0.7102 -1.0065 -1.5910
 9464SOL     OW40027   1.364   1.670   5.947  0.0249  0.2076  0.2972
 9464SOL    HW140028   1.330   1.674   5.858  0.9521  2.3873  0.0439
 9464SOL    HW240029   1.397   1.580   5.950  0.9576  0.6112  1.9148
 9465SOL     OW40030   3.033   1.435   6.550 -0.2329  0.0857 -1.0339
 9465SOL    HW140031   2.958   1.488   6.522  0.3600  1.2869 -0.3753
 9465SOL    HW240032   3.008   1.360   6.496 -1.8872 -0.0060 -0.1159
 9466SOL     OW40033   0.784   1.247   8.129  0.1273 -0.6792  0.1593
 9466SOL    HW140034   0.743   1.234   8.215  0.8014  1.8974  0.8546
 9466SOL    HW240035   0.742   1.327   8.100  2.5187 -0.1608 -1.8377
 9467SOL     OW40036   3.289   3.513   2.300 -0.6531 -0.1770  0.0847
 9467SOL    HW140037   3.196   3.495   2.318 -0.9222  1.5950  0.4349
 9467SOL    HW240038   3.329   3.512   2.387 -0.8881  2.4225  0.2252
 9468SOL     OW40039   1.293   4.342   9.677  0.3946  0.1711  0.0292
 9468SOL    HW140040   1.329   4.259   9.645  1.3919  1.3842 -1.9831
 9468SOL    HW240041   1.349   4.351   9.754  0.7003 -1.2238 -0.0209
 9469SOL     OW40042   3.630   4.571  14.061  0.0492 -0.4100  0.1873
 9469SOL    HW140043   3.547   4.536  14.093  0.7502 -0.9317  1.4445
 9469SOL    HW240044   3.637   4.654  14.108  1.1559 -1.1775  1.3621
 9470SOL     OW40045   2.062   3.914   4.338  0.6236  0.6657  0.0925
 9470SOL    HW140046   2.037   3.886   4.426  2.4945  1.3057  0.8204
 9470SOL    HW240047   2.156   3.923   4.353  0.8113 -0.6114 -0.2827
 9471SOL     OW40048   1.902   3.082   8.843 -0.4659 -0.0580  0.1859
 9471SOL    HW140049   1.954   3.144   8.793  0.9350 -1.7890 -0.5148
 9471SOL    HW240050   1.911   3.129   8.926 -0.4240 -1.1144  0.7786
 9472SOL     OW40051   2.066   3.595   7.450  0.2006  0.2963  0.4462
 9472SOL    HW140052   2.079   3.525   7.387  0.0291  1.5993 -1.0197
 9472SOL    HW240053   1.974   3.577   7.470 -0.0612  1.0861 -0.0779
 9473SOL     OW40054   3.429   3.546   4.730  0.1986 -0.0377 -0.7080
 9473SOL    HW140055   3.373   3.469   4.733  1.0695 -0.6551 -0.1795
 9473SOL    HW240056   3.439   3.559   4.635 -1.3132  0.4666 -0.7943
 9474SOL     OW40057   2.620   4.003  11.826 -0.1912  0.1861 -0.1803
 9474SOL    HW140058   2.667   4.083  11.802 -1.7941  1.4102  0.7059
 9474SOL    HW240059   2.534   4.047  11.823 -0.5325 -0.3768  1.5287
 9475SOL     OW40060   3.658   0.526   8.257 -0.7129  0.4646 -0.4517
 9475SOL    HW140061   3.599   0.545   8.185 -1.4589 -0.7611 -0.1721
 9475SOL    HW240062   3.600   0.465   8.303  1.1736 -0.7158  0.3772
 9476SOL     OW40063   3.148   4.040   4.350  0.5599  0.2427  0.0549
 9476SOL    HW140064   3.154   3.979   4.424  1.0890 -1.3367 -1.2849
 9476SOL    HW240065   3.184   3.988   4.278 -1.4016  0.6995 -1.2414
 9477SOL     OW40066   0.460   4.529   9.319  0.5414 -0.2074  0.3534
 9477SOL    HW140067   0.422   4.521   9.231  1.3890  0.8806 -0.1076
 9477SOL    HW240068   0.390   4.540   9.384  1.3197 -0.4359  1.2310
 9478SOL     OW40069   0.846   2.770  14.325 -0.4649 -0.1266 -0.5865
 9478SOL    HW140070   0.869   2.856  14.359  0.1969 -0.7870  0.6119
 9478SOL    HW240071   0.911   2.741  14.260  0.9909  0.3966  0.6251
 9479SOL     OW40072   2.888   2.893   6.705 -0.6207 -0.0203  0.3775
 9479SOL    HW140073   2.854   2.885   6.794  2.9434  1.5824  1.9198
 9479SOL    HW240074   2.961   2.831   6.720 -0.6720 -0.1291  0.1748
 9480SOL     OW40075   4.352   3.149   5.955  0.0497 -0.0938  0.8931
 9480SOL    HW140076   4.353   3.164   5.860  0.0157 -1.2753  0.7054
 9480SOL    HW240077   4.420   3.204   5.993  0.5377 -0.8996  1.1913
 9481SOL     OW40078   3.002   3.455   0.199 -0.3730  0.5500 -0.1509
 9481SOL    HW140079   3.086   3.443   0.155 -0.7428 -1.7890 -0.2559
 9481SOL    HW240080   2.945   3.379   0.185  0.8655 -0.5892  0.9775
 9482SOL     OW40081   4.639   0.856   5.181  0.1319  0.1312 -0.1694
 9482SOL    HW140082   4.690   0.843   5.101 -0.9327  0.0852 -0.8506
 9482SOL    HW240083   4.570   0.913   5.147 -0.8092 -0.2149  1.1612
 9483SOL     OW40084   1.388   2.395   4.072 -0.7408 -0.0340  0.0479
 9483SOL    HW140085   1.407   2.356   4.157 -1.2758 -0.7001 -0.1369
 9483SOL    HW240086   1.417   2.486   4.083 -0.7283  0.0129 -0.3647
 9484SOL     OW40087   1.748   4.328   5.798  0.8236 -0.1779 -0.6592
 9484SOL    HW140088   1.816   4.368   5.852 -1.0347  1.6718  0.2879
 9484SOL    HW240089   1.725   4.409   5.752  2.4113 -0.3145 -1.6987
 9485SOL     OW40090   1.634   2.952   0.360 -0.0055  0.2977 -0.0607
 9485SOL    HW140091   1.653   2.873   0.309 -1.7531  0.7485 -1.4196
 9485SOL    HW240092   1.638   2.915   0.448 -1.2243 -0.0775 -0.1651
 9486SOL     OW40093   2.874   2.772   9.204  0.2543  0.4216 -0.1983
 9486SOL    HW140094   2.933   2.733   9.268  0.5033 -1.7649 -1.7628
 9486SOL    HW240095   2.859   2.709   9.134  1.3309 -0.9464  0.8017
 9487SOL     OW40096   4.629   4.601   6.785  0.2031  0.1626  0.3322
 9487SOL    HW140097   4.636   4.566   6.696  1.9566 -0.0240  0.5312
 9487SOL    HW240098   4.656   4.526   6.839 -0.8939 -1.0982 -0.8591
 9488SOL     OW40099   0.160   0.370   9.508 -0.0694 -0.8327  0.5333
 9488SOL    HW140100   0.162   0.283   9.469 -0.0828 -1.1302  1.2003
 9488SOL    HW240101   0.172   0.344   9.599  0.3345 -2.1390  0.1029
 9489SOL     OW40102   1.979   2.887  12.924  0.0427  0.1138 -0.5870
 9489SOL    HW140103   2.071   2.869  12.940 -0.1862 -0.0021  0.6084
 9489SOL    HW240104   1.989   2.974  12.886  2.1020 -0.0276 -0.3172
 9490SOL     OW40105   0.415   2.521   1.999 -0.0260  0.3636 -0.2384
 9490SOL    HW140106   0.388   2.529   1.908  2.2125 -3.7592 -1.2748
 9490SOL    HW240107   0.427   2.426   1.988 -1.0232  0.1552  0.4646
 9491SOL     OW40108   2.840   2.440  11.767  0.3211  0.6088 -0.1941
 9491SOL    HW140109   2.910   2.453  11.702 -0.6729 -1.2760 -1.6476
 9491SOL    HW240110   2.859   2.515  11.823  0.0825  0.7423 -0.2942
 9492SOL     OW40111   4.648   2.657   6.106  0.1791 -0.3145  0.1625
 9492SOL    HW140112   4.702   2.720   6.154  0.8592 -0.1896 -0.7826
 9492SOL    HW240113   4.562   2.660   6.149  1.8686 -1.5800  3.6130
 9493SOL     OW40114   1.099   0.985  12.433  0.5666 -0.4898  0.0168
 9493SOL    HW140115   1.047   1.061  12.406  1.4770  0.5317  1.1438
 9493SOL    HW240116   1.140   1.033  12.505  1.3377 -1.2798  0.1048
 9494SOL     OW40117   0.422   1.671   5.862 -0.2389  0.2043  0.3745
 9494SOL    HW140118   0.371   1.730   5.806 -2.2711 -1.6380  0.2851
 9494SOL    HW240119   0.480   1.738   5.899  1.3484 -1.9214  1.7352
 9495SOL     OW40120   1.872   4.288   3.504  0.2364 -0.6503  0.0589
 9495SOL    HW140121   1.821   4.217   3.543  2.6005 -1.4006  1.8112
 9495SOL    HW240122   1.818   4.361   3.535  0.1171 -1.3007  1.3757
 9496SOL     OW40123   0.136   4.218   6.438 -0.2373  0.0861 -0.2245
 9496SOL    HW140124   0.042   4.207   6.428 -0.3565  1.8303 -1.0727
 9496SOL    HW240125   0.182   4.145   6.397  2.0501  1.0030  0.7069
 9497SOL     OW40126   1.967   4.269   1.239  0.7845 -0.8825  0.2463
 9497SOL    HW140127   2.038   4.205   1.244  0.3277 -1.1778  2.9207
 9497SOL    HW240128   1.934   4.272   1.329 -0.4101  2.2633 -0.2709
 9498SOL     OW40129   2.481   1.398   5.904 -0.3255  0.2422 -0.0516
 9498SOL    HW140130   2.484   1.451   5.984  0.4289 -1.6570  1.1675
 9498SOL    HW240131   2.392   1.424   5.880 -0.6282 -0.0671  0.7371
 9499SOL     OW40132   1.375   2.756   2.879  0.2842  0.3796 -0.4406
 9499SOL    HW140133   1.382   2.851   2.894  0.5622  0.3907 -0.6304
 9499SOL    HW240134   1.349   2.759   2.787 -0.0387 -1.5805 -0.4016
 9500SOL     OW40135   3.322   1.524   2.704  0.0135 -0.2273  0.2823
 9500SOL    HW140136   3.347   1.595   2.645  0.9156 -1.5683 -0.9479
 9500SOL    HW240137   3.395   1.520   2.766  1.0287  1.0945 -0.8437
 9501SOL     OW40138   3.472   1.756   0.819  0.3534 -0.5667  0.5914
 9501SOL    HW140139   3.409   1.826   0.836  0.2995 -0.4590 -0.0401
 9501SOL    HW240140   3.430   1.718   0.742  1.6856 -2.2968  0.7133
 9502SOL     OW40141   4.260   0.233  15.107 -0.3752  0.2502  0.3195
 9502SOL    HW140142   4.323   0.270  15.046 -0.2242  0.6702  0.7327
 9502SOL    HW240143   4.208   0.173  15.054 -2.6623  2.2842  0.2466
 9503SOL     OW40144   2.812   1.953   6.974 -0.4701 -0.2909  0.5463
 9503SOL    HW140145   2.842   2.022   6.915 -0.6408  0.1895  1.0144
 9503SOL    HW240146   2.887   1.930   7.029 -0.5593 -1.8436  0.0167
 9504SOL     OW40147   3.517   0.173   8.932 -0.1714 -0.0600 -0.7060
 9504SOL    HW140148   3.477   0.123   9.003 -0.1168 -0.4628 -0.9530
 9504SOL    HW240149   3.573   0.231   8.984  0.2186  0.2361 -1.4602
 9505SOL     OW40150   2.507   3.863   7.853 -0.4411  0.3746  0.3523
 9505SOL    HW140151   2.589   3.839   7.897  0.4789  2.3385 -0.2732
 9505SOL    HW240152   2.539   3.868   7.763 -0.6890  0.9319  0.2970
 9506SOL     OW40153   1.991   1.764   4.325  0.4712 -0.2648  0.0399
 9506SOL    HW140154   2.064   1.712   4.291  0.6520 -0.9725  1.5079
 9506SOL    HW240155   1.960   1.781   4.237 -0.5345 -0.1146  0.4333
 9507SOL     OW40156   3.348   1.714  17.704  0.2891  0.4342  0.3245
 9507SOL    HW140157   3.276   1.738   0.012 -0.3884 -0.5871 -0.1025
 9507SOL    HW240158   3.422   1.709   0.016 -0.2418 -0.8880  0.8676
 9508SOL     OW40159   3.643   2.250   4.484 -0.3582  0.2150  0.2832
 9508SOL    HW140160   3.647   2.343   4.463  0.7092  0.7601  2.8948
 9508SOL    HW240161   3.553   2.232   4.458 -0.4696  1.6304 -0.3099
 9509SOL     OW40162   0.256   0.572   2.599 -0.2472  0.2244  0.4001
 9509SOL    HW140163   0.272   0.569   2.693  1.4839 -0.3629  0.0974
 9509SOL    HW240164   0.166   0.603   2.602 -0.0371  0.8715  0.0947
 9510SOL     OW40165   1.213   2.243  13.820  0.0452 -0.3922 -0.0037
 9510SOL    HW140166   1.183   2.275  13.905 -1.5187 -0.0005 -0.7071
 9510SOL    HW240167   1.305   2.232  13.847  0.6319  0.0387 -1.8360
 9511SOL     OW40168   4.396   2.137   8.083 -0.4961  0.4960  0.0122
 9511SOL    HW140169   4.360   2.051   8.104  1.6386  0.0929  1.9752
 9511SOL    HW240170   4.431   2.149   8.172 -1.8997 -0.8896  0.7498
 9512SOL     OW40171   2.349   3.265   3.664  0.4923 -0.4546 -0.5935
 9512SOL    HW140172   2.269   3.314   3.682 -0.0920 -1.6038 -0.0857
 9512SOL    HW240173   2.345   3.266   3.569 -0.8425  0.1511 -0.5356
 9513SOL     OW40174   2.777   3.185   1.663 -0.3011 -0.7697  0.3068
 9513SOL    HW140175   2.759   3.186   1.569 -0.7059  0.1410  0.3990
 9513SOL    HW240176   2.873   3.175   1.663 -0.4433 -2.0540  1.6317
 9514SOL     OW40177   2.800   0.087   7.337 -0.2902  0.3025 -0.3888
 9514SOL    HW140178   2.736   0.024   7.304  2.4536 -2.3680 -0.6416
 9514SOL    HW240179   2.741   0.143   7.386  0.1827 -0.2332  0.7947
 9515SOL     OW40180   2.227   3.451   1.533 -0.0014  0.1554 -0.6853
 9515SOL    HW140181   2.148   3.455   1.480  1.2819  2.3124 -2.3995
 9515SOL    HW240182   2.294   3.496   1.482  1.9526  0.3694  2.0399
 9516SOL     OW40183   3.066   2.851   4.876  0.4395 -0.5868  0.2501
 9516SOL    HW140184   3.129   2.837   4.948 -1.4686 -2.1900  1.6023
 9516SOL    HW240185   3.006   2.915   4.913 -0.7261 -0.5211 -1.7966
 9517SOL     OW40186   2.993   3.301   9.803  0.1252  0.1113 -0.3328
 9517SOL    HW140187   2.983   3.245   9.726 -0.8584 -1.9723  1.2986
 9517SOL    HW240188   3.085   3.324   9.787  0.0787  0.9213  0.5576
 9518SOL     OW40189   1.173   2.022  13.670 -0.3595 -0.1348 -0.3254
 9518SOL    HW140190   1.194   2.096  13.727 -1.0329  0.1133 -0.4050
 9518SOL    HW240191   1.078   2.027  13.667 -0.5168 -2.4710  1.1094
 9519SOL     OW40192   0.348   0.269   7.309 -0.1312 -0.2416 -0.3826
 9519SOL    HW140193   0.366   0.345   7.365  1.1194 -0.3540 -0.6400
 9519SOL    HW240194   0.272   0.221   7.343  0.1131  0.9473  1.8210
 9520SOL     OW40195   0.355   3.877   1.669 -0.6610 -0.3264 -0.4988
 9520SOL    HW140196   0.402   3.831   1.739 -2.1833  0.3317  0.9403
 9520SOL    HW240197   0.432   3.891   1.613 -0.3766  2.0891  0.5218
 9521SOL     OW40198   4.728   1.668   5.348  0.3576  0.1830 -0.0844
 9521SOL    HW140199   4.712   1.701   5.436 -0.2686  0.3109 -0.2470
 9521SOL    HW240200   4.736   1.573   5.364  2.1129  0.1853 -0.9795
 9522SOL     OW40201   2.784   0.684   5.015  0.4807  0.4286  0.1430
 9522SOL    HW140202   2.743   0.627   4.950 -0.4588  2.0236 -0.6399
 9522SOL    HW240203   2.874   0.665   4.989 -0.4444 -0.9666 -2.0172
 9523SOL     OW40204   4.258   3.017   1.606 -0.3360 -0.3337 -0.5921
 9523SOL    HW140205   4.265   2.985   1.696 -1.9045  1.0277  0.0006
 9523SOL    HW240206   4.343   3.060   1.596 -1.5558  2.0534 -0.4895
 9524SOL     OW40207   2.688   2.090   2.485  0.0815 -0.2212  0.3193
 9524SOL    HW140208   2.631   2.035   2.431  1.2555 -0.6190 -0.5291
 9524SOL    HW240209   2.703   2.155   2.416 -3.6068  0.9058  0.5850
 9525SOL     OW40210   3.486   2.314   9.639 -0.1956 -0.6793 -0.1158
 9525SOL    HW140211   3.446   2.401   9.633  0.4854 -0.1991  2.3781
 9525SOL    HW240212   3.413   2.256   9.660 -1.8578  1.3281 -0.3411
 9526SOL     OW40213   2.978   2.711   3.835  0.8038  0.2518  0.6113
 9526SOL    HW140214   3.065   2.681   3.809  0.6436 -0.8377  1.3337
 9526SOL    HW240215   2.929   2.634   3.807 -0.1030 -0.1592  3.3276
 9527SOL     OW40216   4.230   1.081   3.403  0.3571 -0.3127 -0.0233
 9527SOL    HW140217   4.311   1.125   3.375  1.2274 -1.9543 -0.0468
 9527SOL    HW240218   4.243   1.066   3.496 -1.2132  1.8422  0.5511
 9528SOL     OW40219   1.235   2.325   6.147  0.2860 -0.5330  0.2594
 9528SOL    HW140220   1.160   2.304   6.092 -2.0089  1.9357  2.4448
 9528SOL    HW240221   1.192   2.333   6.232  0.4877 -0.5061  0.3588
 9529SOL     OW40222   2.471   0.657  15.020  0.8826 -0.2385  0.2927
 9529SOL    HW140223   2.483   0.625  15.109  1.1123 -1.2739 -0.1115
 9529SOL    HW240224   2.555   0.699  15.003  1.5659 -2.2642 -1.3219
 9530SOL     OW40225   3.759   1.495   1.452 -0.6272 -0.0484 -0.0078
 9530SOL    HW140226   3.690   1.455   1.399 -1.3709 -0.3603  1.2177
 9530SOL    HW240227   3.734   1.587   1.461 -0.5151 -0.0814  0.6152
 9531SOL     OW40228   0.240   2.585   6.167  0.0271 -0.2621  0.0157
 9531SOL    HW140229   0.315   2.629   6.126 -0.3653  0.3128 -0.0727
 9531SOL    HW240230   0.290   2.503   6.173  0.5771  0.1363  0.8814
 9532SOL     OW40231   1.785   2.186   3.854  0.4396  0.1876 -0.2385
 9532SOL    HW140232   1.835   2.130   3.795  1.6697  1.4269 -0.3723
 9532SOL    HW240233   1.760   2.128   3.926  0.4686  0.1967 -0.2214
 9533SOL     OW40234   2.514   3.995   1.683  0.1568  0.2364  0.1090
 9533SOL    HW140235   2.558   3.961   1.604  0.8811  1.1929  0.1119
 9533SOL    HW240236   2.504   4.088   1.665 -2.4823  0.0682  0.6883
 9534SOL     OW40237   2.833   2.128   9.580 -0.1848  0.2244 -0.5700
 9534SOL    HW140238   2.911   2.173   9.547  1.0780 -1.8938 -0.5144
 9534SOL    HW240239   2.803   2.185   9.650 -2.0093  0.4623 -1.5477
 9535SOL     OW40240   1.041   3.069   6.475  0.8388 -0.6557  0.0505
 9535SOL    HW140241   1.035   3.069   6.379 -0.1381  1.1376  0.1071
 9535SOL    HW240242   1.097   2.992   6.482 -0.6815 -1.3738  3.7912
 9536SOL     OW40243   0.663   3.909   3.365  0.3383 -0.2724 -0.3365
 9536SOL    HW140244   0.695   3.998   3.382 -0.9460 -0.1106  1.2292
 9536SOL    HW240245   0.729   3.853   3.408 -0.3814 -0.3593  0.6457
 9537SOL     OW40246   0.387   1.776  11.210  0.1539 -0.1612 -0.6202
 9537SOL    HW140247   0.357   1.728  11.287 -3.4220 -0.2817 -2.0926
 9537SOL    HW240248   0.301   1.802  11.175  0.4375  1.1590 -0.3180
 9538SOL     OW40249   0.904   2.672   4.327 -0.2537 -0.2409 -0.6096
 9538SOL    HW140250   0.910   2.762   4.293  1.7446 -1.0974 -2.5181
 9538SOL    HW240251   0.870   2.624   4.252  1.3088  1.1955 -2.2281
 9539SOL     OW40252   0.825   1.270   2.648 -0.1206 -0.0935  0.4839
 9539SOL    HW140253   0.814   1.231   2.561 -0.5818 -0.0575  0.5224
 9539SOL    HW240254   0.864   1.356   2.635 -0.7810 -0.1051 -1.6450
 9540SOL     OW40255   4.514   4.299   9.816 -0.3547 -0.3164 -1.2794
 9540SOL    HW140256   4.555   4.212   9.817 -1.1760 -0.6909 -0.7400
 9540SOL    HW240257   4.591   4.353   9.833 -2.1691  1.2932  1.7367
 9541SOL     OW40258   0.177   0.355   7.097 -0.1071 -0.2962 -0.5394
 9541SOL    HW140259   0.118   0.303   7.152  0.5493  0.2658  0.7129
 9541SOL    HW240260   0.256   0.333   7.147  0.2868 -0.5208 -1.2701
 9542SOL     OW40261   3.085   0.094   8.593  0.1398  0.3338  0.2105
 9542SOL    HW140262   3.063   0.042   8.671  0.3427 -0.1593 -0.0608
 9542SOL    HW240263   3.147   0.034   8.551  1.2607  1.7833 -0.1954
 9543SOL     OW40264   1.906   3.268   1.201  0.3936 -0.0334  0.1035
 9543SOL    HW140265   1.834   3.205   1.197  0.8733 -0.3186 -3.5100
 9543SOL    HW240266   1.883   3.333   1.135 -0.2642 -2.3579 -1.9296
 9544SOL     OW40267   2.632   2.203   4.999  0.1093  0.1881 -0.2992
 9544SOL    HW140268   2.640   2.269   4.929 -2.8501  1.4718  0.5480
 9544SOL    HW240269   2.688   2.135   4.962  0.8868 -0.8014  2.7197
 9545SOL     OW40270   2.186   4.039   5.067  0.3279  0.2544  0.6568
 9545SOL    HW140271   2.191   3.950   5.033 -0.1154  1.2901 -2.0990
 9545SOL    HW240272   2.106   4.062   5.021 -0.3626  0.8602  2.1482
 9546SOL     OW40273   2.922   3.620   3.383 -0.4729  0.9709  0.2404
 9546SOL    HW140274   3.016   3.611   3.370 -0.3782  1.1704  0.7946
 9546SOL    HW240275   2.905   3.625   3.289  0.7352  0.7818  0.0195
 9547SOL     OW40276   3.607   3.781   6.935 -0.2526  0.0713  0.2453
 9547SOL    HW140277   3.608   3.876   6.926 -2.4066  0.0317 -0.5688
 9547SOL    HW240278   3.670   3.766   7.005  0.3473 -1.1896 -0.5465
 9548SOL     OW40279   3.656   3.186   5.559 -0.4520 -0.0480  0.0494
 9548SOL    HW140280   3.741   3.142   5.556 -0.6522 -0.4567  0.4072
 9548SOL    HW240281   3.621   3.146   5.478  2.0571  2.4333 -2.2394
 9549SOL     OW40282   1.878   0.822   6.435  0.2992 -0.3746  0.4418
 9549SOL    HW140283   1.973   0.819   6.441  0.2195 -1.6117  1.0535
 9549SOL    HW240284   1.861   0.916   6.435  1.3681 -0.1879  1.3668
 9550SOL     OW40285   3.741   4.384   4.585 -0.3724  0.4665 -0.0120
 9550SOL    HW140286   3.796   4.397   4.662 -1.9675 -0.3902  1.2978
 9550SOL    HW240287   3.661   4.427   4.618  0.5666  0.3897  2.3707
 9551SOL     OW40288   3.248   3.557   5.900 -0.3390  0.1803  0.0367
 9551SOL    HW140289   3.267   3.648   5.923 -3.9075  0.6828  1.1046
 9551SOL    HW240290   3.301   3.500   5.956 -1.0216  0.4831  0.9865
 9552SOL     OW40291   2.708   2.587   0.976 -0.2241  0.1840 -0.0176
 9552SOL    HW140292   2.726   2.589   1.070  1.4566 -4.0938 -0.2317
 9552SOL    HW240293   2.669   2.674   0.967  0.2378  0.3272 -0.6757
 9553SOL     OW40294   3.339   1.237   6.089  0.2349 -0.1039 -0.2198
 9553SOL    HW140295   3.315   1.309   6.031 -0.1544 -0.8003 -0.9184
 9553SOL    HW240296   3.249   1.216   6.112 -0.1695 -0.6235 -2.3051
 9554SOL     OW40297   3.627   2.871   3.649  0.6063  0.0199 -0.3340
 9554SOL    HW140298   3.551   2.820   3.621  0.5025 -0.7623  1.3685
 9554SOL    HW240299   3.682   2.809   3.696  0.7458  0.7269  0.4378
 9555SOL     OW40300   4.385   3.057   4.838 -1.1620 -0.9548 -0.0112
 9555SOL    HW140301   4.384   2.962   4.842 -0.4355 -0.9419  0.5768
 9555SOL    HW240302   4.374   3.073   4.744 -0.0331 -1.4133 -0.2204
 9556SOL     OW40303   0.350   3.815   3.796 -0.0127  0.4800  0.0272
 9556SOL    HW140304   0.359   3.882   3.727 -0.3634 -0.0526 -0.5332
 9556SOL    HW240305   0.443   3.812   3.818 -0.5842  0.5525  2.4754
 9557SOL     OW40306   3.725   1.140   5.764 -0.7798 -0.0069  0.7281
 9557SOL    HW140307   3.702   1.072   5.700  0.4436 -0.9310  1.2571
 9557SOL    HW240308   3.643   1.164   5.806  0.4348  0.2648  2.9241
 9558SOL     OW40309   1.737   1.001  12.556  0.2403  0.7076  0.1001
 9558SOL    HW140310   1.715   0.910  12.575 -1.5313  0.2531 -4.1007
 9558SOL    HW240311   1.765   0.984  12.466  0.4740 -1.4823  0.5893
 9559SOL     OW40312   0.104   0.761  13.312  0.7602  0.2062 -0.0499
 9559SOL    HW140313   0.056   0.844  13.308  0.3170  0.1628  5.4419
 9559SOL    HW240314   0.196   0.780  13.296  0.7463 -0.7396 -1.2413
 9560SOL     OW40315   1.533   4.535   7.462 -0.2512  0.1102 -0.6343
 9560SOL    HW140316   1.442   4.507   7.471  0.1684 -0.3522  2.0453
 9560SOL    HW240317   1.526   4.613   7.517  1.9466 -0.6741  0.7794
 9561SOL     OW40318   1.428   1.611   8.096 -0.8416  0.1589  0.7418
 9561SOL    HW140319   1.421   1.700   8.131 -0.7440  0.8559 -1.0266
 9561SOL    HW240320   1.523   1.596   8.094 -0.9606 -0.6053  0.9434
 9562SOL     OW40321   1.450   3.189   3.034 -0.9389 -0.1513 -0.1708
 9562SOL    HW140322   1.497   3.181   3.117 -1.0938  1.7018  0.0861
 9562SOL    HW240323   1.396   3.112   3.053 -1.2213  0.0545 -0.1491
 9563SOL     OW40324   0.369   0.576  14.945 -0.0710  0.1232 -0.3741
 9563SOL    HW140325   0.280   0.561  14.913  0.4890 -1.0371 -1.3799
 9563SOL    HW240326   0.362   0.671  14.949 -1.4241  0.0040  0.1763
 9564SOL     OW40327   4.533   4.216   6.899  0.1889 -0.0988 -0.5458
 9564SOL    HW140328   4.480   4.158   6.844 -0.8930  1.4700 -1.1549
 9564SOL    HW240329   4.467   4.278   6.931 -0.1750 -0.2034 -1.1002
 9565SOL     OW40330   1.602   1.743   6.463  0.2599  0.2125 -0.3568
 9565SOL    HW140331   1.551   1.676   6.417 -0.8996  0.5370  0.4617
 9565SOL    HW240332   1.635   1.795   6.389 -1.9228  1.9574 -0.0747
 9566SOL     OW40333   2.161   2.832  14.836  0.4702 -0.2044 -0.3938
 9566SOL    HW140334   2.136   2.743  14.863  2.4381 -0.0489  1.9122
 9566SOL    HW240335   2.079   2.855  14.792  0.5158 -2.9812 -1.9196
 9567SOL     OW40336   3.815   4.140   9.020 -0.1067 -0.5063  0.5797
 9567SOL    HW140337   3.759   4.196   8.966 -1.0660 -1.0383  1.0307
 9567SOL    HW240338   3.891   4.194   9.043 -0.8103 -0.1305  2.0196
 9568SOL     OW40339   1.088   2.373  16.522  0.2706 -0.3222 -0.2395
 9568SOL    HW140340   1.067   2.281  16.537  2.0943 -0.6300  0.4115
 9568SOL    HW240341   1.020   2.394  16.457  1.4535  1.4257 -0.9077
 9569SOL     OW40342   2.178   2.217   8.610  0.0949  0.4038 -0.2353
 9569SOL    HW140343   2.145   2.156   8.677  2.2102 -1.2341 -0.6728
 9569SOL    HW240344   2.138   2.300   8.634  1.5973  1.0242  0.0899
   4.73782   4.73782  17.74943
