Membrane in water
40344
    1TMC1    C1    1   2.797   2.759  11.690  0.1056 -0.2871  0.6711
    1TMC1    C2    2   2.864   2.850  11.780  0.1575 -0.7191  0.1289
    1TMC1    C3    3   2.990   2.891  11.742 -0.4009  0.0080 -0.8482
    1TMC1    C4    4   2.845   2.719  11.571  0.4783  0.8284  0.4236
    1TMC1    C5    5   2.966   2.773  11.545  0.1766 -0.4202 -0.7912
    1TMC1    C6    6   3.045   2.846  11.626 -0.5796 -0.1016  0.5551
    1TMC1     C    7   2.678   2.703  11.747 -0.3720 -0.3827 -0.0411
    1TMC1     O    8   2.636   2.752  11.852 -0.0333 -0.2161 -0.2296
    1TMC1     H    9   2.822   2.872  11.878  0.5489 -3.3258  0.8907
    1TMC1    H1   10   2.798   2.655  11.497  1.9259 -0.9647  1.0526
    1TMC1    H2   11   3.143   2.873  11.590 -0.5729 -0.6612  0.1607
    1TMC1    C7   12   3.038   2.713  11.433  0.3022  0.1893  0.2483
    1TMC1    C8   13   3.061   2.979  11.834 -0.7678 -0.3358  0.1047
    1TMC1    O1   14   2.994   2.613  11.375 -0.7679  0.0316  0.5563
    1TMC1    O2   15   3.184   2.998  11.824 -0.0107  0.5434 -0.5061
    1TMC1    O3   16   3.096   2.814  11.366 -0.6759 -0.6438  0.2953
    1TMC1    H3   17   3.104   2.898  11.416 -1.3759  0.5698 -1.6379
    1TMC1    O5   18   2.966   3.075  11.840  0.0276  0.6056  0.4209
    1TMC1    H5   19   2.878   3.046  11.809  0.1002  1.3815 -0.5018
    2MPD2     C   20   2.355   2.308  11.814 -0.2322  0.2417 -0.2362
    2MPD2    C1   21   2.337   2.436  11.855  0.1753  0.0104 -0.5478
    2MPD2    C2   22   2.437   2.529  11.808 -0.0330  0.4068  0.2807
    2MPD2    C3   23   2.534   2.496  11.722  0.2880  0.7216 -0.5824
    2MPD2    C4   24   2.530   2.365  11.667  0.3798 -0.3429 -0.2108
    2MPD2    C5   25   2.443   2.271  11.720  0.1401  0.1904 -0.6189
    2MPD2     H   26   2.428   2.631  11.843  1.1359 -0.3655  2.8479
    2MPD2    H1   27   2.601   2.332  11.591  1.0311 -0.3413  0.4003
    2MPD2    H2   28   2.297   2.226  11.854 -1.5149  1.1698 -0.2278
    2MPD2    H3   29   2.450   2.167  11.690 -0.1059 -0.1019  0.3189
    2MPD2     N   30   2.633   2.588  11.682  0.1485 -0.4735 -0.3895
    2MPD2    H5   31   2.697   2.560  11.609  0.0319 -1.1233 -0.2379
    2MPD2    N1   32   2.227   2.479  11.933 -0.3632 -0.4368 -0.4494
    2MPD2    H7   33   2.220   2.580  11.935  0.4815 -0.3953  0.4637
    3TMC1    C1   34   2.380   3.502  10.891  0.5891  0.0438  0.0367
    3TMC1    C2   35   2.469   3.400  10.908  0.2632  0.3107 -0.6191
    3TMC1    C3   36   2.591   3.409  10.849  0.2055  0.0860 -0.3114
    3TMC1    C4   37   2.406   3.618  10.817 -0.3316  0.4083 -0.0193
    3TMC1    C5   38   2.525   3.612  10.751  0.9732  0.6414  0.2543
    3TMC1    C6   39   2.615   3.511  10.771 -0.4190 -0.1112 -0.0446
    3TMC1     C   40   2.260   3.494  10.975 -0.0685 -0.4581  0.2661
    3TMC1     O   41   2.219   3.386  11.010 -0.2304 -0.2683  0.0237
    3TMC1     H   42   2.446   3.314  10.971 -2.8431  0.6468 -1.3100
    3TMC1    H1   43   2.337   3.702  10.814  0.1645  0.7970 -0.6623
    3TMC1    H2   44   2.713   3.526  10.726  0.2297  1.0574  1.7287
    3TMC1    C7   45   2.567   3.714  10.658  0.1032  0.5520  0.3260
    3TMC1    C8   46   2.675   3.287  10.840 -0.0190  0.3303 -0.3294
    3TMC1    O1   47   2.630   3.693  10.555 -0.6541  0.5461  0.6598
    3TMC1    O2   48   2.625   3.179  10.868 -0.0771 -0.0995  0.4194
    3TMC1    O3   49   2.567   3.829  10.730  0.1082  0.1303  0.0995
    3TMC1    H3   50   2.554   3.802  10.824 -0.4608 -1.9772 -0.5811
    3TMC1    O5   51   2.802   3.300  10.789  0.0271  0.3124 -0.3553
    3TMC1    H5   52   2.841   3.387  10.768  1.5159 -0.0685  0.8045
    4MPD2     C   53   1.834   3.688  11.202  0.1010 -0.0661  0.0819
    4MPD2    C1   54   1.917   3.789  11.152 -0.1547  0.0166  0.5851
    4MPD2    C2   55   2.038   3.760  11.105 -0.1512 -0.1753  0.1670
    4MPD2    C3   56   2.095   3.631  11.095 -0.2805  0.0263  0.5103
    4MPD2    C4   57   2.011   3.526  11.141  0.2005 -0.0285  0.0721
    4MPD2    C5   58   1.887   3.559  11.195 -0.1480 -0.0173  0.2716
    4MPD2     H   59   2.098   3.845  11.074 -1.8452  0.0649 -2.4150
    4MPD2    H1   60   2.044   3.424  11.147 -0.0837 -0.0843  0.6652
    4MPD2    H2   61   1.736   3.698  11.246 -0.3297 -0.4533 -0.7804
    4MPD2    H3   62   1.821   3.483  11.234 -0.8448 -1.1574 -3.1701
    4MPD2     N   63   2.208   3.615  11.013 -0.1328  0.3360  0.9575
    4MPD2    H5   64   2.260   3.700  10.996 -0.7499  0.7374  1.0852
    4MPD2    N1   65   1.877   3.927  11.157 -0.0831  0.4011 -0.6511
    4MPD2    H7   66   1.944   3.999  11.132  0.5618  1.5707  4.4678
    5TCq1    O1   67   2.086   1.153  12.448 -0.2847  0.0815 -0.1183
    5TCq1    C1   68   2.153   1.250  12.382  0.4346 -0.7783  0.2865
    5TCq1    O2   69   2.262   1.294  12.412 -1.1545 -0.4670 -0.2735
    5TCq1    C2   70   2.104   1.262  12.251 -0.0661  0.2181  0.3220
    5TCq1    C3   71   1.977   1.304  12.222 -0.1683  0.0594  0.3687
    5TCq1    C4   72   1.927   1.281  12.097 -0.2600 -0.4955 -0.0158
    5TCq1    C5   73   1.990   1.200  12.007 -1.0338  0.4412 -0.0584
    5TCq1    C6   74   2.121   1.167  12.036  0.4734  0.0710  0.1009
    5TCq1    C7   75   2.184   1.192  12.156 -0.0142 -0.2079 -1.0155
    5TCq1    C8   76   2.210   1.143  11.920  0.7233 -0.6239  0.5073
    5TCq1    O4   77   2.318   1.086  11.943  0.2185 -0.6674  0.0595
    5TCq1    C9   78   1.796   1.331  12.073  0.0632 -0.4420 -0.3748
    5TCq1    O5   79   1.736   1.287  11.973  0.6894  0.5701  1.4285
    5TCq1    O6   80   1.734   1.392  12.166 -0.1092  0.2412  0.0951
    5TCq1    H1   81   2.011   1.107  12.405 -0.0005 -1.3945  0.9549
    5TCq1    H2   82   1.913   1.346  12.299 -1.3135  1.4533 -1.3388
    5TCq1    H3   83   1.943   1.182  11.912 -1.2096  0.3850  0.0390
    5TCq1    H4   84   2.290   1.175  12.173 -0.5793 -1.5474  1.1149
    6MPD2     C   85   2.187   1.310  11.597 -0.9838 -0.0995 -0.3164
    6MPD2    C1   86   2.225   1.208  11.681  0.4237  0.0584  0.1321
    6MPD2    C2   87   2.316   1.107  11.632 -0.1109  0.5700 -0.5525
    6MPD2    C3   88   2.347   1.108  11.496  0.1565 -0.5736 -0.3954
    6MPD2    C4   89   2.305   1.217  11.418 -0.4499  0.3835 -0.3478
    6MPD2    C5   90   2.241   1.323  11.473 -0.4304 -0.5391 -0.4134
    6MPD2     H   91   2.342   1.024  11.696  0.7495  0.3536 -1.1943
    6MPD2    H1   92   2.323   1.215  11.311  0.1768 -0.3746 -0.2347
    6MPD2    H2   93   2.120   1.388  11.633 -1.5142 -1.0085  0.6459
    6MPD2    H3   94   2.206   1.401  11.407  0.3297  0.8811  0.8726
    6MPD2     N   95   2.413   0.997  11.434  0.5292  0.2688 -0.2695
    6MPD2    H5   96   2.462   0.929  11.491 -1.3039 -0.8241 -0.0107
    6MPD2    N1   97   2.163   1.208  11.807 -0.0624 -0.2474  0.0009
    6MPD2    H7   98   2.081   1.269  11.811  0.9289  0.9073  2.7116
    7TCq1    O1   99   0.614   0.787  14.229  0.1564 -0.0872  0.1410
    7TCq1    C1  100   0.670   0.902  14.188 -0.2223 -0.2767 -0.1366
    7TCq1    O2  101   0.678   1.008  14.250 -0.2311  0.3630 -0.4952
    7TCq1    C2  102   0.695   0.886  14.048  0.5003  0.1513 -0.6834
    7TCq1    C3  103   0.709   1.009  13.980 -0.1830  0.5619  0.2786
    7TCq1    C4  104   0.717   0.999  13.843  0.5605  0.0684 -0.8214
    7TCq1    C5  105   0.742   0.876  13.781  0.0687 -0.2007 -0.0883
    7TCq1    C6  106   0.725   0.763  13.856 -0.2680 -0.1442 -0.6144
    7TCq1    C7  107   0.700   0.763  13.991  0.3706  0.4501  0.3834
    7TCq1    C8  108   0.725   0.636  13.795  0.2359 -0.2072 -0.1273
    7TCq1    O4  109   0.658   0.545  13.848 -0.1120  0.1480 -0.8967
    7TCq1    C9  110   0.725   1.119  13.764 -0.6089 -0.6238 -0.2077
    7TCq1    O5  111   0.729   1.223  13.829 -0.0508 -0.1686  0.2630
    7TCq1    O6  112   0.738   1.109  13.639  0.1031  0.3517 -0.5157
    7TCq1    H1  113   0.571   0.737  14.156 -0.5999  0.3317  0.3008
    7TCq1    H2  114   0.696   1.106  14.028  0.9505  0.5648  0.5613
    7TCq1    H3  115   0.760   0.880  13.674 -0.5716  2.0236 -0.1051
    7TCq1    H4  116   0.709   0.671  14.048  1.1347  0.9405  1.0628
    8MPD2     C  117   0.776   0.368  13.365  0.5583  0.7228  0.2966
    8MPD2    C1  118   0.685   0.357  13.466  0.0532  0.9888 -0.1844
    8MPD2    C2  119   0.688   0.452  13.565 -0.2611 -0.3125 -0.2094
    8MPD2    C3  120   0.791   0.543  13.577  0.0298  0.2924  0.6212
    8MPD2    C4  121   0.898   0.536  13.488  0.1135  0.1359 -0.7659
    8MPD2    C5  122   0.883   0.458  13.375  0.5833 -0.3237  0.0322
    8MPD2     H  123   0.606   0.461  13.635  0.7756 -0.1329  0.9730
    8MPD2    H1  124   0.987   0.598  13.492  0.6603 -0.5926 -1.5591
    8MPD2    H2  125   0.770   0.296  13.284  0.2753 -0.0662  1.0256
    8MPD2    H3  126   0.956   0.463  13.295  2.1318  0.6621  1.5115
    8MPD2     N  127   0.802   0.633  13.679  0.1563  0.7960 -0.2652
    8MPD2    H5  128   0.885   0.692  13.683  0.0910  0.8852 -0.2488
    8MPD2    N1  129   0.584   0.264  13.454  0.5882  0.0683 -0.0934
    8MPD2    H7  130   0.593   0.204  13.372 -2.2216  0.9124 -1.0313
    9TMC1    C1  131   2.838   2.912  11.190  0.6895 -0.0067 -0.2649
    9TMC1    C2  132   2.892   2.810  11.120 -0.1178 -0.7215 -0.6627
    9TMC1    C3  133   3.008   2.832  11.051  0.3922  0.0409 -0.1429
    9TMC1    C4  134   2.879   3.041  11.173  0.4201  0.1462 -0.0099
    9TMC1    C5  135   2.984   3.060  11.086 -0.4161 -0.2046 -0.6123
    9TMC1    C6  136   3.057   2.959  11.025  0.8432 -0.2176  0.3377
    9TMC1     C  137   2.717   2.878  11.265  0.0885  0.7594  0.9651
    9TMC1     O  138   2.662   2.768  11.245  0.5491 -0.1250  0.1089
    9TMC1     H  139   2.850   2.712  11.143 -1.0858 -0.4000 -1.0628
    9TMC1    H1  140   2.829   3.125  11.219 -0.0787  0.8921 -1.9172
    9TMC1    H2  141   3.143   2.978  10.961  0.8094  1.0527  0.6692
    9TMC1    C7  142   3.029   3.197  11.082 -0.5236 -0.9702  0.2687
    9TMC1    C8  143   3.068   2.711  10.988  0.3531 -0.1581  0.2298
    9TMC1    O1  144   2.989   3.281  11.159 -0.1721 -0.0119  0.1237
    9TMC1    O2  145   3.026   2.664  10.883  0.5758 -0.4266  0.6128
    9TMC1    O3  146   3.100   3.216  10.974 -0.0392  0.1165  0.4156
    9TMC1    H3  147   3.089   3.147  10.904  1.4667  0.3050 -0.0037
    9TMC1    O5  148   3.098   2.641  11.097  0.3356 -0.0899 -0.2928
    9TMC1    H5  149   3.130   2.694  11.173  1.9780  0.1625 -1.1465
   10MPD2     C  150   2.527   2.844  11.489 -0.0220  0.0943 -0.0156
   10MPD2    C1  151   2.570   2.962  11.439  0.5013 -1.0400 -0.2479
   10MPD2    C2  152   2.514   3.078  11.496  0.2600 -0.7300  0.2193
   10MPD2    C3  153   2.416   3.073  11.594  0.5356  0.3615 -0.2592
   10MPD2    C4  154   2.372   2.950  11.633 -0.1287 -0.0243  0.2164
   10MPD2    C5  155   2.424   2.838  11.581 -0.1564  0.1134  0.2575
   10MPD2     H  156   2.550   3.173  11.460 -0.4779 -1.0803 -1.4585
   10MPD2    H1  157   2.294   2.933  11.706  0.5300  3.2550  1.6751
   10MPD2    H2  158   2.570   2.747  11.467  1.7019  0.7176  0.5984
   10MPD2    H3  159   2.395   2.738  11.611  1.3553 -0.3877  0.0703
   10MPD2     N  160   2.347   3.185  11.651 -0.0182 -0.8473  0.2562
   10MPD2    H5  161   2.266   3.161  11.707 -0.4600  2.0592  0.8746
   10MPD2    N1  162   2.681   2.979  11.353  0.0193  0.1899  0.3971
   10MPD2    H7  163   2.728   3.068  11.339  0.9388 -0.0726  1.8360
   11TCq1    O1  164   3.062   4.057  14.773 -0.3484 -0.0422  0.6634
   11TCq1    C1  165   3.109   3.971  14.690 -0.3707 -0.1861  0.4657
   11TCq1    O2  166   3.089   3.847  14.698 -0.5452 -0.1093 -0.4564
   11TCq1    C2  167   3.085   4.036  14.568 -0.4477  0.2745  0.0983
   11TCq1    C3  168   3.124   4.163  14.566  1.1825  0.2690  0.1543
   11TCq1    C4  169   3.091   4.237  14.453  0.4308 -0.3000 -0.3025
   11TCq1    C5  170   3.032   4.177  14.347 -0.2578 -0.2908 -0.2134
   11TCq1    C6  171   3.004   4.042  14.350 -0.4179  1.2602  0.2381
   11TCq1    C7  172   3.025   3.972  14.461 -0.0676 -0.6229  0.3569
   11TCq1    C8  173   2.949   3.972  14.234  0.4487  0.0446 -0.1074
   11TCq1    O4  174   2.893   4.040  14.150  0.5710 -0.0641 -0.2903
   11TCq1    C9  175   3.128   4.383  14.448  0.6734  0.9427 -0.2594
   11TCq1    O5  176   3.159   4.427  14.559 -0.1654  0.0229  0.3079
   11TCq1    O6  177   3.105   4.444  14.339 -0.1154 -0.1036  0.0705
   11TCq1    H1  178   3.035   4.139  14.726  0.6670  1.0297  1.9760
   11TCq1    H2  179   3.173   4.223  14.643 -0.7822  1.3405  0.5703
   11TCq1    H3  180   3.019   4.240  14.260 -0.5581  1.8352  1.3643
   11TCq1    H4  181   3.039   3.864  14.467  1.2532 -0.5588 -1.7293
   12MPD2     C  182   2.918   3.800  14.000  0.5344 -0.1632 -0.1790
   12MPD2    C1  183   2.954   3.750  14.126  0.3539 -0.0604  0.5862
   12MPD2    C2  184   2.973   3.617  14.148 -0.2227 -0.2039 -0.3265
   12MPD2    C3  185   2.942   3.525  14.047  0.3597  0.0930  0.0951
   12MPD2    C4  186   2.902   3.580  13.923 -0.1974  0.5582 -0.5303
   12MPD2    C5  187   2.891   3.713  13.902 -0.1454  0.5158  0.4398
   12MPD2     H  188   2.999   3.587  14.249  0.6155  2.6785  0.3145
   12MPD2    H1  189   2.878   3.520  13.836  1.6970  1.2003 -1.5041
   12MPD2    H2  190   2.905   3.904  13.973 -0.9096 -0.1626  0.5104
   12MPD2    H3  191   2.859   3.750  13.805  0.0218 -0.4231  0.0327
   12MPD2     N  192   2.937   3.383  14.067  0.6021 -0.2356 -0.0261
   12MPD2    H5  193   2.896   3.341  13.984  0.0801 -0.1255  0.1745
   12MPD2    N1  194   2.956   3.836  14.237 -0.2227 -0.3750  0.2314
   12MPD2    H7  195   2.981   3.792  14.325 -0.9884  0.6932  0.9813
   13TCq1    O1  196   1.922   2.302  11.635  0.4575 -0.2724 -0.1824
   13TCq1    C1  197   1.979   2.410  11.698 -0.0257  0.3814  0.6304
   13TCq1    O2  198   1.933   2.477  11.785  0.1665 -0.5694 -0.3959
   13TCq1    C2  199   2.057   2.466  11.593 -0.4921 -0.3632  0.1842
   13TCq1    C3  200   2.137   2.396  11.512  0.0109  0.3450  0.6784
   13TCq1    C4  201   2.222   2.466  11.435 -0.3657 -0.1032  0.8735
   13TCq1    C5  202   2.216   2.603  11.440 -0.0042  0.4048 -0.0342
   13TCq1    C6  203   2.115   2.668  11.507  0.5767  0.3415 -0.3981
   13TCq1    C7  204   2.039   2.595  11.593  0.5150 -0.6398  0.3237
   13TCq1    C8  205   2.080   2.809  11.490 -0.1868  0.6247 -1.0907
   13TCq1    O4  206   2.019   2.862  11.584 -0.0536 -0.4280  0.0477
   13TCq1    C9  207   2.334   2.401  11.365 -0.3031 -0.2033 -0.1449
   13TCq1    O5  208   2.334   2.277  11.334 -0.1066  0.0829 -0.3887
   13TCq1    O6  209   2.413   2.474  11.300  0.5254 -1.0621  0.1490
   13TCq1    H1  210   1.963   2.268  11.552 -0.7185  2.2203 -1.7787
   13TCq1    H2  211   2.165   2.291  11.521  1.0586  0.7879  2.6926
   13TCq1    H3  212   2.289   2.661  11.384 -0.4496 -1.1490 -2.2665
   13TCq1    H4  213   1.970   2.649  11.655  0.2764 -0.3453 -0.2045
   14MPD2     C  214   2.238   3.050  11.264 -0.5096 -0.9268  0.5994
   14MPD2    C1  215   2.145   3.004  11.354 -0.2923 -0.4641  0.3263
   14MPD2    C2  216   2.082   3.097  11.440 -0.9237 -0.3876 -0.3357
   14MPD2    C3  217   2.093   3.238  11.416  0.7575 -0.2466 -1.0308
   14MPD2    C4  218   2.178   3.280  11.318  0.2897  0.2527  0.1713
   14MPD2    C5  219   2.251   3.187  11.247 -0.0354 -0.1855 -0.7659
   14MPD2     H  220   2.014   3.067  11.519  0.1287  1.0168  1.0836
   14MPD2    H1  221   2.191   3.383  11.286 -2.4290  0.6127  0.2431
   14MPD2    H2  222   2.278   2.985  11.188  2.9702 -0.9954  2.5019
   14MPD2    H3  223   2.329   3.231  11.186  3.0687 -2.0818  1.8282
   14MPD2     N  224   2.008   3.324  11.492  0.1673  0.0088 -0.4260
   14MPD2    H5  225   1.931   3.283  11.544 -0.7666  1.8884 -0.3253
   14MPD2    N1  226   2.142   2.861  11.376  0.2579 -0.3855  0.1924
   14MPD2    H7  227   2.203   2.799  11.323  0.5493  1.7620 -1.9674
   15TCq1    O1  228   4.604   3.061   2.248 -0.5236 -0.5120  0.1109
   15TCq1    C1  229   4.638   3.191   2.266  0.7328  0.6691 -0.0436
   15TCq1    O2  230   0.017   3.235   2.263  0.2166  0.6534 -0.0774
   15TCq1    C2  231   4.514   3.267   2.230 -0.5481 -0.0140  0.2851
   15TCq1    C3  232   4.522   3.399   2.249 -0.3113 -0.7659  0.3454
   15TCq1    C4  233   4.465   3.486   2.163  0.3765 -0.2546 -0.2263
   15TCq1    C5  234   4.389   3.452   2.058 -0.6805 -1.0066 -0.8947
   15TCq1    C6  235   4.390   3.322   2.029  0.0757 -0.4914 -1.0738
   15TCq1    C7  236   4.444   3.227   2.117  0.0720 -0.0600  0.6822
   15TCq1    C8  237   4.348   3.275   1.904  0.1314 -0.1208 -0.7418
   15TCq1    O4  238   4.399   3.174   1.862 -0.2065  0.5793 -0.0728
   15TCq1    C9  239   4.492   3.627   2.189  0.6553 -0.2307 -0.0526
   15TCq1    O5  240   4.570   3.640   2.289 -0.1759  0.3234 -0.2012
   15TCq1    O6  241   4.465   3.717   2.104 -0.1001  0.1664 -0.1271
   15TCq1    H1  242   4.507   3.056   2.255 -0.5287  1.3751  1.5448
   15TCq1    H2  243   4.585   3.426   2.333 -0.5270 -1.5983  0.7691
   15TCq1    H3  244   4.360   3.526   1.984 -1.3019  0.8543  1.2203
   15TCq1    H4  245   4.458   3.124   2.086  0.4468  0.2774 -0.2822
   16MPD2     C  246   4.117   3.417   1.645 -0.1967  0.0939 -0.2782
   16MPD2    C1  247   4.206   3.326   1.703 -0.3992  0.6274 -0.2261
   16MPD2    C2  248   4.234   3.213   1.630 -0.4450  0.2560  0.1950
   16MPD2    C3  249   4.184   3.181   1.511  0.1187  0.1100 -0.6375
   16MPD2    C4  250   4.103   3.277   1.449  0.0613  0.3330 -0.5826
   16MPD2    C5  251   4.067   3.392   1.515  0.3501 -0.3547  0.0132
   16MPD2     H  252   4.308   3.139   1.661  1.0002  3.4559  4.3215
   16MPD2    H1  253   4.069   3.260   1.347 -0.6397  0.4421 -0.3687
   16MPD2    H2  254   4.096   3.510   1.696 -1.8971 -1.5341  2.0054
   16MPD2    H3  255   4.013   3.465   1.456  0.2707 -1.1395 -0.8772
   16MPD2     N  256   4.225   3.057   1.459 -0.1264 -0.3377  0.1065
   16MPD2    H5  257   4.282   2.998   1.519 -0.5175 -0.5393  0.2776
   16MPD2    N1  258   4.258   3.352   1.831  0.7652  0.1540 -0.1257
   16MPD2    H7  259   4.210   3.418   1.891  1.8879  1.5419 -0.7557
   17TMC1    C1  260   2.303   2.058  10.583 -0.1180  0.1599 -0.4301
   17TMC1    C2  261   2.166   2.039  10.590 -0.2247  0.0858 -0.0233
   17TMC1    C3  262   2.108   1.929  10.539  0.4285  0.2780  0.6426
   17TMC1    C4  263   2.385   1.956  10.542  0.3609  0.1606  0.0814
   17TMC1    C5  264   2.319   1.835  10.528  0.1316  0.0197 -0.4557
   17TMC1    C6  265   2.181   1.818  10.518  0.0222  0.3106  0.5694
   17TMC1     C  266   2.350   2.188  10.632 -1.2285 -0.9889 -0.3160
   17TMC1     O  267   2.270   2.254  10.695 -0.2346  0.0766  0.1703
   17TMC1     H  268   2.093   2.117  10.611 -1.1318 -0.7043 -0.2447
   17TMC1    H1  269   2.491   1.978  10.551  0.2346  0.9367 -0.3129
   17TMC1    H2  270   2.139   1.720  10.498  2.7389 -0.9565  1.0841
   17TMC1    C7  271   2.399   1.713  10.530 -0.2877  0.8628  0.1950
   17TMC1    C8  272   1.967   1.907  10.567 -0.4492 -0.2411  0.0344
   17TMC1    O1  273   2.345   1.611  10.562 -0.0040  0.2143  0.7567
   17TMC1    O2  274   1.918   1.909  10.677  0.2251  0.2506 -0.3051
   17TMC1    O3  275   2.521   1.750  10.565 -0.1737  0.1854  0.8115
   17TMC1    H3  276   2.546   1.815  10.496  2.8922 -1.3694  0.4464
   17TMC1    O5  277   1.930   1.828  10.461  0.4705  0.0978  0.0567
   17TMC1    H5  278   1.981   1.846  10.379 -0.0778 -0.7988 -0.4856
   18MPD2     C  279   2.488   2.422  10.763  0.4495  0.1013  0.6801
   18MPD2    C1  280   2.550   2.335  10.676  0.0468 -0.0813  1.2576
   18MPD2    C2  281   2.688   2.356  10.665 -0.2422 -0.2020  0.2208
   18MPD2    C3  282   2.757   2.473  10.713  0.1595 -0.3739  0.1201
   18MPD2    C4  283   2.681   2.558  10.785  0.1821  0.0032  0.1390
   18MPD2    C5  284   2.556   2.529  10.817 -0.7482 -0.1645  0.1715
   18MPD2     H  285   2.753   2.282  10.620 -0.6286 -1.0634  1.0919
   18MPD2    H1  286   2.728   2.644  10.830 -1.7002  0.7354  0.7006
   18MPD2    H2  287   2.385   2.414  10.798  0.0128 -1.7445 -1.0470
   18MPD2    H3  288   2.501   2.593  10.884  1.8906  0.6873  1.5514
   18MPD2     N  289   2.892   2.497  10.689  0.3411 -0.1939 -0.0427
   18MPD2    H5  290   2.924   2.580  10.736  0.8325  0.1229 -0.9338
   18MPD2    N1  291   2.490   2.216  10.625  0.2729  0.0427  0.2683
   18MPD2    H7  292   2.542   2.156  10.561  0.6594  1.0675 -0.3850
   19TMC2    C1  293   3.983   3.884  14.174 -0.8182  0.7066 -0.3625
   19TMC2    C2  294   3.892   3.940  14.074 -0.1074  0.3875  0.6342
   19TMC2    C3  295   3.764   3.888  14.082 -0.0232 -0.5337  0.3179
   19TMC2    C4  296   3.953   3.772  14.248 -0.6259  0.0364 -0.0674
   19TMC2    C5  297   3.823   3.725  14.240  0.0831 -0.2394  0.5270
   19TMC2    C6  298   3.727   3.782  14.159 -0.0735  0.8048  0.0115
   19TMC2     C  299   4.121   3.926  14.167  0.6386 -0.1520  0.2684
   19TMC2     O  300   4.141   4.024  14.096  0.4630  0.1560 -0.0215
   19TMC2     H  301   3.923   4.017  14.005 -1.3655  0.5346  0.2242
   19TMC2    H1  302   4.020   3.738  14.327 -2.3767 -2.0862  0.4924
   19TMC2    H2  303   3.625   3.747  14.157  0.1205  0.2166  0.3746
   19TMC2    C7  304   3.804   3.593  14.300 -0.1660 -0.8176  0.7616
   19TMC2    C8  305   3.662   3.937  13.992 -0.1036 -0.1763 -0.3943
   19TMC2    O1  306   3.904   3.534  14.345 -0.4986 -0.1144  0.1749
   19TMC2    O2  307   3.584   3.856  13.950  0.1970  0.0832  0.2650
   19TMC2    O5  308   3.706   4.043  13.923  0.1791  0.1362 -0.2194
   19TMC2    H5  309   3.729   4.113  13.988 -0.6943  0.1450  0.0779
   20MPD2     C  310   4.418   3.991  14.205 -0.0639 -0.2332  0.2878
   20MPD2    C1  311   4.357   3.869  14.242  0.3466  0.1310 -0.2730
   20MPD2    C2  312   4.438   3.777  14.307  0.5939 -0.2614  0.6091
   20MPD2    C3  313   4.564   3.813  14.348  0.1996  0.9771 -0.2718
   20MPD2    C4  314   4.617   3.934  14.315 -0.3244  0.2155  0.9560
   20MPD2    C5  315   4.550   4.026  14.234 -0.8551  0.0558  0.5731
   20MPD2     H  316   4.391   3.684  14.339 -1.7895  0.5888 -0.4300
   20MPD2    H1  317   4.714   3.968  14.349 -0.4711  1.1120  0.4571
   20MPD2    H2  318   4.366   4.070  14.153 -0.4169  1.2728  2.9691
   20MPD2    H3  319   4.585   4.126  14.214 -0.9993 -0.0310 -0.1192
   20MPD2     N  320   4.636   3.729  14.435  0.4671  0.2965 -0.2816
   20MPD2    H5  321   4.725   3.764  14.470  0.1308  0.5149  0.3669
   20MPD2    N1  322   4.217   3.848  14.232 -0.5335  0.3133  0.2879
   20MPD2    H7  323   4.187   3.757  14.267 -0.3484  0.3159  0.4535
   21TMC2    C1  324   1.893   4.086  14.481 -0.0556 -0.3645 -0.2529
   21TMC2    C2  325   1.989   3.998  14.535  0.2990 -0.1431 -0.0149
   21TMC2    C3  326   1.967   3.971  14.662  0.1220  0.0425  0.0525
   21TMC2    C4  327   1.788   4.139  14.549  0.3382 -0.7156 -0.3621
   21TMC2    C5  328   1.770   4.094  14.675  0.3392 -0.5567  0.0897
   21TMC2    C6  329   1.855   4.006  14.734 -0.1811 -0.6512 -0.3504
   21TMC2     C  330   1.945   4.164  14.375  0.0207  0.0825 -0.6048
   21TMC2     O  331   2.034   4.106  14.310  0.3086 -0.1647  0.2577
   21TMC2     H  332   2.071   3.962  14.473  0.3054 -1.5022  0.7887
   21TMC2    H1  333   1.725   4.216  14.506  1.5580 -0.0339 -0.9447
   21TMC2    H2  334   1.848   3.981  14.839 -0.4182  2.8755  0.4638
   21TMC2    C7  335   1.665   4.151  14.762 -0.0141  0.6589 -0.1055
   21TMC2    C8  336   2.063   3.895  14.732  0.1558 -0.7178  0.0345
   21TMC2    O1  337   1.695   4.146  14.883 -0.2776  0.1833  0.7508
   21TMC2    O2  338   2.174   3.884  14.691 -0.3345 -0.1639  0.5911
   21TMC2    O5  339   2.006   3.819  14.816  0.6747  0.4321 -0.1108
   21TMC2    H5  340   1.911   3.836  14.834 -0.1479 -0.1302 -3.9750
   22MPD2     C  341   2.160   4.613  14.251 -0.2944 -0.7161  0.2407
   22MPD2    C1  342   2.203   4.488  14.229  0.4174  0.1832 -0.5418
   22MPD2    C2  343   2.125   4.376  14.251  0.3941  0.8960  0.2325
   22MPD2    C3  344   2.003   4.397  14.318  0.2235  0.0218  0.2257
   22MPD2    C4  345   1.954   4.524  14.336  0.7616 -0.4681 -0.0189
   22MPD2    C5  346   2.035   4.633  14.312  0.2663 -0.2394 -0.2705
   22MPD2     H  347   2.172   4.279  14.243  1.8674  1.4031  2.6940
   22MPD2    H1  348   1.857   4.548  14.379  0.9003 -1.7532  1.0104
   22MPD2    H2  349   2.205   4.706  14.218  0.0266 -0.3270  1.7534
   22MPD2    H3  350   1.988   4.729  14.325  1.3417  0.2860 -0.2514
   22MPD2     N  351   1.929   4.300  14.383 -0.2379  0.0588 -0.8352
   22MPD2    H5  352   1.851   4.342  14.433 -0.3976 -1.3737  0.1228
   22MPD2    N1  353   2.337   4.466  14.181 -0.2916 -0.9702 -0.2630
   22MPD2    H7  354   2.354   4.372  14.148  1.6348 -0.7806  0.1743
   23TMC2    C1  355   2.368   0.392  14.813  0.1549  0.1836  1.0373
   23TMC2    C2  356   2.342   0.525  14.851 -0.1416  0.6751 -0.1336
   23TMC2    C3  357   2.226   0.591  14.808 -1.7150  0.4797  0.4332
   23TMC2    C4  358   2.286   0.327  14.725 -0.4625 -0.2083  0.1324
   23TMC2    C5  359   2.170   0.392  14.681  0.1644  0.1684 -0.1100
   23TMC2    C6  360   2.141   0.530  14.718  0.4114  0.2129  0.8186
   23TMC2     C  361   2.503   0.338  14.832 -0.2050  0.0268  0.8373
   23TMC2     O  362   2.569   0.376  14.930 -1.1584  0.4249 -0.7341
   23TMC2     H  363   2.407   0.567  14.926  1.0385  2.1707 -1.9797
   23TMC2    H1  364   2.309   0.225  14.697  0.2845  0.0420 -0.1611
   23TMC2    H2  365   2.047   0.578  14.692  0.5941  0.9617  1.5389
   23TMC2    C7  366   2.094   0.333  14.575 -0.0091  0.1115 -0.0078
   23TMC2    C8  367   2.170   0.663  14.920  0.7271 -0.8223  0.5124
   23TMC2    O1  368   2.150   0.247  14.513 -0.2137  0.6377 -0.4688
   23TMC2    O2  369   2.211   0.644  15.035 -0.6865 -0.5956 -0.2776
   23TMC2    O5  370   2.052   0.719  14.881 -0.8193  0.3060  0.5409
   23TMC2    H5  371   2.051   0.734  14.784 -0.0240 -1.7857  0.2013
   24MPD2     C  372   2.891   0.048  14.645  0.4762 -0.5803  0.2972
   24MPD2    C1  373   2.887   0.130  14.756  0.4031  0.1280 -0.3582
   24MPD2    C2  374   2.768   0.203  14.792 -0.8362 -0.5899 -0.2631
   24MPD2    C3  375   2.659   0.199  14.710  0.3680 -0.7775 -0.4757
   24MPD2    C4  376   2.673   0.121  14.591 -0.3228 -0.5542 -0.2529
   24MPD2    C5  377   2.781   0.047  14.569  0.3573 -0.0242 -1.0282
   24MPD2     H  378   2.770   0.268  14.878  1.2558  1.0518 -1.5496
   24MPD2    H1  379   2.588   0.105  14.526 -0.4707  0.4028 -0.2926
   24MPD2    H2  380   2.966   4.709  14.633  0.8825  0.3688 -2.9834
   24MPD2    H3  381   2.777   4.715  14.486  0.5016 -1.7712  0.4132
   24MPD2     N  382   2.537   0.259  14.725 -0.0024  0.1376  0.0653
   24MPD2    H5  383   2.474   0.243  14.647  1.2636  2.6290 -1.4749
   24MPD2    N1  384   2.991   0.149  14.847 -0.5166 -0.2798 -0.2180
   24MPD2    H7  385   2.976   0.212  14.926 -0.2677  0.3417 -0.6612
   25TMC2    C1  386   1.692   2.713  11.537 -0.2789  0.0547 -0.0156
   25TMC2    C2  387   1.706   2.851  11.518  0.1605 -0.3865 -0.6671
   25TMC2    C3  388   1.716   2.931  11.631  0.5219 -0.1151 -0.4544
   25TMC2    C4  389   1.684   2.654  11.662  0.6156 -0.0715  0.2504
   25TMC2    C5  390   1.701   2.742  11.768  0.1706 -0.0019  0.1777
   25TMC2    C6  391   1.699   2.875  11.757 -0.2697 -0.5220  0.0150
   25TMC2     C  392   1.722   2.629  11.420  0.5938  0.8967  0.6758
   25TMC2     O  393   1.794   2.676  11.342  0.1975 -0.1862 -0.4199
   25TMC2     H  394   1.714   2.896  11.420  2.8180 -2.5705 -1.4403
   25TMC2    H1  395   1.690   2.547  11.677 -0.3896 -0.0786  0.6298
   25TMC2    H2  396   1.719   2.934  11.845  1.6977 -1.3219  0.1073
   25TMC2    C7  397   1.688   2.686  11.909  0.3241 -0.7659 -0.2413
   25TMC2    C8  398   1.699   3.076  11.599 -0.2322 -0.0450  0.5295
   25TMC2    O1  399   1.643   2.768  11.989 -0.3443  0.2895  0.0413
   25TMC2    O2  400   1.650   3.117  11.498 -0.0335 -0.3450 -0.0220
   25TMC2    O5  401   1.795   3.139  11.664  0.1223  0.0959 -0.1210
   25TMC2    H5  402   1.859   3.084  11.713 -0.8659 -1.9239 -1.1309
   26MPD2     C  403   1.648   2.195  11.144 -0.2616 -0.0577  0.0283
   26MPD2    C1  404   1.597   2.177  11.265 -0.2429  0.5326 -0.3963
   26MPD2    C2  405   1.598   2.277  11.361  0.2841 -0.1140 -0.3000
   26MPD2    C3  406   1.653   2.405  11.329  0.3094 -0.6518  0.4376
   26MPD2    C4  407   1.707   2.423  11.207  0.0971  0.3852 -0.3044
   26MPD2    C5  408   1.706   2.317  11.121 -0.4046  0.0220  0.0372
   26MPD2     H  409   1.574   2.263  11.466 -0.6120 -3.1729 -0.9185
   26MPD2    H1  410   1.748   2.517  11.171 -0.1258  0.7379  0.3628
   26MPD2    H2  411   1.659   2.118  11.069  0.4254  0.6109 -0.5592
   26MPD2    H3  412   1.753   2.310  11.023  0.6107  1.4730  0.4242
   26MPD2     N  413   1.656   2.508  11.424  0.0581 -0.2696 -0.0984
   26MPD2    H5  414   1.605   2.486  11.509  1.5819  0.3118  0.9626
   26MPD2    N1  415   1.545   2.046  11.282  0.4322 -1.0810  0.2826
   26MPD2    H7  416   1.541   1.981  11.204  0.0373  0.3173 -0.8806
   27TMC2    C1  417   0.890   0.265  12.075  0.2024 -0.4270  0.4503
   27TMC2    C2  418   0.892   0.303  11.946  0.1605 -0.3849  0.0506
   27TMC2    C3  419   0.925   0.433  11.921 -0.2402  0.6550  0.0731
   27TMC2    C4  420   0.919   0.342  12.184 -0.2995  0.1667  0.2284
   27TMC2    C5  421   0.944   0.480  12.160 -0.8779  0.1534  1.0780
   27TMC2    C6  422   0.947   0.524  12.028  0.1167  0.1901  0.0202
   27TMC2     C  423   0.901   0.128  12.099  0.0977  0.5465  0.5064
   27TMC2     O  424   0.959   0.055  12.023 -0.3858  0.2934  0.8075
   27TMC2     H  425   0.875   0.233  11.865 -0.5124  0.5191 -0.6004
   27TMC2    H1  426   0.925   0.295  12.281 -1.6785 -0.5192 -0.0066
   27TMC2    H2  427   0.950   0.628  11.999  1.3253  0.2037  0.2278
   27TMC2    C7  428   1.034   0.531  12.260 -0.5173  1.0466 -1.4888
   27TMC2    C8  429   0.894   0.472  11.785  0.7790 -0.0721 -0.2866
   27TMC2    O1  430   1.087   0.450  12.335 -0.5123  0.7553  0.1110
   27TMC2    O2  431   0.848   0.398  11.697  0.9221 -0.3281  0.4188
   27TMC2    O5  432   0.946   0.587  11.750 -0.3524 -0.4753  0.1409
   27TMC2    H5  433   0.988   0.640  11.821  1.0823 -0.8163 -0.4610
   28MPD2     C  434   0.697   4.474  12.354 -0.3397 -0.3149  0.1748
   28MPD2    C1  435   0.639   4.592  12.393  0.2997  0.3060  1.4054
   28MPD2    C2  436   0.670   4.703  12.332  0.1464 -0.3853 -0.8223
   28MPD2    C3  437   0.780   4.710  12.247 -0.2762  0.4790  0.6193
   28MPD2    C4  438   0.846   4.594  12.210 -0.7294  0.4081  0.0318
   28MPD2    C5  439   0.801   4.479  12.260 -0.6478 -0.0215 -0.1226
   28MPD2     H  440   0.615   0.059  12.341 -2.4990 -1.9372 -0.8721
   28MPD2    H1  441   0.931   4.588  12.143 -1.0529  0.5472 -0.3920
   28MPD2    H2  442   0.671   4.377  12.394 -2.3271  0.9906  2.0830
   28MPD2    H3  443   0.851   4.389  12.227 -0.9681  0.5076 -2.0571
   28MPD2     N  444   0.810   0.099  12.198  0.2473 -0.4009 -1.1088
   28MPD2    H5  445   0.753   0.178  12.228 -1.6167 -2.5191  0.9955
   28MPD2    N1  446   0.542   4.580  12.495  0.4311 -0.2443  0.2614
   28MPD2    H7  447   0.522   4.487  12.530  0.9629 -1.0195 -1.4639
   29TMC2    C1  448   0.238   2.456  14.826 -0.4736  0.1184  0.5797
   29TMC2    C2  449   0.246   2.482  14.963  0.3548 -0.6721  0.0543
   29TMC2    C3  450   0.293   2.605  15.008 -0.1051 -0.0697 -0.2947
   29TMC2    C4  451   0.285   2.548  14.739 -0.0073  1.0483  0.3999
   29TMC2    C5  452   0.340   2.665  14.789  0.4317  0.2863 -0.0196
   29TMC2    C6  453   0.355   2.685  14.922  0.4619 -0.3123 -0.0271
   29TMC2     C  454   0.216   2.323  14.777 -0.8237  0.1421 -0.0825
   29TMC2     O  455   0.242   2.223  14.850 -0.1862  0.3286 -0.3829
   29TMC2     H  456   0.214   2.401  15.028 -0.1043  0.2522  0.9922
   29TMC2    H1  457   0.283   2.534  14.632 -1.2880 -0.5061  0.6138
   29TMC2    H2  458   0.400   2.775  14.962 -0.7026  0.4037 -0.3204
   29TMC2    C7  459   0.373   2.771  14.690 -0.0491 -0.1567  0.3013
   29TMC2    C8  460   0.312   2.631  15.144  0.8778 -0.5701  0.2382
   29TMC2    O1  461   0.311   2.770  14.583  0.5844 -0.2011  0.2683
   29TMC2    O2  462   0.417   2.683  15.181  0.0851  0.4377 -0.2710
   29TMC2    O5  463   0.237   2.543  15.208 -0.3030  0.2667  0.1926
   29TMC2    H5  464   0.150   2.524  15.167 -1.1907 -0.3944  2.3678
   30MPD2     C  465   0.028   1.988  14.454 -0.7395 -0.4273  0.2002
   30MPD2    C1  466   0.138   1.970  14.533 -0.2922  0.0316  0.6386
   30MPD2    C2  467   0.175   2.086  14.596 -0.1907 -0.5439 -0.4029
   30MPD2    C3  468   0.122   2.214  14.576 -0.2645 -1.5766 -0.9621
   30MPD2    C4  469   0.012   2.219  14.483 -0.3050  0.3015  0.0327
   30MPD2    C5  470   4.704   2.100  14.428 -0.1051  0.3134 -0.5783
   30MPD2     H  471   0.251   2.067  14.672 -1.1728 -1.8671  0.2550
   30MPD2    H1  472   4.716   2.314  14.441 -0.1189 -0.1284 -1.0958
   30MPD2    H2  473   4.722   1.905  14.400 -0.7793 -1.2100  1.4545
   30MPD2    H3  474   4.623   2.101  14.355  0.1322  0.9213 -0.8356
   30MPD2     N  475   0.147   2.326  14.656 -0.8825  0.2682 -0.0453
   30MPD2    H5  476   0.105   2.414  14.629  0.0568  1.2849  1.8521
   30MPD2    N1  477   0.214   1.858  14.555  0.2996 -0.8987  0.3146
   30MPD2    H7  478   0.304   1.869  14.601  0.8614  0.3309 -1.0547
   31TMC2    C1  479   2.271   1.367  15.164  1.0202 -0.3324 -0.1385
   31TMC2    C2  480   2.143   1.384  15.123  0.1464  0.6128  0.0572
   31TMC2    C3  481   2.043   1.327  15.197  0.4185  0.1818  0.0902
   31TMC2    C4  482   2.309   1.299  15.278  0.7518 -0.6733  0.0096
   31TMC2    C5  483   2.206   1.231  15.341 -0.5683  0.1961  0.6006
   31TMC2    C6  484   2.077   1.241  15.296 -0.6992  0.4706  0.6351
   31TMC2     C  485   2.367   1.432  15.081 -0.7179 -0.0217  0.1610
   31TMC2     O  486   2.324   1.484  14.978  0.2203 -0.2248 -0.3333
   31TMC2     H  487   2.121   1.463  15.052  0.1636  1.4262  0.9562
   31TMC2    H1  488   2.411   1.269  15.300  0.3024 -2.2064  0.0160
   31TMC2    H2  489   2.005   1.183  15.352 -0.3519  1.8395  2.5096
   31TMC2    C7  490   2.243   1.146  15.452  0.5114 -0.4709 -0.4144
   31TMC2    C8  491   1.904   1.364  15.164 -0.3131 -0.3863 -0.3443
   31TMC2    O1  492   2.355   1.101  15.456 -0.0012 -0.3337  0.2108
   31TMC2    O2  493   1.887   1.385  15.046 -0.0550  0.1547 -0.2529
   31TMC2    O5  494   1.819   1.308  15.253 -0.2145  0.0439  0.2863
   31TMC2    H5  495   1.864   1.308  15.341  0.3771  0.7429 -0.0140
   32MPD2     C  496   2.825   1.641  15.032 -0.2831  1.0337 -0.8728
   32MPD2    C1  497   2.718   1.650  14.949 -0.1659 -0.3976 -0.2110
   32MPD2    C2  498   2.604   1.580  14.984 -0.3378 -0.2822 -0.3007
   32MPD2    C3  499   2.604   1.507  15.097  1.0186 -0.1394 -0.2575
   32MPD2    C4  500   2.716   1.499  15.180  0.0442 -0.4390 -0.0846
   32MPD2    C5  501   2.829   1.570  15.150  0.4505 -0.2506  0.2190
   32MPD2     H  502   2.513   1.581  14.926 -1.7498  2.2083  1.9592
   32MPD2    H1  503   2.722   1.455  15.279  0.9961 -1.1058 -0.4372
   32MPD2    H2  504   2.904   1.713  15.016  2.6353 -1.7600  0.9968
   32MPD2    H3  505   2.913   1.569  15.219  2.0295 -0.0549 -1.6882
   32MPD2     N  506   2.495   1.431  15.133 -0.8754 -0.3039  0.4664
   32MPD2    H5  507   2.509   1.388  15.225 -0.2644 -0.6880  0.1955
   32MPD2    N1  508   2.726   1.729  14.836 -0.3959 -0.2178  0.0598
   32MPD2    H7  509   2.818   1.741  14.795 -0.0493  2.2608  1.5087
   33TMC2    C1  510   3.257   3.565  10.472 -0.2905  0.0242  0.3234
   33TMC2    C2  511   3.171   3.550  10.574 -0.0701 -0.1201 -0.4741
   33TMC2    C3  512   3.088   3.653  10.597 -0.1130  0.4949  0.6013
   33TMC2    C4  513   3.275   3.671  10.400 -0.4322 -0.3906 -0.2699
   33TMC2    C5  514   3.192   3.777  10.433  0.0514 -0.0321  0.3081
   33TMC2    C6  515   3.099   3.773  10.530  0.0836  0.3226  0.5252
   33TMC2     C  516   3.356   3.460  10.459 -0.9659  0.0949  0.1202
   33TMC2     O  517   3.466   3.495  10.418 -0.1501 -0.6039 -0.2199
   33TMC2     H  518   3.153   3.457  10.627 -1.7292  1.0744  1.0591
   33TMC2    H1  519   3.342   3.674  10.315 -1.5274 -0.7872 -1.1403
   33TMC2    H2  520   3.044   3.865  10.547  0.8809  1.0670 -0.8659
   33TMC2    C7  521   3.190   3.881  10.329  0.6946 -0.6871  0.4459
   33TMC2    C8  522   2.973   3.630  10.687 -0.1790 -1.2782 -0.0498
   33TMC2    O1  523   3.289   3.890  10.263  0.2980  0.2291 -0.3129
   33TMC2    O2  524   2.929   3.520  10.719 -0.4678 -1.1113 -0.6388
   33TMC2    O5  525   2.961   3.728  10.772 -0.1303 -0.5882 -0.1392
   33TMC2    H5  526   3.006   3.813  10.753 -0.4140 -0.4176 -0.0476
   34MPD2     C  527   3.539   3.009  10.515  0.2550 -0.2303  0.5761
   34MPD2    C1  528   3.406   2.991  10.511 -0.1161 -0.0871 -0.9574
   34MPD2    C2  529   3.328   3.101  10.490 -0.0917 -0.8536  0.7721
   34MPD2    C3  530   3.390   3.226  10.502 -0.0538 -0.2331 -0.1224
   34MPD2    C4  531   3.521   3.237  10.526 -0.4605  0.2321  0.5345
   34MPD2    C5  532   3.602   3.128  10.519 -0.2105  1.0022 -0.2856
   34MPD2     H  533   3.221   3.084  10.488 -0.5157  2.3598 -4.3102
   34MPD2    H1  534   3.569   3.331  10.549 -0.1028  0.0103  0.6969
   34MPD2    H2  535   3.603   2.922  10.510  0.1124 -0.2066 -1.6895
   34MPD2    H3  536   3.709   3.142  10.526 -0.5268  3.5378 -0.5986
   34MPD2     N  537   3.311   3.337  10.506 -0.1575  0.0925 -0.3504
   34MPD2    H5  538   3.211   3.322  10.503  0.1755 -1.6132 -2.5388
   34MPD2    N1  539   3.361   2.862  10.518 -0.3673 -0.5265 -0.3722
   34MPD2    H7  540   3.430   2.788  10.528 -1.3658 -1.4992 -0.7731
   35TMC2    C1  541   4.046   0.149  11.497 -0.7555  0.2557  0.2547
   35TMC2    C2  542   3.913   0.188  11.493  0.4424 -0.7103  0.3183
   35TMC2    C3  543   3.823   0.085  11.482  0.1342  0.9902  0.1352
   35TMC2    C4  544   4.091   0.024  11.492  0.6713  0.2846 -0.0158
   35TMC2    C5  545   3.989   4.664  11.485  0.3506 -0.2686  0.5905
   35TMC2    C6  546   3.856   4.691  11.478 -0.4777  0.9916  0.0740
   35TMC2     C  547   4.141   0.256  11.481  0.0981  0.1024 -0.2693
   35TMC2     O  548   4.095   0.367  11.454 -0.1092  0.2752 -0.2497
   35TMC2     H  549   3.880   0.292  11.494 -1.3493 -1.2834 -0.3305
   35TMC2    H1  550   4.196   4.734  11.490  0.6311  0.1464 -0.1807
   35TMC2    H2  551   3.777   4.619  11.466  1.0561 -0.8550  0.9747
   35TMC2    C7  552   4.019   4.520  11.477  0.8761  0.4349 -0.3388
   35TMC2    C8  553   3.692   0.124  11.446  0.2874  0.1519  0.3805
   35TMC2    O1  554   3.941   4.451  11.409 -0.6466  0.4781  0.1435
   35TMC2    O2  555   3.623   0.058  11.372 -0.1622 -0.4080  0.3550
   35TMC2    O5  556   3.642   0.211  11.536  0.2327 -0.3400 -0.1551
   35TMC2    H5  557   3.705   0.244  11.604 -1.5439  1.3151  0.6827
   36MPD2     C  558   4.573   0.505  11.588  0.5260  0.1693 -0.3760
   36MPD2    C1  559   4.586   0.369  11.628  0.7603  0.1329  0.0817
   36MPD2    C2  560   4.482   0.279  11.607 -0.3284  1.0323  1.1088
   36MPD2    C3  561   4.371   0.309  11.525 -0.1986 -0.8116 -0.7176
   36MPD2    C4  562   4.367   0.432  11.463 -0.3846 -0.5369 -0.6354
   36MPD2    C5  563   4.469   0.524  11.501 -0.6087 -0.1487  0.6343
   36MPD2     H  564   4.492   0.184  11.657 -2.0915 -0.2187 -0.9172
   36MPD2    H1  565   4.292   0.461  11.390 -1.9472  1.0204  1.5983
   36MPD2    H2  566   4.653   0.578  11.600 -2.3535  3.7575 -3.1042
   36MPD2    H3  567   4.455   0.621  11.454  1.4516  0.0161  0.3618
   36MPD2     N  568   4.266   0.218  11.514  0.1627  0.0186 -0.1494
   36MPD2    H5  569   4.287   0.121  11.537  1.1439  0.0572 -0.9395
   36MPD2    N1  570   4.694   0.341  11.713  0.2005 -0.3077 -0.1937
   36MPD2    H7  571   0.033   0.408  11.716 -1.4791  1.3560  4.2293
   37TMC2    C1  572   1.854   0.420  12.088 -1.0487  0.1895  0.2441
   37TMC2    C2  573   1.724   0.427  12.035  0.5492 -0.1599  0.3105
   37TMC2    C3  574   1.715   0.449  11.904  0.1932 -0.1583  0.9891
   37TMC2    C4  575   1.967   0.467  12.025 -0.5089 -0.6639  0.2276
   37TMC2    C5  576   1.952   0.500  11.886 -0.7985  0.5265  0.4376
   37TMC2    C6  577   1.826   0.493  11.831  0.1707  0.3570 -0.2525
   37TMC2     C  578   1.862   0.378  12.223  0.8465  0.4971 -0.5230
   37TMC2     O  579   1.760   0.397  12.290  0.7480 -0.4518 -0.2536
   37TMC2     H  580   1.638   0.383  12.084  0.3011 -0.5369 -0.4725
   37TMC2    H1  581   2.060   0.464  12.082 -0.3818  0.1261  0.0661
   37TMC2    H2  582   1.811   0.509  11.725  0.9128  3.6040  0.1285
   37TMC2    C7  583   2.065   0.443  11.812 -0.3618  0.7456  0.3155
   37TMC2    C8  584   1.606   0.382  11.828  0.2246  0.3577 -0.0801
   37TMC2    O1  585   2.170   0.423  11.872 -0.2211 -0.1661  0.2627
   37TMC2    O2  586   1.595   0.260  11.813  0.1524  0.4426  0.3083
   37TMC2    O5  587   1.586   0.468  11.729 -0.0116 -0.1868 -0.7338
   37TMC2    H5  588   1.600   0.564  11.741  1.4685 -0.7754  2.1267
   38MPD2     C  589   2.123   0.286  12.657 -0.4819  0.0167 -0.1157
   38MPD2    C1  590   2.211   0.258  12.552 -0.2391  0.3369 -0.0542
   38MPD2    C2  591   2.154   0.273  12.425 -0.2597  0.3389  0.1198
   38MPD2    C3  592   2.023   0.307  12.396  0.0346 -0.4004 -0.1979
   38MPD2    C4  593   1.940   0.319  12.508  0.2829 -0.0997  0.2765
   38MPD2    C5  594   1.993   0.317  12.633 -0.6966 -0.3247  0.3503
   38MPD2     H  595   2.218   0.248  12.341 -0.3790 -2.0989  0.7562
   38MPD2    H1  596   1.834   0.342  12.505  0.6175  1.2738 -0.8823
   38MPD2    H2  597   2.148   0.272  12.762 -0.0059  1.0170 -0.0890
   38MPD2    H3  598   1.931   0.322  12.722  2.8753 -0.4845  2.8589
   38MPD2     N  599   1.984   0.332  12.259 -0.2292  0.5015 -0.5990
   38MPD2    H5  600   2.054   0.317  12.187  3.3886  0.8005  2.9068
   38MPD2    N1  601   2.352   0.232  12.562 -0.0217  0.5419  0.1176
   38MPD2    H7  602   2.393   0.204  12.474 -0.1796 -0.7870  0.4622
   39TMC2    C1  603   4.403   2.118   2.045 -0.6477 -0.3066  0.1085
   39TMC2    C2  604   4.319   2.040   2.116  0.5239 -0.3125 -0.1600
   39TMC2    C3  605   4.347   2.011   2.248 -0.3672 -0.3883 -0.0668
   39TMC2    C4  606   4.517   2.164   2.103  0.2163  0.1715  0.4827
   39TMC2    C5  607   4.542   2.132   2.238 -0.2728 -0.7110  0.0377
   39TMC2    C6  608   4.452   2.068   2.316  0.6970  0.4709  0.2917
   39TMC2     C  609   4.375   2.139   1.908 -0.6718 -0.1530  0.1258
   39TMC2     O  610   4.256   2.125   1.876 -0.5041 -0.5913 -0.2708
   39TMC2     H  611   4.240   1.984   2.068 -0.3782  2.1224 -1.4934
   39TMC2    H1  612   4.575   2.235   2.045 -0.3374  0.6578  0.5201
   39TMC2    H2  613   4.483   2.026   2.411  0.2656 -0.9525 -0.1930
   39TMC2    C7  614   4.661   2.185   2.303  0.1810  0.2395 -0.0165
   39TMC2    C8  615   4.259   1.930   2.331 -0.5510 -0.0636  0.0916
   39TMC2    O1  616   4.650   2.216   2.419  0.4181 -0.4488  0.3197
   39TMC2    O2  617   4.179   1.850   2.281  0.2349  0.5913 -0.6600
   39TMC2    O5  618   4.230   2.001   2.443  0.1907  0.1228 -0.7048
   39TMC2    H5  619   4.272   2.090   2.446 -1.4384  0.9062 -0.8754
   40MPD2     C  620   4.604   2.142   1.622  0.0639  0.4184 -0.4374
   40MPD2    C1  621   4.489   2.172   1.687  0.0732 -0.0298 -0.1432
   40MPD2    C2  622   4.381   2.205   1.605 -0.5404 -0.3594 -0.1032
   40MPD2    C3  623   4.388   2.221   1.469 -0.4090 -0.4148  0.1886
   40MPD2    C4  624   4.511   2.198   1.413  0.6401  1.2989  0.7126
   40MPD2    C5  625   4.618   2.159   1.487 -0.5942  0.3167 -0.1084
   40MPD2     H  626   4.287   2.218   1.656  0.1729  1.0313  0.8625
   40MPD2    H1  627   4.544   2.225   1.313 -1.4347 -1.9426 -0.8092
   40MPD2    H2  628   4.696   2.115   1.673  0.3374  0.8704 -0.6901
   40MPD2    H3  629   4.713   2.143   1.437 -1.0415  0.2362 -0.9288
   40MPD2     N  630   4.287   2.269   1.382 -0.1643  0.6927 -0.3320
   40MPD2    H5  631   4.307   2.277   1.282  2.9730 -0.2434  0.2125
   40MPD2    N1  632   4.485   2.153   1.830  0.1289 -0.2487  0.4321
   40MPD2    H7  633   4.576   2.130   1.868  0.8578  2.2982  0.2644
   41TMC2    C1  634   3.957   0.136  13.790  0.3636 -0.6639 -0.1648
   41TMC2    C2  635   3.854   0.187  13.869  0.2941 -0.1162  0.3166
   41TMC2    C3  636   3.787   0.294  13.831  0.1531  0.1211 -0.5031
   41TMC2    C4  637   3.984   0.185  13.662  0.1665 -0.1931  0.0877
   41TMC2    C5  638   3.901   0.283  13.622 -0.2212 -0.3200  0.2595
   41TMC2    C6  639   3.806   0.345  13.702 -0.5551  0.2809 -0.9396
   41TMC2     C  640   4.015   0.004  13.807  0.1872  0.5686  0.6872
   41TMC2     O  641   4.055   4.686  13.704 -0.1602 -1.0171 -0.5921
   41TMC2     H  642   3.838   0.148  13.969 -0.3341 -1.4418 -0.3024
   41TMC2    H1  643   4.068   0.150  13.603  0.1232 -0.6603  0.3024
   41TMC2    H2  644   3.734   0.408  13.652 -2.8879 -0.6317  1.2558
   41TMC2    C7  645   3.908   0.336  13.495 -0.5499  0.6385  0.1475
   41TMC2    C8  646   3.689   0.348  13.917 -0.1411 -0.0184 -0.4740
   41TMC2    O1  647   3.864   0.449  13.473 -0.4855 -0.3405 -0.8076
   41TMC2    O2  648   3.626   0.277  13.991 -0.5891  0.6238 -0.2317
   41TMC2    O5  649   3.670   0.477  13.873 -0.8971 -0.1097  0.7868
   41TMC2    H5  650   3.728   0.502  13.798 -1.8238 -0.3614 -0.0191
   42MPD2     C  651   4.133   4.498  13.926  0.3836  0.4246  0.4560
   42MPD2    C1  652   4.076   4.594  13.994  0.1721  0.6176  0.2719
   42MPD2    C2  653   4.073   4.591  14.134  0.8687  0.1395  0.3387
   42MPD2    C3  654   4.140   4.496  14.204  0.0394  0.2699 -0.2785
   42MPD2    C4  655   4.202   4.393  14.132 -0.4129  0.4075  0.1404
   42MPD2    C5  656   4.204   4.399  13.996 -0.4243  0.1415  1.5529
   42MPD2     H  657   4.032   4.677  14.186 -0.7717 -0.5229  0.1352
   42MPD2    H1  658   4.258   4.315  14.184 -1.1730  0.9495  1.7544
   42MPD2    H2  659   4.123   4.490  13.818  0.6709 -0.9665  0.5305
   42MPD2    H3  660   4.257   4.322  13.941 -0.6786  0.7767  0.4067
   42MPD2     N  661   4.148   4.516  14.341  0.0432 -0.6757 -0.1072
   42MPD2    H5  662   4.091   4.594  14.373  0.8785  0.2011 -0.7577
   42MPD2    N1  663   4.010   4.703  13.934  0.2013 -0.0877  0.4333
   42MPD2    H7  664   3.972   0.031  14.002  0.3133 -0.0117  0.4207
   43TMC2    C1  665   0.009   3.677   1.387  0.4257  0.7204 -0.1489
   43TMC2    C2  666   4.632   3.755   1.370 -0.2108 -0.4983  0.7304
   43TMC2    C3  667   4.609   3.850   1.466  0.5779  0.0968  0.4023
   43TMC2    C4  668   0.091   3.694   1.497 -0.1723 -0.6396 -0.4499
   43TMC2    C5  669   0.069   3.793   1.585 -0.4318 -0.1119 -0.2639
   43TMC2    C6  670   4.692   3.870   1.577 -0.2368 -0.3769 -0.4202
   43TMC2     C  671   0.063   3.595   1.280 -0.2578  0.3237  0.3542
   43TMC2     O  672   0.151   3.514   1.309 -0.2193  0.3486 -0.4837
   43TMC2     H  673   4.555   3.730   1.299 -0.0341  1.6806 -0.2263
   43TMC2    H1  674   0.184   3.638   1.505  0.4179  0.4050  0.0229
   43TMC2    H2  675   4.674   3.957   1.639 -0.5582 -1.0551  0.4442
   43TMC2    C7  676   0.173   3.820   1.677  0.3303  0.0371 -0.6549
   43TMC2    C8  677   4.481   3.923   1.450  0.2997  0.1740 -0.3895
   43TMC2    O1  678   0.284   3.776   1.655 -0.0210  0.4812 -0.4722
   43TMC2    O2  679   4.445   3.976   1.344  0.0165  0.6677 -0.2573
   43TMC2    O5  680   4.430   3.955   1.570  0.5611 -0.1906 -0.0870
   43TMC2    H5  681   4.467   3.900   1.642  0.8950  2.5004  1.8267
   44MPD2     C  682   0.092   3.485   0.778  1.0029  0.7784 -0.0724
   44MPD2    C1  683   0.169   3.438   0.880 -0.5096 -0.3442 -0.4822
   44MPD2    C2  684   0.148   3.485   1.012 -0.7745  0.5150  0.0890
   44MPD2    C3  685   0.045   3.578   1.035 -0.9771  0.2409 -0.6857
   44MPD2    C4  686   4.702   3.621   0.926  0.8116 -0.9053  0.0577
   44MPD2    C5  687   4.724   3.575   0.799 -0.4109 -0.1081  0.9117
   44MPD2     H  688   0.222   3.462   1.088  1.4778 -0.8717 -2.5158
   44MPD2    H1  689   4.625   3.694   0.949  1.7847  0.4710 -1.1032
   44MPD2    H2  690   0.103   3.437   0.681 -0.3641  1.5315 -0.6075
   44MPD2    H3  691   4.670   3.604   0.710 -0.6205  1.7893  1.6551
   44MPD2     N  692   0.010   3.627   1.160 -0.1660  0.0248  0.4006
   44MPD2    H5  693   4.688   3.709   1.160  0.6085  0.5803  0.7712
   44MPD2    N1  694   0.272   3.336   0.859 -0.0607 -0.7022  0.0697
   44MPD2    H7  695   0.308   3.295   0.945  1.4171 -0.6155 -0.5124
   45TMC2    C1  696   2.081   0.063  10.108  0.0913  0.7296 -0.6483
   45TMC2    C2  697   2.212   0.023  10.100 -0.0847  0.3897  0.8991
   45TMC2    C3  698   2.305   0.115  10.145  0.0537 -0.4667  0.0256
   45TMC2    C4  699   2.047   0.186  10.159  0.1212  0.0882  0.2715
   45TMC2    C5  700   2.143   0.278  10.177 -0.7413 -0.4033  0.2222
   45TMC2    C6  701   2.275   0.246  10.179  0.3694  1.0419  0.5217
   45TMC2     C  702   1.994   4.728  10.023  0.7128  0.2914 -0.2322
   45TMC2     O  703   2.045   4.631   9.964  0.4557 -0.5445  0.4205
   45TMC2     H  704   2.242   4.665  10.056  0.8997  1.2511 -0.2731
   45TMC2    H1  705   1.943   0.216  10.169 -0.0413 -0.1403 -0.6837
   45TMC2    H2  706   2.351   0.322  10.187  1.1252  0.0750  2.5936
   45TMC2    C7  707   2.100   0.412  10.217  0.2713 -0.4095 -0.1293
   45TMC2    C8  708   2.443   0.067  10.136 -0.3205  0.0918 -0.0226
   45TMC2    O1  709   1.989   0.426  10.269  0.1174 -0.4188  0.0161
   45TMC2    O2  710   2.473   4.692  10.099 -0.0534 -0.5768  0.0024
   45TMC2    O5  711   2.516   0.149  10.215 -0.5864  0.8769 -0.3190
   45TMC2    H5  712   2.476   0.229  10.255 -1.3138  1.2223 -1.7185
   46MPD2     C  713   1.759   4.568   9.929 -0.3825 -0.7587 -0.9621
   46MPD2    C1  714   1.753   4.697   9.969  0.0028  0.2453 -0.4675
   46MPD2    C2  715   1.632   0.028   9.981  0.5218 -0.2066  0.2191
   46MPD2    C3  716   1.506   4.699   9.955  0.5715  0.0794  0.6208
   46MPD2    C4  717   1.512   4.562   9.916  0.1963  0.0065  1.2437
   46MPD2    C5  718   1.638   4.502   9.899  0.2059  1.1766  0.6234
   46MPD2     H  719   1.627   0.134  10.000 -0.5227 -0.2179 -0.0126
   46MPD2    H1  720   1.432   4.491   9.899 -0.6198  2.0692 -3.6512
   46MPD2    H2  721   1.848   4.506   9.921  0.6924  0.7400 -0.4450
   46MPD2    H3  722   1.650   4.407   9.848 -0.6078  1.4707 -0.1159
   46MPD2     N  723   1.385   0.021  10.000 -0.1891 -0.3756 -0.3742
   46MPD2    H5  724   1.394   0.117  10.030 -1.3310 -0.3019 -0.2724
   46MPD2    N1  725   1.862   0.036  10.025  0.4737  1.0445  0.0700
   46MPD2    H7  726   1.836   0.126  10.063 -0.7372  0.6854  0.1078
   47TMC2    C1  727   2.823   1.397   9.877 -0.0573 -0.3699  0.1519
   47TMC2    C2  728   2.795   1.497   9.964 -0.2249  0.0202 -0.7587
   47TMC2    C3  729   2.663   1.504  10.001 -0.6484  0.8422  0.3720
   47TMC2    C4  730   2.734   1.299   9.845  0.1679  0.1755 -0.1727
   47TMC2    C5  731   2.605   1.314   9.885  0.5075  1.0805 -0.0213
   47TMC2    C6  732   2.561   1.421   9.948 -0.5627 -0.3719 -0.0258
   47TMC2     C  733   2.940   1.421   9.785  0.4541 -0.0378 -0.4559
   47TMC2     O  734   2.986   1.533   9.793 -0.1610  0.0527 -0.6128
   47TMC2     H  735   2.861   1.581   9.982  2.2206 -0.9512 -5.1620
   47TMC2    H1  736   2.765   1.222   9.776 -2.1174 -0.4562 -0.5026
   47TMC2    H2  737   2.456   1.441   9.965 -0.1719  0.3212  1.6111
   47TMC2    C7  738   2.509   1.210   9.874 -0.1049 -0.0621  0.1387
   47TMC2    C8  739   2.616   1.630  10.054 -0.1430  0.0907  0.1114
   47TMC2    O1  740   2.408   1.213   9.948 -1.0907 -0.0861  0.2884
   47TMC2    O2  741   2.500   1.671  10.041  0.3256 -0.8291 -0.2077
   47TMC2    O5  742   2.711   1.686  10.128 -0.3531 -0.0125 -0.2160
   47TMC2    H5  743   2.787   1.627  10.146 -0.4826 -0.5555 -1.4512
   48MPD2     C  744   3.110   1.420   9.541  0.1033  0.4397  0.4319
   48MPD2    C1  745   3.085   1.315   9.622 -0.0007 -0.2609  0.3254
   48MPD2    C2  746   3.141   1.195   9.579  0.1330  0.4316  0.4888
   48MPD2    C3  747   3.224   1.174   9.471  0.4948  0.1313  0.0285
   48MPD2    C4  748   3.235   1.284   9.383 -0.5038 -0.3573 -0.0868
   48MPD2    C5  749   3.172   1.398   9.419 -0.1465 -0.5022 -0.1552
   48MPD2     H  750   3.138   1.100   9.631  0.6723 -0.7285 -1.6194
   48MPD2    H1  751   3.292   1.279   9.291 -0.2017 -1.5558  0.1515
   48MPD2    H2  752   3.054   1.510   9.562  0.3374  0.6302  0.2363
   48MPD2    H3  753   3.178   1.485   9.355 -0.2395  1.8027  3.0016
   48MPD2     N  754   3.274   1.044   9.443 -0.2275  0.3455 -0.6508
   48MPD2    H5  755   3.251   0.973   9.512 -1.1186  0.8747 -0.4074
   48MPD2    N1  756   2.985   1.309   9.725 -0.3302  0.0576 -0.1007
   48MPD2    H7  757   2.945   1.222   9.758  1.5558 -0.5644  0.5126
   49TMC2    C1  758   2.641   2.868  10.155 -0.1542  0.4387  0.3960
   49TMC2    C2  759   2.754   2.881  10.078 -0.0230  0.3181  0.1092
   49TMC2    C3  760   2.752   2.813   9.957  0.0717  0.2308 -0.0850
   49TMC2    C4  761   2.524   2.815  10.111  0.6159  0.4187 -1.4641
   49TMC2    C5  762   2.525   2.751   9.984  0.6619 -0.0303  0.5167
   49TMC2    C6  763   2.641   2.746   9.915 -0.3687  0.3871 -0.2555
   49TMC2     C  764   2.624   2.958  10.266 -0.8377 -0.4135  0.1125
   49TMC2     O  765   2.698   3.051  10.282 -0.1298  0.0343  0.0952
   49TMC2     H  766   2.835   2.948  10.103  0.9915 -0.5003 -0.9516
   49TMC2    H1  767   2.431   2.833  10.164  1.0668 -4.4266  0.9266
   49TMC2    H2  768   2.647   2.698   9.818 -0.6714  0.0717 -0.1159
   49TMC2    C7  769   2.399   2.734   9.909  0.2837  0.0602  0.1032
   49TMC2    C8  770   2.870   2.811   9.870  0.0970  0.1765  0.7188
   49TMC2    O1  771   2.406   2.755   9.790 -0.1839 -0.3225  0.5148
   49TMC2    O2  772   2.875   2.765   9.755 -0.0961 -1.1399 -0.2944
   49TMC2    O5  773   2.975   2.840   9.950 -0.2062  0.1135  0.1651
   49TMC2    H5  774   2.973   2.825  10.047  2.2254  0.0636  0.2093
   50MPD2     C  775   2.485   3.141  10.459  0.7086 -1.0176  0.5244
   50MPD2    C1  776   2.464   3.006  10.451  0.6739  1.0332 -0.5756
   50MPD2    C2  777   2.391   2.953  10.554  0.4443  0.1792  0.3181
   50MPD2    C3  778   2.329   3.033  10.647 -0.0735  0.0180  0.3952
   50MPD2    C4  779   2.361   3.166  10.658 -0.1947 -0.7192 -0.2044
   50MPD2    C5  780   2.422   3.225  10.551  0.8967 -0.2929  0.0727
   50MPD2     H  781   2.390   2.845  10.556  0.3910  0.1610 -0.7479
   50MPD2    H1  782   2.320   3.239  10.728 -0.5670 -0.5057 -0.6481
   50MPD2    H2  783   2.520   3.188  10.368  0.7551  0.0299  1.0873
   50MPD2    H3  784   2.424   3.332  10.532 -1.6762 -0.3995 -0.8059
   50MPD2     N  785   2.246   2.986  10.751  0.0569 -0.4169 -0.2041
   50MPD2    H5  786   2.189   3.054  10.798  0.4407  0.3031 -0.7733
   50MPD2    N1  787   2.527   2.925  10.355  0.3509 -0.7501  0.2755
   50MPD2    H7  788   2.488   2.832  10.342 -0.5014 -0.3387 -0.1256
   51TMC2    C1  789   3.156   2.113   1.725 -0.1416  0.0586 -0.2268
   51TMC2    C2  790   3.234   2.046   1.823 -0.5809  0.0855 -0.2938
   51TMC2    C3  791   3.228   2.095   1.953 -0.3063  0.1289 -0.0110
   51TMC2    C4  792   3.076   2.217   1.758  0.1824 -0.5646  0.4466
   51TMC2    C5  793   3.056   2.253   1.888 -0.5600 -0.1368  0.5153
   51TMC2    C6  794   3.133   2.191   1.984  0.1504 -0.4729  0.4939
   51TMC2     C  795   3.127   2.040   1.600 -0.4113 -0.2009  0.1383
   51TMC2     O  796   3.023   2.080   1.543  0.3790 -0.1832  0.7115
   51TMC2     H  797   3.298   1.963   1.795  1.7663  2.4227 -1.9397
   51TMC2    H1  798   3.024   2.265   1.675 -1.3633 -1.0255  1.1467
   51TMC2    H2  799   3.105   2.206   2.088 -2.3582  0.6758 -0.3510
   51TMC2    C7  800   2.946   2.329   1.933  0.0465 -0.2061  0.4516
   51TMC2    C8  801   3.314   2.030   2.051 -0.6370 -0.0326  0.6351
   51TMC2    O1  802   2.911   2.327   2.051  0.6821 -0.0884  0.1858
   51TMC2    O2  803   3.379   1.932   2.028  0.0930  0.7814 -0.5153
   51TMC2    O5  804   3.366   2.140   2.105  0.2993  0.2076 -0.7629
   51TMC2    H5  805   3.316   2.224   2.097  2.3822  1.3607 -1.9098
   52MPD2     C  806   3.158   1.610   1.330  0.3664 -0.1016 -0.1201
   52MPD2    C1  807   3.052   1.694   1.350  0.3340 -1.0968  0.1957
   52MPD2    C2  808   3.073   1.801   1.435  0.0527 -0.3263  0.2133
   52MPD2    C3  809   3.199   1.827   1.491 -0.3691  0.1569  0.1997
   52MPD2    C4  810   3.304   1.745   1.454  0.0065  0.2382 -0.5771
   52MPD2    C5  811   3.281   1.632   1.379  0.0112  0.1807  0.3118
   52MPD2     H  812   2.990   1.867   1.455 -1.0996 -1.6449 -0.2115
   52MPD2    H1  813   3.404   1.756   1.495 -0.2038  0.6932 -0.1884
   52MPD2    H2  814   3.153   1.523   1.265 -0.5459 -1.1455  1.3521
   52MPD2    H3  815   3.360   1.563   1.354 -0.7071 -1.2913  2.1218
   52MPD2     N  816   3.218   1.939   1.574  0.3835  0.4664 -1.0246
   52MPD2    H5  817   3.312   1.952   1.611  1.6560  0.5344 -4.2531
   52MPD2    N1  818   2.917   1.680   1.300  0.3561 -0.9553 -0.1298
   52MPD2    H7  819   2.858   1.760   1.316 -1.2578 -2.3946  1.1369
   53TMC2    C1  820   2.721   0.278  11.513 -0.4619  0.9342  0.3396
   53TMC2    C2  821   2.797   0.164  11.488  0.1852  0.2503  0.2611
   53TMC2    C3  822   2.887   0.126  11.584  0.1430  0.3090  0.0831
   53TMC2    C4  823   2.733   0.343  11.631  0.0449 -0.1549  0.5313
   53TMC2    C5  824   2.824   0.295  11.722  0.4830 -0.6085 -0.3669
   53TMC2    C6  825   2.900   0.189  11.701 -0.5447 -0.1426  0.1223
   53TMC2     C  826   2.595   0.296  11.442 -0.0447  0.1979  0.5628
   53TMC2     O  827   2.588   0.255  11.328  0.2259 -0.0098 -0.2796
   53TMC2     H  828   2.776   0.115  11.393  4.3915  1.1551 -1.1220
   53TMC2    H1  829   2.672   0.432  11.637  1.0938  0.6573 -0.8564
   53TMC2    H2  830   2.959   0.150  11.783  0.2940  0.7529 -0.0542
   53TMC2    C7  831   2.808   0.365  11.853 -0.3160  0.6506 -1.4345
   53TMC2    C8  832   2.958   0.000  11.581 -0.1232 -0.0607  0.0979
   53TMC2    O1  833   2.710   0.434  11.871 -0.4624  0.8858 -0.9915
   53TMC2    O2  834   3.033   4.713  11.675 -0.2807 -0.1020 -0.2439
   53TMC2    O5  835   2.869   4.649  11.519  0.2435  0.4723 -0.5956
   53TMC2    H5  836   2.784   4.683  11.485  1.3800  2.9392 -0.9661
   54MPD2     C  837   2.313   0.351  11.368  0.3344 -0.1227  0.8957
   54MPD2    C1  838   2.361   0.361  11.494 -0.2930 -0.0187 -0.4799
   54MPD2    C2  839   2.269   0.389  11.596 -0.8067 -0.4170 -0.5373
   54MPD2    C3  840   2.131   0.406  11.574 -0.3388 -0.1986  0.5160
   54MPD2    C4  841   2.091   0.402  11.448 -0.0634  0.4100  0.4363
   54MPD2    C5  842   2.179   0.362  11.350  0.3971 -0.1408 -0.2408
   54MPD2     H  843   2.313   0.424  11.689 -0.4371  2.1569 -1.6686
   54MPD2    H1  844   1.990   0.436  11.427 -0.2514 -0.8667 -0.7551
   54MPD2    H2  845   2.374   0.339  11.279 -1.5382  0.4609 -0.4745
   54MPD2    H3  846   2.136   0.365  11.250  1.4230 -1.6702 -0.7221
   54MPD2     N  847   2.043   0.441  11.673 -0.5309 -0.5084 -0.0950
   54MPD2    H5  848   1.955   0.477  11.639 -0.7970 -1.6759 -0.6461
   54MPD2    N1  849   2.495   0.341  11.526  0.8886  0.6298  0.2336
   54MPD2    H7  850   2.522   0.337  11.624  1.7696 -1.4911 -0.0973
   55TMC2    C1  851   3.200   4.328   0.369 -0.5481  0.5909 -0.1725
   55TMC2    C2  852   3.287   4.394   0.289  0.5807  0.2342 -0.5212
   55TMC2    C3  853   3.407   4.332   0.260 -0.1742 -0.2461 -1.2332
   55TMC2    C4  854   3.228   4.192   0.407 -0.2851 -0.0575  0.3483
   55TMC2    C5  855   3.355   4.144   0.389 -0.1823 -0.2435  0.5623
   55TMC2    C6  856   3.442   4.215   0.315 -0.3364  0.7052 -0.4012
   55TMC2     C  857   3.069   4.376   0.398  0.3229 -0.1969  0.3141
   55TMC2     O  858   2.990   4.284   0.418 -0.1452  1.1987 -0.3572
   55TMC2     H  859   3.269   4.492   0.247 -0.1515  0.1371 -0.4259
   55TMC2    H1  860   3.156   4.131   0.462  1.7924 -2.0681  0.8640
   55TMC2    H2  861   3.544   4.178   0.310  0.4166  3.0360 -1.8499
   55TMC2    C7  862   3.387   4.007   0.430 -0.4274 -0.1549 -0.4825
   55TMC2    C8  863   3.508   4.400   0.194  0.2880 -1.1086 -0.0581
   55TMC2    O1  864   3.457   3.938   0.357 -0.6442  1.0419  0.2121
   55TMC2    O2  865   3.622   4.382   0.231  0.6302 -0.6137  0.0927
   55TMC2    O5  866   3.465   4.410   0.068 -0.5751  0.8583  0.5927
   55TMC2    H5  867   3.372   4.383   0.052 -0.6175  1.3336  0.0572
   56MPD2     C  868   2.951   4.729   0.349 -0.1380  0.2910 -0.8043
   56MPD2    C1  869   2.942   4.589   0.384 -0.4414 -0.0299  0.5164
   56MPD2    C2  870   2.821   4.545   0.425  0.3596 -0.4275 -0.5392
   56MPD2    C3  871   2.715   4.634   0.457 -0.2128  0.0868  0.5697
   56MPD2    C4  872   2.724   0.023   0.413 -0.3543 -0.1689  0.3054
   56MPD2    C5  873   2.842   0.074   0.366  0.6664 -0.1668  0.9913
   56MPD2     H  874   2.813   4.440   0.450 -2.9348  0.0316  0.3264
   56MPD2    H1  875   2.647   0.099   0.425  0.2683  0.5864 -0.4849
   56MPD2    H2  876   3.045   0.023   0.304  0.4883 -1.8499 -0.9748
   56MPD2    H3  877   2.858   0.180   0.347 -0.0515 -0.1077  0.7077
   56MPD2     N  878   2.601   4.581   0.515 -0.1113 -0.0935 -0.1114
   56MPD2    H5  879   2.599   4.481   0.534  0.1980  0.0775  0.8211
   56MPD2    N1  880   3.059   4.511   0.379 -0.0564  0.0679 -0.4376
   56MPD2    H7  881   3.140   4.568   0.354  0.2960 -0.6111 -0.8309
   57TMC2    C1  882   1.864   3.724  13.186  0.2774  0.9708  0.1030
   57TMC2    C2  883   1.740   3.732  13.139  0.6154  0.3811  0.0207
   57TMC2    C3  884   1.731   3.693  13.009  0.0587  0.3687  0.2147
   57TMC2    C4  885   1.980   3.689  13.117 -0.1482 -0.7893 -0.4997
   57TMC2    C5  886   1.958   3.655  12.982  0.4964 -0.0004  0.5012
   57TMC2    C6  887   1.828   3.649  12.921  0.6608  0.2317 -0.5380
   57TMC2     C  888   1.874   3.760  13.331 -0.7350  0.7001 -0.3876
   57TMC2     O  889   1.786   3.832  13.378 -0.2509  0.6568  0.1631
   57TMC2     H  890   1.652   3.745  13.202  0.9624 -0.5940  0.7147
   57TMC2    H1  891   2.082   3.698  13.152 -0.0830 -1.0823 -0.6173
   57TMC2    H2  892   1.799   3.619  12.822  0.9584 -2.4162  0.1899
   57TMC2    C7  893   2.058   3.665  12.873 -0.1937  0.2001 -0.1377
   57TMC2    C8  894   1.586   3.668  12.978 -0.2800 -0.0855 -0.4836
   57TMC2    O1  895   2.023   3.706  12.763 -0.5456 -0.2305  0.3491
   57TMC2    O2  896   1.497   3.734  13.033 -0.0631  0.4518  0.3580
   57TMC2    O5  897   1.579   3.547  12.917 -0.7030 -0.1011 -0.4833
   57TMC2    H5  898   1.660   3.491  12.913 -1.4136 -1.1764  0.1904
   58MPD2     C  899   2.202   3.850  13.712 -0.3226 -0.2076  0.0231
   58MPD2    C1  900   2.080   3.908  13.680  0.5737  0.6212  0.6746
   58MPD2    C2  901   2.005   3.871  13.571  1.1525 -0.1223 -0.4371
   58MPD2    C3  902   2.058   3.763  13.498 -0.2759 -0.4463  0.1707
   58MPD2    C4  903   2.179   3.703  13.516  0.0119  1.0872  0.2635
   58MPD2    C5  904   2.240   3.744  13.630 -0.8055 -0.0281  0.2027
   58MPD2     H  905   1.904   3.909  13.562 -0.1697 -3.4852  0.1857
   58MPD2    H1  906   2.224   3.627  13.454  0.4223 -0.2522  2.1813
   58MPD2    H2  907   2.267   3.871  13.796  0.0177 -0.7541 -0.1065
   58MPD2    H3  908   2.334   3.695  13.652 -0.8934  0.0351  0.7318
   58MPD2     N  909   1.989   3.713  13.385 -0.8272  0.7779  0.3138
   58MPD2    H5  910   2.041   3.650  13.325 -1.0921  0.8899 -0.0345
   58MPD2    N1  911   2.029   4.010  13.759 -0.3979  0.4300  0.1241
   58MPD2    H7  912   1.946   4.051  13.717 -1.4032 -1.7932 -0.0627
   59TMC2    C1  913   0.353   4.146  12.649 -1.5054 -0.0265  0.2740
   59TMC2    C2  914   0.319   4.035  12.725 -0.2055 -0.8944  0.1499
   59TMC2    C3  915   0.215   3.957  12.689 -0.7363  0.3525  0.2372
   59TMC2    C4  916   0.276   4.174  12.539 -0.4262 -0.6973 -0.3252
   59TMC2    C5  917   0.175   4.087  12.506 -0.0805 -0.0533 -0.6956
   59TMC2    C6  918   0.139   3.979  12.584 -0.0320  0.0668 -0.0613
   59TMC2     C  919   0.473   4.232  12.664 -0.4932 -0.5431  0.2546
   59TMC2     O  920   0.472   4.344  12.607 -0.4248 -0.3796 -0.2283
   59TMC2     H  921   0.370   4.017  12.819 -0.2421 -1.2171  0.1083
   59TMC2    H1  922   0.305   4.255  12.473  1.8612 -0.5792  0.8160
   59TMC2    H2  923   0.059   3.913  12.553  0.4463 -0.3095 -0.4927
   59TMC2    C7  924   0.105   4.094  12.380 -0.4000 -0.1964  0.8366
   59TMC2    C8  925   0.185   3.839  12.768 -0.5685 -0.3029  0.7928
   59TMC2    O1  926   0.086   3.986  12.322 -0.1978 -0.4942 -0.2813
   59TMC2    O2  927   0.077   3.789  12.776  0.4022  0.2784  0.2564
   59TMC2    O5  928   0.304   3.782  12.804 -0.0399  0.6989  0.3279
   59TMC2    H5  929   0.384   3.839  12.810 -0.1586  1.1400 -1.9241
   60MPD2     C  930   0.745   4.325  12.691 -0.1895 -0.1947  0.4540
   60MPD2    C1  931   0.686   4.242  12.786  0.0820 -0.4752  0.3559
   60MPD2    C2  932   0.755   4.213  12.904  0.7170 -0.0488  0.6626
   60MPD2    C3  933   0.887   4.255  12.912  0.1506 -0.2984 -0.0599
   60MPD2    C4  934   0.942   4.337  12.816  1.0884 -0.0531 -0.3711
   60MPD2    C5  935   0.868   4.374  12.705  0.1423 -0.1335  0.3738
   60MPD2     H  936   0.715   4.156  12.986  2.3784  0.0644  1.5417
   60MPD2    H1  937   1.049   4.358  12.815  1.0947 -0.1364 -1.9439
   60MPD2    H2  938   0.698   4.341  12.594  1.5630 -0.7544 -0.4921
   60MPD2    H3  939   0.893   4.440  12.623 -0.2125 -2.8835 -1.9309
   60MPD2     N  940   0.970   4.240  13.024 -0.0118  0.6557 -0.1893
   60MPD2    H5  941   1.066   4.274  13.018  0.2999 -0.1111  0.4907
   60MPD2    N1  942   0.561   4.185  12.759 -0.1169 -0.4017  0.0782
   60MPD2    H7  943   0.539   4.101  12.812 -0.2730  0.0536  0.7322
   61TMC2    C1  944   3.995   0.753  16.105  0.4898 -0.2531 -0.3074
   61TMC2    C2  945   3.871   0.731  16.153  0.1796  0.2720 -0.6054
   61TMC2    C3  946   3.781   0.835  16.161  0.1099 -0.7385  0.9098
   61TMC2    C4  947   4.032   0.872  16.052  0.6513 -0.0063 -0.4279
   61TMC2    C5  948   3.942   0.977  16.053 -0.4466 -0.4989 -0.1636
   61TMC2    C6  949   3.816   0.961  16.113 -0.1396 -0.1323  0.0637
   61TMC2     C  950   4.074   0.634  16.100 -0.1717  0.7110 -0.1450
   61TMC2     O  951   4.036   0.531  16.159 -0.3503 -0.0820 -0.2133
   61TMC2     H  952   3.846   0.634  16.193  2.1579  0.3277  0.7537
   61TMC2    H1  953   4.135   0.887  16.025  0.3576  1.7006 -0.5893
   61TMC2    H2  954   3.735   1.033  16.107  0.4103  0.7627  3.3062
   61TMC2    C7  955   3.994   1.108  16.023 -0.2166 -0.3766 -0.0845
   61TMC2    C8  956   3.658   0.819  16.240  0.2512 -0.7169 -0.2552
   61TMC2    O1  957   4.100   1.120  15.956  0.2209  0.1608 -0.4837
   61TMC2    O2  958   3.603   0.914  16.291 -0.1117 -0.5559  0.0711
   61TMC2    O5  959   3.637   0.688  16.263 -0.1247 -0.3385  0.0869
   61TMC2    H5  960   3.640   0.638  16.179  0.9069  0.1105 -0.1401
   62MPD2     C  961   4.268   0.412  16.032 -0.2697 -0.7243 -0.0702
   62MPD2    C1  962   4.268   0.540  15.982  0.1661  0.5780  0.4866
   62MPD2    C2  963   4.356   0.565  15.875  0.9252 -0.1767 -0.5443
   62MPD2    C3  964   4.440   0.467  15.829 -0.4359  0.2610  0.2960
   62MPD2    C4  965   4.453   0.350  15.903  0.0955  0.2842  0.1305
   62MPD2    C5  966   4.358   0.326  15.996 -0.1484 -0.2452  0.4703
   62MPD2     H  967   4.357   0.656  15.817 -0.5851  0.2628  0.1250
   62MPD2    H1  968   4.514   0.269  15.864  0.0304  1.3673 -2.2276
   62MPD2    H2  969   4.225   0.387  16.128 -1.2064  0.6935 -0.1224
   62MPD2    H3  970   4.361   0.227  16.042 -0.6599 -0.5376 -0.1191
   62MPD2     N  971   4.530   0.479  15.725 -0.2843  0.2684  0.6084
   62MPD2    H5  972   4.601   0.407  15.718 -1.4007 -0.8200  0.6974
   62MPD2    N1  973   4.184   0.643  16.016 -0.0257  0.3348  0.2550
   62MPD2    H7  974   4.185   0.729  15.962  0.5600  0.1243 -0.0743
   63TMC2    C1  975   3.418   0.841  10.765  0.0627 -0.3172 -0.2947
   63TMC2    C2  976   3.360   0.957  10.727 -0.7953  0.3906  0.5775
   63TMC2    C3  977   3.425   1.028  10.633 -0.4595  0.7401 -0.2837
   63TMC2    C4  978   3.537   0.796  10.709 -0.2202 -0.0532 -0.1718
   63TMC2    C5  979   3.599   0.872  10.620  0.9807 -0.3762  0.4777
   63TMC2    C6  980   3.545   0.990  10.577 -0.1045  0.4190  1.2546
   63TMC2     C  981   3.342   0.754  10.851  0.6399  0.4402  0.2084
   63TMC2     O  982   3.236   0.798  10.889 -0.9593  0.4334  0.3531
   63TMC2     H  983   3.268   0.995  10.769 -1.2176 -0.8158  0.7614
   63TMC2    H1  984   3.595   0.712  10.746 -0.4825 -0.6753 -1.1756
   63TMC2    H2  985   3.572   1.034  10.482 -1.3449  3.2783  2.2214
   63TMC2    C7  986   3.704   0.811  10.548  0.5276 -0.5209  0.0358
   63TMC2    C8  987   3.356   1.149  10.585  0.0756 -0.6584 -0.6645
   63TMC2    O1  988   3.698   0.698  10.502  0.3873  0.7323 -0.4130
   63TMC2    O2  989   3.239   1.171  10.597 -0.5837  0.2629 -0.6750
   63TMC2    O5  990   3.449   1.240  10.540 -0.0195  0.8813  0.5024
   63TMC2    H5  991   3.541   1.218  10.565 -0.1248  1.0155  1.0229
   64MPD2     C  992   3.231   0.328  11.089  0.4267  0.2497  0.5059
   64MPD2    C1  993   3.327   0.296  10.997 -0.2641  0.0730  0.0105
   64MPD2    C2  994   3.377   0.400  10.927  0.2824 -0.4214  0.1384
   64MPD2    C3  995   3.340   0.533  10.952  0.0427  0.4773 -0.3781
   64MPD2    C4  996   3.236   0.560  11.040  0.1940  0.1088  0.4668
   64MPD2    C5  997   3.178   0.456  11.106  0.1155  0.1796 -0.3762
   64MPD2     H  998   3.465   0.381  10.867 -0.7490 -2.0033 -0.8600
   64MPD2    H1  999   3.199   0.660  11.056  2.0935  1.0350 -0.8534
   64MPD2    H2 1000   3.175   0.252  11.142 -0.7451  0.4417 -0.4608
   64MPD2    H3 1001   3.091   0.480  11.166  0.5790 -1.6622  1.0576
   64MPD2     N 1002   3.406   0.635  10.879 -0.1737 -0.1504 -0.2380
   64MPD2    H5 1003   3.487   0.605  10.826  0.0412 -0.1002  0.0610
   64MPD2    N1 1004   3.385   0.169  10.987 -0.1956 -0.2294  0.0001
   64MPD2    H7 1005   3.476   0.157  10.942  0.7042  0.1909  1.6998
   65TMC2    C1 1006   0.298   0.955  15.658 -0.9729 -1.2528  0.6693
   65TMC2    C2 1007   0.375   0.946  15.547 -0.0948 -0.1119 -0.1334
   65TMC2    C3 1008   0.410   1.059  15.477 -0.1496  0.2062 -0.2170
   65TMC2    C4 1009   0.238   1.072  15.697  0.2410 -0.4079  0.0548
   65TMC2    C5 1010   0.266   1.182  15.624 -0.2498 -0.3522 -0.3337
   65TMC2    C6 1011   0.347   1.179  15.512  0.1098  0.3920 -0.6877
   65TMC2     C 1012   0.247   0.842  15.737 -0.5728  0.1276 -0.0649
   65TMC2     O 1013   0.177   0.873  15.831 -0.7545  0.8148  0.6633
   65TMC2     H 1014   0.417   0.852  15.514  2.6296  0.1157  2.7493
   65TMC2    H1 1015   0.180   1.083  15.788 -0.3514 -1.2627 -0.2239
   65TMC2    H2 1016   0.361   1.271  15.457  0.1559  1.7660  1.6231
   65TMC2    C7 1017   0.175   1.291  15.628  0.1084 -1.0699  0.0548
   65TMC2    C8 1018   0.485   1.043  15.353  0.2910  0.1706  0.1000
   65TMC2    O1 1019   0.198   1.382  15.545  0.0188  0.0211  0.3713
   65TMC2    O2 1020   0.489   0.935  15.295 -0.4609 -0.8206 -0.4731
   65TMC2    O5 1021   0.522   1.159  15.298 -0.5832 -0.3025 -1.1210
   65TMC2    H5 1022   0.525   1.240  15.354 -0.0532 -0.5720 -0.7667
   66MPD2     C 1023   0.152   0.588  15.858 -0.4551 -0.0085  0.4693
   66MPD2    C1 1024   0.191   0.606  15.726 -0.3864 -0.7418  0.9983
   66MPD2    C2 1025   0.188   0.491  15.645 -0.3154  0.4344  0.0274
   66MPD2    C3 1026   0.136   0.369  15.693  0.5367 -0.5120 -0.2199
   66MPD2    C4 1027   0.092   0.365  15.824  0.0860 -0.2797 -0.1100
   66MPD2    C5 1028   0.118   0.470  15.909 -0.5220  0.5725 -0.8848
   66MPD2     H 1029   0.221   0.499  15.542 -0.6580  0.2197 -0.0964
   66MPD2    H1 1030   0.053   0.273  15.865  0.3166 -0.7344 -0.9267
   66MPD2    H2 1031   0.162   0.669  15.929 -0.5484  1.2162 -0.9266
   66MPD2    H3 1032   0.077   0.458  16.009 -0.8740 -0.1142 -1.1074
   66MPD2     N 1033   0.139   0.248  15.620 -0.1665  0.4164  0.8863
   66MPD2    H5 1034   0.106   0.170  15.677 -0.1158  0.1318  0.5248
   66MPD2    N1 1035   0.256   0.719  15.670  0.1865 -0.5391  0.0513
   66MPD2    H7 1036   0.303   0.705  15.581 -0.6702  0.4527 -0.5577
   67TMC2    C1 1037   0.532   4.381  14.369  0.1816  0.4151 -0.3429
   67TMC2    C2 1038   0.417   4.456  14.382 -0.0960 -0.9993 -0.3793
   67TMC2    C3 1039   0.395   4.515  14.508 -0.0851 -0.1930  0.0188
   67TMC2    C4 1040   0.627   4.376  14.468 -0.2905 -0.5685  0.2443
   67TMC2    C5 1041   0.592   4.427  14.594 -0.5694 -0.1477  0.3721
   67TMC2    C6 1042   0.478   4.494  14.611 -0.2861  0.3861  0.7024
   67TMC2     C 1043   0.579   4.361  14.234 -0.1264 -0.4455 -0.0538
   67TMC2     O 1044   0.701   4.355  14.232 -0.1966  0.1915  0.2906
   67TMC2     H 1045   0.361   4.494  14.298  0.8510  1.9710  0.3337
   67TMC2    H1 1046   0.721   4.326  14.452 -0.0589  0.1248 -0.5707
   67TMC2    H2 1047   0.456   4.541  14.707 -2.0909  0.2870  0.3370
   67TMC2    C7 1048   0.702   4.427  14.692 -0.7193 -0.3437  0.4257
   67TMC2    C8 1049   0.290   4.608  14.520  0.7085  0.2373 -0.2488
   67TMC2    O1 1050   0.796   4.354  14.670  0.0323 -0.4073 -0.2810
   67TMC2    O2 1051   0.181   4.593  14.474  0.0199  0.2430 -0.0197
   67TMC2    O5 1052   0.368   4.719  14.522  0.5657  0.2123 -0.3913
   67TMC2    H5 1053   0.464   4.703  14.515  0.2967 -0.7201 -1.8806
   68MPD2     C 1054   0.635   4.404  13.954 -0.3953  0.6220  0.6558
   68MPD2    C1 1055   0.515   4.340  13.994  0.7810 -0.3974 -0.2956
   68MPD2    C2 1056   0.421   4.291  13.902 -0.4618 -0.2699  0.1035
   68MPD2    C3 1057   0.445   4.292  13.767 -0.3684  0.4311  0.2913
   68MPD2    C4 1058   0.564   4.353  13.726  0.0049  0.6154  0.2278
   68MPD2    C5 1059   0.657   4.397  13.820 -0.5597 -0.2366 -0.1852
   68MPD2     H 1060   0.317   4.276  13.928 -0.3076 -1.1776  0.1983
   68MPD2    H1 1061   0.592   4.359  13.622 -2.6819  0.7669 -0.4947
   68MPD2    H2 1062   0.708   4.441  14.025  0.3638  2.5657 -1.1443
   68MPD2    H3 1063   0.747   4.444  13.783  0.9645 -3.4487 -0.5897
   68MPD2     N 1064   0.362   4.232  13.669 -0.1114 -0.3821 -0.2565
   68MPD2    H5 1065   0.386   4.253  13.573 -0.3111 -0.7528 -0.3904
   68MPD2    N1 1066   0.487   4.343  14.133  0.1885 -0.5026  0.1445
   68MPD2    H7 1067   0.391   4.321  14.155 -0.2724  1.8224  0.4106
   69TMC2    C1 1068   2.485   0.780  13.200 -0.0119  0.0815 -0.1697
   69TMC2    C2 1069   2.355   0.811  13.216  0.6364 -0.5868 -0.0221
   69TMC2    C3 1070   2.296   0.880  13.119 -0.5718  0.0900 -0.2023
   69TMC2    C4 1071   2.547   0.797  13.083  0.2328 -0.0833  0.2759
   69TMC2    C5 1072   2.480   0.867  12.984  0.5519  0.9400 -0.4585
   69TMC2    C6 1073   2.356   0.920  13.001 -0.0281  0.1304 -0.1881
   69TMC2     C 1074   2.549   0.719  13.309  0.1059 -0.0727  0.2766
   69TMC2     O 1075   2.482   0.684  13.399 -0.2419 -0.1748  0.5219
   69TMC2     H 1076   2.305   0.801  13.312 -0.0487  0.4867 -0.2677
   69TMC2    H1 1077   2.643   0.752  13.060  0.0015 -0.6883  0.5272
   69TMC2    H2 1078   2.318   0.998  12.936  0.0730 -1.2468 -1.8847
   69TMC2    C7 1079   2.548   0.888  12.861 -0.1402 -0.2128  0.5318
   69TMC2    C8 1080   2.178   0.949  13.173  0.1865  0.5466 -0.3594
   69TMC2    O1 1081   2.663   0.847  12.853  0.0818  0.3840  0.0684
   69TMC2    O2 1082   2.162   1.059  13.126 -0.1907 -0.1473 -0.4271
   69TMC2    O5 1083   2.093   0.867  13.242  0.0367 -0.0563  0.0802
   69TMC2    H5 1084   2.102   0.771  13.220 -2.3184 -0.4757  0.9455
   70MPD2     C 1085   2.905   0.747  13.397 -0.4005  0.2806  0.4939
   70MPD2    C1 1086   2.775   0.692  13.398  0.2430  0.0633 -0.6672
   70MPD2    C2 1087   2.744   0.583  13.486  0.2974 -1.3402  0.0363
   70MPD2    C3 1088   2.846   0.526  13.564  0.2909  0.1065 -0.2914
   70MPD2    C4 1089   2.972   0.585  13.560  0.2404 -0.3717 -0.0926
   70MPD2    C5 1090   3.000   0.692  13.478 -0.9099  0.0013  0.4154
   70MPD2     H 1091   2.644   0.543  13.476  0.5755 -1.7850 -0.9543
   70MPD2    H1 1092   3.052   0.541  13.619 -0.6347 -0.0658  1.3186
   70MPD2    H2 1093   2.931   0.833  13.337 -0.1108 -0.1037  0.0685
   70MPD2    H3 1094   3.099   0.737  13.483 -0.3196 -1.4171  1.4591
   70MPD2     N 1095   2.824   0.402  13.635 -0.2629 -0.7657  0.4708
   70MPD2    H5 1096   2.907   0.357  13.671  2.8046  1.8122 -3.4365
   70MPD2    N1 1097   2.683   0.746  13.300  0.1252  0.0438  0.4408
   70MPD2    H7 1098   2.703   0.810  13.224  2.1011  0.6835  1.5089
   71TMC2    C1 1099   0.021   1.784   1.389 -0.4423 -0.0730  0.0492
   71TMC2    C2 1100   0.111   1.884   1.381  0.9513 -0.2019  0.5061
   71TMC2    C3 1101   0.157   1.931   1.504  0.2252 -0.2179 -0.1077
   71TMC2    C4 1102   4.701   1.736   1.507  0.3314  0.3539  0.2027
   71TMC2    C5 1103   0.018   1.782   1.623 -0.6372 -0.0108 -0.5294
   71TMC2    C6 1104   0.115   1.880   1.626 -0.1362  0.3945  0.1030
   71TMC2     C 1105   4.689   1.758   1.264 -0.4030 -0.5040  0.1723
   71TMC2     O 1106   4.733   1.822   1.169  0.8207  0.3296  0.0791
   71TMC2     H 1107   0.118   1.946   1.293 -1.4867  0.6951  0.9637
   71TMC2    H1 1108   4.623   1.661   1.503  0.6180  0.0265  0.7757
   71TMC2    H2 1109   0.154   1.915   1.721  1.9671 -0.7731 -0.3289
   71TMC2    C7 1110   4.680   1.775   1.746  0.1082  0.2232 -0.5792
   71TMC2    C8 1111   0.265   2.036   1.504  0.8881  0.0840  0.4091
   71TMC2    O1 1112   0.005   1.768   1.853  0.2622 -0.0988 -0.4670
   71TMC2    O2 1113   0.301   2.100   1.604  0.4439 -0.4004 -0.0824
   71TMC2    O5 1114   0.321   2.049   1.379  0.4697  0.2286  0.0400
   71TMC2    H5 1115   0.299   1.966   1.331 -2.7336  0.7989  0.5523
   72MPD2     C 1116   4.321   1.556   0.963  0.8341 -0.0502  0.0473
   72MPD2    C1 1117   4.403   1.664   0.948 -0.1957 -0.4333  0.0771
   72MPD2    C2 1118   4.501   1.697   1.040  0.0731 -1.0996 -0.0158
   72MPD2    C3 1119   4.518   1.616   1.149  0.3299 -0.3580 -0.3645
   72MPD2    C4 1120   4.450   1.495   1.159 -0.0020 -0.1686 -0.5749
   72MPD2    C5 1121   4.354   1.466   1.068  0.4495  0.0539 -0.6559
   72MPD2     H 1122   4.570   1.778   1.019  0.9682 -1.5016  1.3639
   72MPD2    H1 1123   4.470   1.426   1.241  1.1898 -0.1267 -0.8310
   72MPD2    H2 1124   4.252   1.523   0.886  3.1254 -1.6698 -1.3284
   72MPD2    H3 1125   4.304   1.370   1.073  0.1740  0.3388  2.0436
   72MPD2     N 1126   4.606   1.645   1.263  0.0908  0.1974 -0.2340
   72MPD2    H5 1127   4.611   1.587   1.345 -4.4699 -0.0673 -0.1037
   72MPD2    N1 1128   4.381   1.762   0.845 -0.1444 -0.0982  0.1694
   72MPD2    H7 1129   4.436   1.846   0.853  1.4077 -1.2038  1.1103
   73TMC2    C1 1130   3.907   3.231  14.018  0.8769  0.2566 -0.2021
   73TMC2    C2 1131   3.887   3.181  14.146 -0.0538 -0.0413  0.0324
   73TMC2    C3 1132   3.915   3.052  14.158 -0.0287 -0.8371 -0.4559
   73TMC2    C4 1133   3.972   3.159  13.917 -0.9459  0.2071 -0.4068
   73TMC2    C5 1134   4.011   3.033  13.944  0.2773  1.2504 -0.5233
   73TMC2    C6 1135   3.970   2.975  14.061  0.0026 -0.4230 -0.3469
   73TMC2     C 1136   3.948   3.367  14.009  0.1048  0.6580  0.1456
   73TMC2     O 1137   4.037   3.390  14.088  0.1414  0.2744 -0.5695
   73TMC2     H 1138   3.866   3.246  14.230  0.6006  0.4193 -0.1575
   73TMC2    H1 1139   4.001   3.196  13.819  0.9364 -0.3681 -0.0573
   73TMC2    H2 1140   4.011   2.882  14.099  1.5418  0.5745  0.4467
   73TMC2    C7 1141   4.149   3.003  13.928 -0.4322 -0.3964 -0.3375
   73TMC2    C8 1142   3.922   2.984  14.290 -1.6099 -0.0193 -0.1052
   73TMC2    O1 1143   4.185   2.893  13.971  0.2184 -0.3264  0.4439
   73TMC2    O2 1144   3.926   2.861  14.297 -0.7137  0.0426  0.2192
   73TMC2    O5 1145   3.964   3.069  14.388  0.0128  0.0899 -0.0691
   73TMC2    H5 1146   3.976   3.165  14.375 -0.1842  0.0364 -0.6537
   74MPD2     C 1147   4.041   3.814  13.794  0.4422 -0.9168 -0.3847
   74MPD2    C1 1148   4.127   3.727  13.855  0.2310  0.2148  0.0672
   74MPD2    C2 1149   4.074   3.604  13.889 -0.2605 -0.2870 -0.0571
   74MPD2    C3 1150   3.942   3.566  13.867  0.4971 -1.0196 -0.6577
   74MPD2    C4 1151   3.858   3.655  13.802 -0.4029  0.2410  0.3729
   74MPD2    C5 1152   3.910   3.775  13.758  0.0774 -0.0837  0.4660
   74MPD2     H 1153   4.134   3.528  13.939  0.9871 -0.6147 -2.0715
   74MPD2    H1 1154   3.758   3.622  13.780 -0.6375  1.7991 -0.8616
   74MPD2    H2 1155   4.073   3.916  13.777 -1.1200 -0.4068 -0.2940
   74MPD2    H3 1156   3.846   3.850  13.712  0.6587 -0.9086 -1.7109
   74MPD2     N 1157   3.893   3.440  13.906 -0.9956 -0.4204 -0.5386
   74MPD2    H5 1158   3.812   3.399  13.862 -2.6997  1.3935  0.9121
   74MPD2    N1 1159   4.264   3.764  13.879 -0.0078 -0.6496  0.6196
   74MPD2    H7 1160   4.299   3.855  13.852  0.7879 -1.1070  0.0858
   75TMC2    C1 1161   0.203   4.113  13.555 -0.4349 -0.4728 -0.1185
   75TMC2    C2 1162   0.277   4.126  13.439  0.5778 -0.3649 -0.5445
   75TMC2    C3 1163   0.229   4.079  13.320  0.3589  0.5071 -0.3194
   75TMC2    C4 1164   0.074   4.070  13.549  0.3271 -0.2020  0.9556
   75TMC2    C5 1165   0.025   4.038  13.425 -0.5875  0.3145  0.3706
   75TMC2    C6 1166   0.097   4.021  13.307 -0.9826 -0.0630 -0.9358
   75TMC2     C 1167   0.259   4.147  13.684  0.2048  0.1405  0.4936
   75TMC2     O 1168   0.190   4.122  13.780  0.1408 -0.0253  0.0129
   75TMC2     H 1169   0.379   4.163  13.438 -0.2087  1.8294  1.3115
   75TMC2    H1 1170   0.024   4.051  13.643 -0.6348 -0.8788  0.3166
   75TMC2    H2 1171   0.053   4.013  13.208  0.4844  1.1746 -1.6894
   75TMC2    C7 1172   4.627   4.090  13.401  0.0700  0.3265  0.3920
   75TMC2    C8 1173   0.318   4.071  13.208 -0.1720 -0.0861  0.7672
   75TMC2    O1 1174   4.579   4.058  13.292  0.2330  0.1805  0.5627
   75TMC2    O2 1175   0.433   4.114  13.203  0.1233 -0.0334 -0.3067
   75TMC2    O5 1176   0.280   3.962  13.134  1.1984  0.0286  0.1284
   75TMC2    H5 1177   0.200   3.921  13.173 -0.9093  1.2876 -2.8084
   76TMC2    C1 1178   3.593   4.735  11.888  0.1364 -0.7263  0.8794
   76TMC2    C2 1179   3.535   4.645  11.798 -0.3881  0.5883  0.0649
   76TMC2    C3 1180   3.608   4.549  11.744  0.4074 -0.4555 -1.1990
   76TMC2    C4 1181   3.728   4.720  11.925  0.8071  0.6199 -0.1833
   76TMC2    C5 1182   3.799   4.622  11.860 -0.4703 -0.3580  0.8293
   76TMC2    C6 1183   3.740   4.525  11.779 -1.0674 -0.3484  0.6063
   76TMC2     C 1184   3.514   0.091  11.962 -0.3801  0.2276  0.6597
   76TMC2     O 1185   3.416   0.137  11.902 -0.3471 -0.7815 -0.6559
   76TMC2     H 1186   3.433   4.650  11.764 -0.7085 -0.9349  0.7980
   76TMC2    H1 1187   3.772   0.061  11.986  0.5385  0.4660  0.2146
   76TMC2    H2 1188   3.802   4.453  11.726  1.1239  1.2802  0.9784
   76TMC2    C7 1189   3.941   4.587  11.885  0.6070  0.1651 -0.1757
   76TMC2    C8 1190   3.535   4.452  11.668 -0.3829  0.8978  0.2289
   76TMC2    O1 1191   4.004   4.536  11.792  0.7659 -0.1625 -0.1667
   76TMC2    O2 1192   3.467   4.492  11.577  0.4578  0.1456  0.3254
   76TMC2    O5 1193   3.615   4.343  11.660 -0.3059 -0.4229 -0.2606
   76TMC2    H5 1194   3.661   4.305  11.738 -1.4297 -2.2995 -0.5047
   77MPD2     C 1195   3.404   0.298  12.418 -1.0522  0.6312 -0.3407
   77MPD2    C1 1196   3.364   0.333  12.286  1.5504 -0.0578 -0.0093
   77MPD2    C2 1197   3.396   0.247  12.181  0.0335  0.0593 -0.4159
   77MPD2    C3 1198   3.487   0.148  12.201  0.2070 -0.8424  0.5616
   77MPD2    C4 1199   3.524   0.112  12.333 -0.0774  0.3825  0.2493
   77MPD2    C5 1200   3.471   0.181  12.438 -0.6522 -0.3868  0.3632
   77MPD2     H 1201   3.371   0.277  12.080 -1.1849 -0.4378 -0.2558
   77MPD2    H1 1202   3.594   0.031  12.352  1.6036  1.8945  0.4872
   77MPD2    H2 1203   3.380   0.349  12.510 -2.7376 -1.6622  0.4938
   77MPD2    H3 1204   3.476   0.158  12.544 -0.8113  2.2540  0.9322
   77MPD2     N 1205   3.549   0.083  12.096  0.3676 -0.7592 -0.4841
   77MPD2    H5 1206   3.628   0.025  12.120  2.1602  2.1152  0.5742
   77MPD2    N1 1207   3.271   0.438  12.259 -0.1780 -0.4606  0.2567
   77MPD2    H7 1208   3.242   0.454  12.163 -0.6199 -0.0013  0.4639
   78TMC2    C1 1209   3.896   1.146   1.929 -0.1087  0.1399  0.5804
   78TMC2    C2 1210   3.831   1.032   1.971 -0.2729  0.2741  0.1843
   78TMC2    C3 1211   3.898   0.914   1.959 -0.2139 -0.0979 -0.2168
   78TMC2    C4 1212   4.025   1.140   1.885 -0.7812 -0.5469  0.0261
   78TMC2    C5 1213   4.082   1.021   1.886 -0.2886 -0.0009 -0.4489
   78TMC2    C6 1214   4.022   0.899   1.915  0.0533 -0.2285  0.6328
   78TMC2     C 1215   3.841   1.279   1.939 -0.1217 -0.6107 -0.3482
   78TMC2     O 1216   3.905   1.370   1.887 -0.5204  0.0409 -0.0053
   78TMC2     H 1217   3.730   1.035   2.008 -0.7236  2.4024 -1.2664
   78TMC2    H1 1218   4.080   1.229   1.857  0.5314 -0.6493  2.3027
   78TMC2    H2 1219   4.065   0.802   1.892 -0.1142 -0.3123  0.6711
   78TMC2    C7 1220   4.226   1.016   1.847  0.1289  0.6952 -0.1067
   78TMC2    C8 1221   3.818   0.794   1.968 -0.5368 -0.1086  0.2569
   78TMC2    O1 1222   4.272   1.121   1.805 -0.2342  0.4525 -0.1752
   78TMC2    O2 1223   3.854   0.682   2.003 -0.2936  0.0144  0.1904
   78TMC2    O5 1224   3.700   0.820   1.908  0.0474  0.7118  0.1270
   78TMC2    H5 1225   3.690   0.909   1.869 -2.1525  0.7989  0.9100
   79MPD1     C 1226   3.510   1.626   2.095 -0.0376 -0.1913  0.2369
   79MPD1    C1 1227   3.617   1.642   2.019 -0.3908  0.1020 -0.6569
   79MPD1    C2 1228   3.680   1.526   1.979 -0.1887 -0.0163  0.4098
   79MPD1    C3 1229   3.652   1.402   2.031 -0.2220  0.3812 -0.2799
   79MPD1    C4 1230   3.538   1.392   2.110  0.5235  0.5502 -0.1797
   79MPD1    C5 1231   3.469   1.508   2.145 -0.2009  0.6704 -0.0456
   79MPD1     H 1232   3.751   1.535   1.898 -0.8100  1.1235 -0.0016
   79MPD1    H1 1233   3.511   1.298   2.156 -0.4211  1.0030  0.1850
   79MPD1    H2 1234   3.448   1.711   2.120  0.0662  0.0413 -0.3178
   79MPD1    H3 1235   3.379   1.509   2.204  0.4848  3.1582  0.9701
   79MPD1     N 1236   3.720   1.283   1.998 -0.1018 -0.1425  0.1508
   79MPD1    H5 1237   3.690   1.191   2.030 -3.8298  0.6876 -0.9218
   79MPD1    N1 1238   3.644   1.768   1.960  0.2130 -0.7249 -0.8545
   79MPD1    H6 1239   3.742   1.787   1.936  0.0921 -1.1628 -1.6880
   79MPD1    H7 1240   3.602   1.854   1.995  0.2853 -1.1960  0.3782
   80TMC2    C1 1241   2.384   0.030  11.636 -0.2618 -0.0497  0.1835
   80TMC2    C2 1242   2.356   4.735  11.506  0.3863 -1.1681  0.3224
   80TMC2    C3 1243   2.229   0.016  11.462  0.3072  0.1152  0.5468
   80TMC2    C4 1244   2.288   0.052  11.730  0.3112  0.0018  0.3518
   80TMC2    C5 1245   2.158   0.059  11.679 -0.5951  0.8208  0.7547
   80TMC2    C6 1246   2.125   0.034  11.547  0.6460  0.0214  0.3740
   80TMC2     C 1247   2.522   4.729  11.666 -0.1836 -0.4408  0.0591
   80TMC2     O 1248   2.582   4.649  11.597 -0.0025  0.1431  0.1535
   80TMC2     H 1249   2.442   4.719  11.443  1.4571 -0.0537  1.5015
   80TMC2    H1 1250   2.317   0.085  11.829 -0.0700  2.1493 -0.2549
   80TMC2    H2 1251   2.021   0.045  11.517  1.2833  1.0476 -1.4739
   80TMC2    C7 1252   2.048   0.072  11.773  0.1538  0.1446  0.0089
   80TMC2    C8 1253   2.186   4.713  11.332 -0.1412 -0.1217  0.2936
   80TMC2    O1 1254   1.937   0.120  11.745 -0.5409  0.1751 -0.0743
   80TMC2    O2 1255   2.071   4.734  11.289  0.1604 -0.5647  1.0563
   80TMC2    O5 1256   2.243   4.591  11.333  0.0877 -0.4157 -0.2583
   80TMC2    H5 1257   2.318   4.584  11.396 -0.7573  0.7098  0.8699
   81MPD2     C 1258   2.755   4.618  11.835 -0.2063 -0.5623  0.0051
   81MPD2    C1 1259   2.665   4.717  11.866  0.6808 -0.0594  0.4505
   81MPD2    C2 1260   2.672   0.038  11.989  0.3415 -0.1107  0.7426
   81MPD2    C3 1261   2.760   4.731  12.086 -0.1834 -0.6628 -0.0917
   81MPD2    C4 1262   2.856   4.642  12.048  0.0927 -0.1439 -0.2910
   81MPD2    C5 1263   2.850   4.577  11.923 -0.6437  0.4578  1.0768
   81MPD2     H 1264   2.594   0.108  12.014 -1.3322 -1.1189 -1.6414
   81MPD2    H1 1265   2.918   4.595  12.123 -0.9005 -1.1387 -0.0854
   81MPD2    H2 1266   2.757   4.575  11.736  0.4584  0.5387 -0.4581
   81MPD2    H3 1267   2.927   4.506  11.895 -1.6665  0.3117 -1.3681
   81MPD2     N 1268   2.747   0.017  12.223 -0.6198 -0.5250  0.2531
   81MPD2    H5 1269   2.828   4.725  12.277  0.7868  0.4869 -1.3475
   81MPD2    N1 1270   2.561   0.029  11.790  0.2926  0.3432  0.2558
   81MPD2    H7 1271   2.504   0.101  11.834  0.6895 -0.0254  1.3959
   82TMC2    C1 1272   0.681   3.794  10.834 -0.5833  0.0806  0.0010
   82TMC2    C2 1273   0.791   3.879  10.841 -0.0132 -0.6433 -0.1345
   82TMC2    C3 1274   0.880   3.865  10.942 -0.1554  0.0748 -0.2996
   82TMC2    C4 1275   0.649   3.707  10.941  0.0280 -0.5723 -0.0312
   82TMC2    C5 1276   0.752   3.694  11.035  0.6086 -0.6229  0.1227
   82TMC2    C6 1277   0.864   3.771  11.035  0.1737 -0.0425  0.0614
   82TMC2     C 1278   0.586   3.826  10.731 -0.1233  0.3687 -0.9089
   82TMC2     O 1279   0.598   3.930  10.673 -0.2750 -0.6858 -0.0384
   82TMC2     H 1280   0.810   3.939  10.753 -0.5465 -0.0834  0.1358
   82TMC2    H1 1281   0.566   3.638  10.942 -0.2050 -0.3182 -1.5470
   82TMC2    H2 1282   0.948   3.754  11.101 -0.3011  0.9925  0.9411
   82TMC2    C7 1283   0.725   3.608  11.151  0.3281  0.0562  0.5441
   82TMC2    C8 1284   0.998   3.944  10.938  0.1420  0.3963  0.4031
   82TMC2    O1 1285   0.621   3.544  11.163  0.6201  0.3003  0.0419
   82TMC2    O2 1286   1.039   3.993  10.834  0.1880 -0.9174 -0.7461
   82TMC2    O5 1287   1.082   3.917  11.041 -0.2607 -0.2181  0.2477
   82TMC2    H5 1288   1.036   3.897  11.126  1.2262 -2.1010  0.6021
   83MPD2     C 1289   0.175   3.698  10.472  0.1738 -0.3132 -0.1835
   83MPD2    C1 1290   0.272   3.783  10.438  0.0753  0.0482  0.1202
   83MPD2    C2 1291   0.378   3.803  10.524  0.1274 -0.1153 -0.5257
   83MPD2    C3 1292   0.394   3.720  10.636  0.1117 -0.0825  0.1124
   83MPD2    C4 1293   0.292   3.629  10.661  0.3541 -0.1412 -0.3016
   83MPD2    C5 1294   0.181   3.615  10.582  0.2186 -0.3684 -0.4171
   83MPD2     H 1295   0.457   3.870  10.493  0.8215 -0.7916 -0.2023
   83MPD2    H1 1296   0.289   3.569  10.751  1.2499  0.0738 -0.1333
   83MPD2    H2 1297   0.096   3.686  10.399  1.2203 -3.4788 -0.7622
   83MPD2    H3 1298   0.106   3.545  10.617 -0.3622  0.4163 -0.0969
   83MPD2     N 1299   0.491   3.738  10.739 -0.0061  0.4107 -0.4743
   83MPD2    H5 1300   0.493   3.668  10.812 -1.9095 -2.4505 -3.1883
   83MPD2    N1 1301   0.262   3.854  10.313  0.6418  0.2554  0.1351
   83MPD2    H7 1302   0.185   3.828  10.252  2.0556 -0.4090 -1.3669
   84TMC2    C1 1303   1.972   2.910  11.044 -0.7228 -0.2675 -0.4367
   84TMC2    C2 1304   1.957   2.782  11.089 -0.5310  0.0988 -0.3398
   84TMC2    C3 1305   2.050   2.685  11.054 -0.6085  0.0542  0.1247
   84TMC2    C4 1306   2.068   2.943  10.957  0.2463 -0.0214 -0.5535
   84TMC2    C5 1307   2.160   2.845  10.915 -1.0053 -0.2085  0.1940
   84TMC2    C6 1308   2.153   2.718  10.958  0.6822  0.1521 -0.0620
   84TMC2     C 1309   1.891   3.014  11.110 -0.0862 -0.6920  0.0274
   84TMC2     O 1310   1.848   2.977  11.215  0.1734  0.1542  0.1919
   84TMC2     H 1311   1.875   2.742  11.147 -1.4346  1.2867 -0.8011
   84TMC2    H1 1312   2.094   3.047  10.949  0.6433  0.0837  2.0399
   84TMC2    H2 1313   2.221   2.641  10.923 -0.0039  0.3227 -1.7590
   84TMC2    C7 1314   2.243   2.859  10.795  0.7642  0.1495  0.2551
   84TMC2    C8 1315   2.044   2.550  11.102  0.6697  0.2874  0.8636
   84TMC2    O1 1316   2.303   2.765  10.747  0.0957 -0.1891 -0.3920
   84TMC2    O2 1317   2.111   2.462  11.056  0.5762  0.0994  0.0490
   84TMC2    O5 1318   1.989   2.545  11.226 -0.5408 -0.8776 -0.2984
   84TMC2    H5 1319   1.929   2.618  11.253 -2.1202 -2.0039 -0.7422
   85TMC2    C1 1320   2.139   1.616  16.325  0.1296  0.8816 -0.1185
   85TMC2    C2 1321   2.173   1.543  16.438  0.3427  0.1886 -0.5241
   85TMC2    C3 1322   2.272   1.577  16.518 -1.1135 -0.0252  0.1782
   85TMC2    C4 1323   2.213   1.723  16.289 -0.3600  0.3706 -0.3512
   85TMC2    C5 1324   2.324   1.746  16.369  0.2295 -0.8054  0.1120
   85TMC2    C6 1325   2.358   1.673  16.478  0.0981 -0.2924  0.0062
   85TMC2     C 1326   2.011   1.603  16.263 -0.3745 -0.9818 -0.0406
   85TMC2     O 1327   1.962   1.699  16.204 -0.2122 -0.0176 -0.2360
   85TMC2     H 1328   2.108   1.472  16.488 -0.3122  1.2169  0.0911
   85TMC2    H1 1329   2.184   1.782  16.203 -0.5845  0.7985  0.0191
   85TMC2    H2 1330   2.451   1.701  16.526 -0.2072 -1.4565  1.2735
   85TMC2    C7 1331   2.430   1.804  16.292 -0.4769  0.4909 -0.2096
   85TMC2    C8 1332   2.322   1.483  16.609  0.6010  0.8050  0.1977
   85TMC2    O1 1333   2.421   1.817  16.173  0.7526  0.0231  0.0747
   85TMC2    O2 1334   2.409   1.505  16.689 -0.0478 -0.2699  0.2220
   85TMC2    O5 1335   2.302   1.363  16.554  0.1245 -0.3066  0.4502
   85TMC2    H5 1336   2.229   1.348  16.490 -0.8547 -0.0384  1.5298
   86MPD2     C 1337   1.635   1.295  16.104 -0.2811  0.1324  1.3754
   86MPD2    C1 1338   1.735   1.216  16.161 -0.5071  0.4537  0.7258
   86MPD2    C2 1339   1.852   1.280  16.208 -0.3726  0.3286  0.2343
   86MPD2    C3 1340   1.864   1.413  16.202 -1.1596  0.3763 -0.3385
   86MPD2    C4 1341   1.771   1.486  16.133  0.2818  0.3082 -0.8176
   86MPD2    C5 1342   1.651   1.429  16.089  0.5160  0.7796  0.4447
   86MPD2     H 1343   1.918   1.204  16.249 -1.3007 -0.5253  0.1623
   86MPD2    H1 1344   1.773   1.594  16.122 -0.0453  0.4354  0.4256
   86MPD2    H2 1345   1.535   1.263  16.076 -0.2609  2.8804 -1.7959
   86MPD2    H3 1346   1.577   1.491  16.041  0.0281 -0.8299 -0.8795
   86MPD2     N 1347   1.981   1.470  16.263  0.4064 -0.2441 -0.0781
   86MPD2    H5 1348   2.052   1.410  16.304  0.4046  0.1863  0.5405
   86MPD2    N1 1349   1.714   1.079  16.186 -0.1172  0.1614 -0.5371
   86MPD2    H7 1350   1.795   1.027  16.219 -1.1862 -2.3516 -1.9159
   87TMC2    C1 1351   0.243   4.233   1.477  0.5662  0.4793 -0.0916
   87TMC2    C2 1352   0.326   4.256   1.583  0.2952  0.8070  0.2441
   87TMC2    C3 1353   0.325   4.375   1.643  0.2064  0.2571 -0.2482
   87TMC2    C4 1354   0.162   4.338   1.436  0.4746  0.4758  0.2936
   87TMC2    C5 1355   0.173   4.460   1.488  0.5083  0.5874  0.3153
   87TMC2    C6 1356   0.250   4.480   1.597 -0.1667  0.4897 -0.3027
   87TMC2     C 1357   0.243   4.121   1.388 -0.5607 -0.7107  0.1014
   87TMC2     O 1358   0.167   4.125   1.291 -0.0393 -0.5111 -0.6974
   87TMC2     H 1359   0.391   4.179   1.621  2.3625  1.9630 -0.9755
   87TMC2    H1 1360   0.098   4.331   1.349  0.8547  0.1671  0.0385
   87TMC2    H2 1361   0.241   4.579   1.641 -0.3038  0.2627  0.1827
   87TMC2    C7 1362   0.104   4.577   1.438 -0.6064  0.0739 -0.3737
   87TMC2    C8 1363   0.402   4.393   1.760  0.1786 -0.2014  0.8617
   87TMC2    O1 1364   0.068   4.659   1.523 -0.3997  0.0861  0.4092
   87TMC2    O2 1365   0.524   4.370   1.750 -0.3592 -0.3345  0.3828
   87TMC2    O5 1366   0.341   4.479   1.846  0.5833  0.0650 -0.5348
   87TMC2    H5 1367   0.248   4.487   1.819  0.6204  1.6920 -0.1856
   88MPD2     C 1368   0.011   4.672   1.096 -0.2816 -0.1609 -0.4113
   88MPD2    C1 1369   0.030   4.689   1.234  0.3608 -0.2759  0.3667
   88MPD2    C2 1370   4.727   0.068   1.293 -0.0334 -0.3043 -0.2811
   88MPD2    C3 1371   4.658   0.166   1.212 -0.6745 -0.2749  0.9132
   88MPD2    C4 1372   4.637   0.139   1.081  0.4436  0.3449  0.6900
   88MPD2    C5 1373   4.683   0.027   1.022  0.0329  0.9399  0.3643
   88MPD2     H 1374   0.018   0.092   1.395  3.0713  0.8956 -1.4141
   88MPD2    H1 1375   4.584   0.214   1.023 -0.5578  0.5316  1.8270
   88MPD2    H2 1376   0.054   4.584   1.049  0.1359  0.1541 -0.6097
   88MPD2    H3 1377   4.676   0.006   0.916 -1.5025 -0.7862  0.8164
   88MPD2     N 1378   4.627   0.296   1.266 -0.3136 -0.0567 -0.3172
   88MPD2    H5 1379   4.590   0.368   1.206 -2.1545 -0.5115  0.2601
   88MPD2    N1 1380   0.091   4.582   1.302  0.3833 -0.0623 -0.2736
   88MPD2    H7 1381   0.125   4.506   1.244  0.5773 -0.6130  0.5674
   89TMC2    C1 1382   0.448   2.670   1.878  0.3849  0.7454 -0.4341
   89TMC2    C2 1383   0.334   2.694   1.810  0.6796 -1.0510 -0.8013
   89TMC2    C3 1384   0.331   2.783   1.708  0.1683  0.7187  0.0745
   89TMC2    C4 1385   0.563   2.753   1.861 -0.3259  0.1727 -0.2280
   89TMC2    C5 1386   0.559   2.831   1.750 -0.2233  0.2268 -0.4824
   89TMC2    C6 1387   0.446   2.850   1.672 -0.6132  0.0105  1.1939
   89TMC2     C 1388   0.430   2.632   2.020 -0.1242  0.0738 -0.0759
   89TMC2     O 1389   0.475   2.713   2.095 -0.5209 -0.1497  0.7436
   89TMC2     H 1390   0.253   2.625   1.830  0.1826 -0.0455  0.6287
   89TMC2    H1 1391   0.657   2.723   1.904  0.2583  2.4915  0.0821
   89TMC2    H2 1392   0.451   2.899   1.575 -1.5198  0.3787  1.3349
   89TMC2    C7 1393   0.692   2.861   1.698 -0.6651 -0.5738 -0.2595
   89TMC2    C8 1394   0.216   2.786   1.616 -0.3335  1.0733  0.3314
   89TMC2    O1 1395   0.787   2.802   1.750 -0.2224 -0.0182 -0.8662
   89TMC2    O2 1396   0.227   2.812   1.500 -0.6850  0.4240  0.1619
   89TMC2    O5 1397   0.106   2.817   1.693  0.4106 -0.3009 -0.2095
   89TMC2    H5 1398   0.120   2.800   1.788 -0.4792 -0.1073 -0.0369
   90MPD2     C 1399   0.154   2.381   2.361 -0.4823 -0.0827  0.5551
   90MPD2    C1 1400   0.117   2.326   2.239  0.0886 -0.2226  0.1456
   90MPD2    C2 1401   0.193   2.369   2.133 -0.1916 -0.1216 -0.8207
   90MPD2    C3 1402   0.284   2.476   2.145 -0.0227  0.4710 -0.4692
   90MPD2    C4 1403   0.324   2.526   2.262 -0.3380  0.1018  0.3614
   90MPD2    C5 1404   0.252   2.477   2.366 -0.2141  0.3696 -1.1487
   90MPD2     H 1405   0.186   2.315   2.039 -1.4647 -1.6350  0.1473
   90MPD2    H1 1406   0.388   2.610   2.288  0.0210 -0.4799  1.3921
   90MPD2    H2 1407   0.103   2.350   2.452  1.1709 -1.0041  1.1755
   90MPD2    H3 1408   0.274   2.521   2.463  0.7524  0.1501 -1.2716
   90MPD2     N 1409   0.338   2.523   2.028  0.3547 -0.1197 -0.1811
   90MPD2    H5 1410   0.326   2.467   1.945  0.2664  0.2062 -0.3890
   90MPD2    N1 1411   0.017   2.230   2.212  0.1677  0.2848  0.0559
   90MPD2    H7 1412   0.011   2.186   2.121 -1.4170 -0.5217  0.5637
   91TMC2    C1 1413   2.534   2.466  16.713 -0.1352 -0.0770  0.1811
   91TMC2    C2 1414   2.563   2.432  16.580  0.6358  0.0857  0.3058
   91TMC2    C3 1415   2.472   2.352  16.514  0.6732  0.1776  0.2752
   91TMC2    C4 1416   2.408   2.435  16.767 -0.9191 -0.0149 -0.3710
   91TMC2    C5 1417   2.323   2.365  16.690 -0.0906 -0.1614 -0.1378
   91TMC2    C6 1418   2.345   2.319  16.568  0.5538 -0.5587  0.7872
   91TMC2     C 1419   2.639   2.531  16.790  0.0747  0.0962  1.0168
   91TMC2     O 1420   2.636   2.506  16.911  0.3924 -0.0037  0.0099
   91TMC2     H 1421   2.659   2.456  16.536  0.0049  0.4448 -0.8744
   91TMC2    H1 1422   2.380   2.444  16.872  2.1591  2.9697  0.1980
   91TMC2    H2 1423   2.270   2.268  16.509 -0.1600  0.6086  0.6783
   91TMC2    C7 1424   2.185   2.396  16.724  0.6051 -0.5678 -0.1992
   91TMC2    C8 1425   2.513   2.292  16.390 -0.2542  0.5143 -0.0764
   91TMC2    O1 1426   2.168   2.413  16.844 -0.3141 -0.2611  0.1233
   91TMC2    O2 1427   2.607   2.338  16.327 -0.4335 -0.3229 -0.6482
   91TMC2    O5 1428   2.442   2.182  16.362  0.8712  0.2021 -0.2235
   91TMC2    H5 1429   2.401   2.142  16.442  1.9394  1.3493  0.8882
   92MPD2     C 1430   2.913   2.613  16.853 -0.3489  0.3905  0.2409
   92MPD2    C1 1431   2.841   2.662  16.742  0.4662  0.0891  0.1229
   92MPD2    C2 1432   2.897   2.760  16.659 -0.1091  0.3925  0.0771
   92MPD2    C3 1433   3.014   2.827  16.694 -0.5803  0.0580  0.5653
   92MPD2    C4 1434   3.075   2.779  16.807 -0.2640 -0.5416 -0.0955
   92MPD2    C5 1435   3.033   2.675  16.884  0.4582 -0.1577  0.0212
   92MPD2     H 1436   2.845   2.793  16.570 -1.6861  0.2613  0.9440
   92MPD2    H1 1437   3.164   2.825  16.850  0.7056 -2.8207  0.3315
   92MPD2    H2 1438   2.883   2.531  16.917  1.6906 -2.2817 -2.2364
   92MPD2    H3 1439   3.106   2.650  16.960 -0.2179  1.0702  1.0664
   92MPD2     N 1440   3.066   2.921  16.609  0.3818  0.5757 -0.6196
   92MPD2    H5 1441   3.018   2.949  16.525  1.2113  1.0063 -0.9500
   92MPD2    N1 1442   2.717   2.615  16.711  0.8416  0.7851  0.1517
   92MPD2    H7 1443   2.681   2.643  16.621 -1.0268 -0.6756  0.4277
   93TMC2    C1 1444   4.547   2.417  14.244  0.0437 -0.5142 -0.7286
   93TMC2    C2 1445   4.490   2.471  14.366  0.4049 -0.5307 -0.1269
   93TMC2    C3 1446   4.541   2.584  14.414  0.0200 -0.6448 -0.3428
   93TMC2    C4 1447   4.640   2.490  14.170  0.3737  0.1524  0.3483
   93TMC2    C5 1448   4.695   2.601  14.227  0.2787 -0.9037 -0.2807
   93TMC2    C6 1449   4.650   2.644  14.352  0.2258 -0.2458  0.1749
   93TMC2     C 1450   4.478   2.318  14.173 -0.0633 -0.1217  0.0118
   93TMC2     O 1451   4.535   2.236  14.103 -0.0845 -0.6035 -0.0034
   93TMC2     H 1452   4.419   2.407  14.417  0.1740  0.2416  0.5230
   93TMC2    H1 1453   4.669   2.447  14.075 -0.4502  1.5514 -0.5436
   93TMC2    H2 1454   4.694   2.728  14.403  1.7162 -0.6904 -0.3877
   93TMC2    C7 1455   0.063   2.670  14.149 -1.1311 -0.6191 -0.7157
   93TMC2    C8 1456   4.576   2.567  14.553  0.5685 -0.5939 -0.2149
   93TMC2    O1 1457   0.105   2.613  14.050  0.1256 -0.2587 -0.3056
   93TMC2    O2 1458   4.695   2.554  14.571  0.2476 -0.1798  0.0395
   93TMC2    O5 1459   4.482   2.502  14.625 -0.0269 -0.1945 -0.0678
   93TMC2    H5 1460   4.392   2.516  14.590  0.6454  0.1646 -1.6678
   94MPD2     C 1461   4.258   2.154  14.048 -0.4475 -0.2286  0.5654
   94MPD2    C1 1462   4.247   2.282  14.099  0.4089 -0.3231  0.2755
   94MPD2    C2 1463   4.120   2.344  14.102 -0.2599  0.3747 -0.1043
   94MPD2    C3 1464   4.013   2.282  14.046 -0.5106  0.0171 -0.2078
   94MPD2    C4 1465   4.029   2.166  13.978 -0.0540  0.9334 -0.5429
   94MPD2    C5 1466   4.146   2.100  13.991  0.3839 -0.5078 -0.5740
   94MPD2     H 1467   4.112   2.432  14.165  1.5659  1.7673 -1.8391
   94MPD2    H1 1468   3.949   2.115  13.926  0.9845 -0.5337 -0.7049
   94MPD2    H2 1469   4.350   2.097  14.053 -0.3493 -0.0671  0.6156
   94MPD2    H3 1470   4.157   2.011  13.931  2.7085  0.0934 -1.0554
   94MPD2     N 1471   3.881   2.343  14.051 -0.2261 -0.4029  0.2246
   94MPD2    H5 1472   3.807   2.281  14.019  1.2888 -2.3569  0.4825
   94MPD2    N1 1473   4.346   2.350  14.166 -0.1774  0.5232 -0.1066
   94MPD2    H7 1474   4.313   2.433  14.214 -0.2425  0.2664  0.2975
   95TMC2    C1 1475   4.281   4.203  15.914  0.1649 -0.7350 -0.2835
   95TMC2    C2 1476   4.206   4.094  15.876  0.0005 -0.0358  0.3268
   95TMC2    C3 1477   4.088   4.073  15.932  0.2352 -0.0741 -0.3982
   95TMC2    C4 1478   4.238   4.285  16.022 -0.9118 -0.0841 -0.6340
   95TMC2    C5 1479   4.113   4.255  16.068  0.2715 -0.3065 -0.0328
   95TMC2    C6 1480   4.029   4.157  16.025  0.1927  0.4349 -0.3220
   95TMC2     C 1481   4.398   4.254  15.841  0.3404 -1.0458  0.2038
   95TMC2     O 1482   4.412   4.376  15.817 -0.1845 -0.1641 -0.5565
   95TMC2     H 1483   4.245   4.026  15.801  1.7242  1.5712 -0.2295
   95TMC2    H1 1484   4.298   4.368  16.057  0.7730 -2.0340  1.0755
   95TMC2    H2 1485   3.941   4.121  16.079  1.0054 -0.7560  0.1993
   95TMC2    C7 1486   4.086   4.327  16.192  0.2017 -0.7997  0.0789
   95TMC2    C8 1487   4.012   3.964  15.875 -0.0196 -0.1802 -0.5422
   95TMC2    O1 1488   4.159   4.407  16.234  0.0651 -0.2010  0.3212
   95TMC2    O2 1489   4.063   3.861  15.827  0.1478  0.1506 -0.3240
   95TMC2    O5 1490   3.883   3.988  15.911  0.2055 -0.1559 -0.0809
   95TMC2    H5 1491   3.863   4.082  15.932 -1.2825 -0.8397  1.5448
   96MPD2     C 1492   0.064   4.158  15.530  0.1856 -1.1205 -0.0068
   96MPD2    C1 1493   0.001   4.277  15.547  0.0253 -0.7925 -0.1512
   96MPD2    C2 1494   4.634   4.280  15.642  0.6323  0.4397 -0.2673
   96MPD2    C3 1495   4.587   4.162  15.703 -0.9573  0.4564  0.7660
   96MPD2    C4 1496   4.641   4.042  15.664 -0.2603 -0.1535 -0.2198
   96MPD2    C5 1497   0.014   4.037  15.580 -0.1209 -0.5427  0.3482
   96MPD2     H 1498   4.576   4.368  15.666  0.9113  0.3391  0.8139
   96MPD2    H1 1499   4.599   3.948  15.700 -0.3125  0.2441  0.7586
   96MPD2    H2 1500   0.146   4.156  15.460 -0.6307  0.6242 -1.0127
   96MPD2    H3 1501   0.058   3.941  15.556 -2.2251 -1.1360 -1.1345
   96MPD2     N 1502   4.467   4.149  15.788 -0.2090  0.1430 -0.5654
   96MPD2    H5 1503   4.453   4.055  15.823 -0.8785 -0.3093 -2.0597
   96MPD2    N1 1504   0.050   4.392  15.479 -0.6414 -0.3847 -0.2242
   96MPD2    H7 1505   0.132   4.375  15.421  0.4109 -1.6927  1.6712
   97TMC2    C1 1506   1.747   2.242   0.560 -0.6365  0.0986 -0.0202
   97TMC2    C2 1507   1.853   2.172   0.507  0.0900 -0.0385 -0.9297
   97TMC2    C3 1508   1.951   2.241   0.443 -0.1652 -0.4356 -0.6727
   97TMC2    C4 1509   1.730   2.371   0.528  0.5817 -0.2733  0.1115
   97TMC2    C5 1510   1.829   2.438   0.465  0.0651 -0.2385 -0.3924
   97TMC2    C6 1511   1.941   2.379   0.427 -0.0587  0.8966  0.1027
   97TMC2     C 1512   1.658   2.159   0.636 -0.0857 -0.5929  0.5760
   97TMC2     O 1513   1.538   2.180   0.641  0.3308  0.2560 -0.2257
   97TMC2     H 1514   1.881   2.070   0.528  0.6319  0.4233  0.5938
   97TMC2    H1 1515   1.644   2.415   0.575  0.6524 -0.4736  0.4293
   97TMC2    H2 1516   2.023   2.431   0.379 -0.2202  1.2505  0.2067
   97TMC2    C7 1517   1.828   2.584   0.461 -0.1429  0.3214 -0.0912
   97TMC2    C8 1518   2.082   2.185   0.444  0.0863  0.5479 -0.6107
   97TMC2    O1 1519   1.936   2.632   0.452 -0.4073  0.0113 -0.2594
   97TMC2    O2 1520   2.179   2.254   0.475  0.3971 -0.4637 -0.2439
   97TMC2    O5 1521   2.091   2.074   0.378 -0.1731 -0.1732 -0.2908
   97TMC2    H5 1522   2.002   2.060   0.340 -0.0853  0.9911 -0.9481
   98MPD2     C 1523   1.603   1.782   0.978 -0.0591 -0.3061  0.5458
   98MPD2    C1 1524   1.511   1.830   0.883 -0.6040  0.6870 -0.1256
   98MPD2    C2 1525   1.546   1.932   0.796  0.6660  0.0519 -0.0837
   98MPD2    C3 1526   1.680   1.969   0.795 -0.3462 -0.0761  0.1963
   98MPD2    C4 1527   1.765   1.910   0.881 -0.2018 -0.0071 -0.0275
   98MPD2    C5 1528   1.727   1.823   0.985 -0.3796  0.2636 -0.0912
   98MPD2     H 1529   1.477   1.994   0.739 -1.3856 -1.6448  0.6010
   98MPD2    H1 1530   1.869   1.939   0.868 -0.4718  0.6430 -0.7245
   98MPD2    H2 1531   1.566   1.705   1.045 -0.3742  0.9652  1.8286
   98MPD2    H3 1532   1.803   1.781   1.050 -1.5734 -0.9095  0.5350
   98MPD2     N 1533   1.735   2.069   0.709 -0.1892  0.3368 -0.5112
   98MPD2    H5 1534   1.837   2.073   0.713 -0.2830 -0.5582  3.7426
   98MPD2    N1 1535   1.380   1.776   0.890  0.5551  0.7270  0.2898
   98MPD2    H7 1536   1.366   1.710   0.966 -1.1483 -2.3782 -2.7405
   99TMC2    C1 1537   0.179   4.425   2.269 -0.2917  0.1014  0.6292
   99TMC2    C2 1538   0.234   4.500   2.372  0.1754 -0.5586 -0.1017
   99TMC2    C3 1539   0.154   4.563   2.462 -0.1768  0.5473  0.2300
   99TMC2    C4 1540   0.038   4.415   2.261 -1.0266 -0.2016 -0.4550
   99TMC2    C5 1541   4.699   4.478   2.356  0.0731 -0.4526  0.6644
   99TMC2    C6 1542   0.019   4.542   2.464  0.4819 -0.3517 -0.2177
   99TMC2     C 1543   0.264   4.345   2.196  0.3968 -0.1230 -0.0648
   99TMC2     O 1544   0.386   4.377   2.196  0.0767 -0.1731  0.7287
   99TMC2     H 1545   0.342   4.503   2.377  0.1401  1.2662 -0.6463
   99TMC2    H1 1546   4.729   4.367   2.176  2.8796 -1.5975 -1.8041
   99TMC2    H2 1547   4.705   4.590   2.546  0.3307  0.3502 -0.7281
   99TMC2    C7 1548   4.558   4.452   2.362  0.1256 -0.4180 -0.0998
   99TMC2    C8 1549   0.221   4.604   2.583 -0.3875 -0.0881  0.7602
   99TMC2    O1 1550   4.511   4.508   2.459  0.1905  0.3891  0.5517
   99TMC2    O2 1551   0.267   4.713   2.608 -0.1138  0.0101  0.0359
   99TMC2    O5 1552   0.192   4.505   2.673 -0.2789  0.4152 -0.3399
   99TMC2    H5 1553   0.166   4.426   2.621  3.0482 -0.3227 -0.8682
  100MPD2     C 1554   0.386   4.137   2.022  0.2960 -0.0776 -0.6851
  100MPD2    C1 1555   0.250   4.162   2.025 -0.1033  0.1715  0.5933
  100MPD2    C2 1556   0.168   4.086   1.942  0.8691 -0.1362 -0.5427
  100MPD2    C3 1557   0.225   3.990   1.857 -0.1429  0.0110  0.3862
  100MPD2    C4 1558   0.363   3.969   1.856  0.1448  0.9193 -0.0784
  100MPD2    C5 1559   0.446   4.048   1.938  0.2768 -1.0758 -0.1984
  100MPD2     H 1560   0.060   4.091   1.945  0.8474  1.8093 -4.5758
  100MPD2    H1 1561   0.415   3.910   1.781  2.3765  3.1471 -0.2862
  100MPD2    H2 1562   0.461   4.187   2.082  0.4777 -2.0457  0.7192
  100MPD2    H3 1563   0.553   4.034   1.929  0.0279 -3.8456  0.8879
  100MPD2     N 1564   0.140   3.922   1.760 -0.6922 -0.6477  0.4111
  100MPD2    H5 1565   0.044   3.956   1.756 -0.8237 -1.1771 -0.7399
  100MPD2    N1 1566   0.196   4.262   2.110 -0.2654  0.4421 -0.5974
  100MPD2    H7 1567   0.096   4.249   2.124  0.2937 -2.7016  0.3605
  101TMC2    C1 1568   1.769   0.361  13.390 -0.0998 -0.3107 -0.2621
  101TMC2    C2 1569   1.708   0.470  13.446  0.1179  0.3349 -0.2173
  101TMC2    C3 1570   1.774   0.589  13.441 -0.4663  0.7539  0.0428
  101TMC2    C4 1571   1.895   0.366  13.344 -0.2039 -0.4649 -0.4512
  101TMC2    C5 1572   1.954   0.490  13.348 -0.0279  0.4350  0.3005
  101TMC2    C6 1573   1.898   0.610  13.387  0.6368  0.4427 -0.6392
  101TMC2     C 1574   1.692   0.241  13.365  0.2411  0.0023  0.0532
  101TMC2     O 1575   1.599   0.222  13.437  0.1838  0.7031  0.1815
  101TMC2     H 1576   1.608   0.465  13.488 -0.0531 -0.7555 -0.7544
  101TMC2    H1 1577   1.940   0.272  13.315 -3.4137 -1.8537 -0.9398
  101TMC2    H2 1578   1.947   0.706  13.395 -0.4160  1.0619 -1.6225
  101TMC2    C7 1579   2.068   0.503  13.269 -0.8152 -0.1806  0.0802
  101TMC2    C8 1580   1.695   0.713  13.458  0.1607  0.4298  0.3364
  101TMC2    O1 1581   2.072   0.607  13.199  0.6474  0.0567  0.0390
  101TMC2    O2 1582   1.643   0.760  13.560  0.0597  0.2038  0.0677
  101TMC2    O5 1583   1.717   0.786  13.350 -0.1259  0.9035 -0.2312
  101TMC2    H5 1584   1.744   0.748  13.264  0.9254  0.3555  0.3359
  102MPD2     C 1585   1.695   0.044  13.054 -0.4039  0.3137  0.5929
  102MPD2    C1 1586   1.650   0.086  13.178 -0.5155 -0.0482 -0.0585
  102MPD2    C2 1587   1.549   0.015  13.230 -0.4938 -0.5297 -0.2297
  102MPD2    C3 1588   1.489   4.637  13.172 -0.0369  0.1259 -0.3086
  102MPD2    C4 1589   1.535   4.602  13.048 -0.0309  0.4256  0.3314
  102MPD2    C5 1590   1.641   4.672  12.990 -0.8389  0.0136 -0.1003
  102MPD2     H 1591   1.505   0.055  13.321  2.7961  0.6701  0.8049
  102MPD2    H1 1592   1.491   4.520  12.994  0.4986 -0.4969  1.3121
  102MPD2    H2 1593   1.784   0.083  13.006 -0.5170  1.2681  1.1522
  102MPD2    H3 1594   1.695   4.624  12.909 -0.5785 -0.2912  0.2560
  102MPD2     N 1595   1.384   4.578  13.240  0.4436  0.5338  0.1337
  102MPD2    H5 1596   1.338   4.635  13.311 -0.6984  0.5103 -0.5942
  102MPD2    N1 1597   1.721   0.182  13.242 -0.0817 -0.0062  0.5563
  102MPD2    H7 1598   1.799   0.216  13.186 -1.2423  0.3974 -0.8230
  103TMC2    C1 1599   4.233   4.652  12.634 -0.0050 -0.1144  0.2069
  103TMC2    C2 1600   4.368   4.687  12.643 -0.0093 -0.2391  0.2265
  103TMC2    C3 1601   4.429   4.704  12.771  0.9749  0.7653 -0.2719
  103TMC2    C4 1602   4.162   4.655  12.750  0.3180 -0.5209  0.1947
  103TMC2    C5 1603   4.229   4.677  12.871  0.1030 -0.3639  0.5876
  103TMC2    C6 1604   4.361   4.698  12.886 -0.9858  0.6894 -0.2592
  103TMC2     C 1605   4.164   4.643  12.507 -0.6835 -0.0671  0.2913
  103TMC2     O 1606   4.048   4.679  12.486 -0.2626  0.0294  0.4223
  103TMC2     H 1607   4.424   4.719  12.556 -0.8082 -1.2439 -0.6552
  103TMC2    H1 1608   4.057   4.628  12.757  0.1067  0.4716  0.8402
  103TMC2    H2 1609   4.406   4.730  12.979 -0.0951  1.7062 -1.0270
  103TMC2    C7 1610   4.153   4.732  12.979 -0.0494 -0.0498  0.8019
  103TMC2    C8 1611   4.564   0.023  12.791 -0.2825  0.0495 -0.2684
  103TMC2    O1 1612   4.205   4.698  13.087  0.5024  0.6407 -0.1577
  103TMC2    O2 1613   4.603   0.072  12.900  0.0729 -0.7655 -0.0278
  103TMC2    O5 1614   4.625   0.023  12.669  0.1581  0.1290 -0.1643
  103TMC2    H5 1615   4.587   4.697  12.604  0.9040  0.0703 -0.5366
  104MPD2     C 1616   4.335   4.538  12.205 -0.5084  0.7095  0.5002
  104MPD2    C1 1617   4.225   4.578  12.279  0.6640  1.1588 -0.9720
  104MPD2    C2 1618   4.103   4.600  12.211  0.3277 -0.4488  0.0252
  104MPD2    C3 1619   4.096   4.577  12.077  0.2783  0.4180 -0.2579
  104MPD2    C4 1620   4.203   4.523  12.009 -0.4956  0.8210  0.0585
  104MPD2    C5 1621   4.319   4.495  12.074  0.4030 -0.1365 -0.3671
  104MPD2     H 1622   4.015   4.631  12.267  0.7549  1.6679 -0.4898
  104MPD2    H1 1623   4.196   4.500  11.903  0.4652 -1.0787  0.3874
  104MPD2    H2 1624   4.432   4.520  12.248 -0.8326  2.3433  1.9220
  104MPD2    H3 1625   4.399   4.442  12.023  0.4552 -3.3755  3.0859
  104MPD2     N 1626   3.970   4.593  12.018 -0.6179  0.3927  0.2512
  104MPD2    H5 1627   3.892   4.613  12.080 -1.1425  1.8820 -0.8979
  104MPD2    N1 1628   4.254   4.610  12.414 -0.0299  0.1078 -0.1954
  104MPD2    H7 1629   4.345   4.583  12.450 -1.1473 -1.3475  1.5590
  105TMC2    C1 1630   0.344   3.808   0.517 -0.4988  0.1631 -0.1238
  105TMC2    C2 1631   0.279   3.924   0.504  0.6703  1.1465  0.6396
  105TMC2    C3 1632   0.240   3.977   0.623 -0.2390  0.2653  0.2685
  105TMC2    C4 1633   0.375   3.746   0.637 -0.5584 -0.0381  0.6281
  105TMC2    C5 1634   0.335   3.800   0.754 -1.1501 -0.8718  0.1676
  105TMC2    C6 1635   0.268   3.920   0.743  0.3309  0.2090 -0.6764
  105TMC2     C 1636   0.399   3.753   0.391  0.6688 -1.2316  0.5992
  105TMC2     O 1637   0.394   3.634   0.373  0.0663 -0.0958  0.3801
  105TMC2     H 1638   0.244   3.959   0.407 -0.7967 -4.0458 -0.7065
  105TMC2    H1 1639   0.423   3.649   0.640  1.7799  1.1307  0.5707
  105TMC2    H2 1640   0.246   3.972   0.835  1.5164 -0.7593  0.1672
  105TMC2    C7 1641   0.402   3.759   0.879 -0.7778 -0.8417  0.3577
  105TMC2    C8 1642   0.205   4.114   0.632  0.8154 -0.5313  0.0035
  105TMC2    O1 1643   0.490   3.679   0.878 -0.0373  0.3321 -0.4408
  105TMC2    O2 1644   0.177   4.169   0.735  1.3021  0.1351 -0.3486
  105TMC2    O5 1645   0.195   4.165   0.511 -0.0492 -0.3772 -0.0184
  105TMC2    H5 1646   0.243   4.122   0.437  1.5400 -0.2489  0.9272
  106MPD2     C 1647   0.604   3.790  17.665  0.6280  0.2061  0.2309
  106MPD2    C1 1648   0.573   3.919  17.706 -0.3422  0.7935 -0.0636
  106MPD2    C2 1649   0.507   3.928   0.084 -0.7226 -0.0716 -0.8006
  106MPD2    C3 1650   0.491   3.826   0.174  0.3268 -0.2046  0.2333
  106MPD2    C4 1651   0.539   3.700   0.133  0.2576  0.3174  0.9763
  106MPD2    C5 1652   0.588   3.687   0.003  0.2956 -0.2565  0.1374
  106MPD2     H 1653   0.474   4.025   0.120  1.0348  0.4268 -0.5268
  106MPD2    H1 1654   0.532   3.609   0.192  5.3679  1.0458  2.7393
  106MPD2    H2 1655   0.642   3.762  17.567  0.7317 -0.1325  0.3686
  106MPD2    H3 1656   0.594   3.589  17.704 -0.4549 -0.2353 -0.0021
  106MPD2     N 1657   0.434   3.850   0.303  0.4585 -0.6238  0.6151
  106MPD2    H5 1658   0.432   3.945   0.339 -1.3469 -0.2744 -0.4088
  106MPD2    N1 1659   0.608   4.029  17.618 -0.1275  0.7236  0.2723
  106MPD2    H7 1660   0.651   4.000  17.530 -2.0220  0.4560 -0.5680
  107TMC2    C1 1661   1.330   3.508  11.702 -0.1035 -0.1851  0.0909
  107TMC2    C2 1662   1.276   3.388  11.745 -0.0990 -0.6836  0.3136
  107TMC2    C3 1663   1.320   3.284  11.668 -0.6075  0.0126 -0.2901
  107TMC2    C4 1664   1.412   3.522  11.592 -0.1190  0.1917 -0.6795
  107TMC2    C5 1665   1.458   3.414  11.527  0.0302 -0.5451  0.1779
  107TMC2    C6 1666   1.401   3.292  11.562  0.2378  0.5127  0.3047
  107TMC2     C 1667   1.318   3.628  11.793 -1.5269 -0.8541  0.0914
  107TMC2     O 1668   1.233   3.610  11.880  0.5965  0.0176  0.0226
  107TMC2     H 1669   1.225   3.377  11.840 -2.5253  0.1168 -0.8990
  107TMC2    H1 1670   1.434   3.618  11.546  1.4103  0.5213  0.7595
  107TMC2    H2 1671   1.418   3.202  11.505  0.7752  0.0911  1.1155
  107TMC2    C7 1672   1.506   3.432  11.390 -0.2495  0.0723 -0.5514
  107TMC2    C8 1673   1.235   3.166  11.683 -0.0101  0.4232  0.3592
  107TMC2    O1 1674   1.511   3.546  11.346  0.2313 -0.7328 -0.1894
  107TMC2    O2 1675   1.170   3.138  11.586  0.2006  0.0638 -0.1264
  107TMC2    O5 1676   1.326   3.075  11.726 -0.1853 -0.2058 -0.0233
  107TMC2    H5 1677   1.382   3.126  11.788  1.0495 -1.8291  0.2142
  108MPD2     C 1678   1.505   3.958  11.803 -1.0774 -0.7309  0.7339
  108MPD2    C1 1679   1.401   3.863  11.839  0.7902 -0.1664 -0.0529
  108MPD2    C2 1680   1.309   3.899  11.929 -0.1095  0.2465  0.2636
  108MPD2    C3 1681   1.314   4.018  11.991 -0.0498 -0.2419 -0.1848
  108MPD2    C4 1682   1.421   4.108  11.970  0.3318  0.1637 -0.8917
  108MPD2    C5 1683   1.509   4.080  11.866 -0.1166  0.7147  0.2484
  108MPD2     H 1684   1.229   3.829  11.952  0.8941 -0.1426  2.6174
  108MPD2    H1 1685   1.442   4.198  12.026  0.3207  0.4510 -1.3464
  108MPD2    H2 1686   1.573   3.945  11.720 -0.2773  0.7882  1.1518
  108MPD2    H3 1687   1.583   4.158  11.849  1.0683 -0.2395  0.9919
  108MPD2     N 1688   1.205   4.060  12.076  0.0643 -0.1907 -0.5896
  108MPD2    H5 1689   1.221   4.141  12.135 -1.4611 -1.8848  2.1950
  108MPD2    N1 1690   1.398   3.736  11.761  0.2288  0.2965 -0.0104
  108MPD2    H7 1691   1.475   3.722  11.695  1.8088 -0.3071  1.9514
  109TMC2    C1 1692   4.711   1.820   0.561  0.2719 -0.4071 -0.5367
  109TMC2    C2 1693   4.640   1.928   0.526  0.1353 -0.3463  0.0366
  109TMC2    C3 1694   4.713   2.041   0.505 -0.0475 -0.0872  0.4236
  109TMC2    C4 1695   0.109   1.812   0.563 -0.5434  0.1293  0.6397
  109TMC2    C5 1696   0.182   1.923   0.528 -0.5717  0.5310 -0.4756
  109TMC2    C6 1697   0.114   2.049   0.516  0.1759 -0.4890 -0.4755
  109TMC2     C 1698   4.633   1.700   0.586  0.4245  0.3088 -0.1814
  109TMC2     O 1699   4.522   1.699   0.530  0.2396 -0.3198 -0.1735
  109TMC2     H 1700   4.532   1.929   0.518  0.2726 -3.7848 -2.0250
  109TMC2    H1 1701   0.157   1.715   0.572 -1.8750 -0.6236 -0.4509
  109TMC2    H2 1702   0.165   2.144   0.507  2.8880 -1.9178 -0.1705
  109TMC2    C7 1703   0.322   1.918   0.546  0.3282 -0.4030 -0.5236
  109TMC2    C8 1704   4.644   2.146   0.439 -0.4975  0.0847  0.9032
  109TMC2    O1 1705   0.355   1.818   0.608  0.8919 -0.2848 -0.0425
  109TMC2    O2 1706   4.538   2.127   0.380  0.5112  0.6512  0.0034
  109TMC2    O5 1707   4.692   2.259   0.490  0.4783 -0.2108  0.3687
  109TMC2    H5 1708   0.013   2.252   0.568  0.5163  1.7803  0.5029
  110MPD2     C 1709   4.492   1.268   0.826 -0.8608  0.2965  0.3891
  110MPD2    C1 1710   4.610   1.313   0.887  0.0684 -0.8337  0.4419
  110MPD2    C2 1711   4.663   1.434   0.842 -0.0436 -0.4198 -0.0081
  110MPD2    C3 1712   4.620   1.495   0.722  0.5278  0.1448 -0.2003
  110MPD2    C4 1713   4.508   1.434   0.660 -0.8282 -0.1243 -0.6116
  110MPD2    C5 1714   4.445   1.322   0.710 -0.1446 -0.1285  0.3240
  110MPD2     H 1715   0.027   1.461   0.870 -0.7267  0.7045  1.3981
  110MPD2    H1 1716   4.455   1.469   0.573 -1.4317 -1.8448 -0.9425
  110MPD2    H2 1717   4.433   1.184   0.860 -1.9744  0.8313 -0.2212
  110MPD2    H3 1718   4.377   1.275   0.640  0.8421 -0.8305 -0.1520
  110MPD2     N 1719   4.688   1.614   0.682 -0.2303 -0.2734 -0.0980
  110MPD2    H5 1720   0.038   1.635   0.729  0.4533 -1.1410 -0.9957
  110MPD2    N1 1721   4.651   1.254   1.005 -0.4356 -0.3267  0.6033
  110MPD2    H7 1722   4.608   1.168   1.036  0.0184 -0.9746 -0.5611
  111TMC2    C1 1723   1.482   0.953  12.149  0.1712 -0.4899 -0.1087
  111TMC2    C2 1724   1.432   1.073  12.191 -0.7905  0.0933 -0.0662
  111TMC2    C3 1725   1.522   1.158  12.251 -0.3699 -0.0396 -0.2808
  111TMC2    C4 1726   1.613   0.922  12.172  0.2760  0.0059  0.0934
  111TMC2    C5 1727   1.698   1.018  12.232 -0.4666 -0.1209 -0.2727
  111TMC2    C6 1728   1.648   1.134  12.284  0.0983 -0.1421 -0.4206
  111TMC2     C 1729   1.392   0.856  12.092 -0.3053 -0.2144 -1.3408
  111TMC2     O 1730   1.300   0.894  12.020  0.7849 -0.1393 -0.5274
  111TMC2     H 1731   1.324   1.080  12.187 -0.8980 -0.3275  1.9433
  111TMC2    H1 1732   1.652   0.825  12.141 -0.6022  0.0241 -1.0397
  111TMC2    H2 1733   1.713   1.205  12.334 -1.0803  0.8641 -0.3131
  111TMC2    C7 1734   1.834   0.984  12.229 -0.2561  0.1829  0.0675
  111TMC2    C8 1735   1.457   1.282  12.295 -0.2614  0.3119  0.0538
  111TMC2    O1 1736   1.893   1.007  12.337 -0.6055  0.2232 -0.2570
  111TMC2    O2 1737   1.338   1.284  12.338  0.1318 -0.2362  0.4870
  111TMC2    O5 1738   1.547   1.371  12.323 -0.5393  0.3963 -0.7321
  111TMC2    H5 1739   1.619   1.361  12.258 -1.1319 -1.7978 -1.0490
  112MPD2     C 1740   1.286   0.372  11.954  0.0210 -0.1236  0.7445
  112MPD2    C1 1741   1.288   0.486  11.882 -0.4639  0.4177  0.2232
  112MPD2    C2 1742   1.331   0.605  11.942  0.4205  0.0293  0.0767
  112MPD2    C3 1743   1.373   0.606  12.071  0.3983  0.5223 -0.0888
  112MPD2    C4 1744   1.361   0.487  12.142 -0.4549 -0.9565  0.4430
  112MPD2    C5 1745   1.306   0.376  12.090 -0.4544  0.0841 -0.1053
  112MPD2     H 1746   1.340   0.701  11.891 -0.2608  0.1954  0.2614
  112MPD2    H1 1747   1.383   0.486  12.248  0.5193  1.8531  0.2803
  112MPD2    H2 1748   1.259   0.274  11.915 -0.9487  1.1250 -1.6788
  112MPD2    H3 1749   1.301   0.290  12.155 -2.6779 -0.3553 -0.8410
  112MPD2     N 1750   1.418   0.721  12.126  0.2818  0.1657  0.3578
  112MPD2    H5 1751   1.476   0.707  12.208 -0.6477 -0.5265  0.8908
  112MPD2    N1 1752   1.258   0.491  11.748  0.1415  0.7115  0.0625
  112MPD2    H7 1753   1.279   0.575  11.695  1.5826  0.1231 -0.2663
  113TMC2    C1 1754   3.754   4.520   1.290  0.2249 -0.2511  0.2789
  113TMC2    C2 1755   3.650   4.609   1.286  0.2320 -0.1874  0.4588
  113TMC2    C3 1756   3.584   4.632   1.169  0.5022 -0.8562 -0.5094
  113TMC2    C4 1757   3.778   4.438   1.183 -0.7399  0.2172 -0.0321
  113TMC2    C5 1758   3.700   4.451   1.077  0.5311  0.9707 -0.0478
  113TMC2    C6 1759   3.607   4.551   1.064  0.1217 -0.6878 -0.8107
  113TMC2     C 1760   3.849   4.530   1.404 -0.2340  0.0717  0.5481
  113TMC2     O 1761   3.836   4.618   1.487 -0.0705  0.1523 -0.2889
  113TMC2     H 1762   3.637   4.680   1.366 -1.2327  0.7019 -0.5587
  113TMC2    H1 1763   3.853   4.360   1.179 -0.9801  0.1024 -2.4980
  113TMC2    H2 1764   3.547   4.550   0.974 -0.7275 -0.6228 -0.2467
  113TMC2    C7 1765   3.733   4.377   0.948  0.4749  0.1352 -1.0942
  113TMC2    C8 1766   3.477   4.728   1.177 -0.0290 -0.1675  0.5469
  113TMC2    O1 1767   3.694   4.442   0.851 -0.8614  0.2187 -0.2712
  113TMC2    O2 1768   3.408   0.010   1.276 -0.1010  0.2536  0.4204
  113TMC2    O5 1769   3.470   0.051   1.057 -0.1906 -0.3824 -0.5949
  113TMC2    H5 1770   3.539   0.025   0.992  0.3320  1.1993 -0.6653
  114MPD2     C 1771   4.271   4.363   1.656 -0.8206  0.0138 -0.0720
  114MPD2    C1 1772   4.176   4.456   1.696  0.5525  0.7147  0.9133
  114MPD2    C2 1773   4.064   4.476   1.610  0.8073 -0.4971 -0.0966
  114MPD2    C3 1774   4.032   4.389   1.504 -0.8320  0.1429  0.0327
  114MPD2    C4 1775   4.118   4.288   1.483 -0.5323  0.4029  0.5642
  114MPD2    C5 1776   4.238   4.287   1.554 -0.2479 -0.2021  0.1507
  114MPD2     H 1777   3.992   4.550   1.641  0.7344 -0.3417 -0.6393
  114MPD2    H1 1778   4.094   4.220   1.403 -2.1898  1.1764  0.4075
  114MPD2    H2 1779   4.371   4.353   1.696 -0.2018 -0.2161 -1.6459
  114MPD2    H3 1780   4.303   4.202   1.538  0.0124  0.2259 -1.0370
  114MPD2     N 1781   3.925   4.415   1.416  0.3693 -0.2869  0.7793
  114MPD2    H5 1782   3.909   4.343   1.346 -1.2552 -0.5958  1.4505
  114MPD2    N1 1783   4.200   4.533   1.809  0.1523  0.1671  0.2956
  114MPD2    H7 1784   4.125   4.594   1.841  2.1902  1.2120  3.1242
  115TMC2    C1 1785   0.217   1.590  17.604 -0.0365 -0.4007 -0.5873
  115TMC2    C2 1786   0.348   1.578  17.635  0.4640 -0.1632  0.6740
  115TMC2    C3 1787   0.422   1.691  17.632 -0.0604 -0.5512  1.3072
  115TMC2    C4 1788   0.155   1.709  17.581 -0.2943  0.5893 -0.3020
  115TMC2    C5 1789   0.236   1.820  17.573  0.1884 -0.0730 -0.0392
  115TMC2    C6 1790   0.370   1.819  17.598  0.3696 -0.1021  0.0566
  115TMC2     C 1791   0.132   1.482  17.610  0.1020 -0.2245 -0.7588
  115TMC2     O 1792   0.180   1.372  17.579  0.0948 -0.2028 -0.2388
  115TMC2     H 1793   0.385   1.485  17.675  0.5228 -0.1483  0.6541
  115TMC2    H1 1794   0.053   1.725  17.548  0.1934  0.8378 -1.6831
  115TMC2    H2 1795   0.429   1.910  17.599  2.1388 -1.2957  2.6369
  115TMC2    C7 1796   0.170   1.942  17.604  0.2772  0.1899  0.2588
  115TMC2    C8 1797   0.558   1.700  17.697  0.4619 -0.2350 -0.1991
  115TMC2    O1 1798   0.056   1.936  17.646  0.6673 -0.5635  0.0488
  115TMC2    O2 1799   0.612   1.797  17.746  0.5843  0.3101  0.2280
  115TMC2    O5 1800   0.621   1.586  17.671 -0.7355 -0.0565  0.1489
  115TMC2    H5 1801   0.572   1.507  17.642  0.2927 -0.8882  0.6936
  116MPD2     C 1802   4.451   1.227  17.744  0.1963 -0.1938  0.4654
  116MPD2    C1 1803   4.553   1.182  17.660 -0.0615  0.0582  0.0157
  116MPD2    C2 1804   4.655   1.267  17.632  0.1141  0.4061  0.7020
  116MPD2    C3 1805   4.644   1.405  17.676  0.0639 -0.7645  0.7465
  116MPD2    C4 1806   4.540   1.445   0.015  0.0876 -0.6773 -1.2837
  116MPD2    C5 1807   4.444   1.354   0.043  0.9178  0.0614  0.8990
  116MPD2     H 1808   4.730   1.234  17.561 -1.0894  2.4080 -1.5377
  116MPD2    H1 1809   4.530   1.543   0.061 -3.6917 -1.0288 -1.3269
  116MPD2    H2 1810   4.391   1.161   0.059 -2.5414  1.4097 -0.5048
  116MPD2    H3 1811   4.363   1.386   0.107 -0.1981  0.2559 -0.6318
  116MPD2     N 1812   0.003   1.510  17.654  0.3394  0.6783 -0.2046
  116MPD2    H5 1813   4.714   1.605  17.679  1.9053  1.1516 -0.3402
  116MPD2    N1 1814   4.547   1.049  17.625 -0.2866  0.1642  0.3845
  116MPD2    H7 1815   4.465   0.996  17.652  0.0160 -0.9019 -0.7435
  117TMC2    C1 1816   3.679   2.862  14.781 -0.3549  0.0720  0.0299
  117TMC2    C2 1817   3.576   2.863  14.875 -0.0479 -0.3129 -0.2881
  117TMC2    C3 1818   3.534   2.985  14.914 -0.2249  0.4089 -0.3751
  117TMC2    C4 1819   3.746   2.971  14.750 -0.0677 -1.0537 -0.4761
  117TMC2    C5 1820   3.704   3.099  14.787  0.5684 -0.5004 -0.1890
  117TMC2    C6 1821   3.592   3.095  14.865 -0.2329 -0.8471  0.0332
  117TMC2     C 1822   3.669   2.777  14.676 -0.4016  0.3295  0.1104
  117TMC2     O 1823   3.776   2.747  14.628  1.0374  0.6713  0.8198
  117TMC2     H 1824   3.537   2.770  14.914 -0.3259  0.2862  0.8433
  117TMC2    H1 1825   3.824   2.959  14.676 -0.2581 -1.3898 -0.6256
  117TMC2    H2 1826   3.550   3.191  14.894  0.3739  0.2011 -2.6250
  117TMC2    C7 1827   3.709   3.202  14.680 -0.4118  0.6356 -0.9365
  117TMC2    C8 1828   3.443   2.986  15.034 -0.2377  0.6344  0.5343
  117TMC2    O1 1829   3.688   3.319  14.718 -0.1289  0.1793  0.0664
  117TMC2    O2 1830   3.342   3.045  15.017  0.0768  0.5052 -0.1023
  117TMC2    O5 1831   3.466   2.890  15.126 -0.0054 -0.1052  0.7381
  117TMC2    H5 1832   3.560   2.868  15.142 -0.4737 -2.7295 -0.0950
  118MPD2     C 1833   3.562   3.142  14.348  0.5788 -0.4095  0.0455
  118MPD2    C1 1834   3.646   3.207  14.439 -0.2778 -0.0019  0.0467
  118MPD2    C2 1835   3.678   3.348  14.420 -1.3123  0.6866 -0.5463
  118MPD2    C3 1836   3.645   3.406  14.298  0.0638 -0.2627  0.1846
  118MPD2    C4 1837   3.577   3.333  14.202  1.0244  0.7383  0.1252
  118MPD2    C5 1838   3.543   3.200  14.220  0.1732  0.0737 -1.3121
  118MPD2     H 1839   3.745   3.399  14.488 -0.5734 -0.3616 -0.4870
  118MPD2    H1 1840   3.548   3.377  14.107 -2.5398 -1.9704 -0.0613
  118MPD2    H2 1841   3.518   3.045  14.369  0.1731 -0.0191  1.0127
  118MPD2    H3 1842   3.496   3.137  14.145 -1.7844  0.6097 -0.5318
  118MPD2     N 1843   3.692   3.530  14.251  0.4578  0.5771 -0.4921
  118MPD2    H5 1844   3.657   3.551  14.158 -1.7311  3.1462  0.9394
  118MPD2    N1 1845   3.677   3.142  14.559  0.0722 -0.1846  0.2014
  118MPD2    H7 1846   3.663   3.042  14.568  4.8974 -0.8627  0.1324
  119TMC2    C1 1847   1.743   4.193  13.393  0.1160  0.1663 -0.3035
  119TMC2    C2 1848   1.757   4.250  13.271 -0.1347 -0.2619 -0.0414
  119TMC2    C3 1849   1.665   4.213  13.178  0.0567  0.1932  0.0323
  119TMC2    C4 1850   1.645   4.100  13.419  0.5838  0.8622  0.2151
  119TMC2    C5 1851   1.566   4.052  13.314 -0.4922 -0.1600 -0.3637
  119TMC2    C6 1852   1.569   4.119  13.195  0.0115 -0.0375  0.6557
  119TMC2     C 1853   1.842   4.229  13.495 -0.0468 -0.5307 -0.7621
  119TMC2     O 1854   1.805   4.199  13.610  0.4189  0.3019 -0.3878
  119TMC2     H 1855   1.833   4.323  13.246 -0.1880  0.5862  2.2538
  119TMC2    H1 1856   1.634   4.058  13.519  0.1025 -0.2012 -0.2878
  119TMC2    H2 1857   1.497   4.093  13.118 -2.1839  2.5990  1.7997
  119TMC2    C7 1858   1.433   4.006  13.344 -0.0757  0.5854 -0.4433
  119TMC2    C8 1859   1.682   4.257  13.047 -0.2889 -0.5704  0.2140
  119TMC2    O1 1860   1.346   4.018  13.265 -0.5567 -0.2772  0.0512
  119TMC2    O2 1861   1.790   4.268  12.989 -0.0620 -0.6500 -0.0445
  119TMC2    O5 1862   1.560   4.261  12.987  0.2107  0.4036  0.0281
  119TMC2    H5 1863   1.483   4.276  13.045  0.8665 -0.1624  1.0451
  120MPD2     C 1864   2.291   4.443  13.651 -0.5350 -0.2302 -0.4834
  120MPD2    C1 1865   2.161   4.439  13.706  0.1319  0.7280 -0.9752
  120MPD2    C2 1866   2.058   4.371  13.641  0.7881  0.0508 -0.0217
  120MPD2    C3 1867   2.075   4.303  13.522 -0.4446 -0.7816 -0.6434
  120MPD2    C4 1868   2.204   4.312  13.466 -0.0921  0.1670  0.3399
  120MPD2    C5 1869   2.310   4.371  13.531  0.2792 -0.0376  0.8304
  120MPD2     H 1870   1.961   4.402  13.678 -0.5065 -1.0217 -2.5225
  120MPD2    H1 1871   2.225   4.275  13.367 -2.2444 -0.1184 -0.0014
  120MPD2    H2 1872   2.371   4.489  13.707 -0.2095  0.7551 -1.7716
  120MPD2    H3 1873   2.412   4.361  13.495 -0.0176 -0.9490  0.2416
  120MPD2     N 1874   1.970   4.248  13.449 -0.1409  0.2217 -0.4154
  120MPD2    H5 1875   1.991   4.219  13.354  0.7057  0.4876 -0.3106
  120MPD2    N1 1876   2.143   4.522  13.823  0.3699 -0.5599 -0.3016
  120MPD2    H7 1877   2.212   4.597  13.829  0.3377 -0.5508 -0.0303
  121TMC2    C1 1878   3.640   1.552  14.186 -0.4523 -0.1618  0.7450
  121TMC2    C2 1879   3.716   1.649  14.242 -0.4054  0.3719 -0.1276
  121TMC2    C3 1880   3.660   1.745  14.321 -0.4700  0.2967  0.4771
  121TMC2    C4 1881   3.500   1.547  14.209  0.5274  0.0161  0.2002
  121TMC2    C5 1882   3.442   1.652  14.286  0.2360 -0.1441 -0.0506
  121TMC2    C6 1883   3.525   1.753  14.340  0.2248  1.0287  0.3215
  121TMC2     C 1884   3.701   1.486  14.072  1.3008 -0.7494 -0.2187
  121TMC2     O 1885   3.815   1.440  14.090 -0.0372  0.1671 -0.7964
  121TMC2     H 1886   3.823   1.655  14.225 -0.1415  1.6757  1.9899
  121TMC2    H1 1887   3.458   1.448  14.195 -0.2879  0.2201  1.2419
  121TMC2    H2 1888   3.481   1.831  14.400  0.7487  0.6595  1.1787
  121TMC2    C7 1889   3.322   1.619  14.363 -0.2730  0.0858 -0.7509
  121TMC2    C8 1890   3.742   1.861  14.348 -0.7439  0.0440  0.4332
  121TMC2    O1 1891   3.304   1.659  14.479  0.4270 -0.0191 -0.7046
  121TMC2    O2 1892   3.835   1.896  14.272  0.0848 -0.5075 -0.0101
  121TMC2    O5 1893   3.744   1.888  14.481 -0.3895 -0.3586  0.1914
  121TMC2    H5 1894   3.694   1.813  14.520  1.1571 -1.0221  0.8604
  122MPD2     C 1895   3.755   1.373  13.801 -0.0392  0.1736  0.1011
  122MPD2    C1 1896   3.652   1.454  13.831 -0.0044  0.0961 -0.2784
  122MPD2    C2 1897   3.574   1.493  13.731  0.0728 -0.0424 -0.0751
  122MPD2    C3 1898   3.611   1.470  13.597 -0.5167  0.0106 -0.7406
  122MPD2    C4 1899   3.729   1.413  13.573 -0.1322 -0.1225  0.2325
  122MPD2    C5 1900   3.800   1.355  13.678 -0.0300 -0.1569  0.2598
  122MPD2     H 1901   3.480   1.540  13.758  0.0734 -0.0671 -0.0313
  122MPD2    H1 1902   3.753   1.374  13.475 -1.2972 -1.5062  0.4964
  122MPD2    H2 1903   3.810   1.330  13.883 -1.0829  0.3238  0.8751
  122MPD2    H3 1904   3.891   1.298  13.667  0.9794  0.9565  2.8496
  122MPD2     N 1905   3.540   1.516  13.490 -0.4164 -0.0437 -0.0733
  122MPD2    H5 1906   3.587   1.519  13.400 -0.6822  1.5048 -0.1708
  122MPD2    N1 1907   3.623   1.494  13.964 -0.8392  0.0438 -0.3269
  122MPD2    H7 1908   3.541   1.552  13.977  1.1608  2.7697  0.2096
  123TMC2    C1 1909   2.355   4.060  10.500  0.0744 -0.1230 -0.0245
  123TMC2    C2 1910   2.457   4.118  10.576  0.0891 -0.0627 -0.1775
  123TMC2    C3 1911   2.574   4.147  10.509 -0.1582 -0.2384  0.1671
  123TMC2    C4 1912   2.368   4.023  10.374 -0.2523 -0.1696 -0.8704
  123TMC2    C5 1913   2.483   4.045  10.314  0.1414 -0.0135 -0.0939
  123TMC2    C6 1914   2.582   4.110  10.376 -0.3887  0.6332 -0.2472
  123TMC2     C 1915   2.251   4.003  10.586 -0.5349  0.6518  0.4778
  123TMC2     O 1916   2.245   4.054  10.699 -0.0345  0.0326 -0.0271
  123TMC2     H 1917   2.452   4.117  10.684  2.2778 -0.8767 -0.0921
  123TMC2    H1 1918   2.285   3.977  10.323 -1.5277 -0.0299  1.0541
  123TMC2    H2 1919   2.671   4.137  10.320 -0.9097  0.9234 -0.9384
  123TMC2    C7 1920   2.528   3.942  10.223 -0.2117 -0.0419  0.9069
  123TMC2    C8 1921   2.691   4.210  10.572 -0.2329 -0.7643  0.5183
  123TMC2    O1 1922   2.505   3.828  10.258  0.4145  0.2986 -0.6750
  123TMC2    O2 1923   2.807   4.174  10.559 -0.3590 -0.2203 -0.4684
  123TMC2    O5 1924   2.636   4.285  10.674 -0.4523  0.3953 -0.3273
  123TMC2    H5 1925   2.548   4.324  10.655 -0.7454 -0.3965 -0.5737
  124MPD2     C 1926   1.824   3.727  10.705 -0.1780  0.2293 -0.7429
  124MPD2    C1 1927   1.864   3.694  10.574  0.9284 -0.0763  0.3047
  124MPD2    C2 1928   1.977   3.758  10.525 -0.5260 -0.2722 -0.5239
  124MPD2    C3 1929   2.055   3.845  10.592  0.5259 -0.5625  0.3314
  124MPD2    C4 1930   2.018   3.879  10.719 -0.5715  0.4520 -0.3080
  124MPD2    C5 1931   1.906   3.815  10.777 -1.1624 -0.6235  0.6168
  124MPD2     H 1932   2.012   3.752  10.423 -2.4879 -0.6458 -1.1821
  124MPD2    H1 1933   2.065   3.951  10.785  0.1365 -2.0941  1.9664
  124MPD2    H2 1934   1.720   3.724  10.736  0.1896  2.2366  0.6983
  124MPD2    H3 1935   1.869   3.848  10.874 -1.2999 -0.8037  0.6258
  124MPD2     N 1936   2.160   3.911  10.526  0.6171  0.0102  0.3480
  124MPD2    H5 1937   2.170   3.890  10.428 -1.5654 -1.5070  0.4326
  124MPD2    N1 1938   1.784   3.607  10.497  0.1962  0.2286  0.7819
  124MPD2    H7 1939   1.709   3.568  10.554  0.9104 -0.0793  1.4981
  125TMC2    C1 1940   1.822   0.827  10.101  0.5331 -0.1278  0.4767
  125TMC2    C2 1941   1.750   0.712  10.122 -0.2975  0.3524 -0.0281
  125TMC2    C3 1942   1.799   0.598  10.064 -0.5410 -0.3401 -0.6740
  125TMC2    C4 1943   1.931   0.830  10.018 -0.7824  0.3042 -0.3614
  125TMC2    C5 1944   1.977   0.711   9.964  0.0782  0.1284 -0.0373
  125TMC2    C6 1945   1.906   0.590   9.983 -0.4642 -0.5530  0.4478
  125TMC2     C 1946   1.747   0.950  10.137 -0.3913  0.2437 -0.3647
  125TMC2     O 1947   1.674   0.931  10.233 -0.0492  0.2976 -0.9290
  125TMC2     H 1948   1.673   0.708  10.198 -0.0742  1.2134  0.2446
  125TMC2    H1 1949   1.985   0.924  10.010  0.2033 -0.1457  1.0795
  125TMC2    H2 1950   1.927   0.498   9.930  2.2844 -0.4384  1.3120
  125TMC2    C7 1951   2.080   0.710   9.859 -0.0290 -0.1218 -0.2710
  125TMC2    C8 1952   1.713   0.482  10.055  0.1924 -0.4880  0.8436
  125TMC2    O1 1953   2.096   0.602   9.805 -0.2051  1.0798 -0.4479
  125TMC2    O2 1954   1.757   0.371  10.062 -0.4974 -0.4822  0.9439
  125TMC2    O5 1955   1.594   0.512  10.092  0.3841  0.4777  0.8697
  125TMC2    H5 1956   1.555   0.602  10.089  2.3331  1.3770  2.0735
  126MPD1     C 1957   1.571   1.421  10.071  1.0365 -0.2276 -0.4408
  126MPD1    C1 1958   1.641   1.382   9.958  1.0962 -0.5507  0.5126
  126MPD1    C2 1959   1.718   1.266   9.963  0.0018 -0.1749  0.4637
  126MPD1    C3 1960   1.715   1.180  10.072 -0.4051 -0.3224 -1.4044
  126MPD1    C4 1961   1.656   1.228  10.183  0.6319  0.2192 -1.0979
  126MPD1    C5 1962   1.578   1.345  10.188 -0.4389 -0.1749 -0.8287
  126MPD1     H 1963   1.760   1.231   9.869  0.7912  2.5955 -0.2006
  126MPD1    H1 1964   1.667   1.174  10.277  0.4665 -0.6201 -1.5651
  126MPD1    H2 1965   1.504   1.506  10.074 -0.0924 -1.1860  2.0172
  126MPD1    H3 1966   1.526   1.377  10.277 -0.3495 -0.7117 -0.5778
  126MPD1     N 1967   1.776   1.055  10.057 -0.0509 -0.2125  0.0010
  126MPD1    H5 1968   1.830   1.032   9.975 -1.2758 -1.6556 -0.4164
  126MPD1    N1 1969   1.612   1.440   9.834 -0.3074  0.0057  0.1948
  126MPD1    H6 1970   1.696   1.441   9.776  0.2244  0.6250  0.9702
  126MPD1    H7 1971   1.572   1.534   9.833 -1.7450 -0.6029  1.0588
  127TMC2    C1 1972   3.476   4.597   9.777 -0.0494 -0.1633 -1.4221
  127TMC2    C2 1973   3.562   4.629   9.883  0.3420  0.3536  0.1180
  127TMC2    C3 1974   3.544   4.572  10.005  0.2584 -0.2434  0.1792
  127TMC2    C4 1975   3.377   4.506   9.799  0.1033  0.8255 -0.4686
  127TMC2    C5 1976   3.359   4.461   9.925 -0.3867  0.4748 -0.8840
  127TMC2    C6 1977   3.436   4.492  10.028 -1.1569  1.1540  0.1661
  127TMC2     C 1978   3.449   4.713   9.694 -1.0193  0.6812  0.7297
  127TMC2     O 1979   3.521   0.071   9.725 -0.0097  0.1085  0.8935
  127TMC2     H 1980   3.641   4.703   9.874  1.5557 -0.8016  1.2519
  127TMC2    H1 1981   3.310   4.473   9.720 -0.4527  2.7938 -0.8287
  127TMC2    H2 1982   3.420   4.458  10.130  1.5062  2.5967  1.0505
  127TMC2    C7 1983   3.228   4.392   9.942  0.7198 -1.5873  0.1584
  127TMC2    C8 1984   3.642   4.592  10.111 -0.0747  0.4181  0.4781
  127TMC2    O1 1985   3.144   4.403   9.853  0.3361  0.0050  0.5808
  127TMC2    O2 1986   3.614   4.565  10.225 -0.6161  0.6729  0.0125
  127TMC2    O5 1987   3.769   4.563  10.060 -0.8503 -0.4583 -0.2285
  127TMC2    H5 1988   3.775   4.576   9.963  3.1486 -4.4274 -0.4807
  128MPD2     C 1989   3.147   0.068   9.492  0.3998  0.1996  0.1645
  128MPD2    C1 1990   3.266   0.084   9.567  0.6517  0.6284 -0.7488
  128MPD2    C2 1991   3.323   0.205   9.557  0.5146  0.8047 -0.1600
  128MPD2    C3 1992   3.265   0.308   9.479 -0.1224 -0.5905  0.9021
  128MPD2    C4 1993   3.152   0.287   9.411 -0.5614  0.4864  0.0553
  128MPD2    C5 1994   3.095   0.163   9.413  0.4714 -0.1376  0.9673
  128MPD2     H 1995   3.426   0.219   9.585  0.4022 -1.4315  1.3607
  128MPD2    H1 1996   3.122   0.359   9.336 -1.5425  0.3074  0.2817
  128MPD2    H2 1997   3.101   4.707   9.488 -0.3779  0.5397  0.8405
  128MPD2    H3 1998   3.007   0.158   9.350 -0.1070  0.3427  1.7345
  128MPD2     N 1999   3.341   0.429   9.475  0.2681 -0.1054  0.2984
  128MPD2    H5 2000   3.428   0.438   9.528  0.2449 -0.1803  0.3488
  128MPD2    N1 2001   3.330   4.715   9.634 -0.8280  0.0771 -0.1582
  128MPD2    H7 2002   3.288   4.623   9.637 -0.1434 -0.2707 -1.0534
  129TMC2    C1 2003   2.319   0.769   1.486  0.9460 -0.2314  0.3393
  129TMC2    C2 2004   2.453   0.755   1.484  0.0936  0.2540  0.1928
  129TMC2    C3 2005   2.513   0.634   1.507  0.4902  0.0595 -0.6039
  129TMC2    C4 2006   2.251   0.649   1.524 -0.3199 -0.5063 -0.3391
  129TMC2    C5 2007   2.310   0.526   1.537 -0.1447  0.4396 -0.3666
  129TMC2    C6 2008   2.447   0.519   1.530  0.5781 -0.2751  0.3510
  129TMC2     C 2009   2.255   0.837   1.378 -0.1553 -1.1140  0.1764
  129TMC2     O 2010   2.144   0.795   1.340  0.1219  0.2779 -0.1988
  129TMC2     H 2011   2.516   0.837   1.451 -0.6111 -0.1942 -2.2689
  129TMC2    H1 2012   2.144   0.664   1.526 -0.0879  1.0743 -0.0253
  129TMC2    H2 2013   2.503   0.433   1.565 -0.3528 -0.4626  1.3891
  129TMC2    C7 2014   2.224   0.413   1.579  0.1183  0.6657 -0.3243
  129TMC2    C8 2015   2.659   0.621   1.542  0.4947  0.0451 -0.5395
  129TMC2    O1 2016   2.103   0.429   1.559  0.0437 -0.4891  0.0969
  129TMC2    O2 2017   2.724   0.533   1.487 -0.3632 -0.0135  0.1251
  129TMC2    O5 2018   2.699   0.743   1.553  0.2693  0.0878  0.2893
  129TMC2    H5 2019   2.652   0.793   1.623 -3.2936  0.8485 -2.6432
  130MPD2     C 2020   2.204   1.005   1.135  0.1459 -0.0878  0.1005
  130MPD2    C1 2021   2.303   1.023   1.228 -0.2400 -0.3409  0.0530
  130MPD2    C2 2022   2.382   1.131   1.207 -0.1468 -0.1256 -0.3049
  130MPD2    C3 2023   2.358   1.238   1.125  0.6462 -0.7039  0.1149
  130MPD2    C4 2024   2.256   1.226   1.036  0.4493  0.1294 -0.7429
  130MPD2    C5 2025   2.183   1.105   1.042  0.3124 -0.0300  0.2111
  130MPD2     H 2026   2.448   1.131   1.293 -0.0575 -0.1147 -0.3736
  130MPD2    H1 2027   2.221   1.297   0.962  0.7311 -0.1377 -1.1298
  130MPD2    H2 2028   2.133   0.923   1.136 -0.6161  0.5842  0.8054
  130MPD2    H3 2029   2.106   1.096   0.966  0.1422  1.9753  0.1563
  130MPD2     N 2030   2.438   1.357   1.127 -0.2644 -0.6947  0.2368
  130MPD2    H5 2031   2.510   1.352   1.199  0.4136 -1.6730 -0.5023
  130MPD2    N1 2032   2.332   0.944   1.340 -0.6223  0.2979  0.1203
  130MPD2    H7 2033   2.419   0.953   1.392  0.1402 -1.2161 -0.9115
  131TMC2    C1 2034   1.627   4.462  10.300 -0.0395 -0.3892  0.6317
  131TMC2    C2 2035   1.526   4.545  10.335  0.2032 -0.0371 -0.4801
  131TMC2    C3 2036   1.562   4.651  10.418  0.4969  0.1563  0.2175
  131TMC2    C4 2037   1.758   4.492  10.327 -0.0972  0.4679  0.2730
  131TMC2    C5 2038   1.787   4.596  10.406  0.6408 -0.5471 -0.4148
  131TMC2    C6 2039   1.693   4.684  10.455 -0.6692 -0.0429 -0.5971
  131TMC2     C 2040   1.609   4.334  10.238  0.0935  0.0708  0.6095
  131TMC2     O 2041   1.684   4.241  10.262  0.4507  1.5588  0.2482
  131TMC2     H 2042   1.420   4.534  10.316  0.3804  1.3312 -2.2643
  131TMC2    H1 2043   1.835   4.433  10.278  1.0862  0.0424  2.6597
  131TMC2    H2 2044   1.712   0.044  10.499 -0.3524 -0.8348  1.0028
  131TMC2    C7 2045   1.923   4.626  10.400 -0.3655  0.6600 -0.5385
  131TMC2    C8 2046   1.450   0.001  10.448  0.2464  0.5544  0.0796
  131TMC2    O1 2047   1.997   4.538  10.354 -0.5425  0.1683  0.3746
  131TMC2    O2 2048   1.346   4.693  10.490 -0.4662  0.2796 -0.2495
  131TMC2    O5 2049   1.451   0.096  10.348  0.2646 -0.1104 -0.2037
  131TMC2    H5 2050   1.542   0.124  10.321 -0.0584 -0.2867 -1.4783
  132MPD2     C 2051   1.344   4.202  10.001 -0.3332 -0.4626 -0.0141
  132MPD2    C1 2052   1.437   4.193  10.108  0.3393  0.6126  0.5630
  132MPD2    C2 2053   1.487   4.067  10.133 -0.1967 -0.1779 -0.0777
  132MPD2    C3 2054   1.438   3.949  10.069  0.2441  0.2040 -0.2891
  132MPD2    C4 2055   1.345   3.966   9.961  0.2050 -0.6924 -0.4838
  132MPD2    C5 2056   1.297   4.092   9.937  0.6861 -0.5599 -0.7082
  132MPD2     H 2057   1.566   4.056  10.208  0.2544  0.5289 -0.4529
  132MPD2    H1 2058   1.289   3.885   9.917 -0.7717 -0.6190  0.6164
  132MPD2    H2 2059   1.292   4.293   9.975 -0.6450 -0.7128 -0.2593
  132MPD2    H3 2060   1.213   4.108   9.871  0.3881  3.4031  0.6211
  132MPD2     N 2061   1.489   3.823  10.107  0.1309 -0.5682  0.1422
  132MPD2    H5 2062   1.559   3.825  10.181 -1.4700 -1.7445  1.6899
  132MPD2    N1 2063   1.494   4.317  10.164  0.8604  0.1770 -0.6792
  132MPD2    H7 2064   1.448   4.404  10.138  1.8031  0.9314  0.1959
  133TMC2    C1 2065   1.065   0.960  10.586  0.4749 -0.2088  0.0201
  133TMC2    C2 2066   0.950   1.012  10.533  0.7317 -0.0278 -0.6043
  133TMC2    C3 2067   0.887   1.127  10.578  0.2380  0.1179  0.2566
  133TMC2    C4 2068   1.126   1.025  10.695 -0.2873 -0.0109  0.4481
  133TMC2    C5 2069   1.063   1.146  10.740  0.5433 -0.2812  0.2583
  133TMC2    C6 2070   0.942   1.188  10.687  0.7009  0.2402 -0.5414
  133TMC2     C 2071   1.121   0.847  10.507  0.6611  0.3266 -0.4931
  133TMC2     O 2072   1.072   0.826  10.397 -0.0808 -0.5669  0.3003
  133TMC2     H 2073   0.904   0.954  10.454  3.2314 -0.2887 -1.8825
  133TMC2    H1 2074   1.205   0.975  10.751  1.9918  3.1999  0.0492
  133TMC2    H2 2075   0.885   1.274  10.720 -1.4540 -1.2743 -0.3549
  133TMC2    C7 2076   1.105   1.211  10.860  0.0699  0.1628 -0.0741
  133TMC2    C8 2077   0.769   1.168  10.514 -1.0991 -0.1368  0.1662
  133TMC2    O1 2078   1.026   1.279  10.922 -0.0579 -0.7553 -0.2291
  133TMC2    O2 2079   0.681   1.233  10.567 -0.1571 -0.2998 -0.1796
  133TMC2    O5 2080   0.798   1.153  10.382 -0.0782  0.0155  0.2405
  133TMC2    H5 2081   0.893   1.132  10.366 -0.7777 -0.4136 -3.4131
  134MPD2     C 2082   1.425   0.658  10.563  0.6850  0.2574 -0.1965
  134MPD2    C1 2083   1.306   0.688  10.503 -0.5356  0.4904 -0.3284
  134MPD2    C2 2084   1.260   0.610  10.397 -0.1028  0.1946  0.3276
  134MPD2    C3 2085   1.333   0.494  10.357 -0.3498  0.0974  0.4669
  134MPD2    C4 2086   1.461   0.471  10.416  0.0859  0.5403  0.0617
  134MPD2    C5 2087   1.501   0.552  10.522 -0.5543 -0.2897  0.5139
  134MPD2     H 2088   1.166   0.638  10.351 -0.3944 -0.7710  0.3287
  134MPD2    H1 2089   1.531   0.390  10.403 -1.2539 -0.4864 -0.7474
  134MPD2    H2 2090   1.457   0.702  10.657  0.0686  3.4322 -1.4915
  134MPD2    H3 2091   1.590   0.522  10.577 -0.6525 -0.2491  0.6952
  134MPD2     N 2092   1.287   0.399  10.262 -0.1795 -0.4307 -0.4960
  134MPD2    H5 2093   1.341   0.317  10.240  0.5977 -0.2611  0.8352
  134MPD2    N1 2094   1.238   0.798  10.555  0.5498  0.0902 -0.2959
  134MPD2    H7 2095   1.281   0.842  10.635  0.6042  0.5617 -0.5835
  135TMC2    C1 2096   3.247   1.494   9.926 -0.2799 -0.3899 -0.5282
  135TMC2    C2 2097   3.194   1.568  10.025 -0.0487  0.0236  0.7468
  135TMC2    C3 2098   3.129   1.501  10.125  0.1703 -0.5157 -0.3720
  135TMC2    C4 2099   3.255   1.363   9.939 -0.0398  0.4257 -0.0093
  135TMC2    C5 2100   3.189   1.298  10.038 -0.1760 -0.6263  0.1570
  135TMC2    C6 2101   3.121   1.365  10.137 -0.1396  0.5285  0.1970
  135TMC2     C 2102   3.304   1.566   9.820  0.5959  0.1860 -0.1433
  135TMC2     O 2103   3.274   1.683   9.812 -0.5870  0.2633 -0.1323
  135TMC2     H 2104   3.183   1.674  10.005  0.4664 -0.5238 -2.4775
  135TMC2    H1 2105   3.321   1.305   9.875 -1.4938 -0.1653 -0.9784
  135TMC2    H2 2106   3.080   1.329  10.231  0.5273 -0.3886  0.1411
  135TMC2    C7 2107   3.175   1.155  10.020  0.5916  1.3151  0.0371
  135TMC2    C8 2108   3.042   1.583  10.203  0.1363  0.3152 -0.1118
  135TMC2    O1 2109   3.228   1.099   9.929 -0.5610 -0.5626  0.1524
  135TMC2    O2 2110   2.926   1.555  10.221  0.0856  0.1908  0.3338
  135TMC2    O5 2111   3.107   1.690  10.245  0.2004 -0.1687 -0.4023
  135TMC2    H5 2112   3.204   1.690  10.235  0.4227 -0.0474  1.7767
  136MPD2     C 2113   3.479   1.664   9.605  0.1686  0.3614 -0.1898
  136MPD2    C1 2114   3.453   1.531   9.625  0.2387 -0.1312 -0.7755
  136MPD2    C2 2115   3.516   1.437   9.552 -1.2074 -0.9509  0.1141
  136MPD2    C3 2116   3.611   1.463   9.460  0.0819  0.4244 -0.0653
  136MPD2    C4 2117   3.638   1.597   9.440 -0.3258 -0.4640  0.0854
  136MPD2    C5 2118   3.570   1.695   9.509  0.8740  0.2260 -0.0333
  136MPD2     H 2119   3.499   1.333   9.580 -0.0272 -1.0730  0.3474
  136MPD2    H1 2120   3.717   1.625   9.371  1.1627 -2.5031  0.9959
  136MPD2    H2 2121   3.436   1.739   9.670  0.2189 -0.7583  1.1463
  136MPD2    H3 2122   3.591   1.801   9.498 -0.8297  0.5343 -0.2926
  136MPD2     N 2123   3.681   1.372   9.382 -0.0727  0.3695 -0.5599
  136MPD2    H5 2124   3.729   1.412   9.303  4.0820 -2.5735  0.4650
  136MPD2    N1 2125   3.375   1.484   9.734 -0.1895  0.4204 -0.0828
  136MPD2    H7 2126   3.379   1.384   9.753  1.5613  0.1898 -1.5852
  137TMC2    C1 2127   2.922   0.598   9.724 -0.3691  0.4065 -0.3315
  137TMC2    C2 2128   2.939   0.635   9.594 -0.0842  0.6175 -0.3392
  137TMC2    C3 2129   2.938   0.767   9.561 -0.1197 -0.2136 -0.2873
  137TMC2    C4 2130   2.904   0.691   9.819  0.3269  0.9285 -0.3519
  137TMC2    C5 2131   2.909   0.824   9.781  0.2134 -0.2254 -0.0878
  137TMC2    C6 2132   2.920   0.865   9.649  0.3353  0.8641 -0.2753
  137TMC2     C 2133   2.911   0.457   9.760  0.2276  0.0108 -0.1195
  137TMC2     O 2134   2.904   0.441   9.880  0.1089  0.0159 -0.1933
  137TMC2     H 2135   2.968   0.558   9.523 -0.9145  1.6395 -1.8047
  137TMC2    H1 2136   2.900   0.657   9.922  1.2921  0.0400 -0.6015
  137TMC2    H2 2137   2.919   0.967   9.612 -1.3777  1.0874  0.3753
  137TMC2    C7 2138   2.877   0.928   9.890  0.2474  0.1818 -1.0819
  137TMC2    C8 2139   2.941   0.803   9.416 -0.2879  0.0034  0.3162
  137TMC2    O1 2140   2.918   1.038   9.863 -0.0112 -0.2188  0.8209
  137TMC2    O2 2141   2.990   0.907   9.383  0.3157 -0.3634  0.2449
  137TMC2    O5 2142   2.861   0.725   9.346 -0.0962 -0.0020  0.5194
  137TMC2    H5 2143   2.831   0.642   9.389 -1.4985 -0.8206 -2.0111
  138MPD2     C 2144   2.790   0.170   9.570  0.7787  0.6651 -0.6619
  138MPD2    C1 2145   2.850   0.238   9.672  0.6079  0.6430 -0.4939
  138MPD2    C2 2146   2.878   0.169   9.794  0.2863  0.4704 -0.1521
  138MPD2    C3 2147   2.839   0.039   9.815 -0.4048  0.2093  0.1778
  138MPD2    C4 2148   2.788   4.703   9.706 -0.2239 -0.3474 -0.5071
  138MPD2    C5 2149   2.755   0.037   9.594 -0.0278  0.3601 -0.0150
  138MPD2     H 2150   2.935   0.210   9.877  1.5790 -0.8752 -0.3683
  138MPD2    H1 2151   2.749   4.604   9.727 -0.8095  0.0976  0.4935
  138MPD2    H2 2152   2.751   0.215   9.479 -1.2190  0.1986 -0.0403
  138MPD2    H3 2153   2.698   4.724   9.516  1.5161 -0.2950 -0.7137
  138MPD2     N 2154   2.858   4.713   9.937 -0.0910  0.2205  0.1645
  138MPD2    H5 2155   2.908   0.029  10.006  1.9182  2.6858 -3.1989
  138MPD2    N1 2156   2.869   0.379   9.655  0.5597  0.4289  0.3171
  138MPD2    H7 2157   2.841   0.419   9.566  0.5755  0.7870  0.4726
  139TMC2    C1 2158   2.931   3.376  13.263  0.3047 -0.3263 -0.2744
  139TMC2    C2 2159   2.845   3.280  13.313 -0.7973  0.6653 -0.2435
  139TMC2    C3 2160   2.732   3.313  13.386 -0.6710 -0.1249 -0.3379
  139TMC2    C4 2161   2.900   3.506  13.279 -0.0060  0.6045 -0.1025
  139TMC2    C5 2162   2.781   3.536  13.339 -0.4539 -0.1955  0.0426
  139TMC2    C6 2163   2.695   3.445  13.398 -0.2897  0.0820  0.1346
  139TMC2     C 2164   3.071   3.347  13.283 -0.7800  0.3085 -0.2442
  139TMC2     O 2165   3.151   3.413  13.221  0.0074  0.2795  0.4029
  139TMC2     H 2166   2.872   3.176  13.298  1.4081  1.2450 -0.2243
  139TMC2    H1 2167   2.983   3.572  13.259  0.7481 -0.4817 -0.5814
  139TMC2    H2 2168   2.619   3.478  13.468 -0.9041  2.1156 -1.4976
  139TMC2    C7 2169   2.779   3.668  13.408  0.1093  0.2739 -0.5015
  139TMC2    C8 2170   2.703   3.226  13.497 -0.2376 -0.2759  0.1085
  139TMC2    O1 2171   2.886   3.724  13.420  0.0555  0.8400  0.3277
  139TMC2    O2 2172   2.808   3.175  13.539 -0.2315  0.0183 -0.1331
  139TMC2    O5 2173   2.615   3.280  13.576  0.0917  0.3342 -0.3787
  139TMC2    H5 2174   2.542   3.312  13.519  0.4068  2.1459  0.2253
  140MPD2     C 2175   3.203   3.112  13.527  0.0229 -0.3361  0.0419
  140MPD2    C1 2176   3.205   3.210  13.429  0.0997  0.3913  0.0368
  140MPD2    C2 2177   3.324   3.245  13.379  0.2147  0.2123  0.5625
  140MPD2    C3 2178   3.448   3.205  13.434  0.6006  0.3544 -0.4450
  140MPD2    C4 2179   3.444   3.118  13.540 -0.1740 -0.3112  0.1783
  140MPD2    C5 2180   3.322   3.067  13.587  0.2583  0.2931  0.9321
  140MPD2     H 2181   3.332   3.329  13.311  0.3436 -0.3907 -0.1555
  140MPD2    H1 2182   3.532   3.071  13.583 -0.1597 -0.0900  0.3873
  140MPD2    H2 2183   3.109   3.075  13.568 -0.8319  1.0653 -0.6607
  140MPD2    H3 2184   3.324   2.981  13.652 -1.6019 -0.4088  0.0398
  140MPD2     N 2185   3.566   3.254  13.378  0.0682  0.3283 -0.1632
  140MPD2    H5 2186   3.556   3.320  13.301 -2.1160  1.1871  0.8504
  140MPD2    N1 2187   3.084   3.262  13.382  0.1592  0.2108  1.0082
  140MPD2    H7 2188   2.997   3.232  13.425 -0.5440  0.3278 -0.3429
  141TMC2    C1 2189   4.228   4.513  14.559  0.4555 -0.4664  0.0433
  141TMC2    C2 2190   4.112   4.570  14.609  0.1470  0.0421 -0.2323
  141TMC2    C3 2191   4.128   4.666  14.714  0.0141  0.3541  0.3774
  141TMC2    C4 2192   4.342   4.546  14.605  0.5312 -0.0712 -0.1205
  141TMC2    C5 2193   4.350   4.636  14.714  0.0675  0.2307  0.0380
  141TMC2    C6 2194   4.247   4.705  14.770 -0.5847 -0.2710  0.5020
  141TMC2     C 2195   4.226   4.443  14.429  0.3447  0.0973  0.7007
  141TMC2     O 2196   4.299   4.345  14.404  0.2854 -0.1376  0.6211
  141TMC2     H 2197   4.013   4.548  14.572 -0.3856  2.9847 -0.5878
  141TMC2    H1 2198   4.428   4.485  14.582 -0.2507  0.2855 -3.9410
  141TMC2    H2 2199   4.256   0.032  14.856  1.0417 -0.5695  0.5600
  141TMC2    C7 2200   4.478   4.705  14.728  0.1921  0.7423  0.0740
  141TMC2    C8 2201   4.008   4.710  14.773 -0.2912  0.9879  0.5713
  141TMC2    O1 2202   4.553   4.682  14.636 -0.0200 -0.4938 -0.4010
  141TMC2    O2 2203   3.926   4.633  14.813 -0.2389 -0.3062  0.4186
  141TMC2    O5 2204   4.008   0.106  14.779 -0.8241  0.1718 -0.3207
  141TMC2    H5 2205   4.086   0.143  14.732 -0.6959 -0.1604 -0.3674
  142TMC2    C1 2206   2.403   3.176  10.002  0.6560 -0.5342  0.1178
  142TMC2    C2 2207   2.422   3.130   9.876  0.4162 -0.3498  0.2912
  142TMC2    C3 2208   2.508   3.195   9.791 -0.0253 -0.0433  0.0026
  142TMC2    C4 2209   2.478   3.285  10.051  0.3706  1.0399  0.3879
  142TMC2    C5 2210   2.568   3.338   9.969  0.2409  0.9066 -0.6273
  142TMC2    C6 2211   2.591   3.291   9.837 -0.2070 -0.2186  0.0781
  142TMC2     C 2212   2.287   3.134  10.075 -0.1493 -0.4211 -0.3548
  142TMC2     O 2213   2.242   3.023  10.053 -0.3347  0.4758 -0.2366
  142TMC2     H 2214   2.376   3.035   9.850 -0.9563  0.4562 -0.2307
  142TMC2    H1 2215   2.473   3.320  10.153  0.5836 -2.6984  1.6512
  142TMC2    H2 2216   2.670   3.328   9.772 -0.5575  0.5334  0.0905
  142TMC2    C7 2217   2.596   3.471   9.999 -0.5178 -0.6793  0.5951
  142TMC2    C8 2218   2.567   3.123   9.688  0.6419  0.8914 -0.7966
  142TMC2    O1 2219   2.590   3.491  10.118  0.2051 -0.2735 -0.6846
  142TMC2    O2 2220   2.621   3.017   9.703  0.2612  0.4849 -0.2948
  142TMC2    O5 2221   2.573   3.219   9.581  0.1377  0.0927  0.5775
  142TMC2    H5 2222   2.499   3.283   9.593 -0.3468 -0.4706  0.6178
  143MPD2     C 2223   1.997   3.213  10.494 -0.4991 -0.2027 -0.2248
  143MPD2    C1 2224   2.038   3.092  10.433  0.2562  0.1678 -0.3221
  143MPD2    C2 2225   2.122   3.090  10.321 -0.5922  0.7688 -0.2251
  143MPD2    C3 2226   2.152   3.212  10.269  0.9696 -0.5044 -1.4886
  143MPD2    C4 2227   2.118   3.332  10.328  0.0903 -0.7110 -0.3126
  143MPD2    C5 2228   2.047   3.328  10.441  0.5252 -0.4497  0.4437
  143MPD2     H 2229   2.168   3.004  10.274  0.5146  0.3742  1.5889
  143MPD2    H1 2230   2.151   3.424  10.282  0.0359 -1.9695 -2.9099
  143MPD2    H2 2231   1.938   3.221  10.584  1.3509  1.0690  0.8573
  143MPD2    H3 2232   2.021   3.423  10.486 -2.6586 -0.6679 -0.9703
  143MPD2     N 2233   2.250   3.227  10.169  0.4286  0.3774 -0.3706
  143MPD2    H5 2234   2.291   3.319  10.158  0.2944  0.7139  1.7651
  143MPD2    N1 2235   2.001   2.966  10.494  0.5895  0.0741 -0.2578
  143MPD2    H7 2236   1.930   2.971  10.566  0.9460  1.4614 -0.0089
  144TMC2    C1 2237   4.047   3.645   0.701 -0.0878 -0.4663 -0.1281
  144TMC2    C2 2238   4.143   3.687   0.610  0.8943 -0.3982  0.1623
  144TMC2    C3 2239   4.273   3.668   0.648 -1.3907 -0.2770  0.2666
  144TMC2    C4 2240   4.082   3.589   0.825  0.7622 -0.5455 -0.2904
  144TMC2    C5 2241   4.216   3.596   0.857  0.1534 -0.0030 -1.1014
  144TMC2    C6 2242   4.319   3.626   0.768  0.0719 -0.5243 -0.0322
  144TMC2     C 2243   3.920   3.586   0.648  0.4500  0.1932  0.4130
  144TMC2     O 2244   3.865   3.490   0.698  0.3863 -0.2886  0.2784
  144TMC2     H 2245   4.116   3.724   0.512  1.5529 -0.0328  0.1193
  144TMC2    H1 2246   4.010   3.551   0.896  0.7292  1.3081  0.6758
  144TMC2    H2 2247   4.423   3.638   0.795 -0.2362  0.6438  0.6255
  144TMC2    C7 2248   4.262   3.575   0.997  0.3046  0.1554  0.4518
  144TMC2    C8 2249   4.373   3.735   0.570 -0.3851 -0.3950  0.2428
  144TMC2    O1 2250   4.369   3.517   1.011 -0.2079  0.0666 -0.4969
  144TMC2    O2 2251   4.479   3.774   0.615 -0.0160  0.9763 -0.6705
  144TMC2    O5 2252   4.349   3.690   0.445  0.1270 -0.3522 -0.0159
  144TMC2    H5 2253   4.283   3.618   0.453  1.2223 -1.4741 -1.0640
  145MPD2     C 2254   3.576   3.514   0.273 -0.4700  0.6653 -0.5210
  145MPD2    C1 2255   3.584   3.459   0.399  0.0183  0.2243 -0.3430
  145MPD2    C2 2256   3.672   3.508   0.490  0.6594  0.2994  0.2164
  145MPD2    C3 2257   3.762   3.605   0.454 -0.5895  0.3641  0.7222
  145MPD2    C4 2258   3.760   3.659   0.326 -0.0261  0.0302 -0.3902
  145MPD2    C5 2259   3.666   3.610   0.232 -0.3639 -0.1248 -0.2799
  145MPD2     H 2260   3.667   3.474   0.593  2.0198  1.1661  0.5715
  145MPD2    H1 2261   3.829   3.732   0.286  1.0277 -0.1207  1.1836
  145MPD2    H2 2262   3.495   3.482   0.208 -1.3922  0.2135  0.8454
  145MPD2    H3 2263   3.651   3.657   0.135 -0.6161  0.0694 -0.1474
  145MPD2     N 2264   3.874   3.648   0.535  0.2366  0.2352  0.5034
  145MPD2    H5 2265   3.924   3.729   0.501 -0.8234 -0.1821 -2.1036
  145MPD2    N1 2266   3.492   3.360   0.445 -0.3074 -0.2660  0.0805
  145MPD2    H7 2267   3.503   3.321   0.538 -1.0188 -1.8520 -0.5048
  146TMC2    C1 2268   0.421   1.473  12.706 -0.0501 -0.5760  0.1280
  146TMC2    C2 2269   0.285   1.472  12.684  0.2105  0.0555  0.2402
  146TMC2    C3 2270   0.229   1.366  12.615  0.1256  0.0464 -0.6639
  146TMC2    C4 2271   0.497   1.363  12.673 -0.0943  0.3665  0.0081
  146TMC2    C5 2272   0.447   1.257  12.613  0.5157  0.4682  0.2970
  146TMC2    C6 2273   0.307   1.255  12.587 -0.0605 -0.2388 -0.8239
  146TMC2     C 2274   0.461   1.567  12.803 -0.1726 -0.0951  0.3608
  146TMC2     O 2275   0.438   1.683  12.774 -0.0518  0.7457 -0.5969
  146TMC2     H 2276   0.222   1.556  12.713  0.4445  0.5568 -0.6978
  146TMC2    H1 2277   0.602   1.369  12.699  0.3540  0.2978 -1.8274
  146TMC2    H2 2278   0.266   1.171  12.532  0.5258 -2.6631  2.4135
  146TMC2    C7 2279   0.517   1.135  12.569 -0.3838 -0.2904  0.2231
  146TMC2    C8 2280   0.095   1.368  12.561 -0.2616  0.1056  0.3313
  146TMC2    O1 2281   0.475   1.065  12.476 -0.2976  0.1314  0.0456
  146TMC2    O2 2282   4.730   1.410  12.611  0.0753  0.4602  0.1395
  146TMC2    O5 2283   0.098   1.321  12.434  0.1711 -0.9344  0.2468
  146TMC2    H5 2284   0.184   1.304  12.392 -0.5532 -1.7682 -0.8750
  147MPD2     C 2285   0.913   0.800  12.603 -0.3017 -0.3202 -0.2679
  147MPD2    C1 2286   0.938   0.912  12.676  0.1555  0.6269  1.5747
  147MPD2    C2 2287   0.847   1.018  12.687 -0.5887 -0.2694  0.2327
  147MPD2    C3 2288   0.722   1.003  12.632 -0.3710  0.5240 -0.1443
  147MPD2    C4 2289   0.692   0.890  12.559  0.1336 -0.0725  0.5625
  147MPD2    C5 2290   0.789   0.796  12.544 -0.3238  0.8358 -0.0250
  147MPD2     H 2291   0.870   1.101  12.753  1.4815 -0.0977 -0.7188
  147MPD2    H1 2292   0.596   0.868  12.514  0.6027 -1.4164  0.2247
  147MPD2    H2 2293   0.985   0.722  12.582 -0.2211 -0.3254  0.0178
  147MPD2    H3 2294   0.771   0.706  12.486  0.9965  0.2341  0.4885
  147MPD2     N 2295   0.629   1.103  12.646 -0.9909  0.0578  0.6664
  147MPD2    H5 2296   0.656   1.168  12.719 -1.2374 -0.6840  1.4087
  147MPD2    N1 2297   1.063   0.911  12.740 -0.4009 -0.0580  0.6957
  147MPD2    H7 2298   1.117   0.825  12.745  1.0842  0.6882 -2.8682
  148TMC2    C1 2299   1.151   0.037  10.957 -0.3783 -1.2201  0.0076
  148TMC2    C2 2300   1.209   0.154  10.992  0.1751  0.5372 -0.0162
  148TMC2    C3 2301   1.325   0.140  11.061  0.3760  0.0358 -0.0471
  148TMC2    C4 2302   1.192   4.654  11.004 -0.5191  0.1708 -0.1449
  148TMC2    C5 2303   1.303   4.648  11.078  0.0339  0.2845  0.7897
  148TMC2    C6 2304   1.373   0.021  11.103 -0.4446  0.2066  0.5371
  148TMC2     C 2305   1.040   0.043  10.861 -0.2917  0.0100 -0.2221
  148TMC2     O 2306   0.997   0.156  10.841 -0.2082 -0.5423  0.4732
  148TMC2     H 2307   1.170   0.249  10.957 -0.0439  0.0798 -0.9965
  148TMC2    H1 2308   1.126   4.568  11.002 -0.5231  0.1707 -0.0312
  148TMC2    H2 2309   1.467   0.014  11.156  0.5079 -0.8570 -1.2681
  148TMC2    C7 2310   1.384   4.531  11.065  1.1178  0.4232 -0.1479
  148TMC2    C8 2311   1.377   0.251  11.140 -0.0261  0.5140  0.5941
  148TMC2    O1 2312   1.498   4.549  11.024 -0.1115 -0.0721 -0.0049
  148TMC2    O2 2313   1.495   0.248  11.182 -0.3186 -0.0495  0.2357
  148TMC2    O5 2314   1.274   0.307  11.201  0.2416 -0.3137 -0.1874
  148TMC2    H5 2315   1.185   0.283  11.166  0.6585 -1.5779 -0.3975
  149MPD2     C 2316   0.809   4.731  10.679  1.0343 -0.1747 -0.4851
  149MPD2    C1 2317   0.909   4.638  10.698  0.0606  0.2022  0.5392
  149MPD2    C2 2318   0.899   4.519  10.638  0.1640  0.6600 -0.5880
  149MPD2    C3 2319   0.800   4.493  10.544  0.1297  0.0577  0.8902
  149MPD2    C4 2320   0.703   4.588  10.520  0.2622  0.1581  0.5167
  149MPD2    C5 2321   0.710   4.706  10.585 -0.3581 -0.4259 -0.3600
  149MPD2     H 2322   0.972   4.443  10.661 -0.8909 -0.1455  0.0582
  149MPD2    H1 2323   0.620   4.571  10.452  2.6536  0.6109 -2.4794
  149MPD2    H2 2324   0.807   0.088  10.734 -0.3000 -0.1915 -0.5031
  149MPD2    H3 2325   0.640   0.049  10.563  0.5434  0.7625  1.1426
  149MPD2     N 2326   0.796   4.364  10.479  0.4863  0.4888  0.4130
  149MPD2    H5 2327   0.748   4.351  10.391  1.3183 -0.0229  0.0483
  149MPD2    N1 2328   1.011   4.663  10.799  0.2492 -0.1964 -0.4626
  149MPD2    H7 2329   1.077   4.587  10.807 -1.3630 -1.5893 -0.2800
  150TMC2    C1 2330   2.791   4.221  12.076 -0.2936  0.3418  0.2203
  150TMC2    C2 2331   2.860   4.130  12.004 -0.0628  0.7317 -0.0056
  150TMC2    C3 2332   2.992   4.129  12.029  0.3835  0.0602  0.2843
  150TMC2    C4 2333   2.847   4.307  12.167 -0.5449 -0.0770  0.3668
  150TMC2    C5 2334   2.984   4.310  12.177  0.1363 -0.0964 -0.0436
  150TMC2    C6 2335   3.057   4.219  12.113 -0.0932 -0.2713  1.2385
  150TMC2     C 2336   2.647   4.237  12.071 -0.0126  0.2464  0.5808
  150TMC2     O 2337   2.599   4.331  12.131 -0.5370  0.4784 -0.3603
  150TMC2     H 2338   2.820   4.068  11.924  2.2835 -2.0495  1.0023
  150TMC2    H1 2339   2.795   4.381  12.226 -0.7493  0.7058 -0.8066
  150TMC2    H2 2340   3.165   4.220  12.106 -0.1619  0.6599  0.3229
  150TMC2    C7 2341   3.037   4.369  12.302 -0.2285 -0.0151 -0.1200
  150TMC2    C8 2342   3.078   4.044  11.936  0.6078 -0.5633 -0.3352
  150TMC2    O1 2343   2.983   4.462  12.355  0.0869 -0.3350 -0.4101
  150TMC2    O2 2344   3.070   4.050  11.816  0.8450  0.1603 -0.2848
  150TMC2    O5 2345   3.186   4.014  12.002 -0.8576 -0.3600  0.1393
  150TMC2    H5 2346   3.179   4.003  12.099 -1.0742 -3.4628 -0.2322
  151MPD2     C 2347   2.192   4.075  11.886  0.2550  0.9094  0.4782
  151MPD2    C1 2348   2.293   3.978  11.864 -0.5487  0.0333  0.1917
  151MPD2    C2 2349   2.423   4.009  11.905 -0.4898  0.1621 -0.3794
  151MPD2    C3 2350   2.455   4.116  11.983  0.4504  0.1306 -0.2678
  151MPD2    C4 2351   2.352   4.202  12.015 -0.1251  0.9634  0.5336
  151MPD2    C5 2352   2.224   4.188  11.954  0.8089 -0.1397  0.3672
  151MPD2     H 2353   2.502   3.938  11.885 -0.0352  0.8514 -1.0491
  151MPD2    H1 2354   2.367   4.292  12.074 -1.9508 -0.0868  2.5693
  151MPD2    H2 2355   2.092   4.060  11.848 -0.6430 -0.2864  3.3026
  151MPD2    H3 2356   2.143   4.253  11.985 -0.8700 -1.5391 -1.1266
  151MPD2     N 2357   2.592   4.128  12.009  0.8466  0.0696  0.3292
  151MPD2    H5 2358   2.654   4.052  11.982  1.3785  0.7869 -0.4506
  151MPD2    N1 2359   2.250   3.862  11.804 -0.7988 -0.0941 -0.5192
  151MPD2    H7 2360   2.149   3.848  11.798 -0.5423 -1.8362 -0.8546
  152TMC2    C1 2361   2.903   3.907  12.508  0.3320  0.4124  0.1899
  152TMC2    C2 2362   2.999   3.896  12.411 -0.1729 -0.6554 -0.4658
  152TMC2    C3 2363   3.126   3.908  12.451 -0.1190  0.8838 -0.5637
  152TMC2    C4 2364   2.935   3.937  12.643 -0.2153  0.5506  0.0685
  152TMC2    C5 2365   3.064   3.961  12.674 -0.3457  0.2114  0.2720
  152TMC2    C6 2366   3.159   3.938  12.578  0.2329 -0.7583  0.0219
  152TMC2     C 2367   2.758   3.900  12.474 -0.5058  1.4887 -0.0977
  152TMC2     O 2368   2.680   3.955  12.558  0.0431  0.0518 -0.4319
  152TMC2     H 2369   2.980   3.881  12.305 -0.9824  0.5044 -0.4914
  152TMC2    H1 2370   2.851   3.934  12.711 -0.3133  0.7844 -0.0414
  152TMC2    H2 2371   3.263   3.949  12.606  0.2746  1.0952 -0.8987
  152TMC2    C7 2372   3.098   4.019  12.808 -0.4937  0.5098  0.1310
  152TMC2    C8 2373   3.223   3.896  12.347  0.5528 -0.1831  0.4736
  152TMC2    O1 2374   3.000   4.043  12.870 -0.7111  0.5041  0.4755
  152TMC2    O2 2375   3.196   3.949  12.241  0.1564  0.5121  1.1566
  152TMC2    O5 2376   3.346   3.882  12.406  0.1387 -0.2265  0.2088
  152TMC2    H5 2377   3.343   3.820  12.481 -0.1238 -0.7963 -0.2741
  153MPD2     C 2378   2.578   3.714  12.211  0.2436  0.3864  0.3196
  153MPD2    C1 2379   2.602   3.810  12.306  0.1020  0.0747  0.0134
  153MPD2    C2 2380   2.494   3.887  12.347  0.1496 -0.1273 -0.5101
  153MPD2    C3 2381   2.365   3.871  12.292  0.4672  0.8992 -0.5328
  153MPD2    C4 2382   2.349   3.784  12.188 -0.5474  0.7620 -0.1931
  153MPD2    C5 2383   2.452   3.706  12.149 -0.1926 -0.0877 -0.4958
  153MPD2     H 2384   2.499   3.967  12.420  1.0755 -0.4009 -0.2727
  153MPD2    H1 2385   2.251   3.768  12.145  1.3849  0.1201 -4.4154
  153MPD2    H2 2386   2.659   3.651  12.177 -0.4942 -0.1669 -0.4092
  153MPD2    H3 2387   2.436   3.638  12.066 -0.9372 -1.5140  0.8156
  153MPD2     N 2388   2.264   3.944  12.352  0.1912  0.5864 -0.0375
  153MPD2    H5 2389   2.289   4.009  12.426 -0.7682  2.1533 -1.0928
  153MPD2    N1 2390   2.731   3.816  12.369  0.1128  0.2131 -0.0390
  153MPD2    H7 2391   2.803   3.765  12.319  3.3106  2.9993  1.7359
  154TMC2    C1 2392   4.310   0.032   1.476 -0.1685 -0.1563  0.2350
  154TMC2    C2 2393   4.375   0.080   1.589  0.2479 -0.4010 -0.2854
  154TMC2    C3 2394   4.479   0.006   1.632 -0.0786 -0.2253  1.2787
  154TMC2    C4 2395   4.342   4.654   1.407 -0.4704  0.0755 -0.2817
  154TMC2    C5 2396   4.453   4.587   1.455 -0.0281 -0.5581  0.0050
  154TMC2    C6 2397   4.520   4.628   1.566  0.5105  0.1632 -0.2978
  154TMC2     C 2398   4.181   0.084   1.452  0.0092 -0.0948  0.2206
  154TMC2     O 2399   4.121   0.132   1.544  0.0138 -0.2503  0.3125
  154TMC2     H 2400   4.355   0.173   1.640  1.5738 -0.4043  0.2395
  154TMC2    H1 2401   4.273   4.610   1.336  0.7161 -2.1846 -0.0207
  154TMC2    H2 2402   4.605   4.568   1.596  1.4215  0.4495 -2.2950
  154TMC2    C7 2403   4.508   4.472   1.389 -0.0434  0.6118  0.1083
  154TMC2    C8 2404   4.540   0.040   1.752 -0.2631  0.2622 -0.2294
  154TMC2    O1 2405   4.532   4.376   1.462  0.1898  0.3450  0.2839
  154TMC2    O2 2406   4.485   0.087   1.851 -0.1123  0.5224  0.1560
  154TMC2    O5 2407   4.672   0.026   1.737  0.2700 -0.2682 -0.1630
  154TMC2    H5 2408   4.706   4.718   1.657 -0.9935  0.2734 -1.0084
  155MPD2     C 2409   3.981   0.115   1.136  0.3983 -0.9881  0.3267
  155MPD2    C1 2410   4.005   0.115   1.278 -0.4352 -0.1342  0.1510
  155MPD2    C2 2411   3.902   0.158   1.356 -0.3392  0.7564 -0.9936
  155MPD2    C3 2412   3.780   0.196   1.308  0.1800 -0.2143  0.2247
  155MPD2    C4 2413   3.758   0.195   1.166  0.5297 -0.0857 -1.3022
  155MPD2    C5 2414   3.860   0.151   1.086  0.7509 -0.1165 -0.2893
  155MPD2     H 2415   3.909   0.138   1.463 -1.7534  0.9726 -0.8482
  155MPD2    H1 2416   3.665   0.227   1.120  1.7049  1.4742 -2.5448
  155MPD2    H2 2417   4.060   0.087   1.067 -0.0752 -1.7382  0.1002
  155MPD2    H3 2418   3.844   0.146   0.978  1.1869 -0.6298 -0.3309
  155MPD2     N 2419   3.690   0.239   1.406  0.0617 -0.2630 -0.4376
  155MPD2    H5 2420   3.724   0.238   1.502 -1.1270 -2.1412 -0.0441
  155MPD2    N1 2421   4.139   0.081   1.317 -0.7124 -0.3790 -0.3267
  155MPD2    H7 2422   4.204   0.050   1.246  0.1844  2.0232 -0.5527
  156TMC2    C1 2423   3.245   0.947  11.813  0.1420  0.3147 -0.7391
  156TMC2    C2 2424   3.366   1.006  11.799 -0.9341 -0.0790 -0.3896
  156TMC2    C3 2425   3.390   1.087  11.693  1.0066 -0.1763  0.0862
  156TMC2    C4 2426   3.146   0.955  11.716  0.6271  0.7284 -0.0323
  156TMC2    C5 2427   3.173   1.033  11.603 -0.2868  0.4687  0.2207
  156TMC2    C6 2428   3.299   1.097  11.596  1.0064 -0.8698 -0.6578
  156TMC2     C 2429   3.185   0.957  11.944  0.0514  0.7191  0.4577
  156TMC2     O 2430   3.068   0.988  11.941 -0.0977  0.5600  0.0414
  156TMC2     H 2431   3.440   0.994  11.878 -0.3514 -1.4406 -1.1253
  156TMC2    H1 2432   3.050   0.906  11.724  1.5319 -1.0160 -0.0242
  156TMC2    H2 2433   3.327   1.148  11.505 -1.3707  0.9117 -0.3729
  156TMC2    C7 2434   3.078   1.132  11.565 -0.2544 -0.0799 -0.3215
  156TMC2    C8 2435   3.519   1.152  11.662  0.5072  0.5949  1.0656
  156TMC2    O1 2436   3.115   1.220  11.487  0.1149 -0.9384  0.0892
  156TMC2    O2 2437   3.531   1.205  11.554  0.7530  0.0500 -0.2118
  156TMC2    O5 2438   3.606   1.143  11.771  0.1298  0.1736 -0.0975
  156TMC2    H5 2439   3.559   1.109  11.851  1.2888  0.5912  0.7587
  157MPD2     C 2440   3.328   0.949  12.284  0.0060  0.1425 -0.0511
  157MPD2    C1 2441   3.242   0.981  12.187 -0.5952  0.1365  0.2704
  157MPD2    C2 2442   3.130   1.063  12.222  0.6247 -0.3495  0.0904
  157MPD2    C3 2443   3.098   1.089  12.354  0.1155  0.1377  0.5295
  157MPD2    C4 2444   3.186   1.042  12.448  0.5624 -0.3905  0.0518
  157MPD2    C5 2445   3.300   0.976  12.416 -0.5395  0.2013  0.4479
  157MPD2     H 2446   3.085   1.123  12.143 -1.9814 -1.7241  0.5292
  157MPD2    H1 2447   3.162   1.059  12.552  2.4509  0.9278  0.2683
  157MPD2    H2 2448   3.421   0.899  12.259 -0.6103 -1.0925  0.0879
  157MPD2    H3 2449   3.368   0.939  12.492  1.9823  1.3993 -1.2026
  157MPD2     N 2450   2.987   1.162  12.375  0.4120  0.6836  0.2217
  157MPD2    H5 2451   2.933   1.181  12.291  0.4438 -1.2550 -0.2172
  157MPD2    N1 2452   3.269   0.951  12.047  0.2042  0.5173  0.5185
  157MPD2    H7 2453   3.360   0.911  12.026 -0.3773 -0.0080 -1.0357
  158TMC2    C1 2454   3.236   0.369  14.638 -0.6206  0.1891 -0.6981
  158TMC2    C2 2455   3.203   0.483  14.707  0.0607  0.4459 -0.1204
  158TMC2    C3 2456   3.077   0.541  14.685 -0.2711 -0.3628 -0.8278
  158TMC2    C4 2457   3.143   0.303  14.565 -0.5927 -0.2721  0.6505
  158TMC2    C5 2458   3.023   0.372  14.549 -0.5359 -0.4234  0.0603
  158TMC2    C6 2459   2.986   0.485  14.604 -0.6401  0.1485  0.8167
  158TMC2     C 2460   3.375   0.332  14.629 -0.8021 -0.8513  0.4051
  158TMC2     O 2461   3.460   0.420  14.640  0.2918 -0.1148  0.2842
  158TMC2     H 2462   3.275   0.525  14.777  1.0602 -1.9360  0.2526
  158TMC2    H1 2463   3.163   0.220  14.497  1.6902 -1.0273  2.2423
  158TMC2    H2 2464   2.897   0.537  14.572  0.6145  1.5397 -0.3377
  158TMC2    C7 2465   2.949   0.329  14.431  0.3025 -0.1304  0.3910
  158TMC2    C8 2466   3.059   0.684  14.675  0.1927  0.0948 -0.7871
  158TMC2    O1 2467   2.876   0.417  14.385 -0.3746  0.3753 -0.2899
  158TMC2    O2 2468   3.021   0.728  14.567  0.0277  0.2822 -0.3580
  158TMC2    O5 2469   3.042   0.746  14.792  0.0658  0.4068  0.4463
  158TMC2    H5 2470   3.075   0.693  14.867 -0.8765  1.2863  1.4893
  159MPD2     C 2471   3.710   4.699  14.599 -0.2077 -0.1997  0.6740
  159MPD2    C1 2472   3.604   4.635  14.648 -0.0290 -0.1083  0.7260
  159MPD2    C2 2473   3.492   4.712  14.650 -0.5244 -0.5343  0.2001
  159MPD2    C3 2474   3.495   0.112  14.614 -0.4539  0.4078  0.0463
  159MPD2    C4 2475   3.605   0.166  14.554  0.3821  0.2273 -0.2598
  159MPD2    C5 2476   3.714   0.088  14.546 -0.0970 -0.7264  0.4247
  159MPD2     H 2477   3.398   4.674  14.690 -1.9405  2.2335 -0.4847
  159MPD2    H1 2478   3.621   0.270  14.529  2.6827 -0.0285  0.1465
  159MPD2    H2 2479   3.809   4.654  14.594  0.5337  1.3127  1.8907
  159MPD2    H3 2480   3.806   0.137  14.516 -0.6859  0.4641  0.5554
  159MPD2     N 2481   3.380   0.193  14.639 -0.5466 -1.1323 -0.3648
  159MPD2    H5 2482   3.296   0.143  14.668 -1.9396 -0.3810 -3.0860
  159MPD2    N1 2483   3.592   4.501  14.682 -0.6497  0.2191 -0.4067
  159MPD2    H7 2484   3.498   4.473  14.707  0.1799 -0.4875  1.8665
  160TMC2    C1 2485   3.213   3.594   1.539  0.0013  0.3898 -0.0132
  160TMC2    C2 2486   3.306   3.506   1.579  0.5490 -0.1265 -0.3548
  160TMC2    C3 2487   3.418   3.491   1.505  0.8393  0.0556 -0.1948
  160TMC2    C4 2488   3.225   3.670   1.424  0.1063  0.0005 -0.4886
  160TMC2    C5 2489   3.338   3.644   1.350  0.5453  0.1247  0.0938
  160TMC2    C6 2490   3.443   3.559   1.387  0.4251  0.8627  0.0806
  160TMC2     C 2491   3.081   3.577   1.599 -0.1244 -0.0139  0.2774
  160TMC2     O 2492   3.055   3.459   1.637 -0.3331  0.2346 -0.3556
  160TMC2     H 2493   3.285   3.436   1.660 -1.1776 -0.0569 -0.7351
  160TMC2    H1 2494   3.146   3.740   1.399  1.2029  0.8866 -1.5025
  160TMC2    H2 2495   3.522   3.548   1.315 -0.3071  1.0990 -0.7601
  160TMC2    C7 2496   3.374   3.729   1.239 -0.6907  0.2630 -0.5028
  160TMC2    C8 2497   3.497   3.377   1.530  0.6344  0.7543  0.2556
  160TMC2    O1 2498   3.436   3.687   1.143 -0.0300 -0.7308  0.0879
  160TMC2    O2 2499   3.511   3.333   1.642  0.2988  0.2481 -0.7165
  160TMC2    O5 2500   3.465   3.305   1.424  0.3795 -0.3096 -0.5628
  160TMC2    H5 2501   3.431   3.357   1.348  0.4686  2.1546  1.1046
  161MPD2     C 2502   2.789   3.557   1.589 -0.1054  1.2915  0.4284
  161MPD2    C1 2503   2.860   3.681   1.575  0.2796  0.2776  0.1633
  161MPD2    C2 2504   2.795   3.803   1.565 -0.5837  0.0379  0.3827
  161MPD2    C3 2505   2.653   3.799   1.571  0.0777  0.1503 -0.0938
  161MPD2    C4 2506   2.587   3.682   1.586  0.3115  0.4479 -0.1750
  161MPD2    C5 2507   2.653   3.562   1.590  0.2216 -0.0743 -0.3671
  161MPD2     H 2508   2.847   3.897   1.545  0.5553 -0.6218  0.2172
  161MPD2    H1 2509   2.479   3.683   1.587  0.2983 -1.3797  0.8908
  161MPD2    H2 2510   2.838   3.460   1.586 -0.2817  1.1365  2.5384
  161MPD2    H3 2511   2.597   3.469   1.580 -4.2236  2.4304  1.3612
  161MPD2     N 2512   2.576   3.907   1.529 -0.2801 -0.1330  0.2570
  161MPD2    H5 2513   2.476   3.895   1.535 -0.3047 -0.8090 -1.4517
  161MPD2    N1 2514   2.998   3.685   1.574  0.0972  0.1530  0.0613
  161MPD2    H7 2515   3.046   3.772   1.555 -0.4935  0.4217 -0.1969
  162TMC2    C1 2516   1.017   0.878   1.417  0.4279 -0.5639  0.3235
  162TMC2    C2 2517   0.908   0.895   1.500 -0.3937  0.1927 -0.8399
  162TMC2    C3 2518   0.930   0.930   1.632 -0.3717 -0.5629 -1.0078
  162TMC2    C4 2519   1.142   0.863   1.466  0.4259  0.5267  0.2418
  162TMC2    C5 2520   1.158   0.886   1.603  0.4584  0.5289  0.0796
  162TMC2    C6 2521   1.056   0.922   1.687 -0.7410 -0.0971 -0.6868
  162TMC2     C 2522   1.002   0.838   1.277  0.1369 -0.0050 -0.4777
  162TMC2     O 2523   1.106   0.807   1.221 -0.1582 -0.2829 -0.3854
  162TMC2     H 2524   0.804   0.897   1.467 -0.8350 -0.7077  0.4844
  162TMC2    H1 2525   1.231   0.832   1.413 -0.7356 -2.1652 -0.1050
  162TMC2    H2 2526   1.087   0.949   1.787 -2.0123 -1.8592  0.1870
  162TMC2    C7 2527   1.285   0.848   1.660  0.3008  0.5490 -0.0153
  162TMC2    C8 2528   0.823   0.902   1.720 -0.3085  0.2285  0.7045
  162TMC2    O1 2529   1.349   0.929   1.723  0.1914  0.1331  0.2672
  162TMC2    O2 2530   0.739   0.818   1.696  0.3919 -0.1199 -0.2036
  162TMC2    O5 2531   0.835   0.981   1.825 -0.4753 -0.0759 -0.2684
  162TMC2    H5 2532   0.922   1.026   1.826  0.0552 -1.0865 -1.0556
  163MPD2     C 2533   0.735   0.788   0.853  0.2008  0.3176  0.3420
  163MPD2    C1 2534   0.838   0.706   0.900 -0.4524 -0.3102  0.1026
  163MPD2    C2 2535   0.889   0.729   1.029 -0.2563 -0.3450  0.9488
  163MPD2    C3 2536   0.835   0.838   1.099 -0.1879 -0.0682 -0.5437
  163MPD2    C4 2537   0.734   0.916   1.046 -0.1870 -0.7009  0.1279
  163MPD2    C5 2538   0.678   0.889   0.928  0.6884 -0.0283  0.0172
  163MPD2     H 2539   0.959   0.658   1.070 -0.0628 -0.6233  0.1293
  163MPD2    H1 2540   0.695   0.985   1.120  1.8239 -0.1290  0.6690
  163MPD2    H2 2541   0.704   0.769   0.751  0.0179 -0.9279  0.6323
  163MPD2    H3 2542   0.604   0.957   0.888  1.3163  1.6021  1.6585
  163MPD2     N 2543   0.875   0.868   1.236  0.7050  0.1849  0.0515
  163MPD2    H5 2544   0.812   0.912   1.302  0.6800 -0.2169  0.2945
  163MPD2    N1 2545   0.884   0.593   0.822 -0.2666 -0.2819  0.0532
  163MPD2    H7 2546   0.841   0.569   0.733  1.5670 -2.2512 -0.3041
  164TMC2    C1 2547   1.744   4.117  11.198  0.4612  0.4487 -0.3503
  164TMC2    C2 2548   1.806   4.190  11.102 -0.6530  0.5138  0.0128
  164TMC2    C3 2549   1.778   4.321  11.098 -0.4466 -0.7790  0.3692
  164TMC2    C4 2550   1.674   4.171  11.300 -0.1401  0.8517 -0.0072
  164TMC2    C5 2551   1.651   4.306  11.293 -0.1407  0.2224 -0.5873
  164TMC2    C6 2552   1.700   4.390  11.190  0.0790 -0.2075 -0.1051
  164TMC2     C 2553   1.761   3.973  11.208 -0.3889 -0.2079 -0.5793
  164TMC2     O 2554   1.676   3.908  11.269  0.7734  0.1424  0.5632
  164TMC2     H 2555   1.864   4.146  11.021 -1.6244  1.8134 -1.4066
  164TMC2    H1 2556   1.622   4.104  11.367 -0.2464  1.1526  0.2101
  164TMC2    H2 2557   1.667   4.493  11.184  0.4828 -0.1212 -0.9564
  164TMC2    C7 2558   1.544   4.362  11.374  0.6375  0.0148 -0.7343
  164TMC2    C8 2559   1.844   4.399  11.000 -0.4753 -0.4556  0.3524
  164TMC2    O1 2560   1.448   4.300  11.421  0.6607  0.2071 -0.2391
  164TMC2    O2 2561   1.953   4.367  10.953 -0.1168 -0.1775 -0.1788
  164TMC2    O5 2562   1.766   4.498  10.956 -0.1244  0.0938 -0.2053
  164TMC2    H5 2563   1.684   4.505  11.010 -0.8891 -2.3670 -1.0742
  165TMC2    C1 2564   2.774   2.899   1.409  1.2805 -0.5947 -0.2878
  165TMC2    C2 2565   2.651   2.876   1.344  0.0015 -0.8177 -0.0385
  165TMC2    C3 2566   2.635   2.925   1.218  0.1640 -0.3512 -0.0310
  165TMC2    C4 2567   2.876   2.967   1.348 -0.6317 -0.0136  0.3262
  165TMC2    C5 2568   2.852   3.017   1.224  0.4251 -1.0446 -0.4428
  165TMC2    C6 2569   2.726   3.004   1.160  0.0662 -0.4183 -0.0383
  165TMC2     C 2570   2.811   2.830   1.532 -0.8017  0.0754 -0.2160
  165TMC2     O 2571   2.929   2.806   1.550 -0.4419 -0.7217 -0.3657
  165TMC2     H 2572   2.573   2.818   1.391  1.0378 -4.4944 -2.7731
  165TMC2    H1 2573   2.972   2.984   1.396 -0.0854 -0.4777 -0.6012
  165TMC2    H2 2574   2.716   3.042   1.059 -1.8452 -0.6443  0.0834
  165TMC2    C7 2575   2.956   3.087   1.155 -0.5079  0.2321  0.1040
  165TMC2    C8 2576   2.510   2.896   1.150  0.8570  0.1375 -0.4365
  165TMC2    O1 2577   3.026   3.164   1.213 -0.0967  0.0182  0.1360
  165TMC2    O2 2578   2.455   2.957   1.059  0.3842  0.2484 -0.2205
  165TMC2    O5 2579   2.485   2.767   1.178  0.6158  0.0421  0.2461
  165TMC2    H5 2580   2.560   2.717   1.217  0.5125 -1.5939 -1.6488
  166MPD2     C 2581   2.697   2.498   1.910  0.3520 -0.9615  0.5186
  166MPD2    C1 2582   2.811   2.511   1.833 -0.7231  0.1531  0.6691
  166MPD2    C2 2583   2.813   2.615   1.740  0.2175  0.0037  0.1708
  166MPD2    C3 2584   2.703   2.696   1.712 -0.0802  0.1928  0.0317
  166MPD2    C4 2585   2.593   2.678   1.783 -0.0179 -0.0127  0.2413
  166MPD2    C5 2586   2.594   2.581   1.882 -0.8633 -0.6660  0.8657
  166MPD2     H 2587   2.908   2.633   1.690 -0.7748  1.0793 -1.3219
  166MPD2    H1 2588   2.507   2.739   1.756 -0.8556 -1.1022  0.4104
  166MPD2    H2 2589   2.684   2.423   1.987  2.5779 -1.8532  0.0130
  166MPD2    H3 2590   2.505   2.562   1.940 -0.8261  0.9137  1.4389
  166MPD2     N 2591   2.704   2.790   1.609  0.4195  0.1318  0.1476
  166MPD2    H5 2592   2.619   2.842   1.591 -0.7738 -2.3617 -1.4361
  166MPD2    N1 2593   2.921   2.423   1.837  0.1863  0.3504  0.0575
  166MPD2    H7 2594   2.984   2.431   1.758 -1.8564  1.4368 -1.4720
  167TMC2    C1 2595   1.575   0.626  12.739 -0.0480 -0.3837  0.1460
  167TMC2    C2 2596   1.640   0.669  12.858 -0.3249  0.0409  0.3639
  167TMC2    C3 2597   1.660   0.568  12.953 -1.0606 -0.0060  0.0061
  167TMC2    C4 2598   1.556   0.498  12.710 -0.5794  0.1395  0.7143
  167TMC2    C5 2599   1.571   0.403  12.811  0.0281  0.4970  0.3569
  167TMC2    C6 2600   1.644   0.433  12.926 -0.9376 -0.8593  0.1103
  167TMC2     C 2601   1.508   0.728  12.669  0.1528 -0.0710 -0.0296
  167TMC2     O 2602   1.539   0.845  12.690 -0.0481  0.4285  0.3716
  167TMC2     H 2603   1.651   0.770  12.893  0.0739 -0.8905  2.9030
  167TMC2    H1 2604   1.510   0.467  12.617  1.2262  1.3969 -0.5725
  167TMC2    H2 2605   1.681   0.351  12.987 -0.2111 -1.9357 -1.7760
  167TMC2    C7 2606   1.551   0.267  12.765  0.2306 -0.2180  0.3325
  167TMC2    C8 2607   1.714   0.612  13.082 -0.0357  0.9334  0.9131
  167TMC2    O1 2608   1.574   0.238  12.646 -0.2877 -0.3169  0.3100
  167TMC2    O2 2609   1.772   0.716  13.111  0.2129  0.1332  0.1544
  167TMC2    O5 2610   1.657   0.524  13.168  0.3335 -0.2026  0.0578
  167TMC2    H5 2611   1.593   0.463  13.126 -0.1759  0.9596 -0.8641
  168MPD2     C 2612   1.302   0.893  12.520 -0.3413  0.6992  1.2837
  168MPD2    C1 2613   1.314   0.759  12.511  0.0952  0.4431 -0.5618
  168MPD2    C2 2614   1.233   0.682  12.431 -0.0141 -0.2140  0.2111
  168MPD2    C3 2615   1.138   0.740  12.346  0.4569  0.5177 -0.1620
  168MPD2    C4 2616   1.129   0.875  12.355  0.0788 -0.4166 -0.5762
  168MPD2    C5 2617   1.206   0.949  12.440  0.1296  0.3372  0.1627
  168MPD2     H 2618   1.253   0.575  12.429  1.0845 -0.0352  1.8702
  168MPD2    H1 2619   1.069   0.932  12.285  0.5888  2.0939  1.0144
  168MPD2    H2 2620   1.365   0.955  12.583  1.4328 -1.8826  2.0367
  168MPD2    H3 2621   1.204   1.057  12.427  1.2740  0.0317 -2.5722
  168MPD2     N 2622   1.056   0.666  12.260  0.4126 -0.9225 -0.2625
  168MPD2    H5 2623   0.993   0.720  12.201  1.4182 -0.8773 -1.2939
  168MPD2    N1 2624   1.395   0.682  12.604  0.0346 -0.5872  0.2298
  168MPD2    H7 2625   1.372   0.584  12.612  1.1084 -0.6874  2.0814
  169MPD1     C 2626   2.250   4.089   9.072  0.1334  0.2145  0.2733
  169MPD1    C1 2627   2.319   4.175   9.155 -0.5860  0.0900  1.1039
  169MPD1    C2 2628   2.435   4.135   9.208  0.2584  0.0085 -0.3121
  169MPD1    C3 2629   2.492   4.015   9.181 -0.8868  0.3258  0.3011
  169MPD1    C4 2630   2.418   3.928   9.098 -0.2361 -0.2815  0.3544
  169MPD1    C5 2631   2.302   3.965   9.048  0.2783 -0.0652 -0.1070
  169MPD1     H 2632   2.478   4.205   9.279 -0.9226  1.4710 -1.0492
  169MPD1    H1 2633   2.442   3.823   9.084 -2.7881 -1.2565  3.5156
  169MPD1    H2 2634   2.156   4.112   9.022  0.5663  0.9613 -0.1923
  169MPD1    H3 2635   2.235   3.902   8.991  0.4548 -1.6960  1.4848
  169MPD1     N 2636   2.608   3.975   9.244 -0.0242 -0.3548  0.2677
  169MPD1    H5 2637   2.643   4.043   9.311  2.1530 -0.5391 -0.7040
  169MPD1    N1 2638   2.249   4.285   9.207  0.2861  0.8450 -0.2991
  169MPD1    H6 2639   2.216   4.344   9.131 -0.6494  0.8812  0.1338
  169MPD1    H7 2640   2.322   4.340   9.252 -0.2854 -2.0220  4.0599
  170MPD1     C 2641   2.491   2.542  13.288 -0.9164 -0.4010 -0.9401
  170MPD1    C1 2642   2.389   2.623  13.264  0.4544 -0.1469 -0.2054
  170MPD1    C2 2643   2.287   2.636  13.352 -0.4792 -0.1403  0.6760
  170MPD1    C3 2644   2.301   2.588  13.484 -0.2947 -0.0644 -0.4951
  170MPD1    C4 2645   2.414   2.515  13.509  0.1580  0.2560 -0.4799
  170MPD1    C5 2646   2.501   2.480  13.411  0.1032  0.0215 -0.4846
  170MPD1     H 2647   2.202   2.693  13.317  1.2961  1.4512 -1.0224
  170MPD1    H1 2648   2.440   2.464  13.601 -0.3294 -0.1364 -0.5529
  170MPD1    H2 2649   2.563   2.520  13.210 -0.4571 -2.5793  0.0963
  170MPD1    H3 2650   2.585   2.413  13.428  0.8767  0.1970 -3.5708
  170MPD1     N 2651   2.198   2.606  13.578  0.2056 -0.0200  0.7048
  170MPD1    H5 2652   2.105   2.631  13.545  0.1783 -0.2588  0.5997
  170MPD1    N1 2653   2.368   2.673  13.132 -0.0589 -0.0134 -0.5054
  170MPD1    H6 2654   2.455   2.706  13.090 -0.0868 -0.0247 -0.5720
  170MPD1    H7 2655   2.307   2.755  13.136  0.1434  0.1969 -1.6716
  171MPD1     C 2656   0.195   3.666  15.619 -0.3707 -1.0488 -0.3071
  171MPD1    C1 2657   0.307   3.611  15.557  0.0999  1.1681 -0.4771
  171MPD1    C2 2658   0.379   3.512  15.626  0.6133  0.0237  0.1697
  171MPD1    C3 2659   0.333   3.466  15.752  0.1364  0.4777 -0.0654
  171MPD1    C4 2660   0.230   3.529  15.815 -0.1120  0.2198  0.2358
  171MPD1    C5 2661   0.156   3.623  15.746 -0.1699 -0.5966 -0.7944
  171MPD1     H 2662   0.462   3.455  15.586  0.7315 -0.6498  1.3542
  171MPD1    H1 2663   0.202   3.514  15.919 -0.5506  1.4145  0.2955
  171MPD1    H2 2664   0.117   3.727  15.575 -0.3192 -1.6678 -1.2447
  171MPD1    H3 2665   0.072   3.665  15.800 -0.7120 -0.0185 -2.0879
  171MPD1     N 2666   0.399   3.368  15.822  0.1031 -0.1814 -0.6405
  171MPD1    H5 2667   0.369   3.353  15.918  2.3292  0.4868  0.1696
  171MPD1    N1 2668   0.330   3.641  15.420 -0.2562  0.6193 -0.4044
  171MPD1    H6 2669   0.300   3.734  15.391 -0.3044  1.3131  1.8974
  171MPD1    H7 2670   0.423   3.619  15.383  1.0245  2.3511  1.7743
  172MPD1     C 2671   3.546   2.642   0.780  0.3722  0.0138  0.3255
  172MPD1    C1 2672   3.514   2.777   0.794  0.2600 -0.0755  1.1351
  172MPD1    C2 2673   3.608   2.861   0.743 -0.5481 -0.5389  0.2544
  172MPD1    C3 2674   3.722   2.820   0.664 -0.7214 -0.2375 -0.4499
  172MPD1    C4 2675   3.731   2.688   0.635  0.5817  0.4304  0.3014
  172MPD1    C5 2676   3.653   2.605   0.704  0.1000  0.3212  0.0712
  172MPD1     H 2677   3.595   2.967   0.762  0.7545 -0.2270 -0.6017
  172MPD1    H1 2678   3.807   2.645   0.571  1.4672  0.6721  1.1844
  172MPD1    H2 2679   3.484   2.578   0.841 -1.2966  0.6899 -0.6443
  172MPD1    H3 2680   3.672   2.498   0.696  2.9118  1.1708 -4.2398
  172MPD1     N 2681   3.817   2.906   0.595  0.2598 -0.0525  0.4761
  172MPD1    H5 2682   3.879   2.860   0.528 -1.7795  0.7652 -1.9599
  172MPD1    N1 2683   3.416   2.818   0.883  0.3650  0.1156  0.2167
  172MPD1    H6 2684   3.347   2.744   0.889  2.7101 -2.3317 -2.8764
  172MPD1    H7 2685   3.362   2.896   0.845  1.8726  0.1654 -1.8665
  173MPD1     C 2686   0.841   2.979  14.200  0.7911 -0.7227  0.0823
  173MPD1    C1 2687   0.959   2.908  14.219 -0.3759  0.2911  0.3545
  173MPD1    C2 2688   0.952   2.786  14.297 -0.2377 -0.3493  0.1535
  173MPD1    C3 2689   0.829   2.741  14.350  0.8270  0.3027  0.1513
  173MPD1    C4 2690   0.719   2.819  14.331 -0.1432  0.3839 -0.0303
  173MPD1    C5 2691   0.729   2.933  14.261 -0.1082  0.3022 -0.0135
  173MPD1     H 2692   1.050   2.745  14.316  0.5688  0.9276 -1.2414
  173MPD1    H1 2693   0.620   2.789  14.364  0.5161 -0.4553  1.1827
  173MPD1    H2 2694   0.829   3.078  14.157  1.4100 -1.2981 -1.4266
  173MPD1    H3 2695   0.637   2.991  14.253 -0.0762  0.4392  0.5897
  173MPD1     N 2696   0.849   2.635  14.449  0.3560 -0.9114 -0.6013
  173MPD1    H5 2697   0.944   2.606  14.469  0.8299  0.6892 -0.5438
  173MPD1    N1 2698   1.078   2.962  14.179  0.2615 -0.4334 -0.1020
  173MPD1    H6 2699   1.073   2.975  14.078 -0.7406  1.4763  0.1857
  173MPD1    H7 2700   1.155   2.900  14.200  1.1806 -0.2234 -2.8409
  174MPD1     C 2701   1.312   1.809  14.763 -0.3584 -0.1459 -0.5224
  174MPD1    C1 2702   1.335   1.932  14.692  0.2086 -0.3980 -0.1176
  174MPD1    C2 2703   1.234   2.026  14.682 -0.1760  0.6535  0.0241
  174MPD1    C3 2704   1.114   1.997  14.734  0.8728 -0.4734 -0.2546
  174MPD1    C4 2705   1.090   1.886  14.809 -0.3014 -0.0157 -0.0809
  174MPD1    C5 2706   1.193   1.796  14.829 -0.0197  0.1417  0.6771
  174MPD1     H 2707   1.254   2.125  14.641 -1.4247  0.5334 -0.8838
  174MPD1    H1 2708   0.994   1.868  14.857 -1.2335 -0.3100 -2.0356
  174MPD1    H2 2709   1.398   1.743  14.768 -0.5576 -0.1891  2.4603
  174MPD1    H3 2710   1.176   1.712  14.895 -0.6989 -1.1058 -1.0882
  174MPD1     N 2711   1.010   2.095  14.732 -0.2450  0.3032  0.7518
  174MPD1    H5 2712   0.936   2.067  14.794  0.5724  0.2050  1.6857
  174MPD1    N1 2713   1.464   1.953  14.640 -0.1156 -0.0424 -0.4725
  174MPD1    H6 2714   1.531   1.879  14.622 -0.2592 -0.1349 -0.6298
  174MPD1    H7 2715   1.463   2.011  14.557 -0.7431 -1.1122 -1.2129
  175MPD1     C 2716   4.217   3.606  15.323  0.1777 -0.5845 -0.0396
  175MPD1    C1 2717   4.274   3.501  15.392 -0.6654 -0.0074 -0.0210
  175MPD1    C2 2718   4.233   3.492  15.530  0.0965  0.0340 -0.1100
  175MPD1    C3 2719   4.139   3.571  15.589  0.0052 -0.0690  0.3922
  175MPD1    C4 2720   4.091   3.676  15.517 -0.2263  0.0900  0.0428
  175MPD1    C5 2721   4.126   3.687  15.386  0.3787  0.2047  0.3316
  175MPD1     H 2722   4.288   3.426  15.595  0.4369 -0.4295 -0.8722
  175MPD1    H1 2723   4.025   3.747  15.567 -0.1036  0.8757 -0.9221
  175MPD1    H2 2724   4.239   3.629  15.219  0.4632 -0.9874 -0.0675
  175MPD1    H3 2725   4.083   3.770  15.332  0.9740  0.0453 -0.3895
  175MPD1     N 2726   4.101   3.573  15.723 -0.0411 -0.5987 -0.0759
  175MPD1    H5 2727   4.044   3.653  15.747  0.9226  0.5416 -1.5788
  175MPD1    N1 2728   4.385   3.429  15.343  0.3531  0.0826  0.2128
  175MPD1    H6 2729   4.378   3.339  15.389 -3.5276  0.6877  0.7879
  175MPD1    H7 2730   4.381   3.406  15.244  0.8405  0.3667  0.1255
  176MPD1     C 2731   1.026   0.313  17.082 -0.6034  0.1438  0.5684
  176MPD1    C1 2732   1.096   0.403  17.008 -0.2895  0.0472 -0.0293
  176MPD1    C2 2733   1.104   0.529  17.053  0.4434 -0.2131 -0.2153
  176MPD1    C3 2734   1.048   0.562  17.176 -0.1835  0.2190  0.2083
  176MPD1    C4 2735   0.960   0.476  17.237 -0.2145 -0.0198  0.3177
  176MPD1    C5 2736   0.953   0.348  17.193  0.7328 -0.0863 -0.8330
  176MPD1     H 2737   1.169   0.606  17.015  0.3199  0.1560  0.3207
  176MPD1    H1 2738   0.889   0.497  17.316 -1.5602 -0.1697 -0.8402
  176MPD1    H2 2739   1.022   0.209  17.049 -0.1633  0.2790  0.0909
  176MPD1    H3 2740   0.896   0.269  17.239  2.1322 -0.7157 -0.1610
  176MPD1     N 2741   1.066   0.690  17.219  0.4245 -0.2222  0.0390
  176MPD1    H5 2742   1.109   0.762  17.161 -0.3320 -0.6804 -1.1012
  176MPD1    N1 2743   1.190   0.349  16.912  0.1493  0.0761  0.3335
  176MPD1    H6 2744   1.152   0.268  16.864  0.0628  1.0876 -1.2905
  176MPD1    H7 2745   1.216   0.419  16.843 -1.5298  0.7440  0.3961
  177MPD1     C 2746   4.115   0.683   8.971  0.6560 -0.1113 -0.3674
  177MPD1    C1 2747   4.022   0.769   8.920 -0.2896  0.4041  0.3044
  177MPD1    C2 2748   3.905   0.794   8.987 -0.2417 -0.1831 -0.6144
  177MPD1    C3 2749   3.867   0.729   9.100  0.0280  0.4867 -0.3066
  177MPD1    C4 2750   3.947   0.615   9.133  0.2022 -0.0945 -0.0942
  177MPD1    C5 2751   4.075   0.608   9.078  0.3333  0.5830  0.0794
  177MPD1     H 2752   3.834   0.869   8.956  1.9179  1.1432 -2.3131
  177MPD1    H1 2753   3.932   0.548   9.217  4.7527 -2.2261 -0.9304
  177MPD1    H2 2754   4.212   0.672   8.923  1.1480 -0.3538  0.6803
  177MPD1    H3 2755   4.139   0.536   9.127  1.2336  1.5293  0.2912
  177MPD1     N 2756   3.747   0.745   9.165 -0.4785 -0.0782  0.2669
  177MPD1    H5 2757   3.687   0.821   9.135  0.5123 -0.6952 -3.3242
  177MPD1    N1 2758   4.053   0.823   8.796  0.1571  0.2525  0.2780
  177MPD1    H6 2759   3.994   0.904   8.778  1.2729  0.5927 -1.8587
  177MPD1    H7 2760   4.143   0.870   8.795 -0.4980  1.5437  0.7093
  178MPD1     C 2761   1.456   0.923   0.616 -0.2166  0.1852 -0.5336
  178MPD1    C1 2762   1.530   1.034   0.635  0.0644  0.0883 -0.5140
  178MPD1    C2 2763   1.579   1.097   0.524  0.1642 -0.3139 -0.3347
  178MPD1    C3 2764   1.581   1.042   0.400 -0.4373 -0.1145  0.6755
  178MPD1    C4 2765   1.523   0.922   0.393 -0.4381  0.1054 -0.0494
  178MPD1    C5 2766   1.459   0.868   0.494 -0.7945 -0.8997  0.2415
  178MPD1     H 2767   1.628   1.191   0.545 -3.4104  1.2890  0.8574
  178MPD1    H1 2768   1.516   0.871   0.298 -2.5158 -0.7250  0.5511
  178MPD1    H2 2769   1.404   0.866   0.693  0.7891 -0.4339 -0.3192
  178MPD1    H3 2770   1.420   0.767   0.482 -1.6025 -0.5626  0.0301
  178MPD1     N 2771   1.619   1.110   0.280 -0.3681  0.4484 -0.3000
  178MPD1    H5 2772   1.605   1.060   0.192 -3.5110 -0.5460  0.7434
  178MPD1    N1 2773   1.542   1.095   0.762  0.1660 -0.2054 -0.3250
  178MPD1    H6 2774   1.636   1.129   0.778  0.2293 -1.1161  1.2171
  178MPD1    H7 2775   1.517   1.031   0.837 -0.7864 -0.8622 -1.1957
  179MPD1     C 2776   2.006   4.048  15.631  0.1859 -0.0365  0.2224
  179MPD1    C1 2777   1.878   4.052  15.577 -0.2253 -0.3287 -0.1212
  179MPD1    C2 2778   1.772   4.085  15.660 -0.2036 -0.1807 -0.4741
  179MPD1    C3 2779   1.791   4.113  15.791  0.1604  0.4851 -0.5338
  179MPD1    C4 2780   1.917   4.113  15.845  0.7340 -0.0677  0.7001
  179MPD1    C5 2781   2.024   4.078  15.764  0.0725  0.9157  0.6403
  179MPD1     H 2782   1.675   4.086  15.612 -0.3727 -0.7489 -0.1410
  179MPD1    H1 2783   1.932   4.129  15.951 -3.6552 -1.4164  1.5146
  179MPD1    H2 2784   2.093   4.017  15.574 -0.7246 -1.1515 -0.5763
  179MPD1    H3 2785   2.121   4.070  15.811  0.9118  0.4260 -1.1962
  179MPD1     N 2786   1.684   4.157  15.871  0.2975 -0.6977  1.1019
  179MPD1    H5 2787   1.712   4.175  15.967 -0.0257 -1.9799  1.4419
  179MPD1    N1 2788   1.856   4.054  15.438  0.6844 -0.4394  0.0210
  179MPD1    H6 2789   1.932   4.006  15.390  1.8116  1.0488  0.2761
  179MPD1    H7 2790   1.768   4.013  15.410  0.0653  0.7435  0.2346
  180MPD1     C 2791   1.951   0.869  15.217  0.1374 -0.3282  0.1526
  180MPD1    C1 2792   2.003   0.945  15.116 -0.4233  0.8863 -0.3887
  180MPD1    C2 2793   1.911   1.029  15.053 -0.0590  0.4347  0.3509
  180MPD1    C3 2794   1.777   1.035  15.085  0.1023 -0.3589  1.0801
  180MPD1    C4 2795   1.728   0.948  15.177 -0.3863  0.2372 -1.5231
  180MPD1    C5 2796   1.818   0.864  15.239 -0.2147 -0.4556 -0.2689
  180MPD1     H 2797   1.944   1.105  14.984 -1.5901  0.1800 -0.6551
  180MPD1    H1 2798   1.622   0.934  15.195 -0.1947  1.0369  0.3263
  180MPD1    H2 2799   2.013   0.800  15.273  1.3616 -0.5336 -1.4253
  180MPD1    H3 2800   1.790   0.791  15.314 -1.5647 -0.6999 -1.0141
  180MPD1     N 2801   1.698   1.137  15.017 -0.1350  0.2629 -0.1552
  180MPD1    H5 2802   1.756   1.193  14.955 -0.7601 -0.1547 -1.1243
  180MPD1    N1 2803   2.141   0.969  15.107 -0.1014 -0.7921 -0.5196
  180MPD1    H6 2804   2.189   0.886  15.143 -1.5686 -1.8906 -1.1021
  180MPD1    H7 2805   2.165   0.990  15.011 -0.9259 -4.2583 -1.4709
  181MPD1     C 2806   2.495   2.380   9.880  0.3794  0.0602 -0.0854
  181MPD1    C1 2807   2.584   2.389   9.773  0.1446  0.2471 -0.6503
  181MPD1    C2 2808   2.719   2.393   9.812 -0.1081 -0.0863 -0.1729
  181MPD1    C3 2809   2.765   2.411   9.945 -0.8141  0.2179 -0.7407
  181MPD1    C4 2810   2.666   2.425  10.043  0.2396 -0.3059  0.5719
  181MPD1    C5 2811   2.538   2.402  10.006  0.3540 -0.6126  0.2789
  181MPD1     H 2812   2.785   2.390   9.726 -1.7966 -0.5267 -1.4730
  181MPD1    H1 2813   2.698   2.428  10.146  0.2044  0.4719  0.5618
  181MPD1    H2 2814   2.387   2.370   9.875  0.4547 -0.9786  0.3611
  181MPD1    H3 2815   2.461   2.404  10.082  0.0321  0.9004 -0.0737
  181MPD1     N 2816   2.900   2.425   9.972 -0.0082  0.0210 -0.1805
  181MPD1    H5 2817   2.919   2.461  10.066  1.6355  1.0303 -0.9075
  181MPD1    N1 2818   2.537   2.379   9.638 -0.8584 -0.0916 -0.2055
  181MPD1    H6 2819   2.597   2.428   9.573 -0.8214  0.2256  0.0683
  181MPD1    H7 2820   2.443   2.415   9.624 -0.0444  1.5325 -1.3790
  182MPD1     C 2821   4.017   2.091   1.618  0.0896  0.2867  0.7618
  182MPD1    C1 2822   3.924   2.185   1.586  0.0238 -0.4200 -0.8103
  182MPD1    C2 2823   3.870   2.175   1.459 -0.3719 -0.5295 -0.1241
  182MPD1    C3 2824   3.911   2.078   1.370  0.3116  0.1705 -0.2267
  182MPD1    C4 2825   4.017   1.994   1.402  0.0268 -0.0289 -0.3986
  182MPD1    C5 2826   4.080   2.012   1.525  0.4298 -0.3524  0.2330
  182MPD1     H 2827   3.789   2.243   1.436  0.3045  0.3087 -0.0247
  182MPD1    H1 2828   4.055   1.924   1.329  1.7260  0.5261 -0.0600
  182MPD1    H2 2829   4.055   2.083   1.719 -0.5151  1.2061  1.0539
  182MPD1    H3 2830   4.166   1.958   1.560  0.6629 -0.1789 -0.0698
  182MPD1     N 2831   3.843   2.057   1.243 -0.1380  0.4087  0.2107
  182MPD1    H5 2832   3.888   1.992   1.180  1.8286  1.8416  0.1344
  182MPD1    N1 2833   3.864   2.270   1.678  0.4757  0.0623  0.0257
  182MPD1    H6 2834   3.920   2.290   1.761  0.8024 -2.8597  0.5187
  182MPD1    H7 2835   3.817   2.353   1.644 -1.1916 -1.7216 -1.9851
  183MPD1     C 2836   3.554   1.874   9.024  0.8090 -0.1629 -0.1044
  183MPD1    C1 2837   3.466   1.922   9.118  0.2285 -0.3783  0.3410
  183MPD1    C2 2838   3.507   1.977   9.239  0.0822  0.2341 -0.8041
  183MPD1    C3 2839   3.637   1.976   9.275  0.3044  0.0341 -0.1658
  183MPD1    C4 2840   3.727   1.914   9.195 -0.0559 -0.1087 -0.2126
  183MPD1    C5 2841   3.688   1.865   9.065  0.5243  0.4245 -0.1609
  183MPD1     H 2842   3.434   2.020   9.306 -1.2969 -0.0790 -2.0816
  183MPD1    H1 2843   3.832   1.899   9.216 -0.0911 -0.2448 -0.1343
  183MPD1    H2 2844   3.529   1.841   8.924 -0.3333  0.9139 -0.1900
  183MPD1    H3 2845   3.755   1.819   8.993  0.1911 -1.6372  0.8761
  183MPD1     N 2846   3.675   2.037   9.395 -0.5013 -0.1645  0.3319
  183MPD1    H5 2847   3.595   2.060   9.452 -0.3387 -0.6152  0.7466
  183MPD1    N1 2848   3.331   1.942   9.081 -0.2115  0.0769  0.1486
  183MPD1    H6 2849   3.314   1.875   9.006 -1.1438  3.5359 -2.7068
  183MPD1    H7 2850   3.268   1.918   9.157  0.3520  1.2788  0.9945
  184MPD1     C 2851   3.630   4.535   9.158  0.5092 -1.0160 -0.0402
  184MPD1    C1 2852   3.760   4.532   9.206 -0.2764  0.8512 -0.3637
  184MPD1    C2 2853   3.795   4.631   9.297 -0.5284 -0.1247 -0.5751
  184MPD1    C3 2854   3.696   4.709   9.352  0.4121 -0.5863 -0.3611
  184MPD1    C4 2855   3.560   4.701   9.311  0.2730  0.5118 -0.0124
  184MPD1    C5 2856   3.527   4.605   9.219 -0.1499  0.6262 -0.1887
  184MPD1     H 2857   3.894   4.626   9.343  0.2526  1.4105 -2.0990
  184MPD1    H1 2858   3.481   0.021   9.359 -0.5696  0.5059 -1.3699
  184MPD1    H2 2859   3.598   4.473   9.076 -1.2583  1.4425 -1.2236
  184MPD1    H3 2860   3.428   4.596   9.176 -0.2877  1.5636 -0.0757
  184MPD1     N 2861   3.717   0.062   9.454  0.5320  0.4049  0.3373
  184MPD1    H5 2862   3.647   0.135   9.457 -1.5602 -1.5618 -1.2512
  184MPD1    N1 2863   3.868   4.473   9.132  0.8394 -0.1755  0.4816
  184MPD1    H6 2864   3.939   4.430   9.192  0.0110 -0.0876  1.5124
  184MPD1    H7 2865   3.843   4.387   9.084 -0.3392  1.2683 -1.4469
  185MPD1     C 2866   3.524   0.983   9.729 -0.7549  0.0095  0.2044
  185MPD1    C1 2867   3.444   0.871   9.740 -0.7356 -0.1926 -0.0014
  185MPD1    C2 2868   3.509   0.750   9.729 -0.2269 -0.0570  0.0526
  185MPD1    C3 2869   3.646   0.735   9.713  0.8108 -0.2727  0.3747
  185MPD1    C4 2870   3.718   0.851   9.711  0.3390 -0.1731 -0.4343
  185MPD1    C5 2871   3.660   0.973   9.726  0.2216 -1.0396  0.4056
  185MPD1     H 2872   3.456   0.656   9.734  0.3270 -0.3510  0.4105
  185MPD1    H1 2873   3.826   0.858   9.714  0.2152  0.8931  1.2862
  185MPD1    H2 2874   3.480   1.081   9.718 -0.2599  0.0817 -1.1432
  185MPD1    H3 2875   3.722   1.062   9.731  0.9409 -1.3408 -2.8608
  185MPD1     N 2876   3.719   0.617   9.691 -0.1861 -0.2222 -0.1392
  185MPD1    H5 2877   3.817   0.628   9.668  0.1285  1.0086  1.8533
  185MPD1    N1 2878   3.310   0.896   9.729  0.1916  0.0860  0.2863
  185MPD1    H6 2879   3.280   0.973   9.789 -2.7969 -1.9735  1.4276
  185MPD1    H7 2880   3.257   0.821   9.773 -0.2972  0.8799  1.0590
  186MPD1     C 2881   1.577   4.582  15.649  0.1237  0.7042  0.2776
  186MPD1    C1 2882   1.657   4.512  15.732  0.0225 -0.5948 -0.3726
  186MPD1    C2 2883   1.635   4.531  15.867 -0.5567  0.0681  0.7025
  186MPD1    C3 2884   1.547   4.631  15.914 -0.2323 -0.1318  0.5266
  186MPD1    C4 2885   1.483   4.706  15.829 -0.0672 -0.4958 -0.6530
  186MPD1    C5 2886   1.497   4.677  15.700  0.2510  0.0574  0.3245
  186MPD1     H 2887   1.698   4.470  15.931 -2.0484  0.9922  3.0287
  186MPD1    H1 2888   1.409   0.043  15.856  2.4456  1.7152  0.2144
  186MPD1    H2 2889   1.584   4.581  15.540  1.0251  1.0446  0.3339
  186MPD1    H3 2890   1.446   0.001  15.627 -0.2706  1.9474  2.3159
  186MPD1     N 2891   1.523   4.654  16.048 -0.0631  0.3896  0.4186
  186MPD1    H5 2892   1.459   4.731  16.066 -2.0790 -1.0081 -0.7772
  186MPD1    N1 2893   1.765   4.433  15.684 -0.0177  0.2514 -0.5950
  186MPD1    H6 2894   1.750   4.417  15.585  0.0413  0.9560 -0.7200
  186MPD1    H7 2895   1.760   4.346  15.737 -2.6073  0.2584 -0.8186
  187MPD1     C 2896   1.426   1.553   0.145  0.3967  0.9563 -0.6109
  187MPD1    C1 2897   1.423   1.688   0.149 -0.9785  0.3376  0.0846
  187MPD1    C2 2898   1.347   1.753   0.048 -0.3580 -0.5682 -0.2787
  187MPD1    C3 2899   1.274   1.693  17.696 -0.6166  0.1579  0.1983
  187MPD1    C4 2900   1.285   1.558  17.695  0.2841 -0.3515  0.7367
  187MPD1    C5 2901   1.358   1.490   0.043 -0.4240 -0.2776 -0.7506
  187MPD1     H 2902   1.348   1.859   0.069 -0.6634 -0.8475  1.1647
  187MPD1    H1 2903   1.236   1.499  17.619  1.4087  0.4270 -0.5932
  187MPD1    H2 2904   1.485   1.492   0.212 -0.3790 -0.8726 -1.5976
  187MPD1    H3 2905   1.363   1.383   0.028 -2.0321 -0.7551  2.0687
  187MPD1     N 2906   1.181   1.752  17.610  0.0397  0.6289 -0.0130
  187MPD1    H5 2907   1.120   1.698  17.549 -0.4091 -0.5411  1.4676
  187MPD1    N1 2908   1.498   1.755   0.248 -0.1237  0.0427 -0.3412
  187MPD1    H6 2909   1.491   1.713   0.340 -4.7989 -1.4431 -1.3786
  187MPD1    H7 2910   1.463   1.850   0.262  2.9576  1.2946 -1.0464
  188MPD1     C 2911   0.635   1.590  11.623 -0.4234 -0.1809  0.1639
  188MPD1    C1 2912   0.750   1.521  11.654 -0.5734 -0.0237 -0.4297
  188MPD1    C2 2913   0.806   1.431  11.566 -0.1965 -0.1931 -0.2297
  188MPD1    C3 2914   0.741   1.416  11.441  0.7916 -0.2200  0.4164
  188MPD1    C4 2915   0.630   1.489  11.409  0.2396  0.1537 -0.0619
  188MPD1    C5 2916   0.568   1.565  11.503 -0.9191  0.4260  0.5649
  188MPD1     H 2917   0.883   1.366  11.606 -0.8613 -1.7616 -1.4639
  188MPD1    H1 2918   0.572   1.471  11.319 -2.9813  0.6156  1.9131
  188MPD1    H2 2919   0.573   1.642  11.696 -1.9319 -0.6552 -0.7760
  188MPD1    H3 2920   0.474   1.616  11.488 -1.4209 -0.8963 -0.7640
  188MPD1     N 2921   0.789   1.325  11.343 -0.2427 -0.1272 -0.3355
  188MPD1    H5 2922   0.735   1.309  11.259 -1.0270  2.5453 -0.3452
  188MPD1    N1 2923   0.773   1.525  11.795 -0.2147 -0.4993  0.0706
  188MPD1    H6 2924   0.743   1.610  11.843 -2.3905 -0.5768 -1.1946
  188MPD1    H7 2925   0.868   1.502  11.825  1.0600  0.2597 -3.2892
  189MPD1     C 2926   2.835   3.452   0.840  0.1992  0.0600 -0.0469
  189MPD1    C1 2927   2.776   3.556   0.771  0.4768 -0.3049 -0.2748
  189MPD1    C2 2928   2.649   3.540   0.728 -0.1071 -0.1500  0.2526
  189MPD1    C3 2929   2.569   3.430   0.760 -0.7404 -0.1150  0.4694
  189MPD1    C4 2930   2.634   3.328   0.828  0.1424  0.4692 -0.6337
  189MPD1    C5 2931   2.762   3.344   0.880 -0.4269  0.5792 -0.0152
  189MPD1     H 2932   2.599   3.613   0.667  0.3765  1.4743  1.7915
  189MPD1    H1 2933   2.572   3.249   0.870  1.3185  0.1968  0.5744
  189MPD1    H2 2934   2.939   3.445   0.870  0.9959  1.9931 -2.3283
  189MPD1    H3 2935   2.803   3.258   0.931  0.2535  1.4403  0.8829
  189MPD1     N 2936   2.431   3.437   0.711  0.3801 -0.2161  0.0188
  189MPD1    H5 2937   2.405   3.518   0.655  3.3220  0.1021 -0.8617
  189MPD1    N1 2938   2.869   3.645   0.711  0.0120 -0.2322  0.0214
  189MPD1    H6 2939   2.944   3.678   0.772  0.7946 -2.7268  0.4189
  189MPD1    H7 2940   2.812   3.722   0.676 -0.4982 -1.3585 -1.6038
  190MPD1     C 2941   1.046   0.592  16.302  0.5266 -0.3879 -0.1282
  190MPD1    C1 2942   1.027   0.731  16.305 -0.0536  0.1726 -0.2845
  190MPD1    C2 2943   1.107   0.817  16.228  0.3986  0.0403  0.3748
  190MPD1    C3 2944   1.182   0.761  16.131  0.1886 -0.4774 -0.7487
  190MPD1    C4 2945   1.207   0.619  16.131  0.3246 -0.2446  0.1413
  190MPD1    C5 2946   1.146   0.537  16.218  0.0867  0.0321  0.5239
  190MPD1     H 2947   1.102   0.924  16.241  2.3810  0.1640  0.0553
  190MPD1    H1 2948   1.278   0.573  16.063 -0.6092 -0.5726 -0.6049
  190MPD1    H2 2949   0.994   0.525  16.369  3.2512 -2.2303  0.1283
  190MPD1    H3 2950   1.174   0.433  16.226  0.1177  0.1436  1.8315
  190MPD1     N 2951   1.250   0.854  16.050 -0.6826  0.6888 -0.1069
  190MPD1    H5 2952   1.230   0.953  16.059  0.3575  0.7500  1.5583
  190MPD1    N1 2953   0.948   0.789  16.405 -0.3961 -0.3625  0.5361
  190MPD1    H6 2954   0.897   0.869  16.367 -2.8345 -2.2813 -0.2261
  190MPD1    H7 2955   0.871   0.735  16.443 -0.6048 -1.6218 -1.6932
  191MPD1     C 2956   0.800   2.377  13.713 -0.0460 -0.2761  0.0564
  191MPD1    C1 2957   0.663   2.390  13.704 -0.1508  0.7038  0.0752
  191MPD1    C2 2958   0.613   2.501  13.639  0.3833 -0.5798  0.0236
  191MPD1    C3 2959   0.698   2.608  13.601 -0.5637  0.3115  0.2760
  191MPD1    C4 2960   0.837   2.591  13.614 -0.6505 -1.3053  0.3641
  191MPD1    C5 2961   0.880   2.478  13.674 -0.0889  0.2063 -0.3317
  191MPD1     H 2962   0.511   2.503  13.603  0.5393 -0.9959 -0.4415
  191MPD1    H1 2963   0.912   2.656  13.570 -2.0295  0.9599  1.3891
  191MPD1    H2 2964   0.841   2.293  13.767 -3.0545 -2.7585 -1.5176
  191MPD1    H3 2965   0.986   2.465  13.688  0.1273  2.7816  0.2902
  191MPD1     N 2966   0.636   2.715  13.533 -0.1910 -0.4134  0.5704
  191MPD1    H5 2967   0.534   2.712  13.535 -0.2641 -0.0639 -2.5397
  191MPD1    N1 2968   0.571   2.285  13.727  0.5345 -0.3483  0.0848
  191MPD1    H6 2969   0.607   2.227  13.802  1.8367  0.6065  0.2081
  191MPD1    H7 2970   0.476   2.318  13.746 -0.8374 -3.0925 -2.1352
  192MPD1     C 2971   4.555   2.628  13.333 -0.8689  0.8244 -0.0000
  192MPD1    C1 2972   4.612   2.667  13.212  0.0064 -0.5830 -0.1356
  192MPD1    C2 2973   4.737   2.724  13.215 -0.2384  0.1817 -0.1881
  192MPD1    C3 2974   0.081   2.725  13.328 -0.4070  0.5264 -0.8559
  192MPD1    C4 2975   0.028   2.669  13.445  0.2660 -0.3266 -0.1370
  192MPD1    C5 2976   4.636   2.622  13.442  0.2498 -0.1026  0.3872
  192MPD1     H 2977   0.045   2.760  13.123 -0.3506  1.6767  0.3439
  192MPD1    H1 2978   0.085   2.662  13.537  0.0707 -0.6878 -0.0449
  192MPD1    H2 2979   4.452   2.597  13.344 -0.6496  1.1181  2.8791
  192MPD1    H3 2980   4.598   2.590  13.538  0.1885 -1.1775  0.0066
  192MPD1     N 2981   0.213   2.777  13.333 -0.0148  0.2220 -0.0506
  192MPD1    H5 2982   0.263   2.766  13.421 -1.4768 -0.3601  0.7022
  192MPD1    N1 2983   4.535   2.685  13.102  0.3256 -0.2315 -0.7391
  192MPD1    H6 2984   4.450   2.630  13.098 -0.6430  1.4353 -3.2172
  192MPD1    H7 2985   4.587   2.665  13.016 -0.8819 -4.4637 -0.4799
  193MPD1     C 2986   0.403   2.876  16.516  0.3531 -0.3320  0.7355
  193MPD1    C1 2987   0.351   2.996  16.561 -0.0806  0.1002  0.1638
  193MPD1    C2 2988   0.396   3.051  16.679 -0.2691 -0.4425 -0.4085
  193MPD1    C3 2989   0.503   3.002  16.746  0.3971  0.4111  0.1170
  193MPD1    C4 2990   0.562   2.889  16.693 -0.4747 -0.3891 -0.8082
  193MPD1    C5 2991   0.514   2.826  16.583  0.3020  0.1547  0.5498
  193MPD1     H 2992   0.346   3.139  16.718 -0.8823 -1.4657  1.1020
  193MPD1    H1 2993   0.646   2.845  16.745 -0.8897 -0.5435 -0.2713
  193MPD1    H2 2994   0.354   2.824  16.434  0.4427  0.3875  0.2229
  193MPD1    H3 2995   0.567   2.740  16.545 -1.6752 -0.7907 -0.0633
  193MPD1     N 2996   0.565   3.055  16.858  0.0319  0.7455 -0.0925
  193MPD1    H5 2997   0.649   3.007  16.891 -1.0028 -0.8016  0.2505
  193MPD1    N1 2998   0.227   3.028  16.509 -0.2346 -0.4272  0.3505
  193MPD1    H6 2999   0.211   3.120  16.550 -2.0425  0.4148 -2.1972
  193MPD1    H7 3000   0.159   2.966  16.554 -3.0100  2.8172  0.6459
  194MPD1     C 3001   2.367   0.637  17.285  0.5458  0.3350  0.5875
  194MPD1    C1 3002   2.411   0.624  17.153 -0.1300 -0.0204  0.9369
  194MPD1    C2 3003   2.486   0.514  17.115 -0.2356  0.4979 -0.1459
  194MPD1    C3 3004   2.505   0.415  17.211  0.3621  0.5264 -0.9171
  194MPD1    C4 3005   2.442   0.421  17.339  1.0131  0.3918 -0.2069
  194MPD1    C5 3006   2.373   0.536  17.370  0.2549  0.3221  0.2788
  194MPD1     H 3007   2.534   0.513  17.018  0.0136 -0.8576 -0.0125
  194MPD1    H1 3008   2.465   0.340  17.407  2.7815  0.2580 -0.9552
  194MPD1    H2 3009   2.327   0.733  17.315 -0.9104 -0.7248  2.0236
  194MPD1    H3 3010   2.329   0.540  17.469  0.0403  1.1328  0.1443
  194MPD1     N 3011   2.586   0.305  17.183 -0.3600 -0.1734 -0.3379
  194MPD1    H5 3012   2.599   0.232  17.252  1.9982  0.0245 -0.5900
  194MPD1    N1 3013   2.412   0.744  17.082  0.2529 -0.0245 -0.1007
  194MPD1    H6 3014   2.334   0.801  17.112 -1.0268 -1.4911 -0.6457
  194MPD1    H7 3015   2.417   0.732  16.981 -1.3336 -1.7435  0.0165
  195MPD1     C 3016   0.871   2.300  17.543 -0.5116 -0.0504 -0.8503
  195MPD1    C1 3017   0.766   2.211  17.538  0.5279 -0.3440  0.2186
  195MPD1    C2 3018   0.767   2.111  17.634 -0.3746 -0.0270  0.2261
  195MPD1    C3 3019   0.873   2.082  17.721  0.7634 -0.5415 -0.9053
  195MPD1    C4 3020   0.990   2.159  17.705 -0.1326 -0.1069 -0.1510
  195MPD1    C5 3021   0.977   2.276  17.625 -0.4365  0.9481  0.2980
  195MPD1     H 3022   0.686   2.041  17.652 -2.9796  2.2192 -2.7974
  195MPD1    H1 3023   1.068   2.146   0.032 -0.8815 -0.3831  0.5887
  195MPD1    H2 3024   0.880   2.383  17.473  0.5618 -0.6111 -1.3716
  195MPD1    H3 3025   1.050   2.355  17.636 -0.8331  1.4299 -0.5681
  195MPD1     N 3026   0.858   1.970   0.063  0.3846  0.2929  0.2531
  195MPD1    H5 3027   0.774   1.914   0.050 -0.3429  1.0487  1.7263
  195MPD1    N1 3028   0.645   2.229  17.469 -0.6948 -0.4163 -0.2458
  195MPD1    H6 3029   0.590   2.145  17.452  0.9229 -1.0483 -2.3015
  195MPD1    H7 3030   0.666   2.267  17.377  0.6680  0.4003  0.4089
  196MPD1     C 3031   4.012   2.142  17.613  0.2524  0.4714  0.7849
  196MPD1    C1 3032   3.963   2.031  17.686 -0.4136  0.5596  0.3534
  196MPD1    C2 3033   4.006   2.012   0.061 -0.0471  0.7317  0.8619
  196MPD1    C3 3034   4.080   2.107   0.132 -0.1958  0.0289  0.0260
  196MPD1    C4 3035   4.103   2.229   0.071 -0.0636  0.3881  0.0684
  196MPD1    C5 3036   4.085   2.238  17.679 -0.2233  0.8453  0.3314
  196MPD1     H 3037   3.974   1.923   0.115 -0.9099 -0.5348 -1.7177
  196MPD1    H1 3038   4.155   2.311   0.120 -1.4532  1.9626 -1.0593
  196MPD1    H2 3039   3.993   2.157  17.507  0.1991 -0.8239  0.6028
  196MPD1    H3 3040   4.137   2.319  17.629  0.5785 -0.3930 -0.8323
  196MPD1     N 3041   4.138   2.088   0.260 -0.2234  0.2658  0.7442
  196MPD1    H5 3042   4.191   2.166   0.297  1.8446 -0.3626 -0.8836
  196MPD1    N1 3043   3.877   1.943  17.615  0.7007  0.3515 -0.0120
  196MPD1    H6 3044   3.800   1.988  17.567 -0.9880 -2.4760  0.0624
  196MPD1    H7 3045   3.834   1.874  17.676 -2.1078  1.0095 -1.2482
  197MPD1     C 3046   3.023   4.203  17.033 -0.3488  0.1905 -0.0510
  197MPD1    C1 3047   3.090   4.271  16.934  0.2764 -0.7308 -0.4461
  197MPD1    C2 3048   3.225   4.241  16.910  0.0251  0.3314  0.7005
  197MPD1    C3 3049   3.294   4.141  16.976 -0.0121 -0.4318  0.1115
  197MPD1    C4 3050   3.223   4.071  17.071  0.0575 -0.0763 -0.2649
  197MPD1    C5 3051   3.093   4.102  17.102  0.3994  0.6035  0.6884
  197MPD1     H 3052   3.277   4.294  16.831  2.0376 -1.3997  0.8353
  197MPD1    H1 3053   3.268   3.983  17.115  0.3182 -0.1944 -0.7696
  197MPD1    H2 3054   2.918   4.220  17.054 -0.4790 -1.7082  0.7963
  197MPD1    H3 3055   3.030   4.036  17.160  1.2987 -0.3540  0.5791
  197MPD1     N 3056   3.422   4.093  16.945  0.1124  0.4639  0.2428
  197MPD1    H5 3057   3.453   4.021  17.009 -0.3592  0.6481  0.6825
  197MPD1    N1 3058   3.035   4.388  16.870 -0.4905  0.2544 -0.2158
  197MPD1    H6 3059   3.054   4.369  16.772  1.6369  1.4476 -0.0369
  197MPD1    H7 3060   2.934   4.393  16.880 -0.5901 -0.9762 -0.6058
  198MPD1     C 3061   0.873   2.458  15.784  0.5772  0.4933  0.1341
  198MPD1    C1 3062   0.983   2.417  15.713 -0.2588 -0.3820  0.0685
  198MPD1    C2 3063   1.102   2.478  15.748 -1.0102 -0.2148  0.0226
  198MPD1    C3 3064   1.115   2.564  15.860  0.1281 -0.3290 -0.5180
  198MPD1    C4 3065   0.999   2.621  15.918 -0.4108 -0.2184 -0.0031
  198MPD1    C5 3066   0.883   2.557  15.881  0.1369  0.3167 -0.5132
  198MPD1     H 3067   1.189   2.446  15.692  1.3413  2.5294  2.0713
  198MPD1    H1 3068   1.006   2.715  15.972 -0.9302  0.4912 -1.1874
  198MPD1    H2 3069   0.771   2.426  15.766  0.4307  1.1431 -0.1979
  198MPD1    H3 3070   0.786   2.587  15.919 -0.1366 -1.7830  0.4378
  198MPD1     N 3071   1.249   2.599  15.908  0.2192 -0.3056 -0.2029
  198MPD1    H5 3072   1.325   2.575  15.845  0.9767  2.2022 -0.2294
  198MPD1    N1 3073   0.972   2.344  15.591  0.2506  0.5325  0.2906
  198MPD1    H6 3074   1.054   2.290  15.566 -1.7213 -1.7511 -1.2398
  198MPD1    H7 3075   0.896   2.277  15.591 -0.2440  1.1163 -3.1508
  199MPD1     C 3076   3.804   3.063   9.490 -0.2399 -0.4298  0.0530
  199MPD1    C1 3077   3.796   2.928   9.481 -0.3904  0.6442 -0.0649
  199MPD1    C2 3078   3.676   2.867   9.454 -0.1375  0.1809 -0.2764
  199MPD1    C3 3079   3.569   2.949   9.434 -0.4680  0.1117 -0.6169
  199MPD1    C4 3080   3.576   3.084   9.440 -0.5670  0.2608  0.8411
  199MPD1    C5 3081   3.694   3.139   9.471  0.0570  0.1084 -0.1535
  199MPD1     H 3082   3.671   2.758   9.451  0.6489  0.0619  3.0733
  199MPD1    H1 3083   3.487   3.144   9.425 -0.3868  0.8624  2.1433
  199MPD1    H2 3084   3.901   3.111   9.494  1.3847 -3.7080 -0.3633
  199MPD1    H3 3085   3.697   3.246   9.482 -1.3376 -0.0714  2.0389
  199MPD1     N 3086   3.434   2.903   9.439  0.3169 -0.4363  0.1245
  199MPD1    H5 3087   3.367   2.979   9.444 -0.6701 -1.2936 -0.2954
  199MPD1    N1 3088   3.916   2.858   9.479 -0.3737  0.4424  0.2359
  199MPD1    H6 3089   3.993   2.923   9.490 -1.1873  0.7891  3.9284
  199MPD1    H7 3090   3.909   2.783   9.547  2.8083  0.8181  0.9817
  200MPD1     C 3091   1.864   3.295  14.599 -0.3212  0.6950 -0.1203
  200MPD1    C1 3092   1.912   3.279  14.473 -0.2401 -0.5370 -1.0325
  200MPD1    C2 3093   2.044   3.308  14.450  0.0281 -0.4255  0.1507
  200MPD1    C3 3094   2.130   3.356  14.549 -0.6593 -0.8357  0.1524
  200MPD1    C4 3095   2.075   3.376  14.675 -0.2673  0.1672 -0.5439
  200MPD1    C5 3096   1.938   3.353  14.696  0.1352  0.7780 -0.5476
  200MPD1     H 3097   2.086   3.299  14.351 -1.2657  0.8455 -0.5083
  200MPD1    H1 3098   2.130   3.417  14.759  0.3017 -0.0928 -0.7957
  200MPD1    H2 3099   1.761   3.271  14.624  0.2004 -1.3026  0.0884
  200MPD1    H3 3100   1.897   3.382  14.792 -2.9698 -0.3710 -1.5421
  200MPD1     N 3101   2.265   3.372  14.522  0.2268  0.4258  0.3563
  200MPD1    H5 3102   2.298   3.340  14.432 -2.4544 -0.1833 -0.4095
  200MPD1    N1 3103   1.832   3.211  14.381 -0.3315 -0.2100  0.5035
  200MPD1    H6 3104   1.854   3.248  14.289  0.2232  0.8161  1.0399
  200MPD1    H7 3105   1.733   3.228  14.394 -0.7238 -0.1982 -2.6277
  201MPD1     C 3106   4.392   1.694  14.247  0.6849 -0.6136  0.2244
  201MPD1    C1 3107   4.481   1.589  14.268  1.1173 -0.5061  0.0060
  201MPD1    C2 3108   4.611   1.612  14.240  0.0323 -1.0147  0.6752
  201MPD1    C3 3109   4.653   1.718  14.163  0.2473 -0.0505 -0.2461
  201MPD1    C4 3110   4.561   1.806  14.120  0.1045  0.2431  0.4796
  201MPD1    C5 3111   4.436   1.800  14.173  0.3422  0.2558  0.0902
  201MPD1     H 3112   4.676   1.528  14.261  1.3045 -0.6955 -1.8972
  201MPD1    H1 3113   4.584   1.878  14.042 -1.4024 -0.4984 -0.6287
  201MPD1    H2 3114   4.288   1.685  14.273  0.6696  0.1886  0.4312
  201MPD1    H3 3115   4.359   1.868  14.139 -1.8204 -1.9923  0.5149
  201MPD1     N 3116   0.055   1.722  14.116 -0.2672 -0.4483  0.3227
  201MPD1    H5 3117   0.118   1.646  14.139  1.3967  0.5490 -1.0223
  201MPD1    N1 3118   4.448   1.479  14.350 -0.0512 -0.0735 -0.4230
  201MPD1    H6 3119   4.503   1.393  14.356 -2.8163 -1.7529  0.8760
  201MPD1    H7 3120   4.352   1.450  14.329 -1.7158  3.9354  1.6228
  202MPD1     C 3121   4.518   1.272   9.253 -0.6429 -0.6177  0.3022
  202MPD1    C1 3122   4.488   1.159   9.336  0.0385 -0.0968 -0.6676
  202MPD1    C2 3123   4.497   1.178   9.469  0.7619 -0.0798  0.4712
  202MPD1    C3 3124   4.494   1.303   9.526 -0.3504  0.0044  0.0831
  202MPD1    C4 3125   4.487   1.414   9.443  0.3776  0.7310  0.7126
  202MPD1    C5 3126   4.508   1.393   9.311  0.4848  0.0854  0.6136
  202MPD1     H 3127   4.504   1.088   9.529  1.3137  0.2107  0.8493
  202MPD1    H1 3128   4.474   1.512   9.487 -1.7398 -0.1290  1.9801
  202MPD1    H2 3129   4.541   1.274   9.147  0.4825 -2.6865  0.5029
  202MPD1    H3 3130   4.509   1.480   9.246  1.2390 -0.9628 -0.7802
  202MPD1     N 3131   4.511   1.330   9.663  0.0124 -0.0989  0.1843
  202MPD1    H5 3132   4.499   1.425   9.697  1.4998  0.4895 -0.9333
  202MPD1    N1 3133   4.524   1.032   9.286 -0.8804 -0.1405 -0.2039
  202MPD1    H6 3134   4.491   1.020   9.190 -0.4863  1.5098 -0.5421
  202MPD1    H7 3135   4.497   0.959   9.352 -0.8735 -1.1609 -1.3271
  203MPD1     C 3136   3.340   2.797  12.056 -0.6914 -0.4887  0.7658
  203MPD1    C1 3137   3.475   2.792  12.035  0.4241  0.1031 -0.4609
  203MPD1    C2 3138   3.551   2.755  12.148  0.2500 -0.3226  0.3824
  203MPD1    C3 3139   3.497   2.693  12.259 -0.3964 -0.1674  0.2964
  203MPD1    C4 3140   3.358   2.690  12.272 -0.4137 -0.0744 -0.7271
  203MPD1    C5 3141   3.284   2.748  12.169  0.9138 -0.7168  0.7787
  203MPD1     H 3142   3.659   2.757  12.141  0.2408 -0.8855  0.0935
  203MPD1    H1 3143   3.305   2.659  12.361  0.5073 -1.0512 -0.5236
  203MPD1    H2 3144   3.273   2.839  11.982 -0.7627  0.9752  1.6503
  203MPD1    H3 3145   3.176   2.738  12.167  1.0279 -1.9983  1.1145
  203MPD1     N 3146   3.579   2.677  12.374  0.7610 -0.3562 -1.0801
  203MPD1    H5 3147   3.673   2.716  12.374  0.6927 -0.2009  0.6454
  203MPD1    N1 3148   3.531   2.872  11.935 -0.3821  0.4466 -0.4301
  203MPD1    H6 3149   3.617   2.824  11.910 -1.9951 -3.0553  0.7368
  203MPD1    H7 3150   3.475   2.876  11.850  1.8321  3.0730 -1.7755
  204MPD1     C 3151   2.951   3.952   0.341  0.4894  0.0972 -0.4730
  204MPD1    C1 3152   2.891   3.952   0.217  0.0419 -0.6215  0.4837
  204MPD1    C2 3153   2.900   3.836   0.151 -0.6801 -0.6374  0.7748
  204MPD1    C3 3154   2.949   3.715   0.209 -0.2570  0.5664  0.1524
  204MPD1    C4 3155   2.992   3.720   0.340  0.3464 -0.1860 -0.3935
  204MPD1    C5 3156   2.994   3.839   0.406 -0.0046  0.1218 -0.3436
  204MPD1     H 3157   2.864   3.837   0.048  3.3983  0.9831 -0.6291
  204MPD1    H1 3158   3.017   3.629   0.392 -3.1709 -0.3692  0.9528
  204MPD1    H2 3159   2.966   4.051   0.381 -0.4289 -0.5710  1.5149
  204MPD1    H3 3160   3.036   3.836   0.506  1.0595 -0.9508 -0.8230
  204MPD1     N 3161   2.922   3.599   0.135 -0.4467  0.1462  0.3516
  204MPD1    H5 3162   2.899   3.611   0.037 -1.3439  0.0490  0.5491
  204MPD1    N1 3163   2.841   4.070   0.151 -0.0301 -0.5738 -0.0525
  204MPD1    H6 3164   2.797   4.143   0.208 -1.3658 -1.4922  0.0939
  204MPD1    H7 3165   2.783   4.056   0.068  0.5673 -0.6102 -0.4635
  205MPD1     C 3166   3.318   1.968  17.350  0.3922  0.2716  0.2691
  205MPD1    C1 3167   3.227   1.884  17.407  0.3654  0.5320  0.0758
  205MPD1    C2 3168   3.139   1.940  17.500 -0.1637  0.4908  0.7003
  205MPD1    C3 3169   3.120   2.079  17.512  0.0993  0.1790  0.0991
  205MPD1    C4 3170   3.214   2.161  17.452 -0.1900  0.4835  0.3760
  205MPD1    C5 3171   3.311   2.108  17.377 -0.1311 -0.2082 -0.7212
  205MPD1     H 3172   3.072   1.870  17.549 -0.6785 -0.2006 -1.0022
  205MPD1    H1 3173   3.203   2.269  17.461 -0.0604  0.6320 -1.3671
  205MPD1    H2 3174   3.384   1.933  17.272 -1.4301  0.0501 -1.1804
  205MPD1    H3 3175   3.375   2.183  17.333  0.9496 -1.1237 -0.7331
  205MPD1     N 3176   3.024   2.135  17.604 -0.3747  0.2058  0.3785
  205MPD1    H5 3177   3.014   2.236  17.602 -2.6733 -0.0101  1.8479
  205MPD1    N1 3178   3.241   1.743  17.407  0.2860  0.9545 -0.0001
  205MPD1    H6 3179   3.153   1.694  17.418  0.4034  1.0505  1.3688
  205MPD1    H7 3180   3.291   1.703  17.327 -1.9571 -3.2440  0.7274
  206MPD1     C 3181   3.010   0.461  16.699 -0.0130 -0.1711 -0.1827
  206MPD1    C1 3182   2.887   0.526  16.708 -0.2871 -0.2491  0.7493
  206MPD1    C2 3183   2.841   0.581  16.588 -0.5618  0.3545  0.3473
  206MPD1    C3 3184   2.904   0.552  16.470  0.1242 -0.1009  0.2907
  206MPD1    C4 3185   3.001   0.458  16.466  0.3504  0.1060 -0.3771
  206MPD1    C5 3186   3.060   0.418  16.577 -0.5644  0.1128  0.1466
  206MPD1     H 3187   2.754   0.645  16.583 -2.1531 -1.8817 -0.6351
  206MPD1    H1 3188   3.039   0.434  16.367 -0.2516  0.9732 -0.8163
  206MPD1    H2 3189   3.056   0.416  16.786  2.0391  0.1118 -1.1198
  206MPD1    H3 3190   3.150   0.358  16.575  0.2344  1.2935  0.3198
  206MPD1     N 3191   2.854   0.597  16.345 -0.3897 -0.0778 -0.3997
  206MPD1    H5 3192   2.907   0.577  16.261 -1.1505 -0.7002 -0.7302
  206MPD1    N1 3193   2.826   0.558  16.826  0.9573  0.1107  0.0230
  206MPD1    H6 3194   2.841   0.487  16.897 -1.7060 -0.4001  0.0618
  206MPD1    H7 3195   2.725   0.569  16.819  0.9493  0.0228  0.0056
  207MPD1     C 3196   2.202   2.039  10.220  0.1789  0.1251  0.5593
  207MPD1    C1 3197   2.062   2.041  10.239 -0.1646  0.3049  0.6900
  207MPD1    C2 3198   2.014   2.148  10.311 -0.1240 -0.2305  0.0555
  207MPD1    C3 3199   2.094   2.256  10.347 -0.0077  0.1937  0.4134
  207MPD1    C4 3200   2.223   2.264  10.300  0.1536  0.1347 -0.3875
  207MPD1    C5 3201   2.277   2.151  10.246 -0.5341  0.2246 -0.0543
  207MPD1     H 3202   1.907   2.141  10.331 -0.1961 -0.1868 -0.3223
  207MPD1    H1 3203   2.280   2.354  10.320  0.6370 -0.5889  1.4913
  207MPD1    H2 3204   2.245   1.949  10.177 -0.5444  0.2057 -0.3401
  207MPD1    H3 3205   2.382   2.156  10.222 -0.5644 -0.1834 -0.2546
  207MPD1     N 3206   2.045   2.370  10.421 -0.6283  0.0244  0.7682
  207MPD1    H5 3207   2.105   2.451  10.425 -1.6037  0.8109 -0.8181
  207MPD1    N1 3208   1.981   1.927  10.212 -0.3724  0.1443 -0.2968
  207MPD1    H6 3209   1.882   1.945  10.198 -0.8386 -2.8469 -0.8899
  207MPD1    H7 3210   2.018   1.872  10.135 -1.5595 -0.5807 -0.3635
  208MPD1     C 3211   2.536   0.698   1.154  0.1193 -0.6519  0.3131
  208MPD1    C1 3212   2.464   0.753   1.048  0.6132  0.3600  0.3840
  208MPD1    C2 3213   2.511   0.868   0.984  0.3331 -0.0408 -0.0532
  208MPD1    C3 3214   2.620   0.943   1.031  0.2562  0.1957  0.0717
  208MPD1    C4 3215   2.679   0.889   1.148 -0.0631 -0.0220  0.2575
  208MPD1    C5 3216   2.644   0.769   1.197  0.4647  0.0057  0.0491
  208MPD1     H 3217   2.464   0.905   0.894 -1.5478  1.0026  1.3835
  208MPD1    H1 3218   2.774   0.933   1.175 -0.8045  0.2455  2.5052
  208MPD1    H2 3219   2.518   0.603   1.204  0.4434 -1.0075 -0.2410
  208MPD1    H3 3220   2.703   0.720   1.274  2.4032  0.8077 -0.9066
  208MPD1     N 3221   2.656   1.064   0.965 -0.2325 -0.3022 -0.2309
  208MPD1    H5 3222   2.602   1.079   0.880 -2.7350 -2.0799  1.0181
  208MPD1    N1 3223   2.367   0.674   0.994  0.2254  0.3282 -0.1575
  208MPD1    H6 3224   2.324   0.612   1.063 -0.0055 -2.4040 -2.7973
  208MPD1    H7 3225   2.288   0.727   0.958 -0.6338  0.6719  2.2227
  209MPD1     C 3226   0.922   1.831  11.113 -0.0912 -0.4948  0.0169
  209MPD1    C1 3227   0.998   1.903  11.024 -0.3902  0.8944 -0.0860
  209MPD1    C2 3228   1.047   2.020  11.074 -0.0036  0.0651  1.0555
  209MPD1    C3 3229   1.043   2.046  11.210  0.1974 -0.3931  0.4721
  209MPD1    C4 3230   0.974   1.960  11.297 -0.8578 -0.0039  0.2859
  209MPD1    C5 3231   0.917   1.848  11.249 -0.6019 -0.0023  0.0455
  209MPD1     H 3232   1.103   2.078  11.002 -1.9194 -0.9913 -1.2915
  209MPD1    H1 3233   0.973   1.982  11.404 -0.4566  1.2976  0.0238
  209MPD1    H2 3234   0.887   1.733  11.082 -0.1234 -0.8976  1.3245
  209MPD1    H3 3235   0.856   1.782  11.310 -2.6445 -0.1338 -2.1417
  209MPD1     N 3236   1.117   2.158  11.250 -0.4485  0.2003  0.2591
  209MPD1    H5 3237   1.162   2.213  11.178  1.5189  2.6055  3.2799
  209MPD1    N1 3238   1.002   1.883  10.888 -0.7482 -0.2590  0.5197
  209MPD1    H6 3239   1.079   1.935  10.845 -0.2411 -0.4801  1.1706
  209MPD1    H7 3240   0.993   1.786  10.858  1.7801  0.2901 -2.0528
  210MPD1     C 3241   1.257   2.513  12.173  0.1222 -0.2750 -0.6627
  210MPD1    C1 3242   1.256   2.620  12.090 -0.1249  1.0637 -0.2401
  210MPD1    C2 3243   1.277   2.600  11.956 -0.5083  0.8697  0.2907
  210MPD1    C3 3244   1.298   2.473  11.907  0.5965  0.1458  0.2586
  210MPD1    C4 3245   1.283   2.365  11.998  0.7249 -0.3902 -0.0090
  210MPD1    C5 3246   1.278   2.391  12.126  0.4039  0.8315  0.1326
  210MPD1     H 3247   1.283   2.684  11.887  0.1965  1.2218  0.7787
  210MPD1    H1 3248   1.304   2.264  11.965 -1.2844 -0.1002 -2.2145
  210MPD1    H2 3249   1.238   2.532  12.278 -2.3526 -3.6547 -0.4995
  210MPD1    H3 3250   1.287   2.304  12.190 -4.5189  1.2593  1.4400
  210MPD1     N 3251   1.313   2.446  11.771  0.2808 -0.2217 -0.6301
  210MPD1    H5 3252   1.318   2.346  11.757  1.7634 -0.2971  0.4029
  210MPD1    N1 3253   1.246   2.743  12.148  0.4103  0.2124 -0.2851
  210MPD1    H6 3254   1.226   2.815  12.078 -0.9441 -0.1351 -0.2721
  210MPD1    H7 3255   1.189   2.739  12.232  0.7779  0.0171 -0.0458
  211MPD1     C 3256   3.690   2.823  15.922  0.2435 -0.1271 -0.4351
  211MPD1    C1 3257   3.758   2.852  16.040  0.0574 -0.7994  0.1065
  211MPD1    C2 3258   3.689   2.911  16.138  0.9579 -0.7696 -0.9207
  211MPD1    C3 3259   3.564   2.960  16.109  0.2443  0.5151  0.0365
  211MPD1    C4 3260   3.505   2.944  15.987 -0.2007  0.2295  0.0105
  211MPD1    C5 3261   3.565   2.868  15.894 -0.2701 -0.3660 -0.1685
  211MPD1     H 3262   3.733   2.930  16.236  0.7266  1.0942 -1.1938
  211MPD1    H1 3263   3.400   2.960  15.965 -0.8584 -0.1884  2.8469
  211MPD1    H2 3264   3.738   2.767  15.842  0.9327  1.8082 -1.3701
  211MPD1    H3 3265   3.521   2.849  15.796 -2.8904 -0.9735  1.1163
  211MPD1     N 3266   3.492   3.018  16.220 -0.1321  0.6945  0.0445
  211MPD1    H5 3267   3.550   3.033  16.302 -3.1744 -0.9063  2.4479
  211MPD1    N1 3268   3.888   2.803  16.066 -0.6356  0.0003  0.2901
  211MPD1    H6 3269   3.923   2.769  15.976  1.2580  3.1952 -0.1870
  211MPD1    H7 3270   3.951   2.866  16.115  0.3204 -1.0873  0.4586
  212MPD1     C 3271   2.410   0.911  16.675  0.1097  0.2907  0.0113
  212MPD1    C1 3272   2.303   0.916  16.761 -0.6087 -0.2724 -0.4392
  212MPD1    C2 3273   2.235   0.801  16.794 -0.2713  0.5616  0.1466
  212MPD1    C3 3274   2.280   0.674  16.768  0.5288 -0.2720  0.3952
  212MPD1    C4 3275   2.396   0.670  16.696 -0.1839 -0.1246  0.5488
  212MPD1    C5 3276   2.449   0.786  16.642 -0.7428  0.2920  0.2460
  212MPD1     H 3277   2.138   0.813  16.843 -1.5483 -0.7600 -2.0607
  212MPD1    H1 3278   2.443   0.579  16.662 -0.0210 -0.1329  0.7976
  212MPD1    H2 3279   2.462   0.994  16.629 -1.8752  2.4845  1.7756
  212MPD1    H3 3280   2.541   0.782  16.584 -1.8418  0.2899 -1.4752
  212MPD1     N 3281   2.231   0.549  16.819  0.7417 -0.7948 -0.4845
  212MPD1    H5 3282   2.280   0.462  16.804  1.6472  0.1958 -3.1407
  212MPD1    N1 3283   2.259   1.045  16.794 -0.1825 -0.0460 -0.1387
  212MPD1    H6 3284   2.332   1.113  16.811 -0.7450  0.4990  0.0955
  212MPD1    H7 3285   2.191   1.057  16.869  2.1596 -1.5723  2.2266
  213MPD1     C 3286   1.456   1.031  15.416 -0.3741 -0.2076  0.1407
  213MPD1    C1 3287   1.448   1.173  15.400  0.5072  0.5343 -0.4046
  213MPD1    C2 3288   1.342   1.225  15.465 -0.0785 -0.0497  0.5614
  213MPD1    C3 3289   1.240   1.152  15.514 -0.5450  0.2016 -0.3557
  213MPD1    C4 3290   1.237   1.015  15.493  0.1471 -0.3266  0.0552
  213MPD1    C5 3291   1.350   0.953  15.446  0.6817 -0.0879  0.2875
  213MPD1     H 3292   1.350   1.333  15.467  0.3931 -0.0429 -1.0227
  213MPD1    H1 3293   1.159   0.952  15.536 -0.1215  0.6465  1.0143
  213MPD1    H2 3294   1.541   0.973  15.382 -0.0999  0.6858 -0.7260
  213MPD1    H3 3295   1.349   0.844  15.444 -3.8520 -0.0823  1.3781
  213MPD1     N 3296   1.136   1.225  15.572 -0.7859  0.2423  0.0271
  213MPD1    H5 3297   1.152   1.325  15.568 -0.7116  0.3439  3.3990
  213MPD1    N1 3298   1.563   1.246  15.387 -0.4144  0.5378 -0.2133
  213MPD1    H6 3299   1.639   1.216  15.325 -0.8246  0.3135 -0.6074
  213MPD1    H7 3300   1.543   1.334  15.340  1.2744  0.6419 -0.7397
  214MPD1     C 3301   0.504   0.756  16.142  0.0629 -0.3559 -0.1208
  214MPD1    C1 3302   0.426   0.837  16.067  0.6576  0.7064  0.2199
  214MPD1    C2 3303   0.477   0.930  15.980  0.5109  0.2014  0.1877
  214MPD1    C3 3304   0.614   0.948  15.967  0.5847 -0.1546  0.0863
  214MPD1    C4 3305   0.697   0.854  16.039 -0.2231  0.3465 -0.0024
  214MPD1    C5 3306   0.640   0.755  16.110  0.4375  0.2716  0.6311
  214MPD1     H 3307   0.412   0.999  15.926 -0.7458 -1.8265 -0.8680
  214MPD1    H1 3308   0.805   0.846  16.036 -0.2477 -0.3415  1.2133
  214MPD1    H2 3309   0.466   0.681  16.210 -0.4667  0.1457  0.1452
  214MPD1    H3 3310   0.717   0.694  16.157  0.1290 -1.3511 -0.9473
  214MPD1     N 3311   0.681   1.053  15.899 -0.3742 -0.0572 -0.2202
  214MPD1    H5 3312   0.782   1.052  15.889 -0.2064 -2.9115  1.6860
  214MPD1    N1 3313   0.286   0.832  16.092 -0.2523 -0.8419  0.4380
  214MPD1    H6 3314   0.237   0.869  16.010 -1.0508 -2.2699  0.2757
  214MPD1    H7 3315   0.253   0.737  16.108 -1.7235 -0.6855 -1.5796
  215MPD1     C 3316   0.509   1.650  10.795 -0.5078  0.3480  0.2860
  215MPD1    C1 3317   0.641   1.668  10.760 -0.1263 -0.1573 -0.2055
  215MPD1    C2 3318   0.704   1.784  10.786 -0.5849  0.8780 -0.1830
  215MPD1    C3 3319   0.647   1.881  10.871 -0.9213 -0.4239 -0.7004
  215MPD1    C4 3320   0.521   1.865  10.914 -0.1311 -0.0116  0.4701
  215MPD1    C5 3321   0.457   1.754  10.872  0.2242 -0.1030  0.0869
  215MPD1     H 3322   0.805   1.796  10.748 -0.1574 -3.8500 -0.5539
  215MPD1    H1 3323   0.462   1.931  10.975  0.5598  0.6047  0.4648
  215MPD1    H2 3324   0.453   1.559  10.777 -0.0328  0.1800 -0.3299
  215MPD1    H3 3325   0.360   1.728  10.914 -1.3864  2.5403 -1.9718
  215MPD1     N 3326   0.723   1.995  10.921 -0.4842 -0.2471  0.2617
  215MPD1    H5 3327   0.816   1.994  10.881 -1.2596 -0.7240 -1.5409
  215MPD1    N1 3328   0.690   1.562  10.674  0.2674 -0.2071 -0.2050
  215MPD1    H6 3329   0.657   1.470  10.704  2.0969 -0.2370  1.7076
  215MPD1    H7 3330   0.791   1.555  10.666  0.3308 -1.2284  1.5152
  216MPD1     C 3331   1.632   0.594   0.530 -0.2247  0.0326 -1.2316
  216MPD1    C1 3332   1.750   0.663   0.519 -0.3147  0.4999 -0.2653
  216MPD1    C2 3333   1.835   0.620   0.419 -0.1530 -0.1926 -0.3033
  216MPD1    C3 3334   1.803   0.514   0.334 -0.2483  0.3977  0.1783
  216MPD1    C4 3335   1.684   0.447   0.352  0.1660  1.2618  0.2884
  216MPD1    C5 3336   1.596   0.490   0.450  0.2659 -1.1304  0.0242
  216MPD1     H 3337   1.927   0.676   0.402  1.1620 -2.1909  0.1965
  216MPD1    H1 3338   1.643   0.368   0.290 -2.3671  0.4300  2.9790
  216MPD1    H2 3339   1.562   0.624   0.608  0.7407 -0.7810 -0.0531
  216MPD1    H3 3340   1.503   0.435   0.465 -1.2578  1.3522 -0.4330
  216MPD1     N 3341   1.890   0.503   0.222  0.5413  0.0845 -0.2254
  216MPD1    H5 3342   1.966   0.569   0.207 -0.8507  2.4033  2.9460
  216MPD1    N1 3343   1.786   0.758   0.617  0.3588 -0.3482 -0.0410
  216MPD1    H6 3344   1.864   0.823   0.604 -1.7681  2.2456  0.2104
  216MPD1    H7 3345   1.706   0.799   0.665 -0.9797 -3.7229  0.5891
  217MPD1     C 3346   3.747   1.283   8.511  0.6045 -0.7650 -0.2649
  217MPD1    C1 3347   3.876   1.289   8.566  0.8292  0.3153  0.1347
  217MPD1    C2 3348   3.890   1.274   8.703 -0.3069 -0.3086  0.5909
  217MPD1    C3 3349   3.786   1.247   8.785  0.3705  0.3530 -0.1763
  217MPD1    C4 3350   3.662   1.244   8.724 -0.0358 -0.1660  0.1581
  217MPD1    C5 3351   3.637   1.272   8.591 -0.4173 -0.3287 -0.2655
  217MPD1     H 3352   3.982   1.293   8.756 -1.2606  2.3504  1.2708
  217MPD1    H1 3353   3.577   1.223   8.789  1.2785 -0.0344  1.9241
  217MPD1    H2 3354   3.728   1.285   8.404 -0.9951  0.7997  0.0529
  217MPD1    H3 3355   3.539   1.265   8.544 -0.4203  2.2322 -0.6442
  217MPD1     N 3356   3.807   1.220   8.921 -0.2208  0.3054  0.3928
  217MPD1    H5 3357   3.721   1.219   8.975 -1.1412  3.0674 -1.0355
  217MPD1    N1 3358   3.988   1.287   8.483 -0.7063 -0.2949  0.4301
  217MPD1    H6 3359   4.076   1.306   8.531 -1.2543 -1.3711  1.8643
  217MPD1    H7 3360   3.966   1.350   8.406 -0.7826  1.0686  1.5548
  218MPD1     C 3361   0.068   3.418  12.839  0.2416  0.6114 -0.3769
  218MPD1    C1 3362   0.078   3.291  12.896  0.1415  0.3870 -0.3148
  218MPD1    C2 3363   0.179   3.207  12.851 -0.6718  0.7117 -0.6049
  218MPD1    C3 3364   0.258   3.254  12.756  0.4044 -0.5407 -0.0666
  218MPD1    C4 3365   0.249   3.382  12.700  0.5160 -0.0244  0.5514
  218MPD1    C5 3366   0.140   3.454  12.732  0.6803  0.5355  0.0358
  218MPD1     H 3367   0.196   3.116  12.907  0.5298  0.1802 -1.8512
  218MPD1    H1 3368   0.296   3.413  12.608  0.9178 -0.2813  0.6691
  218MPD1    H2 3369   4.732   3.482  12.887 -2.4929 -3.1747  0.5753
  218MPD1    H3 3370   0.135   3.550  12.682 -2.0773  2.5829  4.2860
  218MPD1     N 3371   0.361   3.166  12.716 -0.6762  0.2388  0.6586
  218MPD1    H5 3372   0.370   3.075  12.761  1.2963  0.4132  0.6167
  218MPD1    N1 3373   0.005   3.254  13.014 -0.0020 -0.4926 -0.1512
  218MPD1    H6 3374   4.657   3.308  13.027  1.0360  1.4570 -1.4048
  218MPD1    H7 3375   4.719   3.155  13.016 -0.2623 -0.4092  0.9041
  219MPD1     C 3376   1.154   3.194  12.063 -0.1743  0.0432 -0.1710
  219MPD1    C1 3377   1.086   3.076  12.064  0.4254  0.3042  0.4374
  219MPD1    C2 3378   1.003   3.046  12.162 -0.2847 -1.0138 -0.4137
  219MPD1    C3 3379   0.963   3.140  12.255  0.2352 -0.1867 -0.4768
  219MPD1    C4 3380   1.027   3.259  12.254 -0.2334  0.5952 -0.3271
  219MPD1    C5 3381   1.125   3.281  12.160  0.4073 -0.1383  0.3353
  219MPD1     H 3382   0.953   2.950  12.166 -0.7844 -0.7141  0.5699
  219MPD1    H1 3383   1.000   3.338  12.323 -0.6071 -0.6653  0.9904
  219MPD1    H2 3384   1.236   3.215  11.996 -0.3621  0.4894 -0.2611
  219MPD1    H3 3385   1.180   3.375  12.157  0.2612 -0.1031 -1.5105
  219MPD1     N 3386   0.865   3.112  12.358  0.3499 -0.1330  0.3623
  219MPD1    H5 3387   0.841   3.193  12.416  2.5244  1.0961 -0.4704
  219MPD1    N1 3388   1.136   2.978  11.977 -0.3623  0.2002 -0.0684
  219MPD1    H6 3389   1.183   3.003  11.890 -2.3508 -1.6482 -1.6750
  219MPD1    H7 3390   1.064   2.911  11.948  1.3149 -1.9416  0.7028
  220MPD1     C 3391   0.338   3.307   9.707  0.3084  0.0404 -0.0921
  220MPD1    C1 3392   0.472   3.283   9.710 -0.4215  0.4785 -0.7408
  220MPD1    C2 3393   0.511   3.163   9.768  0.0653  0.3528 -0.2674
  220MPD1    C3 3394   0.424   3.066   9.805 -0.5403  0.8487  0.0395
  220MPD1    C4 3395   0.288   3.096   9.791 -0.1360  0.2464  0.1625
  220MPD1    C5 3396   0.245   3.210   9.744 -0.3232  0.6380 -0.2063
  220MPD1     H 3397   0.613   3.133   9.785  0.2369  0.7850 -0.5397
  220MPD1    H1 3398   0.203   3.034   9.819 -0.6019  0.8876  0.1658
  220MPD1    H2 3399   0.289   3.397   9.671  1.5126  0.1069 -1.5579
  220MPD1    H3 3400   0.139   3.224   9.725 -0.3421  1.4917  0.4861
  220MPD1     N 3401   0.476   2.946   9.862  0.0064 -0.5319 -0.1789
  220MPD1    H5 3402   0.577   2.943   9.866  0.0278 -0.9029 -1.1140
  220MPD1    N1 3403   0.567   3.383   9.676  0.5454 -0.1984 -0.3296
  220MPD1    H6 3404   0.648   3.334   9.638  1.0478  0.0747  0.3791
  220MPD1    H7 3405   0.533   3.441   9.600  0.3805  1.0421  0.6811
  221MPD1     C 3406   2.518   2.299  17.606  0.1122  0.5923 -0.1544
  221MPD1    C1 3407   2.535   2.164  17.582 -0.2261  0.2920 -0.3096
  221MPD1    C2 3408   2.632   2.126  17.489  0.0239 -0.8225 -0.0607
  221MPD1    C3 3409   2.723   2.211  17.442  0.3221 -0.0217  0.2498
  221MPD1    C4 3410   2.714   2.350  17.479  0.0448  0.2124 -0.4628
  221MPD1    C5 3411   2.612   2.392  17.559 -0.3819 -0.0959  0.1122
  221MPD1     H 3412   2.636   2.018  17.480  0.2333 -0.8339  0.1666
  221MPD1    H1 3413   2.791   2.420  17.449  1.1089 -0.9370 -0.3914
  221MPD1    H2 3414   2.437   2.339  17.666 -2.6548 -1.1951 -2.6958
  221MPD1    H3 3415   2.609   2.497  17.584 -1.3669 -0.0029 -0.4071
  221MPD1     N 3416   2.828   2.178  17.360  0.4065 -0.3290 -0.1099
  221MPD1    H5 3417   2.892   2.254  17.338  1.0176 -0.8568 -0.1267
  221MPD1    N1 3418   2.434   2.068  17.620  0.1933 -0.6739 -0.8139
  221MPD1    H6 3419   2.390   2.080  17.711 -0.2102  0.0263 -1.1011
  221MPD1    H7 3420   2.475   1.977  17.642  1.9729  0.5132  0.7408
  222MPD1     C 3421   1.745   1.596   1.391  0.0041  0.2372 -0.0954
  222MPD1    C1 3422   1.607   1.602   1.396  0.4896  0.1404  0.2723
  222MPD1    C2 3423   1.547   1.711   1.339  0.2048  0.1861 -0.0444
  222MPD1    C3 3424   1.617   1.829   1.317  0.2678 -0.2142  0.4284
  222MPD1    C4 3425   1.755   1.835   1.336 -0.2209  0.5336 -0.2034
  222MPD1    C5 3426   1.814   1.715   1.370 -0.1209 -0.0414  0.9754
  222MPD1     H 3427   1.442   1.695   1.314  0.0790 -0.4776  0.8807
  222MPD1    H1 3428   1.810   1.925   1.313 -0.2556  0.8220  0.8613
  222MPD1    H2 3429   1.811   1.514   1.414  1.0014  1.1214  0.1969
  222MPD1    H3 3430   1.921   1.707   1.358 -0.3812 -1.0424 -0.8059
  222MPD1     N 3431   1.558   1.943   1.256  0.5289  0.3916 -0.4870
  222MPD1    H5 3432   1.619   2.024   1.252 -1.0639  1.6295  0.2796
  222MPD1    N1 3433   1.544   1.477   1.410  0.2778 -0.0120 -0.5832
  222MPD1    H6 3434   1.446   1.478   1.436  0.1003 -0.4114 -1.2122
  222MPD1    H7 3435   1.590   1.421   1.481  0.5117 -2.8034 -2.9257
  223MPD1     C 3436   0.729   2.431   0.722  0.0698 -0.9412 -0.4147
  223MPD1    C1 3437   0.821   2.524   0.749 -0.9160 -0.1184  0.2811
  223MPD1    C2 3438   0.946   2.480   0.810 -0.2776  0.2888  0.2499
  223MPD1    C3 3439   0.966   2.347   0.829  1.1747 -0.2051 -0.2466
  223MPD1    C4 3440   0.865   2.256   0.799  0.0136 -0.4165  0.3232
  223MPD1    C5 3441   0.748   2.300   0.747 -0.3431  0.1588  0.6932
  223MPD1     H 3442   1.018   2.553   0.847 -0.2372  0.3052  0.1390
  223MPD1    H1 3443   0.872   2.149   0.819  0.4975 -0.3572  0.4575
  223MPD1    H2 3444   0.632   2.464   0.688  0.5148 -0.9611 -1.6746
  223MPD1    H3 3445   0.668   2.229   0.730  1.3429 -1.3252 -1.0213
  223MPD1     N 3446   1.090   2.310   0.886  0.4461  0.0939  0.2514
  223MPD1    H5 3447   1.161   2.378   0.913  0.6362 -0.0327  0.0679
  223MPD1    N1 3448   0.795   2.659   0.712  0.1788 -0.2105  0.5814
  223MPD1    H6 3449   0.883   2.707   0.695  0.6756 -1.3246 -0.0181
  223MPD1    H7 3450   0.732   2.667   0.632 -0.4600 -2.2088  0.8900
  224MPD1     C 3451   4.182   1.420   9.046 -0.5161 -0.4313  0.2554
  224MPD1    C1 3452   4.125   1.541   9.064 -0.2283 -0.6178  0.3202
  224MPD1    C2 3453   4.085   1.581   9.191 -0.1222 -0.6226 -0.3381
  224MPD1    C3 3454   4.104   1.501   9.303 -0.6417 -0.0554 -0.0812
  224MPD1    C4 3455   4.156   1.374   9.287  0.4294 -0.4124 -0.1042
  224MPD1    C5 3456   4.196   1.341   9.157  0.1065 -0.5694  0.5903
  224MPD1     H 3457   4.042   1.679   9.210  3.9074  0.7060  2.0011
  224MPD1    H1 3458   4.177   1.299   9.362 -0.1824  0.9901  1.4728
  224MPD1    H2 3459   4.207   1.390   8.945  1.2101  0.4749  0.4096
  224MPD1    H3 3460   4.249   1.248   9.139  0.5325 -0.7879  2.9715
  224MPD1     N 3461   4.074   1.539   9.438  0.0080 -0.0240  0.1426
  224MPD1    H5 3462   4.119   1.485   9.512  1.9658 -1.2608 -1.9205
  224MPD1    N1 3463   4.126   1.636   8.959 -0.5248  0.1072  0.8728
  224MPD1    H6 3464   4.140   1.592   8.869  2.2198 -1.1783  1.9410
  224MPD1    H7 3465   4.057   1.711   8.970 -0.0344  0.1528  3.8702
  225MPD1     C 3466   0.599   3.810  12.587  0.5838  0.1617 -0.1934
  225MPD1    C1 3467   0.552   3.678  12.590  0.6496  0.4240  0.1794
  225MPD1    C2 3468   0.456   3.643  12.494 -0.4456 -0.2128  0.1179
  225MPD1    C3 3469   0.379   3.734  12.430  0.1187 -0.5037 -0.2545
  225MPD1    C4 3470   0.423   3.862  12.428  0.8413  0.7175 -0.5846
  225MPD1    C5 3471   0.530   3.893  12.508 -0.5546  0.0850  0.3797
  225MPD1     H 3472   0.425   3.539  12.495  0.3655 -0.4588  0.0531
  225MPD1    H1 3473   0.380   3.943  12.369  0.9788 -0.3296 -2.1179
  225MPD1    H2 3474   0.681   3.851  12.645  0.5027  3.2260 -2.2003
  225MPD1    H3 3475   0.568   3.995  12.507 -0.2678 -0.0260 -0.1715
  225MPD1     N 3476   0.266   3.700  12.356 -0.2133 -0.0575  0.0149
  225MPD1    H5 3477   0.219   3.780  12.314  0.6237  0.2688 -0.2978
  225MPD1    N1 3478   0.619   3.583  12.665 -0.0580  0.3808 -0.3359
  225MPD1    H6 3479   0.652   3.623  12.753  3.4993 -1.7556 -0.7057
  225MPD1    H7 3480   0.552   3.509  12.686 -0.9112  0.9536 -1.0600
  226MPD1     C 3481   4.259   3.024   9.746 -0.4920  0.3736 -0.1498
  226MPD1    C1 3482   4.203   3.143   9.754 -0.1074  0.1770 -0.3094
  226MPD1    C2 3483   4.067   3.156   9.774 -0.2380  0.1044 -0.0938
  226MPD1    C3 3484   3.988   3.046   9.806 -0.4170  1.1539  0.5452
  226MPD1    C4 3485   4.049   2.919   9.791  0.4246  0.3792 -0.6611
  226MPD1    C5 3486   4.183   2.910   9.749 -0.3936 -0.6078 -0.3607
  226MPD1     H 3487   4.021   3.253   9.759  0.0664  0.0226 -1.5186
  226MPD1    H1 3488   3.989   2.830   9.802  3.1020 -1.1588  1.2302
  226MPD1    H2 3489   4.363   3.012   9.718 -0.6401  0.2638 -0.6480
  226MPD1    H3 3490   4.226   2.813   9.730 -0.9442 -1.2340  1.5589
  226MPD1     N 3491   3.848   3.053   9.841 -0.0740  0.7713 -0.1790
  226MPD1    H5 3492   3.795   2.967   9.844 -1.4480  1.5148 -3.0251
  226MPD1    N1 3493   4.278   3.247   9.695  0.1347  0.2497  0.1010
  226MPD1    H6 3494   4.249   3.340   9.723 -1.2570 -0.1271 -0.0645
  226MPD1    H7 3495   4.374   3.234   9.723  0.2708  0.0164 -0.4553
  227MPD1     C 3496   2.986   3.686  10.100 -0.2302 -0.4404  0.5125
  227MPD1    C1 3497   2.962   3.567  10.161  0.1429 -0.0612  1.0427
  227MPD1    C2 3498   3.045   3.459  10.132  0.4844 -0.4351  0.3916
  227MPD1    C3 3499   3.163   3.478  10.070 -0.2637  0.8991 -0.4277
  227MPD1    C4 3500   3.184   3.595  10.008 -0.3203 -0.0041  0.8091
  227MPD1    C5 3501   3.093   3.697  10.026  0.6546 -0.4226  0.2540
  227MPD1     H 3502   3.019   3.362  10.173  0.9552 -1.3330 -1.4504
  227MPD1    H1 3503   3.266   3.608   9.938  1.1610  0.0235  2.5728
  227MPD1    H2 3504   2.923   3.773  10.114  1.2232  0.7091 -0.0328
  227MPD1    H3 3505   3.116   3.791   9.977 -0.6800  0.6371  1.6473
  227MPD1     N 3506   3.260   3.375  10.049 -0.3552  0.0796  0.6803
  227MPD1    H5 3507   3.233   3.284  10.085 -0.9085  0.0799  0.2479
  227MPD1    N1 3508   2.852   3.555  10.248 -0.1637 -0.0482  0.0923
  227MPD1    H6 3509   2.853   3.461  10.289 -3.1353  0.7965  2.1169
  227MPD1    H7 3510   2.769   3.556  10.189  0.5635 -1.2714 -0.9599
  228MPD1     C 3511   1.676   1.653  12.951 -0.1492  0.1661  0.6925
  228MPD1    C1 3512   1.620   1.616  12.829  0.4138  0.4727  0.0903
  228MPD1    C2 3513   1.604   1.486  12.820 -0.1130 -0.3877  0.9825
  228MPD1    C3 3514   1.594   1.402  12.928  0.2977  0.0016  0.1866
  228MPD1    C4 3515   1.630   1.443  13.050 -0.0756  0.0727 -0.1767
  228MPD1    C5 3516   1.686   1.565  13.059  0.5348  0.0316  0.2176
  228MPD1     H 3517   1.571   1.447  12.724 -0.6711  0.7077  0.7244
  228MPD1    H1 3518   1.636   1.381  13.139 -2.3136  0.1869  0.0526
  228MPD1    H2 3519   1.717   1.752  12.968  0.8792 -0.1583  0.0974
  228MPD1    H3 3520   1.743   1.595  13.146 -1.0297  1.3029  0.8009
  228MPD1     N 3521   1.533   1.279  12.909 -0.5399 -0.4060 -0.0253
  228MPD1    H5 3522   1.492   1.271  12.817  0.7066  3.2522 -0.8914
  228MPD1    N1 3523   1.620   1.692  12.713  0.0070 -0.7389 -0.3245
  228MPD1    H6 3524   1.552   1.650  12.650  1.1705 -2.1940 -0.5846
  228MPD1    H7 3525   1.594   1.786  12.743 -0.6131 -0.7800 -0.7253
  229MPD1     C 3526   1.179   0.122  14.445 -0.2494  0.3503  1.1492
  229MPD1    C1 3527   1.194   0.157  14.577 -0.3901 -0.4031 -0.2177
  229MPD1    C2 3528   1.296   0.107  14.652  0.2598  0.5723  0.4633
  229MPD1    C3 3529   1.399   0.047  14.586  0.6411 -0.5415 -0.6078
  229MPD1    C4 3530   1.400   0.034  14.453 -0.0709  0.0393  0.4427
  229MPD1    C5 3531   1.293   0.076  14.383  0.3950 -0.0812 -0.0344
  229MPD1     H 3532   1.286   0.112  14.760  0.2702  1.5340  0.4201
  229MPD1    H1 3533   1.479   4.724  14.395  0.0902  0.9902 -0.1118
  229MPD1    H2 3534   1.107   0.160  14.373  0.4333  0.5874  0.5879
  229MPD1    H3 3535   1.294   0.062  14.275 -1.1425  0.8302 -0.1661
  229MPD1     N 3536   1.496   4.722  14.661  0.6829  0.6643 -0.1144
  229MPD1    H5 3537   1.567   4.672  14.609 -1.3589 -0.8936 -1.4100
  229MPD1    N1 3538   1.087   0.219  14.644 -0.2987 -0.1957  0.0217
  229MPD1    H6 3539   1.117   0.275  14.723 -1.2299  0.9789 -0.4567
  229MPD1    H7 3540   1.044   0.290  14.584  1.3865  0.0092 -0.9134
  230MPD1     C 3541   1.803   0.145  15.622  0.2616 -0.3629 -0.5260
  230MPD1    C1 3542   1.701   0.197  15.554  0.5961 -0.3109 -0.0592
  230MPD1    C2 3543   1.684   0.142  15.429 -0.7846  0.3074 -0.0244
  230MPD1    C3 3544   1.758   0.041  15.372 -0.5809  0.5147 -0.3238
  230MPD1    C4 3545   1.868   4.731  15.445 -0.5802  0.2765  0.1920
  230MPD1    C5 3546   1.882   0.040  15.573 -0.4613  0.5342  0.3102
  230MPD1     H 3547   1.594   0.175  15.378 -0.7766 -0.8330 -0.7668
  230MPD1    H1 3548   1.935   4.653  15.409  0.4108  1.3501 -0.3119
  230MPD1    H2 3549   1.815   0.174  15.725  0.0503 -2.1967  0.0163
  230MPD1    H3 3550   1.961   0.001  15.636  0.6644 -0.3481 -1.6385
  230MPD1     N 3551   1.719   4.723  15.246 -0.2218 -0.0938  0.2961
  230MPD1    H5 3552   1.652   0.047  15.201 -0.5053 -0.4582  0.2173
  230MPD1    N1 3553   1.609   0.281  15.617  0.1762  0.0344  0.5005
  230MPD1    H6 3554   1.669   0.322  15.689  1.7543 -0.8062 -0.3496
  230MPD1    H7 3555   1.555   0.347  15.561  2.2574  0.3657 -1.1198
  231MPD1     C 3556   4.092   1.460  15.445 -0.7220  0.1926 -0.0632
  231MPD1    C1 3557   4.182   1.377  15.512 -0.2170 -0.0593 -0.2868
  231MPD1    C2 3558   4.318   1.395  15.495  0.4889 -1.0587 -0.0269
  231MPD1    C3 3559   4.363   1.505  15.414  0.0448  0.3085 -0.1464
  231MPD1    C4 3560   4.272   1.589  15.347  0.1577 -0.3378 -0.1832
  231MPD1    C5 3561   4.141   1.560  15.362  0.0456 -0.1236 -0.1940
  231MPD1     H 3562   4.395   1.329  15.534 -0.6897 -0.7013  2.8493
  231MPD1    H1 3563   4.296   1.678  15.290  1.3336 -0.7044 -0.2614
  231MPD1    H2 3564   3.985   1.446  15.451 -0.6744 -0.7805 -1.4410
  231MPD1    H3 3565   4.070   1.619  15.305  0.1797  1.9163  1.7426
  231MPD1     N 3566   4.501   1.518  15.396  0.1209 -0.3166  0.0347
  231MPD1    H5 3567   4.560   1.440  15.423 -1.5037 -1.3627  0.6190
  231MPD1    N1 3568   4.131   1.261  15.569 -0.2908  0.7973  0.4850
  231MPD1    H6 3569   4.039   1.270  15.610  1.2596  1.0808  3.9221
  231MPD1    H7 3570   4.201   1.212  15.624 -2.3275 -3.8624 -1.0942
  232MPD1     C 3571   1.517   0.154   0.784 -0.0249 -0.3624  0.2626
  232MPD1    C1 3572   1.553   0.020   0.796  0.3980 -0.0933  0.0306
  232MPD1    C2 3573   1.482   4.659   0.724  0.0465  0.0065  0.0320
  232MPD1    C3 3574   1.365   4.690   0.656  0.1903  0.0769  0.3310
  232MPD1    C4 3575   1.329   0.085   0.651  0.0987 -0.1020 -0.0934
  232MPD1    C5 3576   1.406   0.179   0.717 -0.3546 -0.7150  0.9568
  232MPD1     H 3577   1.515   4.557   0.735 -0.5606 -0.1116  0.6790
  232MPD1    H1 3578   1.238   0.110   0.598 -0.3179 -0.3605  0.5002
  232MPD1    H2 3579   1.588   0.218   0.836 -0.9183 -0.1706  1.2547
  232MPD1    H3 3580   1.362   0.278   0.723  3.1346  0.7163  2.4719
  232MPD1     N 3581   1.306   4.587   0.576 -0.3889 -0.1880  0.8322
  232MPD1    H5 3582   1.252   4.626   0.500  0.7997  1.2127  0.7071
  232MPD1    N1 3583   1.681   4.726   0.853  0.1520  0.1698 -0.0061
  232MPD1    H6 3584   1.686   4.630   0.888  3.7301  0.9272  1.5665
  232MPD1    H7 3585   1.705   0.047   0.932  2.8745 -1.6700  0.5201
  233MPD1     C 3586   2.363   2.218   1.158  0.0128 -0.4895 -0.0201
  233MPD1    C1 3587   2.363   2.356   1.167  0.0742 -0.9813 -0.7357
  233MPD1    C2 3588   2.483   2.409   1.213  0.0364 -0.0245  0.0469
  233MPD1    C3 3589   2.594   2.334   1.242  0.1830 -0.0384 -0.0021
  233MPD1    C4 3590   2.581   2.199   1.237  0.1786 -0.3214 -0.1142
  233MPD1    C5 3591   2.469   2.143   1.193 -0.0784 -0.5527 -0.6726
  233MPD1     H 3592   2.481   2.514   1.240  0.9726 -0.3996  1.6007
  233MPD1    H1 3593   2.668   2.142   1.268  1.0601  0.7418 -0.6207
  233MPD1    H2 3594   2.278   2.166   1.116 -0.9047  1.5226 -0.6509
  233MPD1    H3 3595   2.467   2.035   1.189  0.7588 -0.6770  2.2631
  233MPD1     N 3596   2.713   2.388   1.279  0.0072 -0.0689  0.5853
  233MPD1    H5 3597   2.788   2.320   1.291  0.2532 -0.2643 -1.8894
  233MPD1    N1 3598   2.244   2.426   1.157 -0.9724  0.2911  0.1333
  233MPD1    H6 3599   2.260   2.516   1.112 -1.2118  0.9725  1.3842
  233MPD1    H7 3600   2.167   2.383   1.107 -0.7093  0.0674 -0.0760
  234MPD1     C 3601   0.584   0.896  10.175  0.7931  0.0636  0.5115
  234MPD1    C1 3602   0.505   1.000  10.205  0.2195 -0.5097  0.4352
  234MPD1    C2 3603   0.377   0.997  10.155  0.7381 -0.2069 -0.6746
  234MPD1    C3 3604   0.328   0.878  10.097 -0.1764 -0.1903 -0.4084
  234MPD1    C4 3605   0.411   0.770  10.076  0.4055 -0.1990 -0.5017
  234MPD1    C5 3606   0.538   0.781  10.119  0.2296  0.2070  0.5020
  234MPD1     H 3607   0.315   1.084  10.174 -0.4977 -1.6451  1.8545
  234MPD1    H1 3608   0.385   0.677  10.028 -2.0583  0.0872  0.2914
  234MPD1    H2 3609   0.691   0.887  10.194  0.5490 -1.2806  1.1752
  234MPD1    H3 3610   0.606   0.698  10.105 -1.2281 -0.9206  0.2035
  234MPD1     N 3611   0.193   0.880  10.052 -0.4226 -0.4252 -0.6306
  234MPD1    H5 3612   0.125   0.948  10.083  1.2416  1.1218 -0.4028
  234MPD1    N1 3613   0.564   1.122  10.236 -0.4374  0.3441  0.8337
  234MPD1    H6 3614   0.646   1.113  10.296  1.8904 -0.8967 -2.5532
  234MPD1    H7 3615   0.502   1.193  10.274 -2.3741 -0.1878 -1.3558
  235MPD1     C 3616   1.130   2.896  10.335  0.0649  0.7345  0.4272
  235MPD1    C1 3617   1.093   2.967  10.224 -0.2973  0.3409 -0.0572
  235MPD1    C2 3618   1.153   3.090  10.213 -0.1608 -0.3794 -0.0125
  235MPD1    C3 3619   1.239   3.141  10.311  0.2917  0.6112 -0.0535
  235MPD1    C4 3620   1.263   3.070  10.432 -0.5402  0.2052  0.1006
  235MPD1    C5 3621   1.205   2.951  10.440 -0.2404 -0.1061  0.0314
  235MPD1     H 3622   1.126   3.148  10.125  0.3108 -0.0511  0.0643
  235MPD1    H1 3623   1.322   3.107  10.515  0.6530 -0.4117 -0.4699
  235MPD1    H2 3624   1.082   2.800  10.349  0.2588  0.3973 -1.2338
  235MPD1    H3 3625   1.213   2.887  10.526 -1.8239 -0.5077 -0.1164
  235MPD1     N 3626   1.317   3.259  10.281 -0.0714 -0.9083 -0.1521
  235MPD1    H5 3627   1.301   3.299  10.189  0.0529  2.1542  1.1671
  235MPD1    N1 3628   1.045   2.902  10.110  0.3467  0.1835 -0.3269
  235MPD1    H6 3629   0.985   2.824  10.137  2.6702 -2.1320 -1.8725
  235MPD1    H7 3630   1.005   2.961  10.038 -2.0452 -0.3259  0.5838
  236MPD1     C 3631   0.480   3.707   9.800  0.3767 -0.1714 -0.3045
  236MPD1    C1 3632   0.532   3.833   9.793  0.5385 -0.7131 -0.3292
  236MPD1    C2 3633   0.578   3.889   9.911 -0.0486  0.1882  0.0946
  236MPD1    C3 3634   0.582   3.816  10.032 -0.0379 -0.4437 -0.4948
  236MPD1    C4 3635   0.547   3.681  10.023  0.1379  0.3032  0.0583
  236MPD1    C5 3636   0.489   3.629   9.907  0.3286  0.0994 -0.2476
  236MPD1     H 3637   0.602   3.995   9.909 -2.5525  0.7333  0.0278
  236MPD1    H1 3638   0.564   3.606  10.100 -0.4256 -0.4831 -0.5894
  236MPD1    H2 3639   0.424   3.658   9.721 -1.2413 -0.5956  1.0946
  236MPD1    H3 3640   0.449   3.528   9.904  0.8021 -0.1685  1.7796
  236MPD1     N 3641   0.630   3.871  10.155  0.3797 -0.4845  0.7001
  236MPD1    H5 3642   0.616   3.816  10.240  1.5153  0.2961  1.3939
  236MPD1    N1 3643   0.512   3.917   9.680  0.2212 -0.1527 -0.2377
  236MPD1    H6 3644   0.504   3.858   9.597 -0.4450  0.9896 -0.9941
  236MPD1    H7 3645   0.596   3.970   9.659  2.2160 -3.6575 -0.9616
  237MPD1     C 3646   0.222   2.781  15.612 -0.2637  0.1756  0.0218
  237MPD1    C1 3647   0.110   2.761  15.695 -1.3167  0.3559  0.2074
  237MPD1    C2 3648   4.723   2.730  15.627 -0.2633 -0.7572 -0.0005
  237MPD1    C3 3649   4.717   2.744  15.490 -0.3928  0.0598 -0.2849
  237MPD1    C4 3650   0.087   2.784  15.421  0.3460 -0.9910 -0.0213
  237MPD1    C5 3651   0.211   2.803  15.475 -0.1332 -0.3641  0.1428
  237MPD1     H 3652   4.631   2.719  15.682  0.5763  0.1862  1.5857
  237MPD1    H1 3653   0.078   2.788  15.313  0.5543  0.5054  0.0234
  237MPD1    H2 3654   0.317   2.817  15.649 -0.0985  0.6667 -0.8833
  237MPD1    H3 3655   0.300   2.820  15.415 -2.2637  2.4590 -2.1973
  237MPD1     N 3656   4.602   2.730  15.414 -0.1907 -0.7220  0.0210
  237MPD1    H5 3657   4.613   2.763  15.319 -0.1407  1.9485  0.9532
  237MPD1    N1 3658   0.125   2.730  15.830  0.0775  0.0799  0.2091
  237MPD1    H6 3659   0.203   2.776  15.876 -0.4733  0.6771  0.5624
  237MPD1    H7 3660   0.038   2.758  15.877 -0.0030  3.1216 -1.7640
  238MPD1     C 3661   2.489   1.617  15.468 -0.3722 -0.1391  0.9764
  238MPD1    C1 3662   2.373   1.567  15.523  0.4437  0.3013  0.2499
  238MPD1    C2 3663   2.254   1.595  15.460  0.6711 -0.1643 -0.5210
  238MPD1    C3 3664   2.243   1.695  15.370 -0.2106 -0.3102  0.3604
  238MPD1    C4 3665   2.356   1.750  15.318 -1.0353 -0.1738 -0.6054
  238MPD1    C5 3666   2.473   1.692  15.356  0.5263  0.1561  0.5534
  238MPD1     H 3667   2.166   1.557  15.511  1.2606 -1.9336 -0.8120
  238MPD1    H1 3668   2.352   1.827  15.241 -0.4048 -0.8280 -1.3039
  238MPD1    H2 3669   2.581   1.586  15.517 -0.4244 -0.7848  0.6684
  238MPD1    H3 3670   2.565   1.708  15.301  0.3064 -3.2324 -0.8051
  238MPD1     N 3671   2.120   1.744  15.328  0.0483 -0.1011 -0.5306
  238MPD1    H5 3672   2.120   1.822  15.262 -0.6280  0.4870  0.1620
  238MPD1    N1 3673   2.387   1.476  15.627  0.1476 -0.2170 -0.5323
  238MPD1    H6 3674   2.467   1.486  15.689 -0.5244 -1.8263  0.5923
  238MPD1    H7 3675   2.303   1.468  15.684 -0.6507  0.3427 -1.6304
  239MPD1     C 3676   1.884   2.593  15.096  0.0033  0.4937  0.6624
  239MPD1    C1 3677   1.954   2.686  15.022  0.1804  0.2013  0.1212
  239MPD1    C2 3678   1.904   2.724  14.902  0.2556  0.1709  0.4102
  239MPD1    C3 3679   1.782   2.680  14.867 -0.0013  0.0558 -0.1311
  239MPD1    C4 3680   1.706   2.594  14.940 -0.6785 -0.5886 -0.3372
  239MPD1    C5 3681   1.759   2.543  15.057 -0.0196 -0.4000 -0.0025
  239MPD1     H 3682   1.955   2.803  14.849 -0.3384  0.6712  0.5942
  239MPD1    H1 3683   1.609   2.572  14.897 -0.7756 -1.0695  0.1297
  239MPD1    H2 3684   1.922   2.560  15.192  1.1340 -0.1046  0.0072
  239MPD1    H3 3685   1.710   2.461  15.109  2.2738 -0.2545  2.3999
  239MPD1     N 3686   1.719   2.736  14.749  0.4921 -0.0597  0.4703
  239MPD1    H5 3687   1.625   2.702  14.731  0.1246  0.4323  1.4650
  239MPD1    N1 3688   2.078   2.728  15.067  0.2910 -0.2250  0.1362
  239MPD1    H6 3689   2.092   2.819  15.023 -2.4624 -0.5058 -1.3468
  239MPD1    H7 3690   2.073   2.745  15.168  2.5946 -2.4008  0.6105
  240MPD1     C 3691   1.217   2.006  13.433  0.5816  0.2004 -0.1304
  240MPD1    C1 3692   1.091   1.987  13.479  0.1771  0.4774 -0.0514
  240MPD1    C2 3693   1.069   2.028  13.607  0.0333 -0.2554  0.7025
  240MPD1    C3 3694   1.176   2.068  13.690 -0.1579 -0.6539  0.2369
  240MPD1    C4 3695   1.298   2.078  13.634  0.0103 -0.0851  0.3727
  240MPD1    C5 3696   1.317   2.055  13.503  0.0130  0.8169  0.7344
  240MPD1     H 3697   0.972   2.008  13.653 -0.9549  1.1559 -0.7460
  240MPD1    H1 3698   1.390   2.090  13.691  2.0126 -0.7470 -2.7433
  240MPD1    H2 3699   1.238   1.978  13.330 -1.6993 -0.5672 -0.3958
  240MPD1    H3 3700   1.418   2.054  13.465  0.3270 -0.4816  1.5909
  240MPD1     N 3701   1.145   2.078  13.826 -0.6697 -0.5392  0.3140
  240MPD1    H5 3702   1.056   2.039  13.855 -1.4621  0.4669 -0.7385
  240MPD1    N1 3703   0.986   1.947  13.390  0.1921  0.2280  0.1747
  240MPD1    H6 3704   0.896   1.925  13.431  1.4766 -4.2310  0.5756
  240MPD1    H7 3705   1.024   1.866  13.342  0.1907  0.4567 -0.2142
  241MPD1     C 3706   1.781   2.482  14.489 -0.0145  0.1276  1.1705
  241MPD1    C1 3707   1.727   2.359  14.549 -0.2511 -0.7829 -0.5907
  241MPD1    C2 3708   1.616   2.303  14.486  0.1563  0.0808 -0.3283
  241MPD1    C3 3709   1.561   2.347  14.365 -0.5064  0.3783 -0.0505
  241MPD1    C4 3710   1.612   2.466  14.315 -0.2995 -0.1354 -0.5986
  241MPD1    C5 3711   1.721   2.521  14.376 -0.2976 -0.3617  0.0294
  241MPD1     H 3712   1.581   2.213  14.535  0.6059 -0.0059 -0.1611
  241MPD1    H1 3713   1.573   2.511  14.225  0.7896  1.0857 -0.4514
  241MPD1    H2 3714   1.862   2.540  14.531  1.5796 -1.0020 -0.3762
  241MPD1    H3 3715   1.756   2.609  14.322  1.0317 -0.8888  0.0456
  241MPD1     N 3716   1.449   2.293  14.303  0.6465  0.1301 -0.1277
  241MPD1    H5 3717   1.399   2.346  14.232  2.8254 -0.2936 -1.9669
  241MPD1    N1 3718   1.763   2.323  14.679  0.2472  0.5818 -0.2282
  241MPD1    H6 3719   1.853   2.354  14.717 -0.5892 -0.4934  2.5999
  241MPD1    H7 3720   1.742   2.231  14.715 -0.5134  1.6792  2.1474
  242MPD1     C 3721   0.964   0.084  15.932  0.2545 -0.8184 -0.5248
  242MPD1    C1 3722   0.871   0.163  15.875  0.0227 -0.1286  0.1240
  242MPD1    C2 3723   0.896   0.234  15.754  0.0338  0.9904 -0.2221
  242MPD1    C3 3724   1.019   0.212  15.692  0.0349  0.5219 -1.0845
  242MPD1    C4 3725   1.110   0.132  15.755  0.8724 -0.2443 -0.1354
  242MPD1    C5 3726   1.082   0.071  15.869 -0.6597 -0.2382 -0.4946
  242MPD1     H 3727   0.826   0.303  15.708 -2.8935 -1.8309  0.0181
  242MPD1    H1 3728   1.201   0.106  15.701 -0.8588  0.2353 -3.2555
  242MPD1    H2 3729   0.947   0.023  16.021 -1.0527 -2.0312 -1.6196
  242MPD1    H3 3730   1.155   0.003  15.913 -0.0268  1.4014  0.9589
  242MPD1     N 3731   1.046   0.276  15.559  0.7502  0.0094 -0.2017
  242MPD1    H5 3732   1.140   0.273  15.523  1.0310 -1.4504  0.6201
  242MPD1    N1 3733   0.750   0.176  15.939  0.4773 -0.3824 -0.0494
  242MPD1    H6 3734   0.667   0.186  15.881  2.7748  3.3249 -2.7288
  242MPD1    H7 3735   0.738   0.094  15.998 -1.9780 -0.3749 -0.5656
  243MPD1     C 3736   2.134   0.332   0.362 -0.8279  0.4723  0.1644
  243MPD1    C1 3737   2.259   0.330   0.315 -0.2343  0.2525 -0.3514
  243MPD1    C2 3738   2.305   0.219   0.258 -0.6528  0.0222  0.1188
  243MPD1    C3 3739   2.226   0.106   0.237 -0.1147 -0.4897  1.1436
  243MPD1    C4 3740   2.092   0.115   0.270 -1.0001 -0.1101 -0.6358
  243MPD1    C5 3741   2.051   0.223   0.340  0.0594 -0.0325 -0.2639
  243MPD1     H 3742   2.410   0.202   0.236 -1.0703 -1.9650 -0.3200
  243MPD1    H1 3743   2.024   0.032   0.258  0.9187 -1.7169 -0.2801
  243MPD1    H2 3744   2.103   0.409   0.432  1.2517  2.4883 -1.1114
  243MPD1    H3 3745   1.953   0.220   0.388  0.6527 -0.7354  0.9086
  243MPD1     N 3746   2.286   4.725   0.191 -0.5861  0.7118  0.0526
  243MPD1    H5 3747   2.387   4.730   0.186 -0.7346  2.2736 -1.1719
  243MPD1    N1 3748   2.349   0.418   0.368 -0.4389 -0.1473  0.4139
  243MPD1    H6 3749   2.426   0.436   0.305 -0.7194  2.9114  0.9672
  243MPD1    H7 3750   2.304   0.503   0.400  0.9011  1.3018 -1.5829
  244MPD1     C 3751   2.372   3.607   0.151 -0.1979 -0.3455 -0.4698
  244MPD1    C1 3752   2.488   3.664   0.098  0.7702  0.3669  0.1921
  244MPD1    C2 3753   2.501   3.802   0.098 -0.5378  0.2328  0.6273
  244MPD1    C3 3754   2.402   3.885   0.138 -0.6924 -1.3427 -0.5088
  244MPD1    C4 3755   2.286   3.828   0.180 -0.4248  0.0709 -0.2653
  244MPD1    C5 3756   2.271   3.692   0.192 -0.6697 -0.2678  0.6075
  244MPD1     H 3757   2.598   3.839   0.068 -1.2425  1.3176 -0.3274
  244MPD1    H1 3758   2.197   3.885   0.205  0.1289  0.4047  0.9530
  244MPD1    H2 3759   2.358   3.501   0.170 -4.3160  0.6009  1.7453
  244MPD1    H3 3760   2.175   3.647   0.216 -0.5488 -0.9719 -0.2189
  244MPD1     N 3761   2.414   4.022   0.125 -0.2746 -0.5881 -0.0805
  244MPD1    H5 3762   2.485   4.042   0.055  0.5794 -2.9792  0.1195
  244MPD1    N1 3763   2.596   3.581   0.074  0.0560  0.1233 -0.3015
  244MPD1    H6 3764   2.660   3.625   0.007  0.9752  0.4111  0.7690
  244MPD1    H7 3765   2.575   3.487   0.041 -0.0183 -1.0578  3.1520
  245MPD1     C 3766   0.131   4.261  12.957 -0.4608  0.1058  0.2094
  245MPD1    C1 3767   0.039   4.287  13.058  0.6314  0.2835  0.1110
  245MPD1    C2 3768   0.086   4.367  13.167  0.2211  0.1094 -0.0933
  245MPD1    C3 3769   0.215   4.420  13.172  0.3469  0.4185  0.5589
  245MPD1    C4 3770   0.302   4.388  13.069 -0.5030  0.3241 -0.3801
  245MPD1    C5 3771   0.255   4.313  12.963  0.2570  0.2837 -0.5138
  245MPD1     H 3772   0.022   4.388  13.252  0.8624 -0.7829  0.6121
  245MPD1    H1 3773   0.407   4.413  13.079 -0.7135  0.8764  0.4525
  245MPD1    H2 3774   0.111   4.213  12.862  1.5021  1.7780 -1.0494
  245MPD1    H3 3775   0.324   4.292  12.882 -1.6325 -2.5720 -1.3709
  245MPD1     N 3776   0.245   4.516  13.272  0.4053 -0.0298 -0.0172
  245MPD1    H5 3777   0.182   4.524  13.351 -0.0279 -3.8972  0.0493
  245MPD1    N1 3778   4.645   4.250  13.039  0.0193 -0.2462 -0.0726
  245MPD1    H6 3779   4.591   4.253  13.125  1.5359  0.7800  0.8317
  245MPD1    H7 3780   4.637   4.163  12.987 -0.0078 -0.7288  0.7405
  246MPD1     C 3781   1.459   1.265  11.239  0.0395 -0.6726 -0.8950
  246MPD1    C1 3782   1.505   1.180  11.139 -0.3847  0.0329  0.1846
  246MPD1    C2 3783   1.415   1.145  11.043  0.2531 -0.0221  0.3451
  246MPD1    C3 3784   1.292   1.205  11.022  0.6447  0.2531  0.4866
  246MPD1    C4 3785   1.247   1.296  11.118 -0.0190 -0.4225 -0.2152
  246MPD1    C5 3786   1.332   1.322  11.224 -0.3776 -0.3378 -0.2816
  246MPD1     H 3787   1.437   1.059  10.981  1.4152 -1.1909  2.3770
  246MPD1    H1 3788   1.147   1.339  11.118  0.1144 -0.1137  0.7482
  246MPD1    H2 3789   1.514   1.293  11.328 -1.5755 -1.5104  0.3574
  246MPD1    H3 3790   1.292   1.396  11.293 -1.7852 -0.8377 -0.5689
  246MPD1     N 3791   1.230   1.180  10.899  0.1129 -0.0358  0.0272
  246MPD1    H5 3792   1.288   1.137  10.827 -1.4435 -0.8660 -0.7536
  246MPD1    N1 3793   1.633   1.121  11.155 -0.0712 -0.2850  0.0143
  246MPD1    H6 3794   1.703   1.181  11.200  1.7106 -1.1081 -1.6639
  246MPD1    H7 3795   1.682   1.086  11.073  0.5404  1.0507 -0.1866
  247MPD1     C 3796   3.763   4.514  16.557  0.3194 -0.7514  1.0368
  247MPD1    C1 3797   3.894   4.524  16.549  0.3147 -0.1838  0.1011
  247MPD1    C2 3798   3.961   4.452  16.443  0.1960  0.4511  0.3440
  247MPD1    C3 3799   3.895   4.372  16.345  0.1744  0.3457  0.0759
  247MPD1    C4 3800   3.760   4.364  16.365 -0.2707  0.1792 -0.4115
  247MPD1    C5 3801   3.699   4.432  16.467  0.1005  0.8488 -0.0266
  247MPD1     H 3802   4.069   4.456  16.441  0.1636  0.6468 -1.3683
  247MPD1    H1 3803   3.704   4.285  16.317 -0.4768  0.9123 -1.3842
  247MPD1    H2 3804   3.722   4.545  16.653 -2.1538 -1.4465  0.2055
  247MPD1    H3 3805   3.595   4.404  16.481  0.5778 -0.3868  1.0416
  247MPD1     N 3806   3.958   4.301  16.241  0.2798  0.8305 -0.2570
  247MPD1    H5 3807   3.899   4.233  16.195 -0.4056  0.2369  1.5018
  247MPD1    N1 3808   3.967   4.560  16.662  0.4125 -0.3045  0.0200
  247MPD1    H6 3809   4.068   4.572  16.652  0.1957 -0.3494 -2.1199
  247MPD1    H7 3810   3.932   4.642  16.711  0.3132  1.3519 -2.8786
  248MPD1     C 3811   4.623   4.219   0.957 -0.5624 -0.7506 -0.2277
  248MPD1    C1 3812   4.556   4.334   0.921 -0.4939  0.0944  0.0633
  248MPD1    C2 3813   4.524   4.425   1.018 -0.6005 -0.1634 -0.2095
  248MPD1    C3 3814   4.542   4.394   1.154  0.3194  0.8790 -0.7528
  248MPD1    C4 3815   4.611   4.280   1.185  0.4573 -0.8301  0.2763
  248MPD1    C5 3816   4.656   4.201   1.085  0.4714  0.2042 -0.7362
  248MPD1     H 3817   4.484   4.524   0.999 -2.9284 -1.5646 -2.5285
  248MPD1    H1 3818   4.626   4.243   1.286  1.9849  0.0487  0.3620
  248MPD1    H2 3819   4.666   4.156   0.880 -1.0878  0.0641 -1.1773
  248MPD1    H3 3820   4.717   4.117   1.115 -0.4833  0.0832  0.8824
  248MPD1     N 3821   4.502   4.488   1.250 -0.3534 -0.1867  0.2218
  248MPD1    H5 3822   4.475   4.581   1.220 -2.8234 -0.7328  0.7824
  248MPD1    N1 3823   4.541   4.363   0.781 -0.4626 -0.4885 -0.2231
  248MPD1    H6 3824   4.468   4.429   0.756 -0.5664 -0.9638 -1.1976
  248MPD1    H7 3825   4.518   4.279   0.728 -1.6953  1.3911 -2.7049
  249MPD1     C 3826   1.934   2.528   9.906 -0.1863 -0.1794  0.4739
  249MPD1    C1 3827   2.002   2.488  10.017 -0.2697  0.4474 -0.3487
  249MPD1    C2 3828   2.124   2.547  10.049  0.2540  0.1421  0.2079
  249MPD1    C3 3829   2.186   2.625   9.952 -0.2572  0.1160  0.0158
  249MPD1    C4 3830   2.123   2.661   9.833  0.0813 -0.4261 -0.2287
  249MPD1    C5 3831   1.994   2.612   9.817  0.2672  0.1890 -0.5577
  249MPD1     H 3832   2.177   2.515  10.138 -0.6337 -2.2174 -0.1059
  249MPD1    H1 3833   2.165   2.730   9.760  2.0040 -3.0075 -1.5339
  249MPD1    H2 3834   1.834   2.490   9.890 -0.8347  0.7969  2.2544
  249MPD1    H3 3835   1.939   2.636   9.727 -0.9267 -1.4621 -0.2620
  249MPD1     N 3836   2.310   2.676   9.991  0.1067  0.1344  0.2923
  249MPD1    H5 3837   2.340   2.675  10.087 -1.0132 -1.5205  0.6275
  249MPD1    N1 3838   1.918   2.421  10.117 -0.1756  0.4978  0.0695
  249MPD1    H6 3839   1.851   2.357  10.075  1.6949 -1.1095 -0.4575
  249MPD1    H7 3840   1.971   2.373  10.190 -0.8383 -1.4927 -0.7660
  250MPD2     C 3841   3.040   2.765  12.590  0.2178 -0.0698 -0.0852
  250MPD2    C1 3842   2.961   2.795  12.696  0.3377  0.0235  0.0656
  250MPD2    C2 3843   2.895   2.687  12.768 -0.3032  0.8530  0.0248
  250MPD2    C3 3844   2.904   2.556  12.719  0.3150  0.4655  0.3556
  250MPD2    C4 3845   2.983   2.527  12.607  0.7457  0.8785  0.0183
  250MPD2    C5 3846   3.057   2.629  12.546  0.4760 -0.5405 -0.2856
  250MPD2     H 3847   2.842   2.711  12.859 -2.3889 -0.8328 -0.7278
  250MPD2    H1 3848   2.981   2.437  12.547 -2.5812 -0.4235  2.0702
  250MPD2    H2 3849   3.105   2.841  12.547  0.2125 -0.5529 -0.9442
  250MPD2    H3 3850   3.138   2.609  12.477  0.2064  1.8980 -1.3099
  250MPD2     N 3851   2.828   2.447  12.775 -0.1404  0.0149  0.3014
  250MPD2    H5 3852   2.859   2.355  12.747 -0.1093  0.8260 -2.2964
  250MPD2    N1 3853   2.965   2.930  12.736 -0.0564  0.1455  0.8151
  250MPD2    H7 3854   3.035   2.984  12.686 -0.4206 -0.1805 -0.0493
  251TMC3    C1 3855   2.899   3.124  12.859 -0.0064 -0.4442  0.2019
  251TMC3    C2 3856   2.784   3.181  12.895  0.7711 -0.0615 -0.4439
  251TMC3    C3 3857   2.787   3.315  12.893  0.6889 -0.3927 -0.1546
  251TMC3    C4 3858   3.010   3.191  12.822  0.0297  0.2023  0.2331
  251TMC3    C5 3859   3.011   3.327  12.820 -0.4292  0.6967  0.5072
  251TMC3    C6 3860   2.896   3.394  12.862  0.7962  0.0348  0.1779
  251TMC3     C 3861   2.890   2.977  12.843 -0.3678  0.7711 -0.4077
  251TMC3     O 3862   2.813   2.924  12.923  0.2462  0.3139 -0.6425
  251TMC3     H 3863   2.695   3.121  12.912 -1.6432  3.5193 -0.5375
  251TMC3    H1 3864   3.103   3.137  12.813 -1.0997 -1.9408  1.4322
  251TMC3    H2 3865   2.901   3.502  12.858 -0.6594  0.1161  0.5070
  251TMC3    C7 3866   3.141   3.399  12.821  0.6576 -0.5289 -0.4531
  251TMC3    C8 3867   2.663   3.385  12.920  0.5587 -0.2222 -0.0009
  251TMC3    O1 3868   3.231   3.325  12.789  0.3418  0.0700  0.0708
  251TMC3    O2 3869   2.589   3.341  13.007  0.0775  0.3853 -0.9818
  252TMC3    C1 3870   2.796   3.848   9.316  0.0129 -0.8831  0.4394
  252TMC3    C2 3871   2.890   3.945   9.292  0.2754  0.0283 -0.0066
  252TMC3    C3 3872   3.014   3.931   9.336 -0.2019  0.5723  0.7463
  252TMC3    C4 3873   2.821   3.732   9.387  0.1842 -0.4056  0.1050
  252TMC3    C5 3874   2.953   3.715   9.427 -0.2756  0.0391 -0.5687
  252TMC3    C6 3875   3.044   3.824   9.419  0.2267  0.6199  0.5965
  252TMC3     C 3876   2.675   3.854   9.232 -0.1766  0.1914  0.6086
  252TMC3     O 3877   2.640   3.746   9.184  0.0540 -0.6844 -0.3076
  252TMC3     H 3878   2.853   4.033   9.241 -1.5137 -2.1863 -2.5923
  252TMC3    H1 3879   2.750   3.651   9.386 -0.8438  0.5442 -3.1673
  252TMC3    H2 3880   3.145   3.809   9.455  0.5227 -1.9389 -1.3245
  252TMC3    C7 3881   2.985   3.619   9.530 -0.3724 -0.3359  0.1823
  252TMC3    C8 3882   3.107   4.040   9.318 -0.2310  0.3056 -0.5459
  252TMC3    O1 3883   3.044   3.667   9.626  0.4683 -0.1952 -0.7655
  252TMC3    O2 3884   3.098   4.120   9.225  0.4645 -0.7871 -0.1895
  253MPD2     C 3885   4.356   3.062  15.251  0.0091  1.0503  0.1455
  253MPD2    C1 3886   4.217   3.075  15.263  0.2297 -0.5557  0.6041
  253MPD2    C2 3887   4.161   3.043  15.383 -0.5909  0.2132 -0.1899
  253MPD2    C3 3888   4.231   3.008  15.498 -0.3355 -1.0793 -0.4526
  253MPD2    C4 3889   4.366   3.009  15.489 -0.0755  0.6266  0.0495
  253MPD2    C5 3890   4.434   3.030  15.365 -0.1248  0.4843 -0.4130
  253MPD2     H 3891   4.052   3.039  15.385 -0.5658 -0.4113  0.0001
  253MPD2    H1 3892   4.441   3.010  15.567  0.7450  1.6167 -0.7399
  253MPD2    H2 3893   4.402   3.064  15.153 -1.4066 -2.0867 -0.5756
  253MPD2    H3 3894   4.541   3.016  15.358 -0.4518 -0.3904 -3.4303
  253MPD2     N 3895   4.175   2.992  15.629 -0.3167 -0.0889 -0.1500
  253MPD2    H5 3896   4.249   2.977  15.698  0.7791  1.8707 -0.9078
  253MPD2    N1 3897   4.129   3.114  15.157 -0.1487 -0.9986  0.3100
  253MPD2    H7 3898   4.032   3.124  15.184  0.3817  0.1408  1.7942
  254TMC3    C1 3899   4.016   3.045  15.801  0.0558 -0.4493 -0.1237
  254TMC3    C2 3900   3.900   3.112  15.827  0.9345 -0.0083 -0.5887
  254TMC3    C3 3901   3.881   3.162  15.950 -0.1152 -0.0131  0.1184
  254TMC3    C4 3902   4.110   3.032  15.897  0.0258 -0.1926  0.6008
  254TMC3    C5 3903   4.086   3.093  16.018 -0.3847 -0.4109  0.1034
  254TMC3    C6 3904   3.970   3.149  16.048  0.0155 -0.8294 -0.2685
  254TMC3     C 3905   4.053   3.042  15.663 -0.3293 -0.1227  0.1670
  254TMC3     O 3906   3.964   3.093  15.599  0.2148 -0.2426  0.3644
  254TMC3     H 3907   3.819   3.104  15.755  0.4013 -0.4205  0.0656
  254TMC3    H1 3908   4.196   2.970  15.873  1.8960  2.1102  1.4018
  254TMC3    H2 3909   3.964   3.205  16.141 -0.9975 -1.7430  0.2105
  254TMC3    C7 3910   4.159   3.059  16.136 -0.2320  0.5716  0.0446
  254TMC3    C8 3911   3.771   3.258  15.961  0.4525 -0.7292  0.4039
  254TMC3    O1 3912   4.094   3.009  16.226  0.0481 -0.2012  0.2826
  254TMC3    O2 3913   3.728   3.307  15.858 -0.3955 -0.5491 -0.0188
  255MPD2     C 3914   2.633   0.136  10.783 -0.2747 -0.2363 -0.0878
  255MPD2    C1 3915   2.757   0.160  10.729 -0.4327  0.3171  0.1716
  255MPD2    C2 3916   2.810   0.068  10.641  0.3766  0.7205  0.2237
  255MPD2    C3 3917   2.740   4.693  10.603  0.3943  0.3748  0.1036
  255MPD2    C4 3918   2.619   4.666  10.664 -0.2777  0.5890 -0.2403
  255MPD2    C5 3919   2.574   0.014  10.754 -0.0991 -0.8226 -0.0335
  255MPD2     H 3920   2.904   0.083  10.589 -0.1147  0.2947 -0.7835
  255MPD2    H1 3921   2.567   4.573  10.644 -2.0123  1.1650  1.5399
  255MPD2    H2 3922   2.587   0.197  10.860 -2.5265 -2.0797  0.0012
  255MPD2    H3 3923   2.484   4.727  10.809 -0.1938 -0.8968 -0.2238
  255MPD2     N 3924   2.794   4.605  10.504  0.2126 -0.4349 -0.1238
  255MPD2    H5 3925   2.890   4.621  10.475 -0.0409 -0.7869 -1.1489
  255MPD2    N1 3926   2.827   0.271  10.778  0.0116  0.0347 -0.4854
  255MPD2    H7 3927   2.777   0.335  10.839 -0.4482  0.1234 -0.9626
  256TMC3    C1 3928   2.993   0.438  10.789 -0.5786 -0.3318 -0.2428
  256TMC3    C2 3929   3.074   0.496  10.693 -0.6236  0.1468 -0.2966
  256TMC3    C3 3930   3.050   0.620  10.653  0.3512 -0.3786 -0.6472
  256TMC3    C4 3931   2.893   0.519  10.841 -0.1680  0.3895  1.0171
  256TMC3    C5 3932   2.884   0.649  10.811  0.0022 -0.1959 -0.4370
  256TMC3    C6 3933   2.955   0.697  10.709 -0.4769  0.0894 -0.7196
  256TMC3     C 3934   2.954   0.309  10.740  0.2556  0.0589 -0.1473
  256TMC3     O 3935   3.030   0.260  10.660 -0.7904  0.5312  0.2096
  256TMC3     H 3936   3.146   0.443  10.632 -0.0656  0.0531  0.4517
  256TMC3    H1 3937   2.823   0.489  10.918 -1.1075  1.9107  0.7616
  256TMC3    H2 3938   2.928   0.791  10.662 -0.1998 -0.8930 -2.8317
  256TMC3    C7 3939   2.759   0.708  10.828 -0.7210  0.8528  0.5468
  256TMC3    C8 3940   3.064   0.635  10.511  0.4612 -0.8713 -0.1443
  256TMC3    O1 3941   2.662   0.633  10.819  0.1202 -0.1422 -0.0274
  256TMC3    O2 3942   3.052   0.537  10.438 -0.2662  0.1057  0.9291
  257MPD2     C 3943   1.381   2.805  13.460 -0.4914 -1.0447 -0.1592
  257MPD2    C1 3944   1.503   2.819  13.401 -0.0633 -0.0634  0.4709
  257MPD2    C2 3945   1.623   2.808  13.472  0.2887  0.6775 -0.5096
  257MPD2    C3 3946   1.619   2.757  13.602 -0.3430  0.5596 -0.9627
  257MPD2    C4 3947   1.492   2.734  13.652  0.4169  0.1745  0.6429
  257MPD2    C5 3948   1.375   2.755  13.583  0.5300  0.1624  0.3615
  257MPD2     H 3949   1.718   2.817  13.421  0.6503  1.3589  0.2713
  257MPD2    H1 3950   1.478   2.689  13.749  1.6037  0.0941  0.7752
  257MPD2    H2 3951   1.294   2.802  13.396 -0.7567 -0.4561  0.1719
  257MPD2    H3 3952   1.281   2.725  13.628 -0.1731  2.3684  0.3427
  257MPD2     N 3953   1.741   2.735  13.666 -0.1226 -0.1618 -0.3844
  257MPD2    H5 3954   1.817   2.765  13.606  0.1156  1.7830  0.9133
  257MPD2    N1 3955   1.499   2.854  13.265 -0.2364  0.8965  0.1107
  257MPD2    H7 3956   1.408   2.852  13.220  0.6806 -0.9157 -1.6557
  258TMC3    C1 3957   1.895   2.676  13.838  0.4007 -0.1352 -0.4014
  258TMC3    C2 3958   1.991   2.658  13.742 -0.6112  0.3357 -0.6019
  258TMC3    C3 3959   2.114   2.633  13.795 -0.0700 -0.2579 -0.5384
  258TMC3    C4 3960   1.919   2.659  13.973  0.5156 -0.3626  1.0067
  258TMC3    C5 3961   2.044   2.643  14.021  0.0302 -0.1246  0.0465
  258TMC3    C6 3962   2.143   2.638  13.930  0.0286  0.2509 -0.3059
  258TMC3     C 3963   1.756   2.695  13.799  0.0591 -0.9502 -0.2011
  258TMC3     O 3964   1.667   2.664  13.877 -0.6151  0.0366  0.0298
  258TMC3     H 3965   1.969   2.646  13.637 -2.5980 -1.7070  0.0311
  258TMC3    H1 3966   1.835   2.666  14.041  0.0286  0.1532  0.3641
  258TMC3    H2 3967   2.247   2.632  13.961 -0.3763 -0.1201  0.9522
  258TMC3    C7 3968   2.066   2.645  14.160  0.1653 -0.1260 -0.3351
  258TMC3    C8 3969   2.226   2.599  13.712 -0.5913 -0.4268  0.2537
  258TMC3    O1 3970   1.966   2.681  14.219 -0.4395 -0.0017  0.1313
  258TMC3    O2 3971   2.331   2.567  13.770  0.1883 -0.4927 -0.1551
  259MPD2     C 3972   0.281   0.283   1.157 -0.2281 -0.4854 -0.0680
  259MPD2    C1 3973   0.330   0.152   1.169  0.4509 -0.3929  0.1932
  259MPD2    C2 3974   0.334   0.071   1.059 -1.2815  0.0873 -0.4368
  259MPD2    C3 3975   0.279   0.117   0.937  0.0582 -0.1875  0.6595
  259MPD2    C4 3976   0.243   0.247   0.929  0.0505 -0.1893 -0.0878
  259MPD2    C5 3977   0.240   0.331   1.036 -0.4715 -1.0486 -0.4490
  259MPD2     H 3978   0.370   4.706   1.066  0.2289  0.8202  2.2807
  259MPD2    H1 3979   0.194   0.286   0.840 -0.3019 -1.4401 -0.4354
  259MPD2    H2 3980   0.286   0.354   1.239  0.2996  1.2590 -1.6171
  259MPD2    H3 3981   0.220   0.437   1.020 -1.3082 -1.5825 -2.9730
  259MPD2     N 3982   0.281   0.036   0.821  0.4872 -0.9702  0.5342
  259MPD2    H5 3983   0.314   4.679   0.839  0.3028 -0.7125  2.2298
  259MPD2    N1 3984   0.391   0.113   1.294  0.7247  0.1220 -0.6266
  259MPD2    H7 3985   0.398   0.186   1.364 -0.1844 -1.7111  1.3658
  260TMC3    C1 3986   0.248   4.691   0.600  0.4162  0.1940 -0.2874
  260TMC3    C2 3987   0.240   4.734   0.467  0.0922  0.0897  0.4605
  260TMC3    C3 3988   0.287   4.648   0.371 -0.1286 -0.5518  0.5169
  260TMC3    C4 3989   0.296   4.570   0.639 -0.4408  0.4778  0.3391
  260TMC3    C5 3990   0.335   4.487   0.540  0.3442 -0.0403  0.1375
  260TMC3    C6 3991   0.316   4.519   0.410 -0.3030 -0.5051  0.6619
  260TMC3     C 3992   0.226   0.058   0.696 -0.3216 -0.6362 -0.3477
  260TMC3     O 3993   0.180   0.160   0.654  0.0956 -0.0111 -0.8605
  260TMC3     H 3994   0.195   0.093   0.443 -0.4737 -0.2355  0.2307
  260TMC3    H1 3995   0.320   4.550   0.743 -1.4202 -0.4422  0.3812
  260TMC3    H2 3996   0.327   4.446   0.330  0.7230  0.8540 -0.4278
  260TMC3    C7 3997   0.454   4.397   0.561  0.1302  0.1693 -0.0671
  260TMC3    C8 3998   0.385   4.695   0.282 -0.2577 -0.1086  0.1600
  260TMC3    O1 3999   0.511   4.354   0.464 -0.1749 -0.3314 -0.0721
  260TMC3    O2 4000   0.366   0.073   0.248  0.3924 -0.3871  0.0482
  261MPD2     C 4001   2.057   2.293  12.911 -0.4193  0.4573  0.0599
  261MPD2    C1 4002   2.178   2.317  12.852  0.4604 -0.5288  0.0099
  261MPD2    C2 4003   2.172   2.363  12.724 -0.9264 -0.2021  0.3477
  261MPD2    C3 4004   2.056   2.383  12.650  0.2524 -0.1885 -0.0560
  261MPD2    C4 4005   1.940   2.348  12.708  0.7831 -0.2602  0.0026
  261MPD2    C5 4006   1.938   2.309  12.841 -0.4832  0.7494 -0.7129
  261MPD2     H 4007   2.269   2.378  12.678 -1.2773  1.5080  0.1523
  261MPD2    H1 4008   1.844   2.348  12.658  0.0269 -1.5456  1.4544
  261MPD2    H2 4009   2.052   2.256  13.013 -0.6400  2.7453  0.8703
  261MPD2    H3 4010   1.841   2.296  12.887  0.1527 -1.0450  0.1509
  261MPD2     N 4011   2.068   2.429  12.518  0.8127  0.2041  0.0873
  261MPD2    H5 4012   2.155   2.421  12.467  1.8865  0.1337  1.9465
  261MPD2    N1 4013   2.305   2.304  12.911  0.2153 -0.7474  0.2587
  261MPD2    H7 4014   2.379   2.335  12.850  1.1292  0.3556  1.9210
  262TMC3    C1 4015   1.975   2.526  12.311 -0.3515 -1.0276  0.4826
  262TMC3    C2 4016   1.912   2.646  12.280  0.4992  0.4808  0.4514
  262TMC3    C3 4017   1.944   2.692  12.150  0.4869  0.8122  0.5720
  262TMC3    C4 4018   2.049   2.452  12.228  0.5945 -0.0702 -0.1627
  262TMC3    C5 4019   2.064   2.494  12.097 -0.0951  0.4717 -0.0719
  262TMC3    C6 4020   2.013   2.615  12.059  0.3587  0.2436  0.2603
  262TMC3     C 4021   1.955   2.486  12.452 -0.2441  0.4911 -0.1066
  262TMC3     O 4022   1.853   2.525  12.502  0.2045  0.4639 -0.1301
  262TMC3     H 4023   1.861   2.699  12.360 -3.4495 -2.2947 -0.2200
  262TMC3    H1 4024   2.110   2.372  12.270  1.5590 -0.4778 -2.3443
  262TMC3    H2 4025   2.014   2.640  11.954 -1.6891 -2.7560 -0.4547
  262TMC3    C7 4026   2.149   2.405  12.018  0.5024  0.3036 -0.3911
  262TMC3    C8 4027   1.931   2.831  12.114 -0.1522  0.3247  0.0781
  262TMC3    O1 4028   2.168   2.288  12.054 -0.1598  0.1738 -0.0295
  262TMC3    O2 4029   1.983   2.862  12.005  0.4512  0.6628  0.1865
  263MPD2     C 4030   3.612   1.897  11.632  0.1332  0.7957  0.2324
  263MPD2    C1 4031   3.696   2.002  11.581  0.0385 -0.3803  0.5574
  263MPD2    C2 4032   3.668   2.059  11.457  0.0465  0.5113 -0.4880
  263MPD2    C3 4033   3.563   2.005  11.385  0.0715  0.9230 -0.2363
  263MPD2    C4 4034   3.500   1.887  11.428 -0.0394  0.0220  0.1499
  263MPD2    C5 4035   3.520   1.840  11.553 -0.4734 -0.3095 -0.3224
  263MPD2     H 4036   3.730   2.139  11.420  1.0520 -1.1117 -2.2681
  263MPD2    H1 4037   3.419   1.841  11.372  0.6869  1.0376 -1.7437
  263MPD2    H2 4038   3.626   1.848  11.728  1.1135 -1.5242 -1.1097
  263MPD2    H3 4039   3.455   1.764  11.595 -0.8512 -0.0905 -0.5185
  263MPD2     N 4040   3.531   2.077  11.265 -0.2213 -0.0360 -0.4917
  263MPD2    H5 4041   3.562   2.173  11.254  1.6573 -0.2539  2.9118
  263MPD2    N1 4042   3.801   2.052  11.662  0.6571 -0.0380 -1.1772
  263MPD2    H7 4043   3.809   2.018  11.758 -2.1278  2.2207 -0.1351
  264TMC3    C1 4044   3.472   2.108  11.040  0.3418  0.1593  0.0800
  264TMC3    C2 4045   3.389   2.215  11.044  0.3897  0.6419 -0.0065
  264TMC3    C3 4046   3.360   2.289  10.935  0.1785  0.0305  0.6997
  264TMC3    C4 4047   3.522   2.067  10.922  0.1004 -0.3164  0.0662
  264TMC3    C5 4048   3.495   2.145  10.814  0.3564  0.3651  0.7316
  264TMC3    C6 4049   3.414   2.255  10.816  0.4532 -0.1936  0.3313
  264TMC3     C 4050   3.474   2.015  11.154 -0.5985 -0.2936 -0.0279
  264TMC3     O 4051   3.436   1.901  11.143 -0.5045 -0.1997  0.0194
  264TMC3     H 4052   3.354   2.229  11.145 -1.3509  1.6709 -0.7603
  264TMC3    H1 4053   3.600   1.992  10.928  1.0687  0.8864  2.4430
  264TMC3    H2 4054   3.403   2.313  10.725  0.8190 -0.6414 -0.0041
  264TMC3    C7 4055   3.602   2.157  10.724  1.0083  0.0101  0.7153
  264TMC3    C8 4056   3.397   2.427  10.969  0.0427  0.0678  0.3655
  264TMC3    O1 4057   3.659   2.050  10.705  0.0440 -0.0021 -0.1678
  264TMC3    O2 4058   3.474   2.472  10.884 -0.0299 -0.8164  0.0411
  265MPD2     C 4059   0.446   2.540  15.772  0.5378  0.1828 -0.1522
  265MPD2    C1 4060   0.531   2.627  15.712 -0.0216  0.2944  0.2650
  265MPD2    C2 4061   0.601   2.579  15.601 -0.0154 -0.4010  0.6099
  265MPD2    C3 4062   0.583   2.452  15.552  0.8299 -0.3046 -0.9787
  265MPD2    C4 4063   0.481   2.373  15.607 -0.1620 -0.6733  0.7424
  265MPD2    C5 4064   0.416   2.419  15.714  0.4293  0.0951  0.7933
  265MPD2     H 4065   0.681   2.637  15.557 -0.3376 -0.2425  0.2245
  265MPD2    H1 4066   0.450   2.280  15.560 -0.9318  0.8817 -1.7847
  265MPD2    H2 4067   0.380   2.569  15.853  0.2531 -1.5566  0.2558
  265MPD2    H3 4068   0.335   2.360  15.755  0.0263  0.3883  0.4180
  265MPD2     N 4069   0.663   2.405  15.443  0.3290  0.2713  0.0767
  265MPD2    H5 4070   0.647   2.307  15.421  0.6376 -0.1479  1.7533
  265MPD2    N1 4071   0.560   2.754  15.765  0.6616  0.3102  0.0122
  265MPD2    H7 4072   0.619   2.807  15.702  1.3296  1.2017  1.3940
  266TMC3    C1 4073   0.572   2.944  15.897 -0.4882 -0.3358 -0.9600
  266TMC3    C2 4074   0.596   2.983  16.028 -0.2480  0.1457  0.6001
  266TMC3    C3 4075   0.578   3.118  16.070 -0.3402 -0.6510 -0.1870
  266TMC3    C4 4076   0.529   3.043  15.814  0.4096  0.3641  1.0996
  266TMC3    C5 4077   0.512   3.171  15.853  0.3595  0.0697  0.0251
  266TMC3    C6 4078   0.531   3.213  15.984 -0.3155 -0.9092  0.0849
  266TMC3     C 4079   0.520   2.814  15.882 -0.3111  0.0184 -0.1597
  266TMC3     O 4080   0.443   2.778  15.972 -0.3016  0.0482 -0.7288
  266TMC3     H 4081   0.618   2.899  16.092 -0.7817 -0.5286 -0.0947
  266TMC3    H1 4082   0.492   3.013  15.716  1.4765  0.9803  0.5181
  266TMC3    H2 4083   0.529   3.318  16.012  0.0657 -0.6730 -0.7686
  266TMC3    C7 4084   0.459   3.262  15.759  0.6933 -0.2019 -0.4416
  266TMC3    C8 4085   0.604   3.140  16.211 -0.2910 -0.3861  0.3393
  266TMC3    O1 4086   0.469   3.235  15.640 -0.0317  0.1553 -0.1240
  266TMC3    O2 4087   0.609   3.039  16.282 -0.4810 -0.5311 -0.0174
  267MPD2     C 4088   2.591   0.799   0.359 -0.5100  0.4534  0.8970
  267MPD2    C1 4089   2.633   0.698   0.274 -0.6608  0.4316  0.8462
  267MPD2    C2 4090   2.534   0.652   0.179 -0.4983 -0.3151 -0.0787
  267MPD2    C3 4091   2.408   0.702   0.177 -0.1530  0.1399 -0.0438
  267MPD2    C4 4092   2.380   0.803   0.263 -0.2147  0.4352 -0.0574
  267MPD2    C5 4093   2.475   0.862   0.341  0.0317  0.1318 -0.6694
  267MPD2     H 4094   2.559   0.569   0.114  2.1290  0.6775 -0.3102
  267MPD2    H1 4095   2.284   0.851   0.252  0.5549  1.7278 -1.2605
  267MPD2    H2 4096   2.661   0.831   0.435 -2.0966  0.8571  2.1973
  267MPD2    H3 4097   2.447   0.947   0.402  0.5489  0.7489 -1.2858
  267MPD2     N 4098   2.297   0.648   0.103  0.2796  0.1251  0.3944
  267MPD2    H5 4099   2.204   0.677   0.132  0.6052  0.4463  1.1168
  267MPD2    N1 4100   2.764   0.637   0.296 -0.4597 -0.4947  0.1535
  267MPD2    H7 4101   2.830   0.670   0.366 -0.1452  0.4580 -0.5946
  268TMC3    C1 4102   2.932   0.488   0.279 -0.4028  1.1334 -0.2615
  268TMC3    C2 4103   3.015   0.420   0.192 -0.5392 -0.2408  0.3174
  268TMC3    C3 4104   3.112   0.332   0.245 -0.0938  0.5339 -0.5387
  268TMC3    C4 4105   2.939   0.471   0.410  0.5238 -0.2710  0.2941
  268TMC3    C5 4106   3.025   0.373   0.458  0.0680 -0.6021  0.2314
  268TMC3    C6 4107   3.117   0.307   0.377  0.6972  0.3832 -0.0641
  268TMC3     C 4108   2.811   0.530   0.226  0.3517 -0.0802 -0.2346
  268TMC3     O 4109   2.777   0.489   0.117  1.0384  0.4377 -0.4129
  268TMC3     H 4110   3.018   0.460   0.091  1.5181  0.0624  0.5037
  268TMC3    H1 4111   2.876   0.523   0.480  2.6493 -0.7737  2.6190
  268TMC3    H2 4112   3.190   0.236   0.414 -0.9169 -1.0832  0.3204
  268TMC3    C7 4113   3.010   0.318   0.593  0.2410  0.0206 -0.1664
  268TMC3    C8 4114   3.184   0.243   0.151 -0.3853  0.0893  0.0784
  268TMC3    O1 4115   3.081   0.226   0.628 -0.8760  0.3055  0.4839
  268TMC3    O2 4116   3.265   0.167   0.203  0.0822 -0.1567  0.3279
  269MPD2     C 4117   3.298   3.295  15.888 -0.6241  0.3103 -0.2026
  269MPD2    C1 4118   3.169   3.332  15.904  0.3895 -0.0559 -0.1657
  269MPD2    C2 4119   3.119   3.446  15.840 -0.7337 -0.0128  0.1940
  269MPD2    C3 4120   3.206   3.522  15.762 -0.0102  0.2453  0.1347
  269MPD2    C4 4121   3.337   3.471  15.741 -0.3023 -0.3764  0.3638
  269MPD2    C5 4122   3.380   3.355  15.805  0.1742  0.2605  0.0917
  269MPD2     H 4123   3.018   3.486  15.849 -0.5993  0.0408  1.4313
  269MPD2    H1 4124   3.411   3.516  15.676 -2.6344  3.1343  0.1356
  269MPD2    H2 4125   3.333   3.203  15.932 -0.9907  1.5687  2.7683
  269MPD2    H3 4126   3.476   3.312  15.781 -0.4230 -1.6586  1.1336
  269MPD2     N 4127   3.161   3.637  15.701  0.6430  0.0065 -0.5711
  269MPD2    H5 4128   3.085   3.682  15.751  1.6601 -0.0247  0.9998
  269MPD2    N1 4129   3.094   3.252  15.993  0.2834 -0.5187 -0.2933
  269MPD2    H7 4130   3.147   3.181  16.042  1.8962  2.2192  1.8796
  270TMC3    C1 4131   2.903   3.157  16.092  0.0383  0.5735  0.1106
  270TMC3    C2 4132   2.777   3.127  16.052 -0.8189  0.3163  0.2361
  270TMC3    C3 4133   2.728   3.002  16.072  0.4857 -0.4755 -0.3399
  270TMC3    C4 4134   2.974   3.068  16.169  0.0655  0.5615  0.1937
  270TMC3    C5 4135   2.925   2.949  16.188 -0.2169 -0.2613 -0.1316
  270TMC3    C6 4136   2.806   2.910  16.132  0.2344  0.1155 -0.3821
  270TMC3     C 4137   2.961   3.267  16.018 -0.1005  0.9952 -0.5460
  270TMC3     O 4138   2.878   3.349  15.981 -0.3914 -0.1401  0.4160
  270TMC3     H 4139   2.716   3.195  15.994  0.6995 -1.1886 -3.1154
  270TMC3    H1 4140   3.077   3.088  16.199 -0.5129 -0.7637  3.0804
  270TMC3    H2 4141   2.768   2.809  16.142 -1.3977  0.6767 -0.9957
  270TMC3    C7 4142   3.016   2.847  16.241  0.0432 -0.2024  0.6931
  270TMC3    C8 4143   2.644   2.952  15.963  0.8058  0.3466 -0.6462
  270TMC3    O1 4144   3.136   2.860  16.219 -0.3585  0.6538  0.5475
  270TMC3    O2 4145   2.553   3.014  15.918 -0.3181  0.3621  0.0076
  271MPD2     C 4146   2.520   2.760  14.125 -0.3599 -0.6740  0.2779
  271MPD2    C1 4147   2.491   2.854  14.224  0.1485  0.1580 -0.3416
  271MPD2    C2 4148   2.422   2.971  14.197 -0.3315  0.2217 -0.1717
  271MPD2    C3 4149   2.382   2.996  14.065  0.4737  0.2320  0.8718
  271MPD2    C4 4150   2.401   2.899  13.970  0.0692  0.3496  0.0087
  271MPD2    C5 4151   2.467   2.782  14.000 -0.4969 -0.0992  0.1763
  271MPD2     H 4152   2.414   3.047  14.274  2.5229 -3.0237  3.3049
  271MPD2    H1 4153   2.363   2.914  13.870 -0.1365  1.4211  0.2445
  271MPD2    H2 4154   2.546   2.656  14.143 -1.5079 -0.7493  1.4911
  271MPD2    H3 4155   2.495   2.709  13.925  0.0024 -0.5234  0.7716
  271MPD2     N 4156   2.321   3.121  14.022 -0.3090  0.2029 -0.1091
  271MPD2    H5 4157   2.308   3.130  13.922  0.7159  1.5772 -0.1234
  271MPD2    N1 4158   2.523   2.833  14.357  0.1879 -0.3956  0.0915
  271MPD2    H7 4159   2.478   2.886  14.431 -0.5844  1.0538 -1.4214
  272TMC3    C1 4160   2.651   2.740  14.539  0.6467 -0.0701  0.1952
  272TMC3    C2 4161   2.773   2.678  14.568  0.2608  0.2134  0.1533
  272TMC3    C3 4162   2.807   2.657  14.698 -0.2291  0.1420  0.0786
  272TMC3    C4 4163   2.563   2.782  14.639 -0.5244 -0.3033  0.4529
  272TMC3    C5 4164   2.607   2.751  14.773 -0.0545 -0.3246  0.0673
  272TMC3    C6 4165   2.728   2.693  14.800 -0.4845  0.6329 -0.5834
  272TMC3     C 4166   2.625   2.751  14.397 -0.0831 -0.0085 -0.6165
  272TMC3     O 4167   2.707   2.688  14.330  0.0250 -0.0956  0.5714
  272TMC3     H 4168   2.846   2.645  14.495  0.0715  1.1114 -0.4413
  272TMC3    H1 4169   2.472   2.834  14.610  0.5661  0.3505 -1.8084
  272TMC3    H2 4170   2.743   2.647  14.897 -1.7771  1.1850 -0.1195
  272TMC3    C7 4171   2.520   2.762  14.893 -0.6419 -0.3455 -0.2382
  272TMC3    C8 4172   2.940   2.606  14.718 -0.2648 -0.2001 -0.3125
  272TMC3    O1 4173   2.397   2.755  14.884  0.2262 -0.3551  0.2686
  272TMC3    O2 4174   3.025   2.630  14.632  0.1335  0.3759 -0.2488
  273MPD2     C 4175   4.235   1.143  12.146  0.2521 -1.0090 -0.0708
  273MPD2    C1 4176   4.373   1.145  12.158  0.2408 -0.0677  0.4451
  273MPD2    C2 4177   4.451   1.155  12.047 -0.1052 -0.0760 -0.9742
  273MPD2    C3 4178   4.393   1.148  11.920  0.0518  0.4556 -0.0301
  273MPD2    C4 4179   4.259   1.127  11.910  0.1530 -1.0027 -0.2383
  273MPD2    C5 4180   4.182   1.126  12.020  0.0547 -0.8945  0.0624
  273MPD2     H 4181   4.555   1.186  12.051 -0.3795  0.3973  2.0168
  273MPD2    H1 4182   4.224   1.122  11.807 -1.9466 -2.7434  0.5559
  273MPD2    H2 4183   4.172   1.123  12.232  1.8659  0.0965  1.3730
  273MPD2    H3 4184   4.075   1.121  12.005  0.2706 -1.6227 -1.2172
  273MPD2     N 4185   4.476   1.165  11.802  0.1656  0.6203  0.1812
  273MPD2    H5 4186   4.426   1.155  11.714 -0.6240 -1.4525  0.8623
  273MPD2    N1 4187   4.425   1.143  12.292  0.0449  0.1566  0.5909
  273MPD2    H7 4188   4.359   1.127  12.368 -1.1286 -0.7681 -0.6141
  274TMC3    C1 4189   4.659   1.221  11.664  0.3585  0.3415 -0.1301
  274TMC3    C2 4190   4.606   1.136  11.569  0.3834  0.5153  0.1872
  274TMC3    C3 4191   4.613   1.170  11.433 -0.3768 -0.1024  0.4491
  274TMC3    C4 4192   4.703   1.342  11.629 -0.1333  0.3043  0.4993
  274TMC3    C5 4193   4.713   1.370  11.487 -0.5106 -0.2381  0.0074
  274TMC3    C6 4194   4.684   1.277  11.385 -0.2749  0.3678 -0.1177
  274TMC3     C 4195   4.605   1.205  11.800  0.1480  0.4246  0.3163
  274TMC3     O 4196   4.670   1.260  11.890  0.3695  0.0899 -0.4046
  274TMC3     H 4197   4.549   1.049  11.599 -0.4815  1.9242  2.6048
  274TMC3    H1 4198   0.003   1.414  11.701 -2.6366  0.4693  1.6395
  274TMC3    H2 4199   4.671   1.322  11.288  2.0262  1.5759  0.1375
  274TMC3    C7 4200   4.705   1.509  11.441  0.3587 -0.7489 -0.2269
  274TMC3    C8 4201   4.547   1.074  11.344 -0.1217 -0.2054  0.6125
  274TMC3    O1 4202   0.004   1.534  11.327 -0.2186  0.4669 -0.1386
  274TMC3    O2 4203   4.496   0.973  11.391 -0.1048 -0.4189 -0.2962
  275MPD2     C 4204   4.157   3.704  14.613 -0.3542  0.3683 -0.4820
  275MPD2    C1 4205   4.055   3.796  14.616 -0.2406 -0.2685  0.1758
  275MPD2    C2 4206   3.923   3.756  14.639 -0.3996 -0.2448  0.1079
  275MPD2    C3 4207   3.885   3.617  14.649 -0.2592 -0.5967  0.3629
  275MPD2    C4 4208   3.987   3.530  14.647  0.4676 -0.8111  0.5517
  275MPD2    C5 4209   4.118   3.577  14.633  0.0195 -0.1656 -0.2411
  275MPD2     H 4210   3.856   3.840  14.645 -0.8548 -0.3319 -3.4221
  275MPD2    H1 4211   3.974   3.423  14.659 -2.0086 -0.7023 -1.1706
  275MPD2    H2 4212   4.261   3.731  14.597 -0.2647  0.0197 -0.4907
  275MPD2    H3 4213   4.195   3.501  14.639 -0.5313 -0.5603  1.8243
  275MPD2     N 4214   3.751   3.574  14.669 -0.5459 -0.0150 -0.1806
  275MPD2    H5 4215   3.737   3.476  14.691 -0.4618  0.2127  0.8566
  275MPD2    N1 4216   4.068   3.933  14.601  0.5592  0.3154  0.1012
  275MPD2    H7 4217   3.986   3.992  14.613  2.2081  2.7925 -0.8148
  276TMC3    C1 4218   4.162   4.136  14.661 -0.3942 -0.2812  0.2762
  276TMC3    C2 4219   4.033   4.165  14.705 -0.4379  0.9868  0.0897
  276TMC3    C3 4220   4.019   4.256  14.806  0.1415 -0.1606 -0.3438
  276TMC3    C4 4221   4.272   4.194  14.706  0.4631  0.2510 -0.7642
  276TMC3    C5 4222   4.258   4.285  14.808 -0.0060  0.0166  0.1603
  276TMC3    C6 4223   4.134   4.306  14.863  0.0417  0.6066 -0.4309
  276TMC3     C 4224   4.183   4.001  14.603 -0.6887 -0.0958  0.1587
  276TMC3     O 4225   4.298   3.965  14.606 -0.4504 -0.7226 -0.0341
  276TMC3     H 4226   3.943   4.121  14.663  0.8702  0.5956 -2.2696
  276TMC3    H1 4227   4.368   4.166  14.664  0.4745 -0.4749 -0.2516
  276TMC3    H2 4228   4.128   4.373  14.948  1.1557 -0.2709  0.3380
  276TMC3    C7 4229   4.374   4.331  14.874  0.5305  0.0936  1.0284
  276TMC3    C8 4230   3.927   4.202  14.904  0.5408  0.4000 -0.4862
  276TMC3    O1 4231   4.356   4.399  14.978  0.9170  0.3974 -0.1835
  276TMC3    O2 4232   3.859   4.284  14.963 -0.0728 -0.3178 -0.5361
  277MPD2     C 4233   1.231   3.228  13.398  0.1624 -0.4032  0.6669
  277MPD2    C1 4234   1.095   3.209  13.386  0.1837  0.3016 -0.2150
  277MPD2    C2 4235   1.032   3.109  13.465  0.8188 -0.1966 -0.3798
  277MPD2    C3 4236   1.100   3.053  13.568 -0.4230  0.5174 -0.7403
  277MPD2    C4 4237   1.238   3.084  13.580  0.0889  0.0415 -0.2937
  277MPD2    C5 4238   1.305   3.164  13.490  0.2019 -0.5399 -0.2375
  277MPD2     H 4239   0.928   3.083  13.449  0.8370 -0.3109 -0.3110
  277MPD2    H1 4240   1.294   3.040  13.662 -1.2050  2.6699  1.9981
  277MPD2    H2 4241   1.284   3.292  13.329 -0.7933  2.1443  2.3127
  277MPD2    H3 4242   1.408   3.194  13.501 -0.3745  1.7973 -1.2135
  277MPD2     N 4243   1.027   2.968  13.653 -0.4228 -0.1541 -0.9092
  277MPD2    H5 4244   0.930   2.956  13.626 -0.1666 -1.7107 -1.1416
  277MPD2    N1 4245   1.015   3.291  13.306  0.0050  0.0068  0.2071
  277MPD2    H7 4246   1.067   3.353  13.244 -0.4692 -1.1627 -1.3861
  278TMC3    C1 4247   0.953   2.842  13.842  0.6491 -0.6715 -0.2636
  278TMC3    C2 4248   0.973   2.723  13.909 -0.3208 -0.2476  0.6004
  278TMC3    C3 4249   0.866   2.656  13.960  0.0848  0.9598 -0.0990
  278TMC3    C4 4250   0.826   2.896  13.826 -0.2360  0.1464 -0.1102
  278TMC3    C5 4251   0.716   2.828  13.877 -0.3261  0.1515 -0.2213
  278TMC3    C6 4252   0.739   2.710  13.947 -0.1746 -0.2248  0.5435
  278TMC3     C 4253   1.068   2.902  13.764 -0.5929  0.0872 -0.2481
  278TMC3     O 4254   1.183   2.890  13.806  0.2241 -0.1539  0.3195
  278TMC3     H 4255   1.074   2.691  13.931  0.0759 -0.2264 -1.1798
  278TMC3    H1 4256   0.812   2.996  13.787  0.7631  0.7232  1.0106
  278TMC3    H2 4257   0.655   2.674  14.005 -0.2876 -0.2069  0.3921
  278TMC3    C7 4258   0.614   2.922  13.940  0.1686 -0.0608  0.1011
  278TMC3    C8 4259   0.885   2.533  14.037 -0.4193 -0.3916 -0.3707
  278TMC3    O1 4260   0.640   3.042  13.936  0.4230  0.1484  0.4890
  278TMC3    O2 4261   0.995   2.535  14.092  0.5041 -0.0548 -0.2798
  279MPD2     C 4262   4.612   3.105   0.730 -0.3609 -0.1944  0.9235
  279MPD2    C1 4263   4.527   3.069   0.631  0.5387  0.3192 -0.1864
  279MPD2    C2 4264   4.576   3.039   0.507  0.5317 -0.0183 -0.0938
  279MPD2    C3 4265   4.711   3.063   0.478 -0.3503  0.3775  0.2660
  279MPD2    C4 4266   0.058   3.095   0.579 -0.0358  0.0349 -0.1288
  279MPD2    C5 4267   0.012   3.108   0.707 -0.2587  0.4280  0.1924
  279MPD2     H 4268   4.511   3.013   0.425 -0.9152  0.1657  1.0094
  279MPD2    H1 4269   0.159   3.132   0.566 -0.1497  1.0612  1.8894
  279MPD2    H2 4270   4.564   3.148   0.817  0.3233 -0.5993  1.4911
  279MPD2    H3 4271   0.068   3.146   0.791  1.1207  2.0375 -1.4640
  279MPD2     N 4272   0.028   3.053   0.353 -0.3195 -0.5710 -0.3686
  279MPD2    H5 4273   0.127   3.075   0.352 -0.5851  0.6447  1.3836
  279MPD2    N1 4274   4.380   3.085   0.641  0.3846  0.1347 -0.0430
  279MPD2    H7 4275   4.351   3.130   0.727 -0.1378  0.2669 -0.2869
  280TMC3    C1 4276   4.151   3.108   0.587  0.7825  0.1921 -0.2843
  280TMC3    C2 4277   4.047   3.035   0.569  0.4754 -0.3052  0.0706
  280TMC3    C3 4278   3.924   3.091   0.535  0.1540 -0.4581  0.2164
  280TMC3    C4 4279   4.151   3.245   0.589 -0.0561 -0.1365  0.5903
  280TMC3    C5 4280   4.046   3.299   0.527 -0.4371 -0.4880  0.0196
  280TMC3    C6 4281   3.929   3.227   0.512 -0.3634 -0.0318  0.1953
  280TMC3     C 4282   4.280   3.056   0.544  0.9585  0.0792 -0.2305
  280TMC3     O 4283   4.287   2.981   0.447  0.2544  0.4578 -0.7232
  280TMC3     H 4284   4.060   2.933   0.603  0.3135 -0.8480 -1.4731
  280TMC3    H1 4285   4.250   3.289   0.580  0.4491 -1.4824 -0.4427
  280TMC3    H2 4286   3.837   3.280   0.488 -0.7243  0.6985  3.1550
  280TMC3    C7 4287   4.088   3.395   0.425 -0.6991 -0.1763  0.1936
  280TMC3    C8 4288   3.807   3.039   0.591 -0.2976 -0.7616  0.2327
  280TMC3    O1 4289   4.189   3.465   0.444  0.3370 -0.6092 -0.1483
  280TMC3    O2 4290   3.729   3.118   0.643 -0.7902 -0.4946  0.8364
  281TMC3    C1 4291   3.796   3.250  13.319 -0.7074  0.0195 -0.2653
  281TMC3    C2 4292   3.749   3.337  13.224 -0.8601 -0.4066  0.0167
  281TMC3    C3 4293   3.740   3.287  13.093 -0.7131  0.1099  0.6632
  281TMC3    C4 4294   3.867   3.140  13.275 -0.0442  0.1866  0.5990
  281TMC3    C5 4295   3.852   3.092  13.144 -0.0138 -0.2570 -0.8311
  281TMC3    C6 4296   3.785   3.166  13.050 -0.0012 -0.8966 -0.1184
  281TMC3     C 4297   3.694   3.211  13.413 -0.8875  0.2260  0.2055
  281TMC3     O 4298   3.732   3.118  13.479 -0.0258  0.1423  0.0606
  281TMC3     H 4299   3.711   3.434  13.255  0.3877 -0.1472  0.7217
  281TMC3    H1 4300   3.940   3.091  13.339  2.0962  0.3941 -1.6870
  281TMC3    H2 4301   3.768   3.140  12.946 -1.2402 -0.1929 -0.1040
  281TMC3    C7 4302   3.817   2.950  13.138 -0.1708 -0.6984  1.0937
  281TMC3    C8 4303   3.634   3.341  13.010 -0.0197  0.2719  0.0269
  281TMC3    O1 4304   3.800   2.899  13.029  0.2291  0.0489  0.5798
  281TMC3    O2 4305   3.567   3.268  12.940  0.2954  0.1381 -0.0989
  282MPD2     C 4306   0.907   4.529  15.155 -0.3188 -0.6503  0.0424
  282MPD2    C1 4307   0.778   4.580  15.153 -0.5056 -0.2227  0.0432
  282MPD2    C2 4308   0.704   4.570  15.030 -0.1299 -0.1891 -0.4501
  282MPD2    C3 4309   0.761   4.513  14.919 -1.0591  0.4790  1.1407
  282MPD2    C4 4310   0.890   4.467  14.923 -0.0156  0.1945 -0.3495
  282MPD2    C5 4311   0.956   4.474  15.041  0.4941 -0.2931  0.2575
  282MPD2     H 4312   0.604   4.609  15.015 -0.6276 -1.3829 -0.2546
  282MPD2    H1 4313   0.940   4.425  14.836  0.6897 -0.0646  0.1810
  282MPD2    H2 4314   0.971   4.541  15.241  1.2090  1.5464 -1.4174
  282MPD2    H3 4315   1.058   4.438  15.042  0.2770 -0.8907  0.4059
  282MPD2     N 4316   0.675   4.499  14.808  0.1426  0.3845  0.5211
  282MPD2    H5 4317   0.586   4.545  14.826 -0.3114 -0.8901  1.5688
  282MPD2    N1 4318   0.721   4.634  15.275 -0.1963 -0.3096 -0.4190
  282MPD2    H7 4319   0.781   4.650  15.355  1.2439  3.4034 -2.2413
  283TMC3    C1 4320   0.568   4.690  15.433  0.5488  0.4701 -0.2301
  283TMC3    C2 4321   0.593   0.073  15.497  0.1392  0.7557 -0.1411
  283TMC3    C3 4322   0.528   0.094  15.617  0.5002 -0.1374 -0.3680
  283TMC3    C4 4323   0.496   4.586  15.488  0.0419  0.0426 -0.3468
  283TMC3    C5 4324   0.454   4.612  15.610  0.0952 -0.2412  0.0928
  283TMC3    C6 4325   0.472   4.724  15.684 -0.4717 -0.2019  0.1806
  283TMC3     C 4326   0.597   4.688  15.295  0.1076  0.0559  0.3797
  283TMC3     O 4327   0.503   4.714  15.219  0.1988  0.2229  0.3018
  283TMC3     H 4328   0.660   0.144  15.449  2.6421 -1.0869  0.6197
  283TMC3    H1 4329   0.472   4.493  15.438  0.7421 -0.4520  0.2344
  283TMC3    H2 4330   0.418   0.007  15.776 -1.8923  1.0321 -0.9103
  283TMC3    C7 4331   0.410   4.504  15.695 -0.1987 -0.1558 -0.1121
  283TMC3    C8 4332   0.521   0.222  15.669 -0.5707 -0.4676 -0.1417
  283TMC3    O1 4333   0.365   4.549  15.802  0.3898  0.6487 -0.0295
  283TMC3    O2 4334   0.486   0.233  15.787 -0.0894 -0.1875  0.0102
  284MPD2     C 4335   3.381   3.688  11.511 -0.4495 -0.2450 -0.0484
  284MPD2    C1 4336   3.509   3.718  11.561  0.2406 -0.9291  0.0999
  284MPD2    C2 4337   3.530   3.741  11.692 -0.4020 -0.1023 -0.2023
  284MPD2    C3 4338   3.423   3.734  11.782  0.2083 -0.1054 -0.3262
  284MPD2    C4 4339   3.302   3.686  11.735 -0.0293 -0.5781 -0.2788
  284MPD2    C5 4340   3.283   3.671  11.601 -0.4475 -0.7581  0.1606
  284MPD2     H 4341   3.624   3.769  11.738 -1.0107  0.8219  0.4759
  284MPD2    H1 4342   3.214   3.681  11.798  1.3928  2.1077  1.8855
  284MPD2    H2 4343   3.361   3.672  11.406  0.6997 -1.7798 -0.0354
  284MPD2    H3 4344   3.180   3.654  11.571  0.0154 -1.4741 -1.0172
  284MPD2     N 4345   3.458   3.762  11.914  0.1926  0.1668 -0.5228
  284MPD2    H5 4346   3.553   3.792  11.929 -0.3894  1.5844  0.3157
  284MPD2    N1 4347   3.623   3.739  11.485 -0.0187  0.3486 -0.2850
  284MPD2    H7 4348   3.706   3.767  11.537 -0.6901 -0.0103  0.9963
  285TMC3    C1 4349   3.768   3.729  11.305  0.4541 -0.0381  0.4443
  285TMC3    C2 4350   3.843   3.616  11.313  0.1897  0.5732  0.4711
  285TMC3    C3 4351   3.982   3.628  11.334 -0.4021  0.2933  0.8888
  285TMC3    C4 4352   3.829   3.852  11.318 -0.0811 -0.1027  0.6153
  285TMC3    C5 4353   3.956   3.867  11.331 -0.3578  0.5252  0.1529
  285TMC3    C6 4354   4.044   3.757  11.341  0.3434 -0.4215 -0.6709
  285TMC3     C 4355   3.632   3.727  11.350  0.4681  0.9600  0.2237
  285TMC3     O 4356   3.553   3.675  11.271  0.6326 -0.1682 -0.2156
  285TMC3     H 4357   3.793   3.521  11.322  1.1862  0.2202  2.3595
  285TMC3    H1 4358   3.764   3.938  11.310  0.5255  0.1041 -2.2172
  285TMC3    H2 4359   4.150   3.773  11.326  0.3246 -1.0653 -1.4594
  285TMC3    C7 4360   3.995   4.000  11.384  0.4455  0.0560  0.1088
  285TMC3    C8 4361   4.057   3.510  11.297 -0.3381  0.0046 -0.6797
  285TMC3    O1 4362   3.909   4.088  11.404  0.0215  0.5204 -0.4596
  285TMC3    O2 4363   3.996   3.434  11.225  0.0272  0.4851 -0.2113
  286MPD2     C 4364   3.778   3.130   1.467  0.4837 -0.2860 -0.2681
  286MPD2    C1 4365   3.793   3.102   1.334 -0.3413 -0.3475 -0.1795
  286MPD2    C2 4366   3.823   2.977   1.296 -0.0493  0.2245  0.1893
  286MPD2    C3 4367   3.856   2.873   1.387 -0.3448  0.0623  0.6424
  286MPD2    C4 4368   3.845   2.903   1.520  0.1599 -0.5626 -0.1596
  286MPD2    C5 4369   3.801   3.027   1.557 -0.2453 -0.0802  0.4839
  286MPD2     H 4370   3.865   2.965   1.196  0.1517 -0.3949  0.3461
  286MPD2    H1 4371   3.866   2.832   1.599  1.9284 -0.1265 -0.2401
  286MPD2    H2 4372   3.741   3.224   1.506  0.2213 -0.7155  0.5117
  286MPD2    H3 4373   3.796   3.051   1.663  1.2792 -3.1559  1.2400
  286MPD2     N 4374   3.905   2.742   1.350  0.1758  0.4035  0.3142
  286MPD2    H5 4375   3.932   2.693   1.435  0.8099 -0.8491 -0.6050
  286MPD2    N1 4376   3.768   3.199   1.229 -0.3843  0.9503 -0.5546
  286MPD2    H7 4377   3.775   3.163   1.134 -0.4964  1.5351 -0.7872
  287TMC3    C1 4378   3.959   2.555   1.219  0.3913 -0.7775 -0.5561
  287TMC3    C2 4379   3.968   2.493   1.093 -0.8411 -1.2514 -0.7436
  287TMC3    C3 4380   4.041   2.376   1.079 -0.5179 -0.0402  0.2095
  287TMC3    C4 4381   4.025   2.500   1.325 -0.2965 -0.0805  1.0104
  287TMC3    C5 4382   4.094   2.385   1.310 -0.1995 -0.3011  0.0034
  287TMC3    C6 4383   4.111   2.319   1.186 -0.5001  0.1804  0.5317
  287TMC3     C 4384   3.905   2.690   1.222 -0.5181  0.4446  0.0939
  287TMC3     O 4385   3.868   2.738   1.117  0.1959 -0.5285 -0.3469
  287TMC3     H 4386   3.902   2.527   1.014 -1.1435 -1.3659 -0.5375
  287TMC3    H1 4387   4.040   2.548   1.421 -1.4224 -0.5806  1.4382
  287TMC3    H2 4388   4.159   2.222   1.175 -0.4005  0.1813  0.9670
  287TMC3    C7 4389   4.174   2.339   1.426  0.6151 -0.2094  0.3882
  287TMC3    C8 4390   4.026   2.299   0.962 -0.0103 -0.6888 -0.1435
  287TMC3    O1 4391   4.156   2.388   1.534 -0.0373 -0.4182  0.5991
  287TMC3    O2 4392   4.023   2.179   0.968 -0.7156 -0.1569 -0.2209
  288TMC3    C1 4393   0.881   2.281  14.669 -0.5297 -0.4741 -0.2686
  288TMC3    C2 4394   0.777   2.253  14.757 -1.0385  0.3833  0.8676
  288TMC3    C3 4395   0.672   2.340  14.774 -0.2200  0.0686  0.0790
  288TMC3    C4 4396   0.875   2.396  14.596  0.0396  0.1896  0.6485
  288TMC3    C5 4397   0.773   2.482  14.616  0.0050  0.6343 -0.0848
  288TMC3    C6 4398   0.675   2.462  14.708  0.2602 -0.1397 -0.6601
  288TMC3     C 4399   1.004   2.202  14.648  0.1928 -0.2250  0.6180
  288TMC3     O 4400   1.089   2.244  14.572 -0.5034 -0.2863  0.0307
  288TMC3     H 4401   0.778   2.167  14.824 -2.1611 -0.1571  0.1908
  288TMC3    H1 4402   0.917   2.393  14.496  1.3822  0.3379  1.1990
  288TMC3    H2 4403   0.596   2.535  14.719 -0.7674 -1.2340 -0.8765
  288TMC3    C7 4404   0.741   2.576  14.512 -0.5814  0.4677  0.4802
  288TMC3    C8 4405   0.589   2.342  14.892  0.3691 -0.1371  0.1028
  288TMC3    O1 4406   0.619   2.598  14.504 -0.4531  0.2520  0.1604
  288TMC3    O2 4407   0.557   2.453  14.931 -0.0734 -0.4389  0.2589
  289MPD2     C 4408   0.942   1.550  14.091 -0.7667 -0.7727  0.4076
  289MPD2    C1 4409   0.928   1.649  14.190 -0.3128 -0.0775  0.3495
  289MPD2    C2 4410   0.853   1.621  14.304 -0.0650 -0.1131  0.4052
  289MPD2    C3 4411   0.782   1.506  14.310  0.4668 -0.1063 -0.0289
  289MPD2    C4 4412   0.794   1.410  14.210 -0.4785 -0.0043 -0.0822
  289MPD2    C5 4413   0.869   1.433  14.098 -0.6346  0.3709  0.1685
  289MPD2     H 4414   0.844   1.706  14.371 -0.3939 -1.0422  1.5431
  289MPD2    H1 4415   0.749   1.312  14.216 -5.1908  2.1602  0.4023
  289MPD2    H2 4416   0.994   1.555  13.996  0.0240 -0.4108  0.8632
  289MPD2    H3 4417   0.883   1.356  14.024 -2.6488 -1.3510  1.5764
  289MPD2     N 4418   0.682   1.487  14.406  0.1485 -0.1392 -0.4722
  289MPD2    H5 4419   0.625   1.403  14.399  0.9668 -0.7839  0.5851
  289MPD2    N1 4420   1.000   1.767  14.167  0.0270  0.6401  0.5121
  289MPD2    H7 4421   1.051   1.784  14.081 -0.4583 -0.6126 -0.0285
  290TMC3    C1 4422   0.492   1.554  14.529 -0.3766  0.6567  0.0327
  290TMC3    C2 4423   0.406   1.664  14.531 -0.6032 -0.3911  0.1980
  290TMC3    C3 4424   0.270   1.634  14.521  0.5801 -0.2779  0.2783
  290TMC3    C4 4425   0.456   1.426  14.533 -0.2029 -0.8317 -0.3715
  290TMC3    C5 4426   0.322   1.400  14.532  0.2805  0.3765  0.4790
  290TMC3    C6 4427   0.228   1.501  14.520 -0.6630  0.6589  1.0132
  290TMC3     C 4428   0.633   1.582  14.499 -0.1420  0.1718 -0.0377
  290TMC3     O 4429   0.681   1.681  14.551 -0.5743 -0.0054 -0.2543
  290TMC3     H 4430   0.447   1.765  14.530  0.4530 -0.8274 -0.6829
  290TMC3    H1 4431   0.524   1.351  14.570  0.0651 -1.3393 -1.8801
  290TMC3    H2 4432   0.124   1.487  14.548 -1.4683 -0.3121 -2.3941
  290TMC3    C7 4433   0.277   1.281  14.601  0.4191  0.3049 -0.0040
  290TMC3    C8 4434   0.169   1.737  14.511 -0.9551  0.4301  0.6425
  290TMC3    O1 4435   0.179   1.284  14.673 -0.1825  0.4352 -0.0341
  290TMC3    O2 4436   0.055   1.703  14.491  1.0728  0.0226 -0.2236
  291MPD2     C 4437   0.082   1.654   0.230  0.0750  0.6798  0.0589
  291MPD2    C1 4438   0.162   1.561   0.303 -0.3629  0.2980 -0.1686
  291MPD2    C2 4439   0.296   1.585   0.317  0.0881  0.9337 -0.1424
  291MPD2    C3 4440   0.348   1.693   0.255  0.1772 -0.0173 -0.1598
  291MPD2    C4 4441   0.270   1.776   0.180 -0.2252  0.2599  1.0338
  291MPD2    C5 4442   0.136   1.757   0.169 -0.8348  0.1194  0.0501
  291MPD2     H 4443   0.345   1.511   0.380  1.3083  0.6877 -1.3748
  291MPD2    H1 4444   0.312   1.862   0.128 -1.2703  0.2783  0.2233
  291MPD2    H2 4445   4.712   1.642   0.219  0.1614  0.5538 -0.6267
  291MPD2    H3 4446   0.069   1.821   0.113  0.0612  0.3779 -0.7370
  291MPD2     N 4447   0.485   1.735   0.274  0.2510 -0.1133  0.4504
  291MPD2    H5 4448   0.515   1.814   0.217 -0.9878 -0.5495 -0.8221
  291MPD2    N1 4449   0.115   1.452   0.375  0.0955 -0.6869 -1.3197
  291MPD2    H7 4450   0.187   1.387   0.406 -0.1006  0.4226  1.4715
  292TMC3    C1 4451   4.717   1.283   0.448  0.2803 -0.2353  0.2866
  292TMC3    C2 4452   0.064   1.260   0.556 -0.1369  0.9172  0.2853
  292TMC3    C3 4453   0.055   1.136   0.616  0.3986 -0.1092 -0.1034
  292TMC3    C4 4454   4.638   1.181   0.393  0.0029  0.4083  0.6861
  292TMC3    C5 4455   4.641   1.058   0.458 -0.2090 -0.5681  0.4909
  292TMC3    C6 4456   4.712   1.034   0.573 -0.5583  0.0340 -0.3513
  292TMC3     C 4457   4.723   1.404   0.376 -0.1666  0.6926 -0.6172
  292TMC3     O 4458   4.627   1.447   0.317 -0.2298  0.2939 -0.4430
  292TMC3     H 4459   0.124   1.341   0.594 -0.6562  0.9413  1.0522
  292TMC3    H1 4460   4.583   1.195   0.301  2.1225 -2.1676 -0.9832
  292TMC3    H2 4461   4.707   0.938   0.624  0.3947 -0.4491 -1.1657
  292TMC3    C7 4462   4.632   0.939   0.370 -0.5515 -0.1136  0.0910
  292TMC3    C8 4463   0.150   1.113   0.719 -0.4012 -0.4341  0.1526
  292TMC3    O1 4464   4.713   0.847   0.390 -0.6761  0.3198  0.3456
  292TMC3    O2 4465   0.261   1.163   0.708  0.4247 -0.2111 -0.4156
  293MPD2     C 4466   2.007   2.678  12.757  0.5081 -0.3448  0.2728
  293MPD2    C1 4467   1.898   2.678  12.835  0.2609 -0.0402  0.1162
  293MPD2    C2 4468   1.911   2.731  12.965  0.4288  0.4147 -0.5106
  293MPD2    C3 4469   2.023   2.800  13.007  0.2020  0.0365 -0.6731
  293MPD2    C4 4470   2.136   2.802  12.922  0.2806 -0.2023 -0.8169
  293MPD2    C5 4471   2.123   2.729  12.807 -0.3642  0.1315 -0.5037
  293MPD2     H 4472   1.829   2.732  13.036  0.2685 -0.1601 -0.6831
  293MPD2    H1 4473   2.231   2.850  12.943 -0.7603  1.6814 -0.3962
  293MPD2    H2 4474   2.007   2.624  12.663 -1.2021 -0.6770  0.4732
  293MPD2    H3 4475   2.206   2.727  12.738  0.7632 -0.9488  0.8939
  293MPD2     N 4476   2.028   2.859  13.133 -0.1398 -0.1420 -0.2062
  293MPD2    H5 4477   1.935   2.865  13.173 -0.2555 -0.4625 -0.4269
  293MPD2    N1 4478   1.777   2.627  12.775  0.1000  0.4165  0.1391
  293MPD2    H7 4479   1.781   2.594  12.679  1.0995 -0.1284  0.3681
  294TMC3    C1 4480   1.549   2.551  12.775 -0.6645  0.4486 -0.8055
  294TMC3    C2 4481   1.438   2.513  12.850  0.2085  0.1256 -0.4139
  294TMC3    C3 4482   1.353   2.422  12.799  0.4257  0.9050 -0.6858
  294TMC3    C4 4483   1.553   2.526  12.641  0.0678 -0.0663 -0.0244
  294TMC3    C5 4484   1.479   2.418  12.593 -0.1999  0.3796 -0.2409
  294TMC3    C6 4485   1.379   2.372  12.671  0.0490 -0.1178 -0.2241
  294TMC3     C 4486   1.661   2.611  12.851 -0.3013 -0.2963 -0.4761
  294TMC3     O 4487   1.645   2.642  12.966  0.3313 -0.2365  0.2091
  294TMC3     H 4488   1.437   2.538  12.955  1.0008 -2.5485  0.2280
  294TMC3    H1 4489   1.643   2.556  12.587  2.2301 -2.6499  2.1664
  294TMC3    H2 4490   1.312   2.304  12.620  2.2792 -2.4335 -0.0740
  294TMC3    C7 4491   1.498   2.357  12.459  0.8016  0.5512 -0.2754
  294TMC3    C8 4492   1.216   2.412  12.845 -0.6631 -1.1859  0.5352
  294TMC3    O1 4493   1.457   2.245  12.435  0.6978  0.5857  0.0959
  294TMC3    O2 4494   1.179   2.505  12.919  0.7259  0.5369 -0.1613
  295MPD2     C 4495   2.765   2.391   0.857  0.1794 -0.2700 -0.0290
  295MPD2    C1 4496   2.639   2.331   0.839 -0.6491 -0.6696 -0.2578
  295MPD2    C2 4497   2.622   2.198   0.873  0.8001 -0.0926 -0.1862
  295MPD2    C3 4498   2.731   2.118   0.911 -0.2795  0.6054 -0.1670
  295MPD2    C4 4499   2.859   2.173   0.916 -0.0148  0.1675 -0.5859
  295MPD2    C5 4500   2.874   2.309   0.889 -0.6694 -0.1395 -0.3818
  295MPD2     H 4501   2.527   2.156   0.844  0.4059  0.5845  0.1258
  295MPD2    H1 4502   2.938   2.118   0.967  0.3670  0.4707 -0.8481
  295MPD2    H2 4503   2.796   2.492   0.831 -1.5757  0.2571 -0.0627
  295MPD2    H3 4504   2.968   2.361   0.902 -0.9255  0.4972 -1.0089
  295MPD2     N 4505   2.716   1.983   0.949  0.4458 -0.0432  0.0696
  295MPD2    H5 4506   2.799   1.938   0.986  0.0544  0.2878  1.3638
  295MPD2    N1 4507   2.525   2.407   0.798  0.0785  0.3701 -0.4543
  295MPD2    H7 4508   2.440   2.354   0.783  1.0813 -1.7579  1.3076
  296TMC3    C1 4509   2.621   1.772   1.020  0.1899 -0.1721  0.6561
  296TMC3    C2 4510   2.725   1.748   1.101  0.3508 -0.2348 -0.3178
  296TMC3    C3 4511   2.753   1.620   1.137 -0.3220  0.4121 -0.1407
  296TMC3    C4 4512   2.517   1.685   1.002  0.4542 -0.1731  0.1608
  296TMC3    C5 4513   2.538   1.553   1.045  0.0237  0.1078  0.4272
  296TMC3    C6 4514   2.658   1.524   1.109  0.3700  0.5968 -0.0317
  296TMC3     C 4515   2.606   1.910   0.965  0.6562 -0.1169 -0.0120
  296TMC3     O 4516   2.492   1.928   0.928 -0.3580 -0.3835  0.1144
  296TMC3     H 4517   2.779   1.839   1.122  1.6823 -0.5526 -2.3467
  296TMC3    H1 4518   2.426   1.725   0.959  0.2576 -1.0572 -0.2419
  296TMC3    H2 4519   2.690   1.425   1.138  0.2471  0.2572 -1.0311
  296TMC3    C7 4520   2.425   1.463   1.037  0.0484 -0.0349  0.0909
  296TMC3    C8 4521   2.876   1.585   1.213 -0.1443 -0.0901 -0.0734
  296TMC3    O1 4522   2.348   1.493   0.947 -0.4296 -0.0170  0.4601
  296TMC3    O2 4523   2.908   1.471   1.196  0.0879  0.6125  0.1772
  297MPD2     C 4524   4.301   3.299  16.526  0.1212 -0.0707 -0.6460
  297MPD2    C1 4525   4.355   3.367  16.420 -0.4656 -0.1834  0.3188
  297MPD2    C2 4526   4.493   3.388  16.416 -0.7342  0.6429  0.4738
  297MPD2    C3 4527   4.577   3.343  16.516  0.4015 -0.9904  0.3591
  297MPD2    C4 4528   4.521   3.269  16.614  0.3975 -0.2312  0.1811
  297MPD2    C5 4529   4.389   3.251  16.622  0.6181  0.1762  1.1843
  297MPD2     H 4530   4.538   3.449  16.339 -2.1990 -0.5230 -1.2974
  297MPD2    H1 4531   4.571   3.238  16.706  1.1716 -0.7272 -0.4028
  297MPD2    H2 4532   4.194   3.289  16.538 -0.1674  2.5788 -1.0706
  297MPD2    H3 4533   4.346   3.190  16.700 -2.7286 -0.1739 -0.9317
  297MPD2     N 4534   4.716   3.383  16.519 -0.0200  0.2088  0.0949
  297MPD2    H5 4535   0.010   3.447  16.446  1.6454  0.7259  1.2685
  297MPD2    N1 4536   4.279   3.427  16.316  0.3563  0.1004 -0.3844
  297MPD2    H7 4537   4.325   3.478  16.241  1.0552  1.0479  0.6906
  298TMC3    C1 4538   4.099   3.503  16.181  0.1803  0.4122  0.3108
  298TMC3    C2 4539   4.168   3.495  16.059  0.4848 -0.4681 -0.0502
  298TMC3    C3 4540   4.088   3.521  15.950  0.2479 -1.0882 -0.2289
  298TMC3    C4 4541   3.975   3.563  16.193  0.5869 -0.3629 -0.2668
  298TMC3    C5 4542   3.908   3.603  16.079 -0.8233  0.3158 -0.1393
  298TMC3    C6 4543   3.968   3.586  15.958  0.1840  0.1892  1.0470
  298TMC3     C 4544   4.146   3.432  16.303 -0.5648  0.6948  0.6101
  298TMC3     O 4545   4.053   3.391  16.376  0.4411 -0.4100  0.2901
  298TMC3     H 4546   4.264   3.444  16.053 -0.0938 -1.5312 -0.2159
  298TMC3    H1 4547   3.931   3.576  16.291 -1.5838  1.4022 -1.4753
  298TMC3    H2 4548   3.925   3.623  15.865  0.6970 -1.3164  0.2127
  298TMC3    C7 4549   3.804   3.700  16.091 -0.4595  0.2476  1.0345
  298TMC3    C8 4550   4.152   3.502  15.826  0.4356 -0.6360 -1.3815
  298TMC3    O1 4551   3.804   3.765  16.196 -0.2850 -0.1572 -0.5700
  298TMC3    O2 4552   4.232   3.412  15.817  0.4186 -0.8150 -0.7140
  299MPD2     C 4553   0.671   2.578  10.857  0.3681 -0.1888 -0.3163
  299MPD2    C1 4554   0.677   2.612  10.727  0.1178  0.2958 -0.2124
  299MPD2    C2 4555   0.608   2.535  10.634 -0.5864  0.0449 -0.3355
  299MPD2    C3 4556   0.533   2.424  10.667 -0.2064  0.2061 -0.5799
  299MPD2    C4 4557   0.520   2.405  10.806  0.5970 -0.7135 -0.1540
  299MPD2    C5 4558   0.592   2.475  10.900 -0.1341 -0.0489  0.0536
  299MPD2     H 4559   0.627   2.561  10.530  0.6050 -0.3181 -0.2182
  299MPD2    H1 4560   0.451   2.332  10.847 -1.1353  0.7843 -0.3769
  299MPD2    H2 4561   0.719   2.639  10.932 -0.1254 -2.1501  1.5968
  299MPD2    H3 4562   0.572   2.464  11.006 -0.5448  0.4006  0.0211
  299MPD2     N 4563   0.452   2.348  10.586 -0.7488  0.4394  0.1664
  299MPD2    H5 4564   0.373   2.300  10.630 -0.3032 -0.2089  0.2523
  299MPD2    N1 4565   0.755   2.729  10.693 -0.1408  0.2295  0.4994
  299MPD2    H7 4566   0.797   2.775  10.773  0.5931  0.1510  0.1563
  300TMC3    C1 4567   0.303   2.342  10.413  0.5517  0.2587 -0.4577
  300TMC3    C2 4568   0.253   2.459  10.358  0.0610  0.3488  0.0778
  300TMC3    C3 4569   0.126   2.499  10.384 -0.1391  0.1323  0.5757
  300TMC3    C4 4570   0.221   2.261  10.494  0.7944 -0.7146  0.0459
  300TMC3    C5 4571   0.091   2.311  10.521  0.6279  0.2457 -0.3840
  300TMC3    C6 4572   0.042   2.426  10.464 -0.1649 -0.0397 -0.2051
  300TMC3     C 4573   0.438   2.361  10.454  0.1022 -0.8763  0.4207
  300TMC3     O 4574   0.516   2.420  10.381  0.0096  0.4615 -0.2774
  300TMC3     H 4575   0.321   2.516  10.296  0.9702  0.6184  1.3229
  300TMC3    H1 4576   0.252   2.158  10.510 -2.2567 -2.1013 -2.9281
  300TMC3    H2 4577   4.678   2.462  10.482  0.2104  1.0003 -0.1697
  300TMC3    C7 4578   0.005   2.231  10.596 -0.1252 -0.8422  0.4614
  300TMC3    C8 4579   0.132   2.642  10.411  0.4790 -0.2836  0.4197
  300TMC3    O1 4580   0.004   2.110  10.583 -0.4613  0.2910 -0.0288
  300TMC3    O2 4581   0.248   2.679  10.438 -0.1032  0.6992 -0.2474
  301MPD2     C 4582   2.470   0.247   1.296 -0.3583  0.3112  0.1850
  301MPD2    C1 4583   2.352   0.190   1.255  0.2729  0.0132 -0.5131
  301MPD2    C2 4584   2.342   0.049   1.260  0.0425 -0.1708  0.5195
  301MPD2    C3 4585   2.440   4.706   1.322  0.8776  0.0838  0.0598
  301MPD2    C4 4586   2.555   0.036   1.359  0.3952  0.4166  0.3993
  301MPD2    C5 4587   2.572   0.171   1.347 -0.1780 -0.3245  0.0718
  301MPD2     H 4588   2.250   4.736   1.233 -0.8736  1.6935  0.2196
  301MPD2    H1 4589   2.638   4.718   1.399  0.5029  0.8736  0.8000
  301MPD2    H2 4590   2.480   0.355   1.298 -1.3030  0.4175 -0.8719
  301MPD2    H3 4591   2.666   0.214   1.379 -1.1058  1.5903  0.2332
  301MPD2     N 4592   2.422   4.564   1.341 -0.4639  0.2004 -0.0048
  301MPD2    H5 4593   2.331   4.534   1.308 -1.1479 -1.2357  3.1895
  301MPD2    N1 4594   2.247   0.262   1.201 -0.0244 -0.7174  0.4454
  301MPD2    H7 4595   2.177   0.209   1.150  0.4822 -0.3331 -0.6420
  302TMC3    C1 4596   2.454   4.342   1.426  0.5658 -0.4575 -0.6831
  302TMC3    C2 4597   2.533   4.263   1.502 -0.0595 -0.2550 -0.1754
  302TMC3    C3 4598   2.519   4.129   1.475 -0.5784 -0.4103 -0.2050
  302TMC3    C4 4599   2.376   4.295   1.318  1.0553 -0.0700  0.0703
  302TMC3    C5 4600   2.360   4.159   1.306 -0.7674 -0.0044  0.1369
  302TMC3    C6 4601   2.434   4.075   1.383 -0.6079  0.0050  0.2604
  302TMC3     C 4602   2.501   4.478   1.417  0.5089  0.4020 -0.0483
  302TMC3     O 4603   2.587   4.507   1.501  0.8112  0.3799 -0.8740
  302TMC3     H 4604   2.598   4.299   1.581  1.6370  0.3829 -1.8578
  302TMC3    H1 4605   2.338   4.353   1.235 -0.4864 -4.0699 -2.0256
  302TMC3    H2 4606   2.426   3.968   1.364 -0.7269 -0.2583  1.7679
  302TMC3    C7 4607   2.283   4.106   1.192  0.1100  0.7308  0.2051
  302TMC3    C8 4608   2.623   4.036   1.531 -0.6088 -0.1726 -0.7092
  302TMC3    O1 4609   2.334   4.004   1.144  0.2207  0.3642 -0.0048
  302TMC3    O2 4610   2.726   4.085   1.575  0.0303 -0.7344  0.3107
  303MPD2     C 4611   3.080   2.038  10.290 -0.1353 -1.1482 -0.0851
  303MPD2    C1 4612   2.957   2.024  10.335  0.3212 -0.2732  0.3253
  303MPD2    C2 4613   2.856   2.023  10.248 -0.7088 -0.7082  0.0546
  303MPD2    C3 4614   2.877   2.039  10.113  0.0311 -1.0551 -0.2534
  303MPD2    C4 4615   3.006   2.058  10.066  0.0083 -0.4691 -0.4040
  303MPD2    C5 4616   3.105   2.063  10.159  0.2218  0.1678  0.1550
  303MPD2     H 4617   2.760   1.991  10.288 -1.4163 -0.8249 -1.7304
  303MPD2    H1 4618   3.029   2.059   9.960 -2.1261 -0.8992 -0.8701
  303MPD2    H2 4619   3.157   2.035  10.365 -1.5439 -2.6333  1.2912
  303MPD2    H3 4620   3.208   2.064  10.126  0.0482  0.5728 -0.3854
  303MPD2     N 4621   2.776   2.036  10.019 -0.0043  0.0772  0.2090
  303MPD2    H5 4622   2.805   2.041   9.922 -0.7025  0.0561 -0.0008
  303MPD2    N1 4623   2.936   1.990  10.468  0.7035 -0.3499  0.2690
  303MPD2    H7 4624   3.016   1.958  10.520 -0.1303 -1.2442  0.9930
  304TMC3    C1 4625   2.812   1.901  10.650 -0.9315 -0.4231  0.1428
  304TMC3    C2 4626   2.723   1.943  10.745  0.3589  0.1399 -0.6354
  304TMC3    C3 4627   2.731   1.893  10.876 -0.1269 -0.2515  0.6806
  304TMC3    C4 4628   2.915   1.817  10.675 -1.0399 -0.2688  0.3559
  304TMC3    C5 4629   2.905   1.759  10.799  0.0080  0.2413 -0.1400
  304TMC3    C6 4630   2.816   1.791  10.900  0.9253 -0.4946 -0.1670
  304TMC3     C 4631   2.812   1.979  10.528  0.0933  0.5707 -0.2513
  304TMC3     O 4632   2.707   2.044  10.505 -0.6838  0.1045 -0.4744
  304TMC3     H 4633   2.644   2.017  10.730  0.4022  0.0197 -1.4524
  304TMC3    H1 4634   2.973   1.772  10.595  0.3529 -0.1991  1.3255
  304TMC3    H2 4635   2.813   1.733  10.991  1.5523  1.7038  1.2507
  304TMC3    C7 4636   2.926   1.614  10.779 -0.3977  0.2187 -0.0686
  304TMC3    C8 4637   2.600   1.832  10.904  0.3674  0.8590  0.4172
  304TMC3    O1 4638   3.033   1.575  10.730  0.5961 -0.6858  0.4760
  304TMC3    O2 4639   2.591   1.711  10.912  0.0051 -0.4120 -0.2556
  305MPD2     C 4640   0.777   0.103  13.869  0.1014 -0.6622 -0.2928
  305MPD2    C1 4641   0.855   4.729  13.898 -0.3384  0.2138 -0.7969
  305MPD2    C2 4642   0.895   4.646  13.795 -0.0143 -0.1277  0.2607
  305MPD2    C3 4643   0.874   4.691  13.658 -0.2729  0.2022  0.5715
  305MPD2    C4 4644   0.800   0.074  13.634 -0.7750 -0.1674  0.4226
  305MPD2    C5 4645   0.756   0.146  13.741 -0.4082  0.2969  0.0504
  305MPD2     H 4646   0.944   4.550  13.808  0.3655  0.2768  1.7588
  305MPD2    H1 4647   0.784   0.113  13.534 -1.5932 -0.8783  0.2762
  305MPD2    H2 4648   0.749   0.161  13.956  1.8587  0.1765 -0.2910
  305MPD2    H3 4649   0.702   0.239  13.726 -0.0983  0.7188  1.5113
  305MPD2     N 4650   0.917   4.620  13.540 -0.2503  0.7162  0.5715
  305MPD2    H5 4651   0.919   4.673  13.453 -0.7559  1.5213  1.0426
  305MPD2    N1 4652   0.872   4.698  14.035 -0.5083  0.4265 -0.6240
  305MPD2    H7 4653   0.839   0.029  14.103 -1.5030  1.8174 -2.5214
  306TMC3    C1 4654   0.942   4.585  14.231  0.1790 -0.2587 -0.5893
  306TMC3    C2 4655   1.045   4.526  14.295 -0.1891  0.1150  0.0762
  306TMC3    C3 4656   1.039   4.534  14.432  0.3008  0.4564  0.8787
  306TMC3    C4 4657   0.834   4.651  14.299  0.2034 -0.9482 -0.4717
  306TMC3    C5 4658   0.843   4.653  14.435 -1.0779  0.4095  0.2156
  306TMC3    C6 4659   0.943   4.598  14.505  0.7383  0.3305 -0.3690
  306TMC3     C 4660   0.949   4.597  14.087  0.2205  0.5415  0.3457
  306TMC3     O 4661   1.031   4.528  14.023  0.4522  0.3643  0.0298
  306TMC3     H 4662   1.121   4.479  14.234 -2.3849 -0.9231 -1.8597
  306TMC3    H1 4663   0.745   4.690  14.252 -1.4483 -2.8492  1.0516
  306TMC3    H2 4664   0.949   4.592  14.613 -3.0100 -0.0878 -0.2071
  306TMC3    C7 4665   0.740   4.735  14.508  0.2965  0.3974  0.3435
  306TMC3    C8 4666   1.140   4.453  14.498  0.1430 -0.1849 -0.0873
  306TMC3    O1 4667   0.626   0.001  14.462 -0.3149  0.4471  0.2098
  306TMC3    O2 4668   1.188   4.360  14.431  0.1582  0.4039 -0.4846
  307MPD2     C 4669   3.375   3.736   0.577  0.1979  0.3027 -0.3873
  307MPD2    C1 4670   3.309   3.848   0.617  0.5951 -0.2984  0.4024
  307MPD2    C2 4671   3.225   3.834   0.731  0.2295 -0.4334 -0.8348
  307MPD2    C3 4672   3.224   3.714   0.805 -0.0449 -0.1856 -0.4417
  307MPD2    C4 4673   3.270   3.598   0.748  0.0436 -0.4886 -0.5707
  307MPD2    C5 4674   3.354   3.610   0.636  0.0113 -0.3540  0.4525
  307MPD2     H 4675   3.173   3.911   0.787  0.3277 -0.0363 -1.2939
  307MPD2    H1 4676   3.262   3.500   0.793 -1.7874  0.5148  1.2450
  307MPD2    H2 4677   3.452   3.745   0.501 -0.2770 -0.3608 -0.9504
  307MPD2    H3 4678   3.392   3.518   0.593  0.4870  0.7588 -1.4964
  307MPD2     N 4679   3.151   3.715   0.921 -0.3376  0.3019 -0.1330
  307MPD2    H5 4680   3.103   3.802   0.944  0.7184  0.8267  0.0889
  307MPD2    N1 4681   3.326   3.972   0.548  0.3398 -0.1563 -0.4327
  307MPD2    H7 4682   3.283   4.045   0.604 -1.4891 -1.3536 -0.2777
  308TMC3    C1 4683   2.822   3.587   1.181  0.1003 -1.1072  0.2904
  308TMC3    C2 4684   2.792   3.718   1.206 -0.4034 -0.0914 -0.7782
  308TMC3    C3 4685   2.901   3.802   1.206 -0.3182  0.5167 -0.2029
  308TMC3    C4 4686   2.946   3.540   1.141  0.4917  0.0460  0.3130
  308TMC3    C5 4687   3.045   3.637   1.121 -0.2548  0.0252  0.2774
  308TMC3    C6 4688   3.030   3.765   1.162 -0.4736  0.5901 -0.4083
  308TMC3     C 4689   2.718   3.496   1.179 -0.0946  0.1436  0.3846
  308TMC3     O 4690   2.744   3.377   1.205  0.8081  0.4057 -0.3954
  308TMC3     H 4691   2.699   3.754   1.250  1.0426  1.8489  0.6602
  308TMC3    H1 4692   2.963   3.434   1.126 -1.1323  0.0172 -1.1966
  308TMC3    H2 4693   3.104   3.844   1.153 -1.2132  1.4959  1.3785
  308TMC3    C7 4694   3.137   3.610   1.013 -0.2638 -0.0701 -0.4827
  308TMC3    C8 4695   2.890   3.948   1.242  0.3973  0.6872  0.0073
  308TMC3    O1 4696   3.186   3.498   1.011 -0.0366 -0.7387 -0.0843
  308TMC3    O2 4697   2.978   3.998   1.311 -0.7339  0.0935 -0.2423
  309MPD2     C 4698   2.237   3.600  17.456 -0.3278 -0.1620 -0.2595
  309MPD2    C1 4699   2.153   3.547  17.358  0.0812  0.1947  0.0875
  309MPD2    C2 4700   2.022   3.522  17.398  0.3481  0.3643  0.0409
  309MPD2    C3 4701   1.983   3.523  17.533 -0.4626  0.1362  0.5790
  309MPD2    C4 4702   2.077   3.566  17.626  1.3286  0.2331  0.1627
  309MPD2    C5 4703   2.203   3.609  17.586  0.1538 -0.3256 -0.2818
  309MPD2     H 4704   1.948   3.499  17.323  0.5920  0.9482 -0.3728
  309MPD2    H1 4705   2.042   3.569  17.729 -0.2485 -1.5770 -0.3100
  309MPD2    H2 4706   2.340   3.623  17.431 -0.5852  1.9879  0.6873
  309MPD2    H3 4707   2.277   3.640  17.659 -0.8887  1.4035  0.0339
  309MPD2     N 4708   1.849   3.499  17.569  0.4132  0.8663 -0.3919
  309MPD2    H5 4709   1.836   3.506  17.670  0.2539 -1.6473 -0.2402
  309MPD2    N1 4710   2.182   3.538  17.224  0.1626  0.8294 -0.5493
  309MPD2    H7 4711   2.112   3.494  17.165 -0.4393  1.4020 -0.2632
  310TMC3    C1 4712   2.292   3.529  17.034  0.2935 -0.9572 -0.4074
  310TMC3    C2 4713   2.166   3.533  16.978 -0.1974 -0.2763  0.4355
  310TMC3    C3 4714   2.164   3.464  16.861  0.2227 -0.2941 -0.0269
  310TMC3    C4 4715   2.416   3.487  16.976 -0.7066  0.9772 -0.4506
  310TMC3    C5 4716   2.400   3.424  16.857  0.0367 -0.7017  0.1348
  310TMC3    C6 4717   2.274   3.408  16.807 -0.1140  0.0904 -0.0679
  310TMC3     C 4718   2.301   3.563  17.166 -0.0824  0.6198 -0.4568
  310TMC3     O 4719   2.408   3.587  17.214  0.3030  0.8940  0.1385
  310TMC3     H 4720   2.097   3.610  17.011 -0.1282 -0.2852  0.6054
  310TMC3    H1 4721   2.507   3.488  17.035 -1.4940 -0.5865  0.7972
  310TMC3    H2 4722   2.262   3.373  16.705 -0.3399 -1.7237  0.5866
  310TMC3    C7 4723   2.518   3.411  16.777 -1.0393  0.5524 -0.6594
  310TMC3    C8 4724   2.093   3.542  16.758  0.0693 -0.2894 -0.1623
  310TMC3    O1 4725   2.628   3.434  16.833 -0.1769  0.0645 -0.2521
  310TMC3    O2 4726   2.172   3.585  16.671 -0.5607  0.0695 -0.2136
  311MPD2     C 4727   4.566   4.379  12.536  0.4279  0.3600  0.0453
  311MPD2    C1 4728   4.594   4.401  12.672  0.0369 -0.2126 -0.3480
  311MPD2    C2 4729   4.489   4.388  12.758 -0.6062 -0.1727  0.2570
  311MPD2    C3 4730   4.361   4.345  12.725 -0.1217 -1.0025 -0.4561
  311MPD2    C4 4731   4.341   4.324  12.588 -0.1254  0.2440 -0.4478
  311MPD2    C5 4732   4.439   4.340  12.493 -0.2619  1.5151 -0.3304
  311MPD2     H 4733   4.513   4.386  12.864 -1.0626  0.0159  0.3651
  311MPD2    H1 4734   4.248   4.281  12.551 -1.6381  0.0529  3.5857
  311MPD2    H2 4735   4.639   4.389  12.457  0.4878 -0.7642 -0.0394
  311MPD2    H3 4736   4.418   4.318  12.389 -0.2638  0.7277 -0.1649
  311MPD2     N 4737   4.262   4.324  12.826 -0.8706 -0.0925 -0.1015
  311MPD2    H5 4738   4.286   4.327  12.924 -0.7942  1.3980 -0.1728
  311MPD2    N1 4739   4.719   4.450  12.725  0.4586 -0.1832  0.0776
  311MPD2    H7 4740   4.722   4.487  12.819 -0.3443 -1.0718  0.4582
  312TMC3    C1 4741   4.041   4.295  12.914 -0.4067 -0.6470  0.3946
  312TMC3    C2 4742   3.909   4.259  12.902 -0.3453  0.3562 -0.4070
  312TMC3    C3 4743   3.825   4.291  13.007  0.7071  0.7363  0.5544
  312TMC3    C4 4744   4.081   4.338  13.037 -0.0625  0.2972 -0.0325
  312TMC3    C5 4745   3.997   4.370  13.141 -0.3764  0.8043  0.3216
  312TMC3    C6 4746   3.866   4.341  13.124  0.7085 -0.2679 -0.1677
  312TMC3     C 4747   4.123   4.309  12.796  0.9131  1.0413  0.1755
  312TMC3     O 4748   4.066   4.300  12.690 -0.6034 -0.5499  0.4548
  312TMC3     H 4749   3.871   4.221  12.808  0.4455  0.8691 -0.9315
  312TMC3    H1 4750   4.183   4.373  13.045  0.0260 -0.1055  0.5927
  312TMC3    H2 4751   3.791   4.371  13.197  1.1569  1.9583 -0.6474
  312TMC3    C7 4752   4.042   4.376  13.280  0.1141 -0.0752  0.0085
  312TMC3    C8 4753   3.681   4.267  12.976  0.9264 -0.4388  0.2642
  312TMC3    O1 4754   3.976   4.431  13.368  0.2012 -0.4004 -0.0545
  312TMC3    O2 4755   3.645   4.264  12.858  0.1609  0.4967 -0.0825
  313MPD2     C 4756   3.701   3.097  10.896  0.4131  0.4881  0.2371
  313MPD2    C1 4757   3.793   3.191  10.860 -0.7759 -0.3113  0.1683
  313MPD2    C2 4758   3.902   3.146  10.792 -0.0788 -0.3079 -0.4295
  313MPD2    C3 4759   3.914   3.017  10.741 -0.0066 -0.0184 -0.6576
  313MPD2    C4 4760   3.822   2.920  10.787  0.4970 -0.2707  0.4877
  313MPD2    C5 4761   3.719   2.965  10.866  0.0176 -0.5850  0.2905
  313MPD2     H 4762   3.983   3.212  10.762 -1.0295  0.0377 -2.2611
  313MPD2    H1 4763   3.819   2.817  10.752 -0.6857  0.4079 -1.4277
  313MPD2    H2 4764   3.621   3.119  10.966 -0.0507 -0.6842  0.0855
  313MPD2    H3 4765   3.644   2.896  10.901 -1.0998  0.1800 -0.6217
  313MPD2     N 4766   4.021   2.984  10.657  0.3427  0.0701  0.2339
  313MPD2    H5 4767   4.092   3.056  10.643  0.1247 -0.2123 -2.4406
  313MPD2    N1 4768   3.783   3.331  10.898 -0.6680  0.8598 -0.2130
  313MPD2    H7 4769   3.859   3.395  10.876 -0.4173  0.8978  0.7849
  314TMC3    C1 4770   3.686   3.535  10.949  0.6177 -0.1926  0.7565
  314TMC3    C2 4771   3.819   3.589  10.965 -0.2344  0.8040  0.7430
  314TMC3    C3 4772   3.830   3.725  10.950 -0.2816 -0.4297  0.7979
  314TMC3    C4 4773   3.571   3.614  10.927 -0.6720  0.2968  0.0219
  314TMC3    C5 4774   3.594   3.746  10.895 -0.0042 -0.8042 -0.3722
  314TMC3    C6 4775   3.719   3.804  10.917 -0.0670  0.2485 -1.2685
  314TMC3     C 4776   3.662   3.392  10.934  0.5190  1.1246  0.0294
  314TMC3     O 4777   3.550   3.343  10.929  0.6760  0.2112  0.1655
  314TMC3     H 4778   3.899   3.527  11.006 -0.2038 -1.3168 -2.5590
  314TMC3    H1 4779   3.476   3.570  10.900 -1.2535  0.4619  1.8029
  314TMC3    H2 4780   3.737   3.908  10.893 -0.3909  0.0288 -2.4718
  314TMC3    C7 4781   3.503   3.802  10.801  0.4012  0.0249 -0.4341
  314TMC3    C8 4782   3.956   3.793  10.965 -0.1514  0.2258  0.1872
  314TMC3    O1 4783   3.384   3.788  10.815  0.4480  0.1914 -0.5641
  314TMC3    O2 4784   3.947   3.912  10.988  0.2329 -0.8818  0.2963
  315MPD2     C 4785   3.204   3.009  17.612  0.4248 -0.5654  0.0097
  315MPD2    C1 4786   3.259   3.095  17.701  0.1790  0.1252 -0.8373
  315MPD2    C2 4787   3.339   3.195  17.645  0.6872 -0.8090  0.3526
  315MPD2    C3 4788   3.355   3.214  17.512  0.0710  0.0301  0.1292
  315MPD2    C4 4789   3.295   3.124  17.429 -0.1669 -0.5694 -0.0260
  315MPD2    C5 4790   3.229   3.019  17.477 -0.7632  0.1967  0.2455
  315MPD2     H 4791   3.390   3.257  17.717  0.7285  0.4174 -0.7331
  315MPD2    H1 4792   3.301   3.124  17.320 -0.0879  2.7994 -0.0072
  315MPD2    H2 4793   3.140   2.931  17.653 -2.3357  1.8201  0.2428
  315MPD2    H3 4794   3.184   2.941  17.417 -1.7856  0.9151  0.0743
  315MPD2     N 4795   3.438   3.318  17.476 -0.1351  0.1569 -0.0309
  315MPD2    H5 4796   3.495   3.360  17.548  0.4607 -0.1133 -0.3449
  315MPD2    N1 4797   3.259   3.082   0.098  0.8663 -0.2690  0.2590
  315MPD2    H7 4798   3.294   3.159   0.154  0.3746  1.4164 -1.7510
  316TMC3    C1 4799   3.559   3.440  17.325 -0.0145  0.4700 -0.8021
  316TMC3    C2 4800   3.665   3.434  17.418  0.2938 -0.2000 -0.5323
  316TMC3    C3 4801   3.762   3.534  17.403 -0.0916 -0.1930 -0.1874
  316TMC3    C4 4802   3.549   3.530  17.220  0.1903 -0.5633 -0.2764
  316TMC3    C5 4803   3.657   3.609  17.200  0.5587 -0.4442  0.0256
  316TMC3    C6 4804   3.756   3.616  17.294 -0.1862  0.2568  0.2726
  316TMC3     C 4805   3.445   3.361  17.347  0.7007  0.7281  0.2278
  316TMC3     O 4806   3.392   3.327  17.241 -0.1277 -0.5071 -0.9344
  316TMC3     H 4807   3.683   3.349  17.484 -1.8949 -0.5711 -0.3974
  316TMC3    H1 4808   3.461   3.532  17.156 -1.1281  0.7075  1.5527
  316TMC3    H2 4809   3.843   3.679  17.279 -0.3373  0.1157 -1.2653
  316TMC3    C7 4810   3.693   3.655  17.067 -0.1334  0.1233  0.5184
  316TMC3    C8 4811   3.887   3.539  17.474  0.0742 -0.5478  0.0076
  316TMC3    O1 4812   3.810   3.693  17.052 -0.1254 -0.3526  0.2590
  316TMC3    O2 4813   3.985   3.589  17.420 -0.8805 -0.4139  0.2734
  317MPD2     C 4814   0.594   1.724  13.010  0.0516  0.2021  0.3342
  317MPD2    C1 4815   0.625   1.591  12.983 -0.4551  0.1571  0.4557
  317MPD2    C2 4816   0.724   1.528  13.053 -1.2228 -0.1664 -0.3365
  317MPD2    C3 4817   0.808   1.598  13.142 -0.0084 -0.0429 -0.1129
  317MPD2    C4 4818   0.780   1.730  13.163  0.7873  0.5049  0.0496
  317MPD2    C5 4819   0.675   1.794  13.096 -0.1695 -0.1578 -0.5566
  317MPD2     H 4820   0.747   1.424  13.032  3.6948  0.2697  2.8684
  317MPD2    H1 4821   0.844   1.794  13.223  0.1295  0.5096  0.7532
  317MPD2    H2 4822   0.511   1.775  12.963  0.3843  0.7838  0.3830
  317MPD2    H3 4823   0.669   1.901  13.111  0.5131  0.1098 -2.1428
  317MPD2     N 4824   0.929   1.531  13.180 -0.5673 -0.0637 -0.3562
  317MPD2    H5 4825   0.937   1.438  13.140  1.2378  0.0807 -0.3447
  317MPD2    N1 4826   0.550   1.517  12.886  0.3567 -0.3281 -0.8470
  317MPD2    H7 4827   0.563   1.416  12.882  1.3228 -0.2051 -0.9359
  318TMC3    C1 4828   1.115   1.476  13.299 -0.4807 -0.6721 -0.1911
  318TMC3    C2 4829   1.091   1.346  13.279 -0.5298 -0.0379 -0.1061
  318TMC3    C3 4830   1.203   1.268  13.268 -0.0184 -0.1607  1.1557
  318TMC3    C4 4831   1.239   1.519  13.331 -0.0180  0.1214 -0.2598
  318TMC3    C5 4832   1.349   1.441  13.311  0.6866  0.0534  0.3534
  318TMC3    C6 4833   1.332   1.309  13.287  0.1477 -0.5710 -0.5640
  318TMC3     C 4834   1.022   1.579  13.269  0.0297  0.1187  0.1135
  318TMC3     O 4835   1.021   1.680  13.345 -0.6759 -0.2271 -0.5432
  318TMC3     H 4836   0.990   1.310  13.266 -0.2950 -0.2968 -1.1714
  318TMC3    H1 4837   1.249   1.625  13.352  2.5477 -0.2241  0.3131
  318TMC3    H2 4838   1.407   1.233  13.270 -2.1050 -2.2962 -2.8087
  318TMC3    C7 4839   1.475   1.488  13.359  0.3151  0.7536  1.0155
  318TMC3    C8 4840   1.177   1.129  13.255 -0.7157 -1.0189 -0.5493
  318TMC3    O1 4841   1.482   1.608  13.378 -0.8221 -0.5432 -0.0773
  318TMC3    O2 4842   1.267   1.066  13.192  0.1067  0.3150  0.6537
  319MPD2     C 4843   1.808   3.058  16.289 -0.6755 -0.0497 -0.7024
  319MPD2    C1 4844   1.760   3.007  16.410 -0.3367  0.4461  0.3006
  319MPD2    C2 4845   1.626   3.026  16.442  0.0417 -0.8357  0.4195
  319MPD2    C3 4846   1.541   3.085  16.354  0.7797  0.8792 -0.2404
  319MPD2    C4 4847   1.595   3.131  16.236 -0.5749  0.0077 -0.3748
  319MPD2    C5 4848   1.723   3.114  16.201 -0.3718  0.3571 -0.6544
  319MPD2     H 4849   1.598   2.992  16.542 -3.5316  0.4426 -0.1332
  319MPD2    H1 4850   1.532   3.191  16.171 -0.2489  1.7353  0.9134
  319MPD2    H2 4851   1.911   3.067  16.257  0.0015 -2.2635  0.8806
  319MPD2    H3 4852   1.765   3.157  16.111 -3.3624 -0.1847 -2.3238
  319MPD2     N 4853   1.405   3.113  16.385 -0.4020 -0.0257 -0.1870
  319MPD2    H5 4854   1.361   3.172  16.315  0.5754  1.5840  0.5372
  319MPD2    N1 4855   1.842   2.953  16.513  0.0351 -0.0145  0.1078
  319MPD2    H7 4856   1.800   2.946  16.605  0.4075  2.3519  0.4606
  320TMC3    C1 4857   1.198   3.104  16.464 -0.0758 -0.0853 -0.5539
  320TMC3    C2 4858   1.155   3.202  16.376 -0.0521 -0.1276  0.2597
  320TMC3    C3 4859   1.024   3.196  16.340 -0.2140  0.1101  0.0337
  320TMC3    C4 4860   1.115   3.002  16.496  0.2453  0.2391 -0.2397
  320TMC3    C5 4861   0.987   2.994  16.443  0.6016  0.1645  0.0006
  320TMC3    C6 4862   0.944   3.088  16.361  0.1868 -0.8069 -0.1787
  320TMC3     C 4863   1.329   3.069  16.492 -0.1739  0.3577  0.0666
  320TMC3     O 4864   1.363   2.986  16.575  0.3250 -0.0913  0.1147
  320TMC3     H 4865   1.214   3.287  16.342  0.7523 -0.8651 -0.1814
  320TMC3    H1 4866   1.156   2.926  16.563  0.3040 -1.8156 -2.6162
  320TMC3    H2 4867   0.842   3.077  16.325 -0.4787  0.0698  1.4536
  320TMC3    C7 4868   0.945   2.862  16.401  0.0761  0.2879  0.5693
  320TMC3    C8 4869   0.984   3.270  16.226  0.7182 -0.4937  0.8109
  320TMC3    O1 4870   1.029   2.779  16.425  0.4092 -0.0564 -0.4534
  320TMC3    O2 4871   0.997   3.393  16.217 -0.0915 -0.1039  0.3696
  321TMC3    C1 4872   2.035   2.871  16.616  0.0280  0.2478  0.3249
  321TMC3    C2 4873   2.154   2.820  16.586  0.2358  0.4007 -0.0748
  321TMC3    C3 4874   2.220   2.754  16.689  0.4203  0.1762  0.7273
  321TMC3    C4 4875   1.957   2.846  16.728 -0.0410  0.0260  0.9849
  321TMC3    C5 4876   2.026   2.772  16.832 -0.3339  0.0686  0.3447
  321TMC3    C6 4877   2.157   2.733  16.808  0.4831 -0.3875  0.0349
  321TMC3     C 4878   1.973   2.925  16.499  0.0531  1.2361 -0.2367
  321TMC3     O 4879   2.033   2.908  16.393  0.0958 -0.0962 -0.2842
  321TMC3     H 4880   2.222   2.863  16.514 -0.0984 -0.4792 -0.9111
  321TMC3    H1 4881   1.859   2.890  16.738  0.5866  1.3472  1.2943
  321TMC3    H2 4882   2.194   2.655  16.874  0.2844  0.1345  0.7653
  321TMC3    C7 4883   2.022   2.825  16.967  0.2296  0.2839  0.5589
  321TMC3    C8 4884   2.358   2.801  16.704 -0.3512 -0.0176 -0.0817
  321TMC3    O1 4885   2.134   2.840  17.005  0.3733 -0.1312  0.0325
  321TMC3    O2 4886   2.427   2.831  16.605  0.2143 -0.2062 -0.5273
  322MPD2     C 4887   0.651   4.036  13.588 -0.2174  0.3247 -0.1703
  322MPD2    C1 4888   0.682   3.971  13.707 -0.3436 -0.6901 -0.2683
  322MPD2    C2 4889   0.741   3.843  13.705  0.3040  0.0910 -0.1566
  322MPD2    C3 4890   0.781   3.791  13.581  0.4597  0.4415 -0.2336
  322MPD2    C4 4891   0.743   3.857  13.462  1.0412  0.4983 -0.0268
  322MPD2    C5 4892   0.671   3.974  13.468  0.6628  0.3329 -0.4495
  322MPD2     H 4893   0.770   3.791  13.795  1.7059  0.1266 -0.5970
  322MPD2    H1 4894   0.760   3.819  13.362  0.7727 -1.8786  0.8382
  322MPD2    H2 4895   0.592   4.127  13.583  0.6934  0.9061 -0.1767
  322MPD2    H3 4896   0.641   4.026  13.377  2.2188  0.1672 -1.0527
  322MPD2     N 4897   0.875   3.690  13.592 -0.3934  0.0862 -0.3358
  322MPD2    H5 4898   0.893   3.647  13.682 -0.2125  1.0319  0.0768
  322MPD2    N1 4899   0.676   4.040  13.830  0.3528  0.0850  0.0817
  322MPD2    H7 4900   0.653   4.138  13.824 -1.0624 -0.1685  1.4251
  323TMC3    C1 4901   0.795   4.078  14.027  0.3345 -0.5456 -0.5175
  323TMC3    C2 4902   0.899   4.155  13.971 -0.4524  0.0845 -0.0188
  323TMC3    C3 4903   1.001   4.182  14.054  0.1943  1.0380  0.2155
  323TMC3    C4 4904   0.792   4.040  14.157  1.0355  0.2625  0.2348
  323TMC3    C5 4905   0.895   4.084  14.238 -0.1257  0.1572 -0.7981
  323TMC3    C6 4906   0.999   4.153  14.188  0.6866  0.0086  0.1861
  323TMC3     C 4907   0.721   3.980  13.945  0.1091 -0.0798  0.4698
  323TMC3     O 4908   0.713   3.871  13.991 -0.5756 -0.4449 -0.1740
  323TMC3     H 4909   0.893   4.179  13.865 -0.4775 -1.4405 -0.3737
  323TMC3    H1 4910   0.702   3.994  14.196  0.4183  1.5120  0.2797
  323TMC3    H2 4911   1.085   4.189  14.244  0.8227 -2.8700  1.8737
  323TMC3    C7 4912   0.924   4.007  14.361  0.0047  0.4789  0.1279
  323TMC3    C8 4913   1.133   4.212  13.992 -0.0063 -0.0359  0.3594
  323TMC3    O1 4914   0.873   3.896  14.375 -0.5288 -0.3933 -0.1545
  323TMC3    O2 4915   1.221   4.213  14.074 -0.1639  0.2241  0.5909
  324MPD2     C 4916   1.914   0.251  14.352 -0.0948 -0.1536  0.3934
  324MPD2    C1 4917   1.874   0.323  14.461  0.0498 -0.4273 -0.1024
  324MPD2    C2 4918   1.750   0.374  14.474  0.0630 -0.2280 -0.8980
  324MPD2    C3 4919   1.653   0.334  14.385  0.1600 -0.0085 -0.6291
  324MPD2    C4 4920   1.685   0.243  14.288 -0.6571 -0.6563 -0.1684
  324MPD2    C5 4921   1.820   0.199  14.271 -0.3137 -0.7070 -0.0643
  324MPD2     H 4922   1.730   0.435  14.561  1.3645 -0.3905 -0.4918
  324MPD2    H1 4923   1.613   0.222  14.210 -2.1468  0.3045  0.9510
  324MPD2    H2 4924   2.017   0.228  14.329  0.4600  3.3200 -0.6249
  324MPD2    H3 4925   1.846   0.134  14.189 -0.5568 -1.4366  0.4452
  324MPD2     N 4926   1.533   0.389  14.375  0.0812 -0.7099 -0.6073
  324MPD2    H5 4927   1.466   0.359  14.305  0.1673 -0.1698 -0.9209
  324MPD2    N1 4928   1.964   0.369  14.561 -0.1596  0.5422  0.3184
  324MPD2    H7 4929   1.927   0.433  14.629  0.0863 -0.5624  1.4961
  325TMC3    C1 4930   1.371   0.557  14.395  0.4828  0.2293  0.3691
  325TMC3    C2 4931   1.307   0.466  14.326 -0.2710 -0.4176  0.0305
  325TMC3    C3 4932   1.249   0.494  14.206  0.1194 -0.2064 -0.5704
  325TMC3    C4 4933   1.387   0.680  14.344 -0.3061 -0.0343  0.0478
  325TMC3    C5 4934   1.333   0.708  14.224  0.3584  0.1877  0.1989
  325TMC3    C6 4935   1.265   0.617  14.150 -0.1368  0.2803  0.7615
  325TMC3     C 4936   1.494   0.507  14.444 -0.0054 -0.0109 -0.0398
  325TMC3     O 4937   1.560   0.587  14.509  0.2822  0.3290 -0.1883
  325TMC3     H 4938   1.290   0.369  14.371  1.4007  0.1664  1.9469
  325TMC3    H1 4939   1.453   0.751  14.392 -0.5912 -0.1696  0.6453
  325TMC3    H2 4940   1.245   0.645  14.047  0.4781  0.8278  0.7884
  325TMC3    C7 4941   1.339   0.832  14.165  0.4725 -0.4574  0.5209
  325TMC3    C8 4942   1.245   0.379  14.126 -0.2760  0.2039  0.3836
  325TMC3    O1 4943   1.339   0.836  14.041  0.1567  0.2476  0.2856
  325TMC3    O2 4944   1.322   0.293  14.162  0.0395 -0.3789 -0.3469
  326MPD2     C 4945   3.884   1.150  11.655  0.1172 -0.0452  0.9140
  326MPD2    C1 4946   3.932   1.151  11.528 -0.0155 -0.3021 -0.5819
  326MPD2    C2 4947   4.027   1.247  11.490 -0.5201  1.2485  0.1372
  326MPD2    C3 4948   4.072   1.340  11.584 -0.0900  0.2857  0.3803
  326MPD2    C4 4949   4.011   1.352  11.701  0.3407  0.1600 -0.2209
  326MPD2    C5 4950   3.930   1.253  11.742  0.2772 -0.1857 -0.2148
  326MPD2     H 4951   4.059   1.244  11.386  0.4204 -0.4417  0.4763
  326MPD2    H1 4952   4.023   1.429  11.775 -1.3927 -0.4301  0.6804
  326MPD2    H2 4953   3.818   1.070  11.687  0.7914 -0.5352  1.0810
  326MPD2    H3 4954   3.896   1.250  11.845  0.5469  0.2028 -0.1119
  326MPD2     N 4955   4.178   1.426  11.549  0.0087  0.1179 -0.2632
  326MPD2    H5 4956   4.199   1.510  11.601  2.0583 -0.0427 -0.8445
  326MPD2    N1 4957   3.883   1.054  11.429 -0.7086  0.2613  0.0163
  326MPD2    H7 4958   3.917   1.068  11.334 -0.9040 -0.5033 -0.1708
  327TMC3    C1 4959   3.761   0.899  11.318  0.5244 -0.3937  0.0109
  327TMC3    C2 4960   3.646   0.933  11.252 -0.8687 -0.4514 -0.0171
  327TMC3    C3 4961   3.643   0.930  11.115  0.3811  0.2030 -0.9108
  327TMC3    C4 4962   3.874   0.872  11.250 -0.0446  0.6034  0.6419
  327TMC3    C5 4963   3.877   0.877  11.115 -0.1247 -0.3342  0.6345
  327TMC3    C6 4964   3.757   0.903  11.049  0.1470  0.1938 -0.1798
  327TMC3     C 4965   3.774   0.972  11.442  0.1658 -0.0607  0.0367
  327TMC3     O 4966   3.701   0.949  11.541 -0.1370 -0.2469 -0.3240
  327TMC3     H 4967   3.577   0.986  11.317  1.3313  0.0852  1.8906
  327TMC3    H1 4968   3.964   0.837  11.301  0.6981  1.2100 -0.2551
  327TMC3    H2 4969   3.756   0.900  10.940 -0.0890 -1.3640 -0.1407
  327TMC3    C7 4970   3.988   0.898  11.030  0.2674  0.0836 -0.3021
  327TMC3    C8 4971   3.556   1.017  11.044 -0.5093  0.5558  0.2903
  327TMC3    O1 4972   3.967   0.926  10.914 -0.4951  0.2938  0.2740
  327TMC3    O2 4973   3.589   1.047  10.931  0.1030  0.1520 -0.5531
  328MPD2     C 4974   1.286   1.519  17.319 -0.7623 -0.3672  0.2331
  328MPD2    C1 4975   1.188   1.433  17.271 -0.0120  0.3533  0.0300
  328MPD2    C2 4976   1.086   1.484  17.197  0.0177 -0.0321 -0.2803
  328MPD2    C3 4977   1.077   1.615  17.163  1.2232  0.0551 -0.4266
  328MPD2    C4 4978   1.184   1.695  17.208 -0.2096  0.7091  0.7408
  328MPD2    C5 4979   1.286   1.646  17.283 -0.0210 -0.3206  0.1281
  328MPD2     H 4980   1.015   1.416  17.152 -1.1486  0.8196  0.2907
  328MPD2    H1 4981   1.189   1.795  17.167 -1.2467  1.0243  1.4035
  328MPD2    H2 4982   1.359   1.483  17.390 -2.1998  0.5483  2.1646
  328MPD2    H3 4983   1.369   1.711  17.310 -0.7706  1.6450 -2.1848
  328MPD2     N 4984   0.975   1.667  17.079 -0.3573  0.0327 -0.0859
  328MPD2    H5 4985   0.985   1.765  17.057  1.4289 -0.1052  0.0891
  328MPD2    N1 4986   1.200   1.295  17.302 -0.3216 -0.0037  0.5914
  328MPD2    H7 4987   1.274   1.277  17.370  1.8672 -1.7526 -2.2785
  329TMC3    C1 4988   1.133   1.078  17.335 -0.5196  0.0523  0.3429
  329TMC3    C2 4989   1.173   1.099  17.466 -0.1072 -0.2954  0.1351
  329TMC3    C3 4990   1.178   0.989  17.549  0.0541 -1.4527 -0.7317
  329TMC3    C4 4991   1.089   0.961  17.290  0.0874 -0.8153 -0.0216
  329TMC3    C5 4992   1.077   0.862  17.378  0.6714 -0.6027 -1.5722
  329TMC3    C6 4993   1.129   0.867  17.504 -0.0864  0.9612 -0.3314
  329TMC3     C 4994   1.134   1.188  17.246  0.1658  0.9096  0.2547
  329TMC3     O 4995   1.068   1.180  17.142 -0.2105 -0.4799  0.4823
  329TMC3     H 4996   1.191   1.195  17.515  2.4699 -0.7973  0.1976
  329TMC3    H1 4997   1.045   0.954  17.191  1.7367  2.2918 -0.9778
  329TMC3    H2 4998   1.107   0.795  17.582  0.9187  1.9462  0.8533
  329TMC3    C7 4999   1.020   0.736  17.343 -0.3675 -0.7306 -0.8270
  329TMC3    C8 5000   1.184   1.005  17.698 -0.0463  0.5299 -0.1900
  329TMC3    O1 5001   0.978   0.670  17.439  0.0771 -0.0990 -0.2036
  329TMC3    O2 5002   1.223   0.905   0.017 -0.6076 -0.0395 -0.2992
  330TMC3    C1 5003   3.412   0.883   9.359  0.6249 -0.0426  0.2895
  330TMC3    C2 5004   3.322   0.786   9.406  0.5910  0.3068  0.4205
  330TMC3    C3 5005   3.373   0.658   9.412  0.5674 -0.4699  0.7004
  330TMC3    C4 5006   3.536   0.851   9.326 -0.4533 -0.2813  0.0153
  330TMC3    C5 5007   3.577   0.722   9.321  0.5948 -0.4458 -0.3795
  330TMC3    C6 5008   3.490   0.622   9.359  0.0759 -0.2300 -0.4428
  330TMC3     C 5009   3.361   1.018   9.345  0.0874  0.0296 -0.0798
  330TMC3     O 5010   3.402   1.088   9.254  0.0774 -0.0094 -0.2541
  330TMC3     H 5011   3.217   0.810   9.410  0.7637  1.1580 -0.2114
  330TMC3    H1 5012   3.609   0.928   9.304  0.4392 -1.2269 -0.3800
  330TMC3    H2 5013   3.523   0.519   9.344 -0.3593 -0.5051  0.4717
  330TMC3    C7 5014   3.707   0.674   9.281 -0.1466 -0.3026  0.3742
  330TMC3    C8 5015   3.281   0.542   9.424 -0.5026 -0.0105  0.3144
  330TMC3    O1 5016   3.763   0.593   9.353 -0.1297 -0.2288  0.2942
  330TMC3    O2 5017   3.164   0.558   9.383 -0.2207  0.0400 -0.1177
  331MPD2     C 5018   2.527   4.434  12.963  0.1253  0.1119  0.4676
  331MPD2    C1 5019   2.540   4.465  12.832  0.2014 -0.0330  0.4421
  331MPD2    C2 5020   2.450   4.420  12.739 -0.6591  0.1281 -0.2980
  331MPD2    C3 5021   2.339   4.345  12.785  0.5077 -0.2114  1.3513
  331MPD2    C4 5022   2.315   4.325  12.914  0.8450 -0.0114  0.6072
  331MPD2    C5 5023   2.415   4.367  12.999  0.1071  0.0748 -0.5562
  331MPD2     H 5024   2.466   4.433  12.633 -1.0882 -1.4930 -0.5610
  331MPD2    H1 5025   2.229   4.279  12.961 -0.6032  1.2949 -0.7539
  331MPD2    H2 5026   2.603   4.464  13.034  0.0947 -0.2563  0.6558
  331MPD2    H3 5027   2.399   4.342  13.103 -2.7226 -0.2277 -1.0701
  331MPD2     N 5028   2.247   4.305  12.683  0.2769  0.0520 -0.7382
  331MPD2    H5 5029   2.256   4.333  12.586  2.3016 -0.8398 -0.8093
  331MPD2    N1 5030   2.656   4.544  12.797  0.2157  0.3694 -0.1667
  331MPD2    H7 5031   2.670   4.611  12.872 -1.4220  1.2962 -0.6905
  332TMC3    C1 5032   2.072   4.204  12.572  0.6362  0.0887 -0.0117
  332TMC3    C2 5033   2.063   4.320  12.498  0.1353  0.3454 -0.3697
  332TMC3    C3 5034   2.053   4.308  12.359 -0.2162  0.4945 -0.3952
  332TMC3    C4 5035   2.093   4.085  12.513  0.0083 -0.4052 -0.0383
  332TMC3    C5 5036   2.091   4.076  12.378 -0.7108 -0.2798 -0.0951
  332TMC3    C6 5037   2.072   4.184  12.293 -0.4063  0.0163  0.5711
  332TMC3     C 5038   2.142   4.212  12.698 -0.7443 -0.0716  0.2474
  332TMC3     O 5039   2.120   4.128  12.785  0.7877 -0.0499  0.1377
  332TMC3     H 5040   2.070   4.416  12.548 -0.6284  0.2668 -0.0967
  332TMC3    H1 5041   2.092   3.998  12.577 -1.0392 -0.5740 -0.2861
  332TMC3    H2 5042   2.050   4.189  12.187  3.1613 -0.6285 -0.1795
  332TMC3    C7 5043   2.136   3.964  12.311 -0.0342  0.0831  0.1804
  332TMC3    C8 5044   2.076   4.426  12.279  0.1330  0.7819  1.1089
  332TMC3    O1 5045   2.080   3.911  12.222  0.0887  0.3333  0.1868
  332TMC3    O2 5046   2.172   4.417  12.198  0.2507  0.8552 -0.2011
  333MPD2     C 5047   1.980   4.362  11.432 -0.2057  0.6963  0.2373
  333MPD2    C1 5048   2.035   4.263  11.356 -0.4893  0.4989  0.2247
  333MPD2    C2 5049   2.029   4.133  11.391  0.7407  0.2624 -0.3870
  333MPD2    C3 5050   1.943   4.098  11.497  0.7546 -1.1316 -0.4105
  333MPD2    C4 5051   1.894   4.197  11.580  0.2815 -0.3338  0.2971
  333MPD2    C5 5052   1.917   4.332  11.553 -0.2681 -0.3686 -0.5512
  333MPD2     H 5053   2.079   4.054  11.336  4.0400  2.1483 -0.1555
  333MPD2    H1 5054   1.839   4.183  11.672 -1.9117 -3.1052 -1.4206
  333MPD2    H2 5055   1.985   4.467  11.405  1.0970  1.0802  2.0197
  333MPD2    H3 5056   1.875   4.413  11.611 -0.3223 -1.7864  1.3742
  333MPD2     N 5057   1.945   3.958  11.532  0.3327  0.1067 -0.3901
  333MPD2    H5 5058   1.984   3.899  11.458 -0.1046 -0.1725 -0.3968
  333MPD2    N1 5059   2.116   4.305  11.249  0.5050  0.0996  0.4381
  333MPD2    H7 5060   2.146   4.402  11.241  0.9957 -0.3097 -2.6657
  334TMC3    C1 5061   2.274   4.284  11.078 -0.4425  0.1463  0.2939
  334TMC3    C2 5062   2.388   4.211  11.068  0.0644 -0.2778  0.1351
  334TMC3    C3 5063   2.504   4.273  11.034  0.2346 -0.5449  0.1990
  334TMC3    C4 5064   2.274   4.418  11.061 -0.8037  0.5850  0.2075
  334TMC3    C5 5065   2.393   4.479  11.031 -0.1941 -0.1737  0.8918
  334TMC3    C6 5066   2.510   4.413  11.025  0.3335  0.0030 -0.0122
  334TMC3     C 5067   2.166   4.222  11.152 -0.0352  0.2982 -0.3809
  334TMC3     O 5068   2.136   4.110  11.119 -0.2575  0.1114  0.2794
  334TMC3     H 5069   2.387   4.107  11.099 -1.1291 -1.0526 -2.5702
  334TMC3    H1 5070   2.184   4.475  11.080 -0.6871  1.2953 -1.3297
  334TMC3    H2 5071   2.607   4.460  11.014  0.3427 -0.2070 -0.7871
  334TMC3    C7 5072   2.402   4.624  11.041  0.3625  0.3958  0.8569
  334TMC3    C8 5073   2.624   4.186  11.026  0.4384 -0.4261 -0.1524
  334TMC3    O1 5074   2.506   4.667  11.095 -0.3535 -0.2814  0.1725
  334TMC3    O2 5075   2.608   4.067  11.027  0.0382  0.7186 -0.3507
  335TMC3    C1 5076   1.675   1.297   0.148  0.3100 -0.2193 -0.6496
  335TMC3    C2 5077   1.608   1.237   0.045 -0.3387  0.1759 -0.6972
  335TMC3    C3 5078   1.618   1.301  17.671  0.2024  0.7319 -0.2543
  335TMC3    C4 5079   1.764   1.399   0.127  0.0646 -0.1200 -0.5853
  335TMC3    C5 5080   1.761   1.459   0.004  0.4544 -0.5324  0.2785
  335TMC3    C6 5081   1.687   1.416  17.649 -0.6028  0.5157 -0.0954
  335TMC3     C 5082   1.666   1.235   0.279 -0.1202 -0.4270  0.1509
  335TMC3     O 5083   1.704   1.307   0.371 -0.3061  0.0056 -0.1129
  335TMC3     H 5084   1.536   1.156   0.055  2.1472 -1.8695  0.4858
  335TMC3    H1 5085   1.801   1.445   0.217 -0.2744  0.7413 -0.8857
  335TMC3    H2 5086   1.698   1.466  17.554  1.2321  1.9170  0.8445
  335TMC3    C7 5087   1.889   1.504  17.708 -0.2670 -0.5050 -0.5381
  335TMC3    C8 5088   1.566   1.257  17.551 -0.4820  0.0148 -0.5151
  335TMC3    O1 5089   1.930   1.467  17.601 -0.5177  0.9663 -0.2694
  335TMC3    O2 5090   1.538   1.338  17.466  0.8154 -0.2803 -0.1772
  336MPD2     C 5091   1.294   4.017  16.479 -0.4633 -0.0837 -0.3858
  336MPD2    C1 5092   1.383   3.980  16.374  0.6581  0.0365 -0.4941
  336MPD2    C2 5093   1.426   3.850  16.365  0.5332 -0.7060  0.2538
  336MPD2    C3 5094   1.402   3.762  16.470 -0.0680  0.2038  0.6357
  336MPD2    C4 5095   1.330   3.806  16.576  0.4275  1.2967 -0.0688
  336MPD2    C5 5096   1.270   3.929  16.581  0.8604 -0.2592  0.1360
  336MPD2     H 5097   1.495   3.845  16.282  0.0217  1.8269 -0.3026
  336MPD2    H1 5098   1.317   3.737  16.658  0.4921  1.2162 -0.1259
  336MPD2    H2 5099   1.245   4.114  16.482 -3.1060 -1.3931 -1.2612
  336MPD2    H3 5100   1.219   3.963  16.671  0.1820 -1.7325  0.3017
  336MPD2     N 5101   1.468   3.636  16.478 -0.3852 -0.1808  0.1296
  336MPD2    H5 5102   1.467   3.589  16.567 -0.1101 -2.0096 -0.8417
  336MPD2    N1 5103   1.413   4.070  16.277 -0.4987  0.0633  0.1179
  336MPD2    H7 5104   1.472   4.036  16.202 -1.5373  0.7265 -0.9992
  337TMC3    C1 5105   1.405   4.275  16.156 -0.0167  0.2674  0.1174
  337TMC3    C2 5106   1.298   4.351  16.121 -0.7107  0.2000 -0.0740
  337TMC3    C3 5107   1.284   4.371  15.986  0.2800 -0.5775 -0.6410
  337TMC3    C4 5108   1.490   4.212  16.064  0.7091  0.2537 -0.3942
  337TMC3    C5 5109   1.477   4.243  15.936  0.4002  0.0461  0.3995
  337TMC3    C6 5110   1.374   4.319  15.894  0.0871  0.0870 -0.4536
  337TMC3     C 5111   1.390   4.206  16.280  0.3749  0.4359 -0.3692
  337TMC3     O 5112   1.335   4.277  16.365  0.2764 -0.2490  0.9818
  337TMC3     H 5113   1.230   4.385  16.198  0.0196 -1.2804  1.2358
  337TMC3    H1 5114   1.585   4.172  16.096  0.2759 -2.5146 -2.6000
  337TMC3    H2 5115   1.358   4.348  15.791 -0.5622 -1.7850 -0.8884
  337TMC3    C7 5116   1.556   4.180  15.830 -0.5980 -0.2274 -0.3572
  337TMC3    C8 5117   1.149   4.414  15.945  0.2231 -0.4983  0.1885
  337TMC3    O1 5118   1.517   4.199  15.717 -0.2566  0.3270  0.4190
  337TMC3    O2 5119   1.063   4.451  16.028 -0.3595 -0.5611 -0.1000
  338MPD2     C 5120   1.495   3.950   1.297 -0.4731  0.0528 -0.2604
  338MPD2    C1 5121   1.461   3.898   1.175 -0.1935  0.3654 -0.5926
  338MPD2    C2 5122   1.331   3.874   1.144 -0.4056 -0.1240  0.5722
  338MPD2    C3 5123   1.234   3.866   1.239  0.1289  0.0118 -0.2579
  338MPD2    C4 5124   1.261   3.919   1.366 -0.7511  0.1565  0.1841
  338MPD2    C5 5125   1.391   3.958   1.388  0.3624 -0.0347  0.3185
  338MPD2     H 5126   1.309   3.833   1.046  1.1860  0.9093 -0.1961
  338MPD2    H1 5127   1.195   3.925   1.452  0.3401  0.4197  0.9931
  338MPD2    H2 5128   1.591   3.996   1.315  1.8572 -3.9239 -2.7018
  338MPD2    H3 5129   1.415   4.002   1.484  1.1007  1.5504 -0.5995
  338MPD2     N 5130   1.110   3.814   1.203  0.0414 -0.1666  0.0874
  338MPD2    H5 5131   1.095   3.812   1.103 -1.1232  0.2959  0.2517
  338MPD2    N1 5132   1.566   3.857   1.085  0.7700  0.0395  0.1248
  338MPD2    H7 5133   1.548   3.849   0.985 -0.6685 -0.9875  0.4533
  339TMC3    C1 5134   0.901   3.712   1.212 -0.1932 -0.3373  0.5422
  339TMC3    C2 5135   0.873   3.587   1.259  0.0664 -0.6327  0.5669
  339TMC3    C3 5136   0.879   3.478   1.175  0.3005  0.0750  0.2982
  339TMC3    C4 5137   0.895   3.738   1.078  0.0902  0.2625 -0.2302
  339TMC3    C5 5138   0.887   3.637   0.995  0.7748  0.1309 -0.6453
  339TMC3    C6 5139   0.900   3.506   1.038 -0.5746  0.0485 -0.1896
  339TMC3     C 5140   1.016   3.766   1.286  0.5357 -1.5759 -0.6134
  339TMC3     O 5141   1.034   3.731   1.398  0.9012  0.1666  0.0242
  339TMC3     H 5142   0.897   3.559   1.361  2.2670 -3.8752 -0.8633
  339TMC3    H1 5143   0.918   3.832   1.028  0.9223  0.6411  0.8648
  339TMC3    H2 5144   0.908   3.427   0.964  1.1434 -2.2759  2.4715
  339TMC3    C7 5145   0.924   3.671   0.860 -0.2391 -0.2332  0.6001
  339TMC3    C8 5146   0.932   3.354   1.225  0.5542 -0.1628 -0.2943
  339TMC3    O1 5147   0.854   3.757   0.806  0.8154  0.7081  0.5964
  339TMC3    O2 5148   1.007   3.291   1.150 -0.4123  0.2202  0.2692
  340MPD2     C 5149   2.483   1.115  10.964 -0.0788 -0.2657 -0.0721
  340MPD2    C1 5150   2.444   0.994  10.908  0.3606  0.0000  0.5198
  340MPD2    C2 5151   2.537   0.895  10.888 -0.3142 -0.1539  0.0300
  340MPD2    C3 5152   2.670   0.925  10.909 -0.0690 -0.1609 -0.1769
  340MPD2    C4 5153   2.709   1.051  10.956 -0.6416  0.2660 -0.1167
  340MPD2    C5 5154   2.613   1.140  10.987  0.6598 -0.4053 -0.4973
  340MPD2     H 5155   2.494   0.799  10.859  0.6476 -0.3894 -0.5728
  340MPD2    H1 5156   2.815   1.070  10.968 -0.3126 -0.8775 -1.1868
  340MPD2    H2 5157   2.402   1.182  10.992  0.6892  0.7718 -0.3689
  340MPD2    H3 5158   2.640   1.233  11.036 -0.6775  0.5865 -1.6402
  340MPD2     N 5159   2.777   0.835  10.878 -0.2928 -0.0484 -0.1215
  340MPD2    H5 5160   2.870   0.869  10.903  0.4143 -1.6718 -0.5238
  340MPD2    N1 5161   2.305   0.977  10.883 -0.7639  0.5896 -0.6097
  340MPD2    H7 5162   2.248   1.049  10.928  0.5034  0.6261  0.9315
  341TMC3    C1 5163   2.298   0.789  10.726  0.1663  0.3805 -0.1028
  341TMC3    C2 5164   2.240   0.667  10.722  0.4778  0.7759 -0.1233
  341TMC3    C3 5165   2.274   0.590  10.613 -0.0826 -0.0735 -0.7027
  341TMC3    C4 5166   2.383   0.837  10.628 -0.5236  0.4227 -0.3064
  341TMC3    C5 5167   2.415   0.756  10.525  0.8032 -0.4994  0.0429
  341TMC3    C6 5168   2.364   0.633  10.514 -0.0376 -0.4287  0.3856
  341TMC3     C 5169   2.241   0.871  10.834 -0.4143 -0.2281  0.2622
  341TMC3     O 5170   2.118   0.858  10.848  0.8078 -0.2134  0.0197
  341TMC3     H 5171   2.164   0.632  10.791  0.2782 -1.8084 -1.6389
  341TMC3    H1 5172   2.414   0.939  10.642 -0.0263 -0.1497  2.7540
  341TMC3    H2 5173   2.393   0.572  10.429 -0.8389 -1.8087  1.1131
  341TMC3    C7 5174   2.519   0.779  10.422  0.2375  0.1596  0.3370
  341TMC3    C8 5175   2.209   0.460  10.592 -0.0556  0.1946 -0.0834
  341TMC3    O1 5176   2.585   0.683  10.387 -0.4909  0.2891  0.2824
  341TMC3    O2 5177   2.089   0.454  10.616  0.3861  0.1425  0.2921
  342MPD2     C 5178   4.698   4.345   0.332  0.4843 -0.0732 -0.0756
  342MPD2    C1 5179   4.713   4.329   0.195 -0.4460 -0.0800  0.0659
  342MPD2    C2 5180   4.689   4.443   0.116  0.6257 -0.1046  0.0086
  342MPD2    C3 5181   4.659   4.563   0.174 -0.2678 -0.3934 -0.1750
  342MPD2    C4 5182   4.636   4.575   0.308  0.5566 -0.1511  0.1146
  342MPD2    C5 5183   4.654   4.468   0.387  0.0397  0.6969 -0.5808
  342MPD2     H 5184   4.695   4.432   0.008 -2.2958 -0.4556 -0.1205
  342MPD2    H1 5185   4.602   4.667   0.356 -0.0697 -0.0667 -0.4809
  342MPD2    H2 5186   4.717   4.265   0.404  0.4913 -0.5998 -0.6648
  342MPD2    H3 5187   4.640   4.481   0.494 -1.1687 -0.3990 -0.6078
  342MPD2     N 5188   4.652   4.684   0.098 -0.1409 -0.1381 -0.1886
  342MPD2    H5 5189   4.612   0.027   0.144  2.1034 -0.1468  1.7565
  342MPD2    N1 5190   0.020   4.203   0.132  0.3712 -0.4458  0.2539
  342MPD2    H7 5191   0.029   4.202   0.031  1.8561 -3.1725  0.4201
  343TMC3    C1 5192   0.106   3.979   0.114 -0.2091 -0.2866  0.2368
  343TMC3    C2 5193   0.162   4.010  17.744  0.6528  0.0463  0.3580
  343TMC3    C3 5194   0.201   3.908  17.663  0.0424 -0.2659  0.3209
  343TMC3    C4 5195   0.107   3.852   0.170  0.0190  0.1134 -0.1656
  343TMC3    C5 5196   0.145   3.749   0.089 -0.2312 -0.3836  0.4735
  343TMC3    C6 5197   0.180   3.774  17.705  0.3599  0.4442 -0.7003
  343TMC3     C 5198   0.048   4.086   0.203 -0.7022 -0.1066  0.6090
  343TMC3     O 5199   0.023   4.054   0.318  0.4109 -0.3308  0.0775
  343TMC3     H 5200   0.162   4.112  17.708 -0.7094  0.3077  1.1121
  343TMC3    H1 5201   0.078   3.838   0.274 -0.2387 -0.2121 -0.2783
  343TMC3    H2 5202   0.208   3.693  17.639 -0.1121  1.0935 -1.6921
  343TMC3    C7 5203   0.070   3.617   0.107  0.7098  0.3509  0.0272
  343TMC3    C8 5204   0.264   3.942  17.530 -0.2903  0.7566 -0.1856
  343TMC3    O1 5205   0.034   3.551   0.009  0.5206 -0.2629 -0.0914
  343TMC3    O2 5206   0.224   4.052  17.489  0.2130 -0.1102 -0.0356
  344MPD2     C 5207   0.982   3.447  10.207  0.1560  0.2246  0.3652
  344MPD2    C1 5208   1.030   3.426  10.333  0.3686  0.4132 -0.5567
  344MPD2    C2 5209   1.123   3.530  10.369 -0.4742 -0.1703  0.3711
  344MPD2    C3 5210   1.154   3.645  10.297  0.0208 -1.2653 -0.0678
  344MPD2    C4 5211   1.092   3.664  10.173  0.0552 -0.7140  0.6792
  344MPD2    C5 5212   1.003   3.566  10.135  0.1433 -0.0249 -0.5086
  344MPD2     H 5213   1.168   3.505  10.464  1.8845  0.5937 -0.5519
  344MPD2    H1 5214   1.103   3.755  10.115 -0.7809  0.5701  2.5579
  344MPD2    H2 5215   0.913   3.381  10.156  0.6325 -0.2692  0.3643
  344MPD2    H3 5216   0.958   3.577  10.037  1.4359 -0.6855 -1.1742
  344MPD2     N 5217   1.239   3.749  10.342 -0.4399  0.4383  0.0304
  344MPD2    H5 5218   1.226   3.838  10.297 -0.4925 -0.1528 -1.1203
  344MPD2    N1 5219   0.997   3.327  10.429  0.5676  0.3404 -0.4864
  344MPD2    H7 5220   1.053   3.325  10.513 -0.7203 -0.3835  0.3639
  345TMC3    C1 5221   1.390   3.870  10.487  0.3062  0.2382  0.3650
  345TMC3    C2 5222   1.506   3.879  10.567 -0.3297  0.2674  0.0873
  345TMC3    C3 5223   1.543   4.004  10.605 -0.0592  0.0160 -0.2026
  345TMC3    C4 5224   1.311   3.984  10.466  0.0285  0.1751  0.4499
  345TMC3    C5 5225   1.365   4.109  10.497  0.2834 -0.1580  0.3508
  345TMC3    C6 5226   1.480   4.119  10.565 -0.2490  0.2627  0.4886
  345TMC3     C 5227   1.341   3.740  10.446  0.0110 -0.1744 -0.7306
  345TMC3     O 5228   1.390   3.645  10.502  1.0375 -0.3786 -0.2985
  345TMC3     H 5229   1.570   3.795  10.590 -1.1393 -0.5818 -0.7933
  345TMC3    H1 5230   1.211   3.980  10.423  0.1225 -0.7116  0.3167
  345TMC3    H2 5231   1.535   4.212  10.569 -3.4589  2.0820  2.2002
  345TMC3    C7 5232   1.311   4.239  10.456  0.5167  0.5315 -0.1448
  345TMC3    C8 5233   1.580   4.006  10.746  0.4548 -0.1626 -0.0580
  345TMC3    O1 5234   1.349   4.347  10.504 -0.2916 -0.0352  0.0457
  345TMC3    O2 5235   1.603   3.907  10.810 -0.7433 -0.2990  0.0961
  346MPD2     C 5236   0.958   1.052  14.456 -0.2140  0.2833 -0.2107
  346MPD2    C1 5237   1.043   1.141  14.399  0.5129 -0.1281 -0.4779
  346MPD2    C2 5238   1.102   1.237  14.473  0.1398  0.2150 -0.3654
  346MPD2    C3 5239   1.098   1.251  14.610 -0.0061  0.2142 -0.8852
  346MPD2    C4 5240   1.008   1.161  14.664 -0.0073  0.0795  0.5579
  346MPD2    C5 5241   0.939   1.065  14.595 -0.4636 -0.6502 -0.0014
  346MPD2     H 5242   1.166   1.311  14.426 -1.2106  2.0296  0.6187
  346MPD2    H1 5243   0.999   1.144  14.771 -1.9599 -1.8105  0.0962
  346MPD2    H2 5244   0.905   0.979  14.395 -1.5110 -0.7476  2.1420
  346MPD2    H3 5245   0.885   0.986  14.646 -0.3036  0.0313  1.2195
  346MPD2     N 5246   1.192   1.333  14.673  0.5258 -0.2973 -0.1069
  346MPD2    H5 5247   1.261   1.379  14.615  0.3498 -0.1868 -0.2294
  346MPD2    N1 5248   1.062   1.147  14.258 -0.6788 -0.0730 -0.1958
  346MPD2    H7 5249   1.105   1.225  14.210 -1.0253 -0.7412 -1.5922
  347TMC3    C1 5250   1.339   1.389  14.842  0.7924 -0.2936 -0.0237
  347TMC3    C2 5251   1.413   1.417  14.731 -0.0622  0.4236  0.3511
  347TMC3    C3 5252   1.535   1.358  14.710  0.7389  0.1901 -0.5801
  347TMC3    C4 5253   1.392   1.309  14.946  0.2669 -0.4242  0.4623
  347TMC3    C5 5254   1.522   1.267  14.930  0.1370 -0.0456  0.0900
  347TMC3    C6 5255   1.600   1.292  14.818  0.1590 -0.1634  0.1194
  347TMC3     C 5256   1.204   1.352  14.810 -0.2112 -0.2693  0.0975
  347TMC3     O 5257   1.128   1.315  14.901  0.4917  0.0441 -0.7795
  347TMC3     H 5258   1.387   1.491  14.655 -0.5541  1.0170  1.1017
  347TMC3    H1 5259   1.327   1.280  15.028  1.3342 -1.4347  0.9455
  347TMC3    H2 5260   1.703   1.265  14.797 -0.1959 -1.9334  0.6474
  347TMC3    C7 5261   1.566   1.172  15.031  0.3665 -0.2455  0.0071
  347TMC3    C8 5262   1.541   1.279  14.588 -0.4053  0.6019 -0.3122
  347TMC3    O1 5263   1.479   1.123  15.103 -0.9089 -0.7904  0.1865
  347TMC3    O2 5264   1.543   1.160  14.614 -0.7842 -0.1092 -0.7417
  348MPD2     C 5265   4.382   0.545  12.282 -0.6432 -0.2224 -0.9264
  348MPD2    C1 5266   4.408   0.509  12.154  0.2561  0.1901 -0.1482
  348MPD2    C2 5267   4.310   0.527  12.062 -0.3128 -0.0222  0.4277
  348MPD2    C3 5268   4.185   0.573  12.099  0.3674 -0.3779 -0.4856
  348MPD2    C4 5269   4.164   0.610  12.232  0.4652 -0.8523  0.7413
  348MPD2    C5 5270   4.263   0.598  12.321 -0.6381 -0.6834 -0.3353
  348MPD2     H 5271   4.321   0.505  11.957  0.5583  1.0778  0.2879
  348MPD2    H1 5272   4.066   0.633  12.273  0.6289  0.4426  0.3964
  348MPD2    H2 5273   4.458   0.531  12.358 -1.3699  1.6451  0.1487
  348MPD2    H3 5274   4.252   0.623  12.426  1.2214 -1.1697 -0.0273
  348MPD2     N 5275   4.089   0.591  11.996 -0.3623 -0.5329 -0.0402
  348MPD2    H5 5276   4.117   0.555  11.905 -0.3710  0.1495 -0.3168
  348MPD2    N1 5277   4.530   0.455  12.105 -0.1246  0.6069  0.1656
  348MPD2    H7 5278   4.533   0.413  12.012  0.8314 -1.2171  1.0139
  349TMC3    C1 5279   4.725   0.337  12.113  0.0898 -0.2017  0.3823
  349TMC3    C2 5280   0.024   0.225  12.182  0.1615 -0.1278 -0.7502
  349TMC3    C3 5281   0.064   0.117  12.104 -0.5296 -0.3569  0.6203
  349TMC3    C4 5282   0.005   0.353  11.976 -0.1599 -0.1555 -0.3675
  349TMC3    C5 5283   0.054   0.249  11.906 -0.1709 -1.5544  0.2414
  349TMC3    C6 5284   0.085   0.129  11.969  0.1318 -0.4815 -0.0756
  349TMC3     C 5285   4.639   0.430  12.184  0.4869 -0.8150 -0.1963
  349TMC3     O 5286   4.665   0.465  12.299 -0.0126  0.2173  0.1476
  349TMC3     H 5287   0.001   0.212  12.287 -1.2636  1.5201 -0.8685
  349TMC3    H1 5288   4.727   0.451  11.932 -4.9820 -0.1522  1.3581
  349TMC3    H2 5289   0.111   0.047  11.902 -0.6273 -1.0734  0.3601
  349TMC3    C7 5290   4.712   0.225  11.789 -0.0606  0.2782 -0.0041
  349TMC3    C8 5291   0.052   4.717  12.157  0.2746  0.3149  0.1833
  349TMC3    O1 5292   4.637   0.128  11.800  0.6745 -0.2954  0.2719
  349TMC3    O2 5293   0.066   4.701  12.276 -0.4849 -0.5052  0.1087
  350MPD2     C 5294   3.439   2.902  10.188 -0.7861  0.3886 -0.2358
  350MPD2    C1 5295   3.506   2.783  10.161  0.1107 -0.2811  0.0996
  350MPD2    C2 5296   3.645   2.780  10.155  0.9224 -0.1298 -0.3189
  350MPD2    C3 5297   3.722   2.897  10.173 -0.0943  0.4815 -0.4077
  350MPD2    C4 5298   3.651   3.016  10.198 -0.4563  0.5815  0.5102
  350MPD2    C5 5299   3.508   3.017  10.212 -0.2667 -0.5470  0.9982
  350MPD2     H 5300   3.698   2.686  10.146  0.8378 -0.1565 -0.5467
  350MPD2    H1 5301   3.704   3.110  10.195  0.1426  0.2439  0.4938
  350MPD2    H2 5302   3.331   2.908  10.187 -0.7642  1.2965  2.0133
  350MPD2    H3 5303   3.456   3.111  10.225 -1.0217 -0.9847  1.1336
  350MPD2     N 5304   3.865   2.892  10.175 -0.2081  0.2223 -0.4160
  350MPD2    H5 5305   3.903   2.798  10.174  1.1560  0.7547  1.9748
  350MPD2    N1 5306   3.442   2.663  10.130 -0.2090  0.0383 -0.0332
  350MPD2    H7 5307   3.503   2.586  10.107 -1.0143 -0.2681 -1.1089
  351TMC3    C1 5308   3.275   2.509  10.086 -0.7114 -1.0835  0.0930
  351TMC3    C2 5309   3.368   2.408  10.073  0.3889 -0.0491 -0.1824
  351TMC3    C3 5310   3.340   2.308   9.983  0.5578 -1.0866  0.0443
  351TMC3    C4 5311   3.147   2.487  10.040  0.1051 -0.2293 -0.5333
  351TMC3    C5 5312   3.121   2.382   9.953  0.4210 -0.4260 -0.2712
  351TMC3    C6 5313   3.217   2.293   9.920 -0.2341 -0.3732  0.3703
  351TMC3     C 5314   3.306   2.634  10.149  0.2251 -0.0240 -0.0720
  351TMC3     O 5315   3.215   2.706  10.180 -0.2014 -0.3201 -0.0327
  351TMC3     H 5316   3.456   2.409  10.136  0.2898  1.0929 -0.0640
  351TMC3    H1 5317   3.069   2.562  10.038 -0.8955 -1.2756 -0.7258
  351TMC3    H2 5318   3.192   2.208   9.858 -0.8945  1.4145 -1.8271
  351TMC3    C7 5319   2.995   2.378   9.888 -0.1757 -0.7983 -0.0820
  351TMC3    C8 5320   3.416   2.181   9.976  0.7294 -0.0991 -0.1785
  351TMC3    O1 5321   2.996   2.312   9.783 -0.1302 -0.0896  0.5886
  351TMC3    O2 5322   3.411   2.114   9.878  0.5744  0.3191 -0.0108
  352MPD2     C 5323   1.730   1.187   1.287  0.0602 -0.1094  0.1575
  352MPD2    C1 5324   1.652   1.100   1.218 -0.7325 -0.4961 -0.5192
  352MPD2    C2 5325   1.704   0.970   1.189  0.0337  0.1162  0.2883
  352MPD2    C3 5326   1.834   0.925   1.229  0.1266  0.3755 -0.5285
  352MPD2    C4 5327   1.911   1.015   1.294  0.4607 -0.1412  0.9329
  352MPD2    C5 5328   1.855   1.140   1.325 -0.7983  0.0300  0.6170
  352MPD2     H 5329   1.641   0.901   1.135  0.2428  1.4693 -1.6873
  352MPD2    H1 5330   2.004   0.986   1.340  1.4396  1.2406 -0.1875
  352MPD2    H2 5331   1.710   1.291   1.308 -0.5854 -0.1401 -0.3316
  352MPD2    H3 5332   1.925   1.200   1.382  0.8472 -0.8530 -0.4667
  352MPD2     N 5333   1.896   0.807   1.199  1.3132  0.0155 -0.0365
  352MPD2    H5 5334   1.983   0.787   1.248  0.5095  0.1952  1.4774
  352MPD2    N1 5335   1.521   1.139   1.177  0.1846  0.9343 -0.5247
  352MPD2    H7 5336   1.487   1.224   1.222  1.0736 -0.2314  2.3640
  353TMC3    C1 5337   1.907   0.583   1.135 -0.4079 -0.5482  0.2695
  353TMC3    C2 5338   2.038   0.559   1.174  0.1806 -0.1771 -0.5166
  353TMC3    C3 5339   2.079   0.427   1.166  0.2491  0.3752 -0.6337
  353TMC3    C4 5340   1.821   0.481   1.104  0.3831 -0.3242  0.2028
  353TMC3    C5 5341   1.865   0.351   1.119 -0.8374  0.0961 -0.1555
  353TMC3    C6 5342   1.993   0.320   1.145 -0.8240 -0.4881  0.0138
  353TMC3     C 5343   1.850   0.716   1.115  0.4567  0.0773 -0.3227
  353TMC3     O 5344   1.764   0.722   1.031 -0.0969 -0.3690  0.4265
  353TMC3     H 5345   2.107   0.640   1.194  1.0369 -1.4266  1.6753
  353TMC3    H1 5346   1.716   0.505   1.101  0.4092 -0.0703  1.2851
  353TMC3    H2 5347   2.030   0.218   1.147 -3.0010 -1.2585  0.2609
  353TMC3    C7 5348   1.775   0.234   1.128  0.1143 -0.6464 -0.0688
  353TMC3    C8 5349   2.214   0.399   1.218  0.5254 -0.5142 -0.2970
  353TMC3    O1 5350   1.828   0.122   1.137 -0.2336  0.3375 -0.2063
  353TMC3    O2 5351   2.291   0.491   1.250  0.2831 -0.1659 -0.2306
  354TMC3    C1 5352   3.385   1.647  13.368 -0.2187  0.0452  0.5179
  354TMC3    C2 5353   3.350   1.782  13.372 -0.0800  0.1804 -0.1554
  354TMC3    C3 5354   3.368   1.851  13.258  0.3449 -0.4710  0.5703
  354TMC3    C4 5355   3.426   1.582  13.253  0.5878 -0.3716 -0.6836
  354TMC3    C5 5356   3.442   1.657  13.145  0.2755  0.5432 -0.4820
  354TMC3    C6 5357   3.416   1.797  13.146  0.0047  0.8587  0.9618
  354TMC3     C 5358   3.421   1.592  13.492 -0.1256 -0.5333  0.0508
  354TMC3     O 5359   3.348   1.616  13.586 -0.6237  0.3350  0.1288
  354TMC3     H 5360   3.312   1.827  13.463  0.2287  0.8468 -0.3576
  354TMC3    H1 5361   3.460   1.479  13.247 -0.0554 -0.5169 -1.6730
  354TMC3    H2 5362   3.435   1.855  13.057  0.1993 -0.7272 -0.0279
  354TMC3    C7 5363   3.533   1.601  13.052  0.5578 -0.0320 -0.6834
  354TMC3    C8 5364   3.337   2.000  13.269  0.0613  0.2890  0.6020
  354TMC3    O1 5365   3.528   1.480  13.038 -0.3298  0.1445 -0.6037
  354TMC3    O2 5366   3.272   2.026  13.372 -0.3523  0.3198 -0.1301
  355MPD2     C 5367   3.505   2.413  11.858 -0.2478 -0.2638 -0.2061
  355MPD2    C1 5368   3.598   2.413  11.756 -0.1796 -0.0447  0.0739
  355MPD2    C2 5369   3.732   2.407  11.784 -0.1214 -0.0985 -0.1017
  355MPD2    C3 5370   3.772   2.440  11.910 -0.6291 -0.1837 -0.4449
  355MPD2    C4 5371   3.680   2.445  12.012  0.5904  0.1281  0.5717
  355MPD2    C5 5372   3.546   2.432  11.986  0.1525  0.1241 -0.3208
  355MPD2     H 5373   3.801   2.389  11.702  0.9187 -1.2699  1.0223
  355MPD2    H1 5374   3.696   2.489  12.110 -2.7617  1.9967  0.2828
  355MPD2    H2 5375   3.404   2.387  11.827 -0.0073 -0.3668 -0.8942
  355MPD2    H3 5376   3.478   2.455  12.068 -0.0627  0.5350 -0.6193
  355MPD2     N 5377   3.907   2.466  11.944 -0.5212  0.3323 -0.0871
  355MPD2    H5 5378   3.926   2.493  12.040 -0.7254 -0.8769  0.2996
  355MPD2    N1 5379   3.554   2.404  11.623  0.2043 -0.3249  0.0510
  355MPD2    H7 5380   3.456   2.378  11.618 -0.3215  2.0461 -2.1251
  356TMC3    C1 5381   4.134   2.520  11.907  0.3508  0.2493 -0.1110
  356TMC3    C2 5382   4.235   2.539  11.818 -0.0858 -0.5187 -0.1593
  356TMC3    C3 5383   4.339   2.626  11.845 -0.8748  0.3195 -0.4194
  356TMC3    C4 5384   4.131   2.585  12.029 -0.6874  0.0964 -0.8439
  356TMC3    C5 5385   4.235   2.674  12.046 -0.1806 -0.0196  0.4979
  356TMC3    C6 5386   4.342   2.688  11.965 -0.6869  0.6459  0.4706
  356TMC3     C 5387   4.013   2.469  11.853  0.0720  0.7202  0.4084
  356TMC3     O 5388   4.017   2.454  11.732  0.0693 -0.1424 -0.1336
  356TMC3     H 5389   4.239   2.486  11.723  0.9427 -1.8290  0.6053
  356TMC3    H1 5390   4.056   2.566  12.104  0.7941 -0.8350  0.3836
  356TMC3    H2 5391   4.429   2.750  11.984  0.3571 -0.7825  0.3328
  356TMC3    C7 5392   4.237   2.754  12.168  0.5678 -0.4259 -0.2398
  356TMC3    C8 5393   4.431   2.644  11.739 -0.6039 -0.1037  0.4271
  356TMC3    O1 5394   4.151   2.727  12.247 -0.1684 -0.8109  0.3498
  356TMC3    O2 5395   4.420   2.570  11.639 -0.2077 -0.0979 -0.3450
  357MPD2     C 5396   3.208   2.381   0.633  0.4410 -0.4525  0.0235
  357MPD2    C1 5397   3.281   2.381   0.752  0.3098 -0.0107 -0.2278
  357MPD2    C2 5398   3.244   2.458   0.852 -0.5331  1.1908  0.6004
  357MPD2    C3 5399   3.138   2.540   0.838 -0.3757  0.4006 -0.1829
  357MPD2    C4 5400   3.066   2.552   0.721  0.2498  0.6034 -0.5786
  357MPD2    C5 5401   3.107   2.471   0.617  0.7048  0.3316  0.7656
  357MPD2     H 5402   3.293   2.460   0.949  0.6406  1.4091  0.0027
  357MPD2    H1 5403   2.991   2.630   0.713 -0.6087 -0.0158  1.2690
  357MPD2    H2 5404   3.229   2.313   0.551 -0.0578  0.5249 -0.9207
  357MPD2    H3 5405   3.048   2.478   0.527  0.5129 -1.9380  0.7352
  357MPD2     N 5406   3.092   2.617   0.950 -0.1120  0.5129  0.0034
  357MPD2    H5 5407   2.997   2.649   0.938  0.5067  2.6114  0.7075
  357MPD2    N1 5408   3.388   2.293   0.770 -0.8560 -0.7313  0.5689
  357MPD2    H7 5409   3.410   2.237   0.687 -0.1754 -1.1225  1.0169
  358TMC3    C1 5410   3.572   2.190   0.876  0.2731  0.6743  0.5203
  358TMC3    C2 5411   3.518   2.063   0.859  0.2272 -0.3504  0.5454
  358TMC3    C3 5412   3.562   1.960   0.941  0.1901  0.0059  0.8613
  358TMC3    C4 5413   3.663   2.208   0.976 -0.0265  0.3378 -0.0682
  358TMC3    C5 5414   3.708   2.102   1.052 -0.8254 -0.0564 -0.3696
  358TMC3    C6 5415   3.675   1.972   1.033  0.0267  0.2670 -0.5314
  358TMC3     C 5416   3.472   2.293   0.879  0.1112 -0.1157 -0.0412
  358TMC3     O 5417   3.480   2.364   0.979 -0.1813 -0.9896 -0.2777
  358TMC3     H 5418   3.438   2.042   0.788 -2.2640  1.4899  2.7866
  358TMC3    H1 5419   3.704   2.306   0.995  2.5215 -0.9985  1.2917
  358TMC3    H2 5420   3.693   1.897   1.109  1.6378  0.8706 -0.3225
  358TMC3    C7 5421   3.744   2.136   1.193  0.2467  0.1290 -0.2478
  358TMC3    C8 5422   3.504   1.831   0.905 -0.4562  0.0488 -0.4329
  358TMC3    O1 5423   3.693   2.237   1.235  0.4789  0.3167  0.0264
  358TMC3    O2 5424   3.422   1.829   0.815  0.1766 -0.2254  0.3353
  359MPD2     C 5425   4.169   1.211  12.952  0.0913  0.2599  0.3409
  359MPD2    C1 5426   4.175   1.120  12.840 -0.6439  0.0305  0.0405
  359MPD2    C2 5427   4.062   1.049  12.812 -0.0320 -0.3535 -0.2500
  359MPD2    C3 5428   3.950   1.064  12.885  0.7603 -1.0190  0.6745
  359MPD2    C4 5429   3.947   1.147  12.994 -0.0175 -0.2925  0.5349
  359MPD2    C5 5430   4.051   1.229  13.017 -0.1420 -0.5276 -0.1614
  359MPD2     H 5431   4.074   0.986  12.724  1.3743  0.6472 -0.7868
  359MPD2    H1 5432   3.852   1.154  13.047 -0.4697 -1.5864 -0.1079
  359MPD2    H2 5433   4.251   1.281  12.965 -0.5594  0.7647  1.7828
  359MPD2    H3 5434   4.046   1.298  13.101 -0.2364 -1.0904  0.2912
  359MPD2     N 5435   3.821   1.002  12.854 -0.6350 -0.4599 -0.7739
  359MPD2    H5 5436   3.754   1.019  12.928  2.5335 -0.6327  2.1578
  359MPD2    N1 5437   4.291   1.100  12.756 -0.5660 -0.2678  0.8739
  359MPD2    H7 5438   4.285   1.042  12.673  1.1224 -1.4237  1.5557
  360TMC3    C1 5439   4.503   1.112  12.687 -0.2596  1.0423  0.2533
  360TMC3    C2 5440   4.618   1.034  12.726  0.1651 -0.4493  0.2808
  360TMC3    C3 5441   4.704   0.994  12.631  0.3012 -0.1869 -0.1202
  360TMC3    C4 5442   4.487   1.148  12.556  0.6629  0.3606  0.2176
  360TMC3    C5 5443   4.580   1.107  12.465  0.3129  0.4761 -0.0913
  360TMC3    C6 5444   4.688   1.028  12.498 -0.1305  0.1517 -0.6040
  360TMC3     C 5445   4.412   1.155  12.783 -0.0724 -0.2159 -0.5672
  360TMC3     O 5446   4.454   1.209  12.887  0.7799 -0.0187 -0.8643
  360TMC3     H 5447   4.620   0.973  12.816 -1.5813  0.1503  0.7376
  360TMC3    H1 5448   4.407   1.219  12.540  0.2801 -0.0302  0.4103
  360TMC3    H2 5449   0.030   0.999  12.431  0.5284 -2.6271  1.3448
  360TMC3    C7 5450   4.560   1.121  12.318  0.5288 -0.5067 -0.1665
  360TMC3    C8 5451   0.077   0.909  12.663 -0.4828 -0.0661 -0.7500
  360TMC3    O1 5452   4.641   1.072  12.240  0.6748 -0.9157  0.0775
  360TMC3    O2 5453   0.129   0.926  12.773 -0.6161 -0.8895  0.2530
  361MPD2     C 5454   1.009   0.079  16.573 -0.2023 -0.0442 -0.1799
  361MPD2    C1 5455   0.968   0.120  16.698 -0.3459  0.3851  0.1582
  361MPD2    C2 5456   1.008   0.042  16.803 -0.2355  0.0238 -0.7657
  361MPD2    C3 5457   1.094   4.668  16.788 -0.5763  0.1740 -0.9154
  361MPD2    C4 5458   1.143   4.640  16.665 -0.1336 -0.1192  0.0695
  361MPD2    C5 5459   1.095   4.715  16.560  0.3232 -0.0458  0.4107
  361MPD2     H 5460   0.975   0.077  16.900 -1.0856  0.8095 -1.3462
  361MPD2    H1 5461   1.224   4.571  16.647 -1.2266 -1.0517 -1.1769
  361MPD2    H2 5462   0.976   0.126  16.481  2.9636  0.8207 -0.8747
  361MPD2    H3 5463   1.137   4.715  16.460  0.1632 -0.5800  0.3451
  361MPD2     N 5464   1.118   4.576  16.891  0.0158  0.3374 -0.7685
  361MPD2    H5 5465   1.188   4.504  16.875 -1.0051 -1.3226  2.2684
  361MPD2    N1 5466   0.872   0.225  16.718  0.0853 -0.3310  0.3022
  361MPD2    H7 5467   0.832   0.229  16.811 -0.9641 -0.3299 -0.1474
  362TMC3    C1 5468   0.724   0.391  16.673 -0.3293 -0.0109 -0.2350
  362TMC3    C2 5469   0.743   0.427  16.807 -0.6195 -0.6090 -0.3509
  362TMC3    C3 5470   0.637   0.497  16.861  0.4936 -0.8493  0.2180
  362TMC3    C4 5471   0.611   0.411  16.602  0.5960  0.2437 -0.6595
  362TMC3    C5 5472   0.505   0.465  16.667 -0.5329 -0.2447 -0.4985
  362TMC3    C6 5473   0.516   0.509  16.796  0.2145  0.2541  0.7314
  362TMC3     C 5474   0.827   0.308  16.616  0.4319 -0.4471  0.2345
  362TMC3     O 5475   0.858   0.322  16.500 -0.0573  0.0620 -0.0902
  362TMC3     H 5476   0.839   0.442  16.853 -1.1124  2.1103 -0.2025
  362TMC3    H1 5477   0.606   0.362  16.505 -0.4109 -0.6406 -0.1656
  362TMC3    H2 5478   0.430   0.552  16.847  0.2917  0.7855  0.4126
  362TMC3    C7 5479   0.392   0.521  16.594  0.0491 -0.0992 -0.2206
  362TMC3    C8 5480   0.648   0.555  16.998 -0.1035 -0.1565 -0.8784
  362TMC3    O1 5481   0.341   0.614  16.646 -0.0675 -0.2098  0.3134
  362TMC3    O2 5482   0.761   0.584  17.033 -0.7334  0.1039  0.4631
  363TMC3    C1 5483   3.808   2.100   9.583 -0.4972 -0.4355  0.2922
  363TMC3    C2 5484   3.918   2.069   9.660  0.5084 -0.3982  0.4392
  363TMC3    C3 5485   3.949   2.156   9.760 -0.5207  0.0569 -0.0344
  363TMC3    C4 5486   3.717   2.195   9.611  0.7918  0.4563  0.9856
  363TMC3    C5 5487   3.745   2.266   9.722  0.5334  0.2062  0.2949
  363TMC3    C6 5488   3.859   2.251   9.791 -0.0803  0.4299 -0.8941
  363TMC3     C 5489   3.806   2.062   9.437  0.0161 -0.1226 -0.4024
  363TMC3     O 5490   3.909   2.065   9.372 -0.0023  0.2097  0.2099
  363TMC3     H 5491   3.972   1.977   9.640  0.9474 -0.2431  0.9136
  363TMC3    H1 5492   3.642   2.222   9.538 -0.8319 -2.1810  1.6919
  363TMC3    H2 5493   3.873   2.321   9.872  1.6380 -0.4444 -0.4161
  363TMC3    C7 5494   3.651   2.377   9.764 -0.1254  0.0550 -0.1729
  363TMC3    C8 5495   4.016   2.103   9.878  0.1495  0.5031  1.0147
  363TMC3    O1 5496   3.669   2.437   9.869 -0.0893 -0.2995 -0.0677
  363TMC3    O2 5497   3.996   2.169   9.984  0.0313  0.0086 -0.2632
  364MPD2     C 5498   3.168   1.337  10.998 -0.4987  0.2295 -0.4632
  364MPD2    C1 5499   3.293   1.336  10.941 -0.0529 -0.2120 -0.3132
  364MPD2    C2 5500   3.392   1.254  10.988  0.0966 -0.6829 -0.4121
  364MPD2    C3 5501   3.356   1.151  11.073  0.7378  0.3338  0.0789
  364MPD2    C4 5502   3.236   1.149  11.132 -0.2768  0.5078 -0.4860
  364MPD2    C5 5503   3.143   1.242  11.098 -0.1969  0.1507 -0.3682
  364MPD2     H 5504   3.492   1.267  10.949 -0.2017 -2.8982 -1.8643
  364MPD2    H1 5505   3.203   1.081  11.210 -0.9509 -0.2513 -1.4347
  364MPD2    H2 5506   3.097   1.413  10.966 -0.3897  0.2937 -0.5519
  364MPD2    H3 5507   3.044   1.232  11.141 -0.6645  0.6754 -1.3338
  364MPD2     N 5508   3.442   1.048  11.115  0.3832 -0.4725 -0.0203
  364MPD2    H5 5509   3.411   0.985  11.188  0.4565  0.0930  0.5010
  364MPD2    N1 5510   3.310   1.438  10.845  0.1540  0.2115  0.2859
  364MPD2    H7 5511   3.229   1.489  10.810 -0.4981 -0.4928  0.7529
  365TMC3    C1 5512   3.416   1.586  10.707 -0.0507 -0.6680  0.3095
  365TMC3    C2 5513   3.460   1.569  10.578  0.0894 -0.4863  0.4007
  365TMC3    C3 5514   3.415   1.657  10.481  0.0982  0.0501  0.2095
  365TMC3    C4 5515   3.332   1.689  10.740 -0.1153 -0.3986 -0.1340
  365TMC3    C5 5516   3.301   1.782  10.640  0.0618 -0.1749  0.0120
  365TMC3    C6 5517   3.338   1.767  10.514  0.1521  0.0089  0.5243
  365TMC3     C 5518   3.430   1.476  10.799 -0.1711  0.5029  0.4008
  365TMC3     O 5519   3.541   1.426  10.818 -0.5957 -0.3406  0.0240
  365TMC3     H 5520   3.541   1.498  10.561  0.5335 -0.3765  2.0026
  365TMC3    H1 5521   3.297   1.701  10.842 -1.6031  0.0083 -0.6917
  365TMC3    H2 5522   3.293   1.833  10.441 -1.8723 -0.5506  1.2505
  365TMC3    C7 5523   3.226   1.904  10.680 -0.1972 -0.1177  0.0665
  365TMC3    C8 5524   3.410   1.609  10.346 -0.1975  0.4794 -0.3107
  365TMC3    O1 5525   3.173   1.968  10.596  0.5455  0.1439  0.3356
  365TMC3    O2 5526   3.358   1.680  10.262 -0.3439  0.0032  0.0521
  366MPD2     C 5527   1.521   2.910  15.245  0.2030  0.0250 -0.1860
  366MPD2    C1 5528   1.530   3.007  15.344  0.3592  0.1042  0.3150
  366MPD2    C2 5529   1.651   3.027  15.415 -0.1952  0.0370  0.2038
  366MPD2    C3 5530   1.771   2.967  15.372 -0.0862 -0.2600 -0.1704
  366MPD2    C4 5531   1.763   2.887  15.260 -0.5122 -0.3281 -0.3945
  366MPD2    C5 5532   1.639   2.851  15.210 -0.3203  0.3895  0.1921
  366MPD2     H 5533   1.669   3.110  15.482  1.4873 -0.7950  0.7590
  366MPD2    H1 5534   1.854   2.842  15.221 -0.9529 -1.7404  0.1840
  366MPD2    H2 5535   1.428   2.886  15.195  0.1758  3.1944 -1.6500
  366MPD2    H3 5536   1.637   2.771  15.137 -2.1222  0.3230  0.3063
  366MPD2     N 5537   1.893   3.004  15.432 -0.3399 -0.0351  0.1885
  366MPD2    H5 5538   1.895   3.071  15.509 -0.8551 -0.2598  0.3965
  366MPD2    N1 5539   1.418   3.091  15.369  0.0776  0.8068 -0.0633
  366MPD2    H7 5540   1.441   3.173  15.424  1.4139 -0.3033  1.0285
  367TMC3    C1 5541   1.203   3.186  15.376  0.0806  0.0319 -0.5258
  367TMC3    C2 5542   1.243   3.228  15.505 -0.6818 -0.3089 -0.3008
  367TMC3    C3 5543   1.184   3.342  15.554 -0.0360 -0.3147 -0.0136
  367TMC3    C4 5544   1.109   3.251  15.305 -0.1342  0.2850 -0.3655
  367TMC3    C5 5545   1.051   3.359  15.366  0.1897 -0.0395  0.0962
  367TMC3    C6 5546   1.083   3.408  15.488  0.4394  0.6753 -0.7851
  367TMC3     C 5547   1.289   3.090  15.314 -0.5437 -0.0935  0.5946
  367TMC3     O 5548   1.235   3.019  15.234  0.0497  0.5382  0.5061
  367TMC3     H 5549   1.313   3.172  15.567 -1.4224  0.6754  1.4167
  367TMC3    H1 5550   1.088   3.220  15.203  2.3289  0.3991 -0.9315
  367TMC3    H2 5551   1.055   3.506  15.526 -1.0147  0.0163 -0.1177
  367TMC3    C7 5552   0.999   3.468  15.282  0.2545 -0.0208  0.1542
  367TMC3    C8 5553   1.242   3.404  15.665  0.6927  0.0008  0.3170
  367TMC3    O1 5554   1.007   3.584  15.326 -0.2852  0.1168 -0.0786
  367TMC3    O2 5555   1.360   3.375  15.692 -0.3088 -0.2731  0.3984
  368MPD2     C 5556   2.894   4.514  13.093 -0.4047  0.0959 -0.4369
  368MPD2    C1 5557   2.945   4.566  13.218  0.3247 -0.6697  0.6072
  368MPD2    C2 5558   3.077   4.539  13.253  0.3104  0.0325 -0.2600
  368MPD2    C3 5559   3.174   4.484  13.168  0.4767 -0.2578 -0.5326
  368MPD2    C4 5560   3.123   4.442  13.046  0.4568  1.0975 -0.0314
  368MPD2    C5 5561   2.986   4.448  13.015 -0.4407 -0.4791  0.5443
  368MPD2     H 5562   3.103   4.585  13.348  0.7670 -0.9642  0.0917
  368MPD2    H1 5563   3.184   4.400  12.966  0.2554 -1.3493  1.1028
  368MPD2    H2 5564   2.793   4.520  13.054 -0.7924 -2.3698  0.1797
  368MPD2    H3 5565   2.956   4.398  12.924 -0.1689  2.7142 -1.3126
  368MPD2     N 5566   3.313   4.490  13.189  0.3777 -0.2211  0.0205
  368MPD2    H5 5567   3.380   4.479  13.114 -2.5726  0.1258 -2.6815
  368MPD2    N1 5568   2.861   4.644  13.296 -0.5407 -0.5714  0.4408
  368MPD2    H7 5569   2.763   4.650  13.272 -0.3055 -1.1807 -0.6933
  369TMC3    C1 5570   2.788   0.044  13.479 -0.0906  0.0146 -0.2091
  369TMC3    C2 5571   2.817   0.156  13.558 -0.3892 -0.0075  0.2428
  369TMC3    C3 5572   2.718   0.201  13.648  0.2538 -0.3120  0.1529
  369TMC3    C4 5573   2.667   4.723  13.479 -0.0809  0.2473 -0.5118
  369TMC3    C5 5574   2.572   0.032  13.560 -0.0801  0.6310 -0.0243
  369TMC3    C6 5575   2.601   0.133  13.650 -0.4802 -0.0117 -0.0421
  369TMC3     C 5576   2.902   4.724  13.403 -0.2783 -0.5330  0.3320
  369TMC3     O 5577   3.010   0.011  13.450 -0.6553  0.0397 -0.1015
  369TMC3     H 5578   2.911   0.209  13.547  0.4282 -1.1602  1.7599
  369TMC3    H1 5579   2.646   4.640  13.413  0.3843 -1.3824  1.4241
  369TMC3    H2 5580   2.525   0.159  13.724 -1.1875 -2.1962  0.0044
  369TMC3    C7 5581   2.436   0.035  13.517 -0.1824 -0.0707 -0.2069
  369TMC3    C8 5582   2.705   0.340  13.646 -0.0294 -0.3292 -0.3552
  369TMC3    O1 5583   2.361   0.091  13.594  0.1753  0.1351 -0.1878
  369TMC3    O2 5584   2.594   0.383  13.623 -0.5132  0.0367  0.0721
  370TMC3    C1 5585   1.605   0.872  16.207 -0.0636 -0.3619 -0.3745
  370TMC3    C2 5586   1.509   0.803  16.281 -0.1324  0.2327 -0.1417
  370TMC3    C3 5587   1.519   0.669  16.297 -0.3306 -0.7514 -0.4203
  370TMC3    C4 5588   1.701   0.801  16.150  0.1263 -0.5045  0.0254
  370TMC3    C5 5589   1.713   0.667  16.165 -0.8510  0.6685 -0.3295
  370TMC3    C6 5590   1.619   0.595  16.233  0.2121  0.0594 -0.5372
  370TMC3     C 5591   1.595   1.012  16.175  0.1277 -0.7935  0.2467
  370TMC3     O 5592   1.483   1.065  16.171  0.2213 -0.0495  0.4953
  370TMC3     H 5593   1.427   0.860  16.323  1.1900  1.5280  0.7061
  370TMC3    H1 5594   1.776   0.851  16.090 -1.3236  1.3027 -0.2822
  370TMC3    H2 5595   1.626   0.488  16.245 -1.1892 -0.3177 -3.2365
  370TMC3    C7 5596   1.785   0.613  16.054 -0.6854 -0.0205  0.3306
  370TMC3    C8 5597   1.483   0.629  16.434  0.5377 -0.1836  0.8269
  370TMC3    O1 5598   1.794   0.686  15.958 -0.3251  0.7003 -0.2365
  370TMC3    O2 5599   1.492   0.508  16.444  0.3767  0.0498 -0.0644
  371TMC3    C1 5600   3.156   3.835  15.584  0.2424 -0.2480 -0.7494
  371TMC3    C2 5601   3.018   3.836  15.599  0.1384  0.1770  0.4117
  371TMC3    C3 5602   2.954   3.958  15.626  0.7291  0.2224 -0.6658
  371TMC3    C4 5603   3.216   3.963  15.569 -0.6813 -0.6485 -0.8047
  371TMC3    C5 5604   3.139   4.077  15.577 -0.4199  0.7050 -0.1431
  371TMC3    C6 5605   3.009   4.075  15.617  0.7481 -0.0153 -0.5968
  371TMC3     C 5606   3.231   3.718  15.611 -0.1618  0.1205 -0.6251
  371TMC3     O 5607   3.322   3.693  15.533 -0.4104 -0.0881  0.0904
  371TMC3     H 5608   2.968   3.741  15.607  0.1642  0.1158 -0.1620
  371TMC3    H1 5609   3.324   3.973  15.563 -0.6072  0.2003  1.9743
  371TMC3    H2 5610   2.957   4.170  15.616  0.5340 -0.1311 -0.7905
  371TMC3    C7 5611   3.181   4.200  15.515 -0.2111  0.8190 -0.4969
  371TMC3    C8 5612   2.812   3.946  15.671 -0.3939  0.3066 -0.3979
  371TMC3    O1 5613   3.114   4.302  15.533  0.2721  0.3320 -0.0854
  371TMC3    O2 5614   2.758   3.842  15.640 -0.7373 -0.2045 -0.0438
  372MPD2     C 5615   2.793   0.179  14.214 -0.1753 -0.0596 -0.0101
  372MPD2    C1 5616   2.904   0.129  14.283 -0.9741 -0.6031  0.1524
  372MPD2    C2 5617   2.950   0.002  14.254 -0.2379  0.1803 -0.7178
  372MPD2    C3 5618   2.887   4.666  14.158  0.8205  0.9315 -0.2882
  372MPD2    C4 5619   2.774   4.719  14.092 -0.1925  0.7398 -0.5750
  372MPD2    C5 5620   2.732   0.106  14.119 -0.3322  0.5756 -0.2924
  372MPD2     H 5621   3.041   4.697  14.296 -1.8954 -2.7345 -0.0994
  372MPD2    H1 5622   2.723   4.663  14.014  1.3979  0.2074 -1.2339
  372MPD2    H2 5623   2.759   0.281  14.228  0.1722  0.2102 -1.1619
  372MPD2    H3 5624   2.646   0.152  14.071 -2.0347  0.1283  2.3470
  372MPD2     N 5625   2.936   4.538  14.124 -0.7515 -0.1348  0.0743
  372MPD2    H5 5626   3.004   4.497  14.188 -0.4968 -0.3754 -0.3578
  372MPD2    N1 5627   2.980   0.205  14.377 -0.0252 -0.5590  0.2474
  372MPD2    H7 5628   3.058   0.146  14.405 -1.2289 -2.9377 -1.4246
  373TMC3    C1 5629   2.949   4.330  13.994  0.2480  0.6756 -0.1934
  373TMC3    C2 5630   3.077   4.313  14.030 -0.0791  0.1535 -0.5856
  373TMC3    C3 5631   3.148   4.215  13.964 -0.1834 -0.3311  0.0853
  373TMC3    C4 5632   2.891   4.248  13.898 -0.4540  0.3122 -0.7366
  373TMC3    C5 5633   2.962   4.146  13.845 -0.7179  0.8367 -0.0093
  373TMC3    C6 5634   3.094   4.130  13.878  0.0721 -0.0080  0.1869
  373TMC3     C 5635   2.890   4.456  14.023 -0.1864  0.0419  0.0694
  373TMC3     O 5636   2.790   4.469  13.953  0.1933 -0.1036 -0.1677
  373TMC3     H 5637   3.134   4.387  14.085  0.3732 -1.0872  0.6064
  373TMC3    H1 5638   2.796   4.277  13.856 -1.4989 -2.0222  0.0602
  373TMC3    H2 5639   3.151   4.049  13.833  2.2843  1.8715 -0.3918
  373TMC3    C7 5640   2.906   4.069  13.731 -0.3836  0.1612  0.8017
  373TMC3    C8 5641   3.241   4.162  14.060  0.0685  0.3015  0.6124
  373TMC3    O1 5642   2.985   3.984  13.683  0.1416  0.2840  0.7977
  373TMC3    O2 5643   3.294   4.243  14.139 -0.2313  0.2465 -0.6368
  374TMC3    C1 5644   3.834   0.180   9.626  0.5369  0.5703 -0.1018
  374TMC3    C2 5645   3.956   0.193   9.692 -0.7533 -0.2295 -1.3902
  374TMC3    C3 5646   3.981   0.315   9.751 -0.2081  0.2439 -0.6441
  374TMC3    C4 5647   3.734   0.275   9.623  0.4802  0.0174  0.0245
  374TMC3    C5 5648   3.771   0.397   9.681  0.9878 -0.2464  0.2322
  374TMC3    C6 5649   3.889   0.416   9.743 -0.0961  0.8044 -0.3083
  374TMC3     C 5650   3.823   0.058   9.542 -0.9505 -0.1258  0.2038
  374TMC3     O 5651   3.896   4.698   9.567  0.4472 -0.0710 -0.7211
  374TMC3     H 5652   4.031   0.118   9.711 -1.7480 -0.5924  1.0570
  374TMC3    H1 5653   3.636   0.256   9.582  0.6486 -1.2661  0.1996
  374TMC3    H2 5654   3.914   0.514   9.781 -2.9236  0.3667  2.6364
  374TMC3    C7 5655   3.666   0.494   9.678 -0.4135 -0.9963 -0.1928
  374TMC3    C8 5656   4.097   0.320   9.839  0.5917 -0.7753 -0.3481
  374TMC3    O1 5657   3.547   0.453   9.663 -0.5567  0.1770 -0.4029
  374TMC3    O2 5658   4.188   0.240   9.817  0.0518 -0.1775 -0.5747
  375MPD2     C 5659   3.143   1.450  17.357  0.1190  0.0041  0.4038
  375MPD2    C1 5660   3.057   1.465  17.252  0.2083 -0.4830  0.4940
  375MPD2    C2 5661   3.097   1.408  17.134 -0.0694 -0.1105  0.8447
  375MPD2    C3 5662   3.219   1.339  17.121  0.3187 -0.1726  0.2512
  375MPD2    C4 5663   3.310   1.337  17.224  0.6993  0.1067 -0.5976
  375MPD2    C5 5664   3.269   1.394  17.342  0.3144  0.3745  0.3961
  375MPD2     H 5665   3.024   1.419  17.054  2.9444 -3.5983 -2.3823
  375MPD2    H1 5666   3.411   1.299  17.218  0.2746 -0.9047 -1.2491
  375MPD2    H2 5667   3.127   1.481  17.459  2.5115 -0.0809  0.8024
  375MPD2    H3 5668   3.333   1.400  17.429 -0.3156  1.7056  0.7753
  375MPD2     N 5669   3.269   1.279  17.009 -0.5086 -0.0024 -0.8955
  375MPD2    H5 5670   3.364   1.246  17.021 -0.5302  1.1934  2.6260
  375MPD2    N1 5671   2.930   1.532  17.259  0.4540 -0.1977 -0.2554
  375MPD2    H7 5672   2.860   1.514  17.188 -1.1263 -1.1346  1.5491
  376TMC3    C1 5673   3.246   1.168  16.808  0.4824  0.0004 -0.4761
  376TMC3    C2 5674   3.386   1.149  16.812  0.2753 -0.4112 -0.9616
  376TMC3    C3 5675   3.440   1.066  16.717  0.1670  0.1187 -0.3180
  376TMC3    C4 5676   3.174   1.123  16.698  0.6293 -0.1355 -0.2762
  376TMC3    C5 5677   3.236   1.043  16.599 -0.6092 -0.3858 -0.7582
  376TMC3    C6 5678   3.370   1.028  16.602  0.1177 -0.2658 -0.7638
  376TMC3     C 5679   3.183   1.252  16.899 -0.1383 -0.1868 -0.2861
  376TMC3     O 5680   3.068   1.291  16.879  0.2511  0.6008  0.1244
  376TMC3     H 5681   3.447   1.181  16.896  1.9649  2.0461 -3.1220
  376TMC3    H1 5682   3.068   1.148  16.700  0.6037 -0.3547  1.1010
  376TMC3    H2 5683   3.416   0.978  16.518 -1.1343 -1.7339 -0.5544
  376TMC3    C7 5684   3.154   0.998  16.486 -0.4742  1.1808 -0.1351
  376TMC3    C8 5685   3.584   1.059  16.701 -0.4637 -0.4857 -0.2833
  376TMC3    O1 5686   3.211   0.971  16.385  0.0999 -1.3806  0.2435
  376TMC3    O2 5687   3.659   1.153  16.736 -1.0846 -0.3636  0.1989
  377MPD2     C 5688   2.523   0.377  13.105 -0.3255  0.4470  0.1345
  377MPD2    C1 5689   2.426   0.451  13.041 -0.6453 -0.7726  0.5704
  377MPD2    C2 5690   2.301   0.459  13.102 -0.4487 -0.0654  0.3083
  377MPD2    C3 5691   2.276   0.395  13.223 -0.0693  0.7714 -0.6579
  377MPD2    C4 5692   2.370   0.314  13.282 -0.2374  0.2075 -0.4421
  377MPD2    C5 5693   2.497   0.316  13.230  0.5990 -0.8285 -1.3095
  377MPD2     H 5694   2.227   0.524  13.056 -1.6743  0.2181  2.7249
  377MPD2    H1 5695   2.346   0.258  13.371 -0.5515 -1.6381 -1.7013
  377MPD2    H2 5696   2.628   0.371  13.080  0.4612 -0.0046  3.4446
  377MPD2    H3 5697   2.579   0.271  13.285 -0.2362  1.5907  1.8822
  377MPD2     N 5698   2.154   0.404  13.290 -0.0905  0.4879  0.2056
  377MPD2    H5 5699   2.135   0.337  13.365 -0.1607 -1.9375 -1.9618
  377MPD2    N1 5700   2.461   0.518  12.922 -0.9965 -0.2830 -0.7958
  377MPD2    H7 5701   2.556   0.508  12.888 -0.8646  0.4900 -0.6526
  378TMC3    C1 5702   2.356   0.663  12.495  0.3046 -0.2426  0.9876
  378TMC3    C2 5703   2.316   0.616  12.616 -0.2508 -0.1339  0.4635
  378TMC3    C3 5704   2.416   0.591  12.704  0.0452 -0.2294 -0.7045
  378TMC3    C4 5705   2.486   0.648  12.446  0.1923  0.4173  0.0878
  378TMC3    C5 5706   2.577   0.600  12.534 -0.0696 -0.2394  0.1964
  378TMC3    C6 5707   2.543   0.578  12.665  0.2859  0.3404 -0.3744
  378TMC3     C 5708   2.250   0.729  12.417 -0.4372 -0.0061  0.0673
  378TMC3     O 5709   2.174   0.804  12.475 -0.1151 -0.1528  0.4979
  378TMC3     H 5710   2.212   0.616  12.646 -0.0986  2.1198  0.9293
  378TMC3    H1 5711   2.522   0.704  12.360  1.9346 -0.3831  0.3078
  378TMC3    H2 5712   2.620   0.544  12.734 -0.3362 -1.2355 -0.4580
  378TMC3    C7 5713   2.696   0.534  12.494  0.8870 -0.3100 -0.2665
  378TMC3    C8 5714   2.366   0.555  12.835 -0.1990 -0.4406 -0.4470
  378TMC3    O1 5715   2.763   0.487  12.584  0.5169 -0.1816  0.0387
  378TMC3    O2 5716   2.244   0.556  12.847 -0.2177 -0.9570  0.1286
  379MPD2     C 5717   1.728   3.847  16.576 -0.6342  0.3532 -0.2820
  379MPD2    C1 5718   1.836   3.790  16.519 -0.3286  0.8328 -0.2318
  379MPD2    C2 5719   1.916   3.698  16.581  0.0442 -0.1081 -0.6488
  379MPD2    C3 5720   1.880   3.657  16.710 -0.0867 -0.6666  0.6992
  379MPD2    C4 5721   1.766   3.707  16.763  0.1721  0.3170 -0.0207
  379MPD2    C5 5722   1.694   3.794  16.700  0.0059  0.1763  0.2045
  379MPD2     H 5723   2.011   3.672  16.538 -0.1665  3.7326 -3.4131
  379MPD2    H1 5724   1.740   3.672  16.863  0.0991 -1.3883 -0.6318
  379MPD2    H2 5725   1.664   3.922  16.529  1.0436  1.4393 -0.8199
  379MPD2    H3 5726   1.610   3.830  16.758 -0.3409 -0.7120  0.2444
  379MPD2     N 5727   1.966   3.572  16.788  0.7567  0.1657  0.8568
  379MPD2    H5 5728   1.926   3.548  16.878  1.4472 -1.1960  0.7930
  379MPD2    N1 5729   1.853   3.831  16.384 -0.2046  0.2167  0.4029
  379MPD2    H7 5730   1.810   3.919  16.358 -2.0140 -0.0900  2.3187
  380TMC3    C1 5731   1.906   3.831  16.161  0.2577  0.3905 -0.1904
  380TMC3    C2 5732   1.984   3.776  16.066 -0.1892 -0.0801  0.2041
  380TMC3    C3 5733   1.944   3.753  15.937  0.2241 -0.1565 -0.4726
  380TMC3    C4 5734   1.782   3.873  16.123 -1.2188 -0.0287  0.1872
  380TMC3    C5 5735   1.739   3.848  15.993 -0.0528 -0.3537  0.3704
  380TMC3    C6 5736   1.814   3.786  15.901  0.3933 -0.3828 -0.7384
  380TMC3     C 5737   1.938   3.771  16.292  0.6427  0.4225 -0.1002
  380TMC3     O 5738   2.008   3.670  16.305 -0.4790 -0.3503  0.0351
  380TMC3     H 5739   2.083   3.736  16.085  0.2440  1.7520  1.8403
  380TMC3    H1 5740   1.719   3.925  16.194 -0.1114  1.3937  0.1383
  380TMC3    H2 5741   1.791   3.777  15.796  0.1735 -2.1438 -0.5437
  380TMC3    C7 5742   1.595   3.847  15.983 -0.4318  0.2309 -0.0779
  380TMC3    C8 5743   2.035   3.705  15.832 -0.5368 -0.1555 -0.5142
  380TMC3    O1 5744   1.533   3.923  16.053 -0.0277 -0.4008 -0.0105
  380TMC3    O2 5745   2.004   3.732  15.717  0.3673  0.2829  0.2393
  381TMC3    C1 5746   1.557   4.661  16.278 -0.1901 -0.4069  0.1178
  381TMC3    C2 5747   1.624   0.041  16.277  0.8744  0.6641  0.7410
  381TMC3    C3 5748   1.660   0.110  16.383  0.1687 -0.1284  0.0910
  381TMC3    C4 5749   1.519   4.607  16.399  0.2485 -0.0061  0.0953
  381TMC3    C5 5750   1.536   4.685  16.508 -0.2413  0.2670  0.1191
  381TMC3    C6 5751   1.613   0.066  16.507  0.0873  0.1907  0.4593
  381TMC3     C 5752   1.568   4.580  16.161 -0.3567 -0.2251 -0.1911
  381TMC3     O 5753   1.629   4.474  16.176  0.6852  0.4486  0.2285
  381TMC3     H 5754   1.659   0.066  16.177  4.2093 -3.5182  0.8507
  381TMC3    H1 5755   1.482   4.505  16.403 -0.4734  0.2826  0.7209
  381TMC3    H2 5756   1.647   0.119  16.596  0.8830  0.2502  0.1187
  381TMC3    C7 5757   1.525   4.621  16.641  0.0388  0.2171 -0.3830
  381TMC3    C8 5758   1.757   0.210  16.370 -0.5426 -0.4192 -0.3679
  381TMC3    O1 5759   1.569   4.508  16.650  0.2804  0.2819 -0.0247
  381TMC3    O2 5760   1.810   0.204  16.263  0.7581 -0.4637  0.5299
  382MPD2     C 5761   1.011   2.662  17.033  0.0716 -0.2890 -0.8107
  382MPD2    C1 5762   1.052   2.638  17.165 -0.3292 -0.0797 -0.0510
  382MPD2    C2 5763   1.066   2.508  17.209  0.0781 -0.1360  0.6395
  382MPD2    C3 5764   1.033   2.405  17.121  0.2721 -0.0729 -0.3534
  382MPD2    C4 5765   0.987   2.429  16.996  0.0756  0.7958  0.3859
  382MPD2    C5 5766   0.973   2.558  16.953 -0.4619  0.4468 -0.9654
  382MPD2     H 5767   1.081   2.501  17.317 -4.3637 -1.5164  1.1795
  382MPD2    H1 5768   0.965   2.355  16.919 -1.1435  1.8879 -0.2965
  382MPD2    H2 5769   0.988   2.763  17.001 -0.8386  0.1894  1.3103
  382MPD2    H3 5770   0.929   2.577  16.856  0.9036  0.0687 -1.6575
  382MPD2     N 5771   1.012   2.275  17.174  0.0186 -0.1138  0.4392
  382MPD2    H5 5772   0.961   2.204  17.123  1.0984 -1.6177  1.4621
  382MPD2    N1 5773   1.079   2.739  17.257 -0.0082  0.2184 -0.0244
  382MPD2    H7 5774   1.113   2.714  17.349  1.9916  0.9281 -0.5779
  383TMC3    C1 5775   1.056   2.096  17.322 -0.2106 -0.4515  0.2702
  383TMC3    C2 5776   0.936   2.039  17.291  0.3133  0.0538 -0.3123
  383TMC3    C3 5777   0.900   1.925  17.352 -0.9796 -0.1808  0.1563
  383TMC3    C4 5778   1.143   2.040  17.416 -0.5268  0.6404  0.2479
  383TMC3    C5 5779   1.106   1.922  17.475 -0.2040  1.1473  0.4083
  383TMC3    C6 5780   0.982   1.867  17.443 -0.5503 -0.0133  0.2757
  383TMC3     C 5781   1.087   2.228  17.278 -0.2496  0.1684 -0.0720
  383TMC3     O 5782   1.190   2.278  17.323 -0.2104  0.1324  0.5754
  383TMC3     H 5783   0.858   2.080  17.229  0.4957  1.2458  0.2446
  383TMC3    H1 5784   1.232   2.094  17.447  0.5242 -1.4600  0.8576
  383TMC3    H2 5785   0.942   1.785  17.501  2.5247 -1.5757  0.1918
  383TMC3    C7 5786   1.169   1.887  17.600 -0.3251  0.8177 -0.0391
  383TMC3    C8 5787   0.771   1.863  17.316 -0.2669 -0.4242  0.5110
  383TMC3    O1 5788   1.232   1.978  17.655  0.0078  0.2224  0.0941
  383TMC3    O2 5789   0.687   1.937  17.269 -0.3446  0.1554  0.5953
  384MPD2     C 5790   2.087   3.033  12.417  0.1323  0.8702  0.6012
  384MPD2    C1 5791   2.185   3.057  12.327  0.4032 -0.1774 -0.1933
  384MPD2    C2 5792   2.274   2.952  12.291 -0.6862 -0.5205  0.4389
  384MPD2    C3 5793   2.264   2.828  12.353  0.1853 -0.2823  0.2216
  384MPD2    C4 5794   2.165   2.804  12.447  0.8262  0.5163 -0.0005
  384MPD2    C5 5795   2.080   2.907  12.481  0.4394  0.1396 -0.2556
  384MPD2     H 5796   2.348   2.956  12.212 -0.7044 -1.4570  0.3821
  384MPD2    H1 5797   2.151   2.715  12.506 -1.5877  1.0039  0.1724
  384MPD2    H2 5798   2.022   3.114  12.444  0.7882  1.5305  0.2122
  384MPD2    H3 5799   2.007   2.892  12.561 -1.2760  1.0764 -1.6566
  384MPD2     N 5800   2.337   2.712  12.321  0.4128  0.4867  0.4704
  384MPD2    H5 5801   2.326   2.635  12.387  1.2323 -0.6744 -0.7610
  384MPD2    N1 5802   2.203   3.194  12.290 -0.1683  0.6524 -0.0143
  384MPD2    H7 5803   2.132   3.255  12.328 -0.6455  0.4832 -0.6325
  385TMC3    C1 5804   2.537   2.616  12.265 -0.0089  0.7174 -0.4283
  385TMC3    C2 5805   2.636   2.605  12.172 -0.4882 -0.6995  0.7950
  385TMC3    C3 5806   2.756   2.662  12.208 -0.8625 -0.9040 -0.4594
  385TMC3    C4 5807   2.568   2.651  12.401  0.3433  0.8510  0.2238
  385TMC3    C5 5808   2.687   2.714  12.430  0.7214  0.0243 -0.2810
  385TMC3    C6 5809   2.784   2.714  12.334  0.0062 -0.7676 -0.6762
  385TMC3     C 5810   2.428   2.697  12.217  0.0042 -0.2633  0.4979
  385TMC3     O 5811   2.445   2.764  12.114 -0.6984  0.0856  0.0584
  385TMC3     H 5812   2.616   2.591  12.066  0.4904  2.7023  0.1486
  385TMC3    H1 5813   2.491   2.649  12.478  0.3584 -0.7086  0.2046
  385TMC3    H2 5814   2.879   2.763  12.354 -0.6981 -0.5841  2.2183
  385TMC3    C7 5815   2.660   2.842  12.499 -0.5478  0.5533 -0.1666
  385TMC3    C8 5816   2.862   2.665  12.113 -0.4698 -0.7568  0.5133
  385TMC3    O1 5817   2.707   2.941  12.441 -0.0452 -0.2573  0.2291
  385TMC3    O2 5818   2.952   2.746  12.141 -0.7349 -0.5816 -0.0508
  386TMC3    C1 5819   3.126   0.623  12.290  0.3649  0.3377  0.0442
  386TMC3    C2 5820   3.094   0.615  12.155  0.0487 -0.1837 -0.5672
  386TMC3    C3 5821   2.996   0.703  12.107 -0.6544 -0.3094 -0.5184
  386TMC3    C4 5822   3.067   0.705  12.376  0.1489  0.1017 -0.0150
  386TMC3    C5 5823   2.959   0.781  12.334 -0.1553 -0.6984 -0.9528
  386TMC3    C6 5824   2.923   0.781  12.201  0.3134  0.0931  0.5496
  386TMC3     C 5825   3.218   0.522  12.351  0.4807 -0.1693  0.3481
  386TMC3     O 5826   3.238   0.530  12.474 -0.2465  0.0136 -0.7933
  386TMC3     H 5827   3.111   0.527  12.093 -1.2212  0.5903 -1.9987
  386TMC3    H1 5828   3.100   0.711  12.480 -0.6862  0.0895  0.2544
  386TMC3    H2 5829   2.847   0.844  12.157  1.2711 -0.6266 -2.1127
  386TMC3    C7 5830   2.876   0.833  12.435  0.3966 -0.3697  0.2508
  386TMC3    C8 5831   2.937   0.689  11.978  0.0517 -0.1842  0.0781
  386TMC3    O1 5832   2.897   0.814  12.552  0.3233  0.1496  0.0059
  386TMC3    O2 5833   2.816   0.722  11.963 -0.0512 -0.1582  0.1312
  387MPD2     C 5834   0.623   0.931  10.692  0.4319  0.2177 -0.4256
  387MPD2    C1 5835   0.687   0.848  10.790  0.2367 -0.4364 -0.4243
  387MPD2    C2 5836   0.735   0.723  10.751  0.0763  0.6832 -0.2891
  387MPD2    C3 5837   0.724   0.676  10.622 -1.2163  0.0853 -0.2547
  387MPD2    C4 5838   0.655   0.761  10.534  0.5110  0.2249  0.4732
  387MPD2    C5 5839   0.621   0.882  10.568  0.7881 -0.2330 -0.1593
  387MPD2     H 5840   0.784   0.661  10.825  0.1604 -0.9029 -1.6675
  387MPD2    H1 5841   0.651   0.726  10.431 -3.0401 -1.9436  1.3624
  387MPD2    H2 5842   0.603   1.034  10.719 -0.2930 -0.5175  1.8347
  387MPD2    H3 5843   0.594   0.940  10.480 -1.5077 -1.1328 -0.0537
  387MPD2     N 5844   0.793   0.557  10.592 -0.1467  0.3876 -0.2611
  387MPD2    H5 5845   0.847   0.514  10.667 -3.4299  0.4546  2.0997
  387MPD2    N1 5846   0.709   0.882  10.921 -0.6363 -0.4218 -0.2988
  387MPD2    H7 5847   0.760   0.820  10.982 -0.2235  0.3433  0.1255
  388TMC3    C1 5848   0.821   1.044  11.049 -0.2379 -1.1011 -0.3026
  388TMC3    C2 5849   0.811   1.147  11.139  0.1943  0.5668 -0.2363
  388TMC3    C3 5850   0.919   1.167  11.227 -0.5001  0.0164  0.3929
  388TMC3    C4 5851   0.931   0.968  11.040 -0.1572 -0.2844 -0.1619
  388TMC3    C5 5852   1.034   0.986  11.127  0.2389 -0.4475  0.1195
  388TMC3    C6 5853   1.024   1.078  11.231  0.4981 -0.0194  0.3015
  388TMC3     C 5854   0.698   1.007  10.975  0.1299 -0.3001  0.7273
  388TMC3     O 5855   0.632   1.105  10.941 -0.1124  0.3837  0.1177
  388TMC3     H 5856   0.715   1.198  11.143  0.5764  1.1368  2.1518
  388TMC3    H1 5857   0.951   0.918  10.946  0.1109 -0.5723  0.0488
  388TMC3    H2 5858   1.107   1.089  11.299  0.1341  0.2797  0.6925
  388TMC3    C7 5859   1.148   0.899  11.125 -1.3312  0.0061 -0.4542
  388TMC3    C8 5860   0.910   1.258  11.343 -0.3289 -0.6147 -0.3628
  388TMC3    O1 5861   1.253   0.929  11.184 -0.5599  0.3503  0.1419
  388TMC3    O2 5862   0.999   1.251  11.434  0.6443 -0.2916  0.4039
  389MPD2     C 5863   0.412   3.644  11.376 -0.0482 -0.2846 -0.3365
  389MPD2    C1 5864   0.312   3.563  11.322  0.9057  0.2834 -0.5082
  389MPD2    C2 5865   0.202   3.533  11.397 -0.1178  0.0503 -0.5861
  389MPD2    C3 5866   0.172   3.597  11.515 -0.7067 -0.3858  1.0606
  389MPD2    C4 5867   0.265   3.694  11.559 -0.0591 -0.4131  0.6136
  389MPD2    C5 5868   0.385   3.710  11.494 -0.1310 -0.0757  0.3401
  389MPD2     H 5869   0.139   3.457  11.352 -0.4160  1.2005 -2.1339
  389MPD2    H1 5870   0.245   3.739  11.656  1.8004  0.6797  0.4822
  389MPD2    H2 5871   0.500   3.674  11.320  0.0646  2.1945  1.1937
  389MPD2    H3 5872   0.467   3.761  11.542  0.0587  0.8357 -0.9410
  389MPD2     N 5873   0.063   3.550  11.596  0.9617  0.3841 -0.3759
  389MPD2    H5 5874   0.051   3.614  11.674  1.0623  1.6624 -1.4039
  389MPD2    N1 5875   0.326   3.514  11.187  0.1771 -0.0609  0.0699
  389MPD2    H7 5876   0.420   3.520  11.151  1.0218 -0.6087  2.2291
  390TMC3    C1 5877   4.602   3.449  11.653  0.2899 -0.3924  0.4805
  390TMC3    C2 5878   4.521   3.343  11.648 -1.3379 -0.4810  0.3339
  390TMC3    C3 5879   4.397   3.346  11.709  0.4635  0.0224 -0.1594
  390TMC3    C4 5880   4.550   3.569  11.708 -0.2027  0.8034 -0.2047
  390TMC3    C5 5881   4.424   3.569  11.765  0.5788 -0.4204  0.1567
  390TMC3    C6 5882   4.337   3.459  11.762 -0.1055  0.0131  0.2046
  390TMC3     C 5883   4.711   3.448  11.561 -0.2326 -0.2529  0.2267
  390TMC3     O 5884   4.726   3.360  11.478 -0.0617 -0.3089  0.3190
  390TMC3     H 5885   4.573   3.254  11.613  0.3844  1.3058 -1.6342
  390TMC3    H1 5886   4.611   3.658  11.699  1.7673 -0.5158  0.0769
  390TMC3    H2 5887   4.235   3.457  11.797  0.6003  2.2593  2.4408
  390TMC3    C7 5888   4.368   3.696  11.794  0.5656  0.0942 -0.1456
  390TMC3    C8 5889   4.342   3.213  11.740  0.6915 -0.5035 -0.6184
  390TMC3    O1 5890   4.420   3.787  11.728  0.0184 -0.5635  0.4370
  390TMC3    O2 5891   4.405   3.112  11.699  0.2227 -0.2721  0.4690
  391MPD2     C 5892   3.678   0.532  11.290 -0.3520 -0.0973 -0.1411
  391MPD2    C1 5893   3.811   0.540  11.315 -0.0536 -0.3699  0.3157
  391MPD2    C2 5894   3.899   0.531  11.213  0.2245  0.7093 -0.7091
  391MPD2    C3 5895   3.857   0.540  11.085  0.1035  0.1956 -0.0506
  391MPD2    C4 5896   3.720   0.525  11.061  0.5136  0.3821 -0.3871
  391MPD2    C5 5897   3.633   0.518  11.163 -0.6014  0.1130  0.4354
  391MPD2     H 5898   4.005   0.535  11.236 -0.2897 -0.3514  1.7551
  391MPD2    H1 5899   3.674   0.535  10.964 -1.1545 -1.4114  0.2267
  391MPD2    H2 5900   3.609   0.525  11.373 -0.9170  2.3848 -0.3967
  391MPD2    H3 5901   3.527   0.509  11.142 -0.9158 -0.7040  2.3247
  391MPD2     N 5902   3.952   0.572  10.986  0.5234  0.5024  0.8413
  391MPD2    H5 5903   4.048   0.574  11.019  0.6757  0.2447  0.4103
  391MPD2    N1 5904   3.865   0.560  11.444 -0.2943  0.4610 -0.0621
  391MPD2    H7 5905   3.967   0.559  11.440 -0.2086  1.1872  2.1122
  392TMC3    C1 5906   4.033   0.631  10.782 -0.3062  0.1622  0.7335
  392TMC3    C2 5907   4.017   0.610  10.652  0.3565  0.0296  0.4889
  392TMC3    C3 5908   4.130   0.615  10.574 -0.2412 -0.2285  0.5237
  392TMC3    C4 5909   4.158   0.652  10.837  0.3372 -0.2363 -0.1674
  392TMC3    C5 5910   4.266   0.674  10.753  1.0296  0.9231 -0.1150
  392TMC3    C6 5911   4.256   0.641  10.620  0.2333 -0.1051 -0.0448
  392TMC3     C 5912   3.916   0.610  10.860 -0.1482  0.3222  0.6263
  392TMC3     O 5913   3.808   0.606  10.803  0.1618 -0.0202  0.2992
  392TMC3     H 5914   3.920   0.590  10.608  0.9900 -0.2622 -0.7572
  392TMC3    H1 5915   4.174   0.692  10.937 -4.6251  1.8731 -0.2210
  392TMC3    H2 5916   4.348   0.632  10.564  0.5439  3.4898 -0.0942
  392TMC3    C7 5917   4.392   0.712  10.813  0.1682 -1.0280 -0.0687
  392TMC3    C8 5918   4.114   0.585  10.430 -0.0725 -0.1006  0.4646
  392TMC3    O1 5919   4.400   0.689  10.933 -0.3994  0.1711 -0.3359
  392TMC3    O2 5920   4.028   0.505  10.400  0.1444 -0.3771  0.4944
  393TMC3    C1 5921   3.237   2.674  10.550 -0.1045  0.2051  0.7075
  393TMC3    C2 5922   3.117   2.620  10.586  0.4249 -0.4401 -0.0842
  393TMC3    C3 5923   3.108   2.484  10.583 -0.0338  0.7610  1.0277
  393TMC3    C4 5924   3.328   2.599  10.489  0.6260  1.1528  1.0427
  393TMC3    C5 5925   3.316   2.467  10.483  0.8476 -0.0567  0.1776
  393TMC3    C6 5926   3.203   2.410  10.529 -0.5855 -0.9940  0.2962
  393TMC3     C 5927   3.237   2.820  10.550 -0.1014 -0.3275 -0.0091
  393TMC3     O 5928   3.132   2.885  10.560  0.6409  0.0997  0.7122
  393TMC3     H 5929   3.043   2.684  10.633 -0.6533 -0.8702 -1.1844
  393TMC3    H1 5930   3.422   2.643  10.456  0.0620  0.4924 -1.4616
  393TMC3    H2 5931   3.184   2.303  10.520  0.5888 -1.3902  2.5916
  393TMC3    C7 5932   3.422   2.387  10.418 -0.4656 -0.3713 -0.5379
  393TMC3    C8 5933   2.974   2.423  10.608  0.0658 -0.0246  0.7686
  393TMC3    O1 5934   3.383   2.294  10.346 -0.0910  0.3483  0.1367
  393TMC3    O2 5935   2.950   2.323  10.540 -0.2717 -0.0047  0.2398
  394TMC3    C1 5936   0.276   3.400  10.986 -0.3670  0.4801 -0.3096
  394TMC3    C2 5937   0.178   3.362  10.900  0.3415 -0.1623  0.3410
  394TMC3    C3 5938   0.212   3.281  10.796 -0.3761  0.0294  0.1344
  394TMC3    C4 5939   0.411   3.368  10.967 -0.6368  0.6623  0.4252
  394TMC3    C5 5940   0.443   3.301  10.845 -0.2103  0.0380  0.2023
  394TMC3    C6 5941   0.342   3.247  10.773  0.1556 -0.1912 -0.2001
  394TMC3     C 5942   0.229   3.455  11.111 -0.6683 -0.7048  0.7424
  394TMC3     O 5943   0.110   3.439  11.138 -0.0086  0.0930 -0.3031
  394TMC3     H 5944   0.073   3.390  10.908 -0.3445 -1.9534 -2.0059
  394TMC3    H1 5945   0.496   3.405  11.023  0.3232 -1.8892  0.6562
  394TMC3    H2 5946   0.371   3.200  10.680  2.3449 -1.2510  1.0154
  394TMC3    C7 5947   0.546   3.362  10.764  0.9511  0.8684  0.1609
  394TMC3    C8 5948   0.108   3.222  10.719 -0.1305 -0.3356 -0.4470
  394TMC3    O1 5949   0.520   3.395  10.652 -0.0450  0.0690 -0.0902
  394TMC3    O2 5950   4.733   3.270  10.730  0.1250  0.2538  0.3130
  395TMC3    C1 5951   4.621   0.560  15.527  0.3680  0.8784 -0.8086
  395TMC3    C2 5952   4.606   0.452  15.450  0.1412  0.5364  0.0581
  395TMC3    C3 5953   4.681   0.456  15.338 -0.7624 -1.0359  0.6817
  395TMC3    C4 5954   4.690   0.668  15.498  0.0087  0.5535 -0.1358
  395TMC3    C5 5955   0.022   0.672  15.378  0.5399  0.8238  0.1754
  395TMC3    C6 5956   0.022   0.565  15.297  0.1706  0.6938 -0.3363
  395TMC3     C 5957   4.524   0.585  15.630 -0.5526  0.2210  0.9399
  395TMC3     O 5958   4.461   0.691  15.625 -0.2961 -0.4015 -0.0643
  395TMC3     H 5959   4.542   0.370  15.479  0.6889 -0.2513 -0.9718
  395TMC3    H1 5960   4.688   0.739  15.580 -0.0086 -0.3578  0.6524
  395TMC3    H2 5961   0.082   0.571  15.207  2.8929  1.6509  1.5240
  395TMC3    C7 5962   0.073   0.803  15.342  0.4354  0.4595 -0.6549
  395TMC3    C8 5963   4.653   0.344  15.239 -0.6630  0.1520  0.8956
  395TMC3    O1 5964   0.073   0.895  15.427 -0.1829  0.3004 -0.2187
  395TMC3    O2 5965   4.563   0.261  15.269  0.2146 -0.3489 -0.3642
  396MPD2     C 5966   4.060   2.159  17.215 -0.3364  0.4438  0.2006
  396MPD2    C1 5967   4.175   2.205  17.276  0.7236 -0.0824  0.2096
  396MPD2    C2 5968   4.230   2.322  17.218 -0.1790  0.9392  0.4519
  396MPD2    C3 5969   4.186   2.372  17.097  0.3824 -0.1823 -0.2041
  396MPD2    C4 5970   4.067   2.315  17.046  0.1410 -0.1391  0.1452
  396MPD2    C5 5971   4.004   2.214  17.102 -0.2220 -0.1552  0.2876
  396MPD2     H 5972   4.324   2.360  17.257  0.0263  0.5063  0.3795
  396MPD2    H1 5973   4.028   2.359  16.955  1.7686  1.4122  0.2068
  396MPD2    H2 5974   4.004   2.080  17.262  0.3134  0.2198  0.5953
  396MPD2    H3 5975   3.915   2.176  17.053 -1.0352  1.0086  0.8534
  396MPD2     N 5976   4.258   2.482  17.046 -0.2767 -0.0784 -0.0004
  396MPD2    H5 5977   4.337   2.512  17.102 -0.8076  0.2594  0.5653
  396MPD2    N1 5978   4.229   2.141  17.392  0.2485 -0.0447  0.2380
  396MPD2    H7 5979   4.203   2.045  17.411 -2.2651  0.4667 -0.6100
  397TMC3    C1 5980   4.419   2.097  17.514  0.2076 -0.0835 -0.1917
  397TMC3    C2 5981   4.533   2.098  17.424  0.5787 -0.1093 -0.1488
  397TMC3    C3 5982   4.567   1.994  17.347 -0.4391 -0.3228 -0.1058
  397TMC3    C4 5983   4.363   1.977  17.540 -0.6692  0.1461  0.0244
  397TMC3    C5 5984   4.418   1.864  17.473  0.4681  0.3585  0.6334
  397TMC3    C6 5985   4.524   1.866  17.380  0.4797  0.3174  0.4732
  397TMC3     C 5986   4.323   2.199  17.467  0.0930 -0.4018  0.2263
  397TMC3     O 5987   4.368   2.310  17.464  0.2397 -0.4598  0.0390
  397TMC3     H 5988   4.563   2.198  17.396  2.3266 -0.9595 -1.2865
  397TMC3    H1 5989   4.267   1.982  17.589  0.3906  0.7140  2.0455
  397TMC3    H2 5990   4.551   1.777  17.325  0.6216 -0.1987  1.3771
  397TMC3    C7 5991   4.353   1.737  17.503 -0.4606  0.5642 -0.0288
  397TMC3    C8 5992   4.546   2.009  17.197 -0.6110 -0.5451 -0.5973
  397TMC3    O1 5993   4.367   1.643  17.421  0.4110  0.5595 -0.6893
  397TMC3    O2 5994   4.452   1.946  17.148  0.1416 -0.2213 -0.1339
  398MPD2     C 5995   1.951   3.852   0.365 -0.2122  0.2643  0.5694
  398MPD2    C1 5996   2.049   3.821   0.454  0.1747  0.1559  0.0551
  398MPD2    C2 5997   2.100   3.926   0.524  0.9162 -0.2734  0.0855
  398MPD2    C3 5998   2.067   4.059   0.500 -0.2028 -0.5748 -0.3265
  398MPD2    C4 5999   1.985   4.090   0.391  0.6208 -0.6479  0.0897
  398MPD2    C5 6000   1.917   3.980   0.332 -0.1264  0.5086  0.4274
  398MPD2     H 6001   2.181   3.916   0.595  2.3088 -0.4089 -1.5242
  398MPD2    H1 6002   1.960   4.191   0.358 -1.9640 -1.0884  0.7372
  398MPD2    H2 6003   1.896   3.772   0.317 -0.2586  0.3725  0.4407
  398MPD2    H3 6004   1.838   3.985   0.259  1.4140 -0.2437 -1.2964
  398MPD2     N 6005   2.150   4.163   0.564  0.4018  0.4853 -0.2343
  398MPD2    H5 6006   2.220   4.135   0.633 -1.8373 -0.0286  1.8246
  398MPD2    N1 6007   2.076   3.688   0.499  0.1375  0.0035  0.1664
  398MPD2    H7 6008   2.130   3.679   0.585  0.6865 -2.5387 -0.4703
  399TMC3    C1 6009   2.076   3.455   0.503 -0.4091 -0.4422  0.0872
  399TMC3    C2 6010   2.201   3.457   0.562  0.6357  0.4215 -1.0468
  399TMC3    C3 6011   2.237   3.332   0.613 -0.7885  0.9761 -0.7384
  399TMC3    C4 6012   1.999   3.341   0.489  0.6405 -0.7033 -0.2750
  399TMC3    C5 6013   2.038   3.228   0.555 -0.5755 -0.1216 -0.7043
  399TMC3    C6 6014   2.164   3.218   0.603  0.0908 -0.1523 -0.6518
  399TMC3     C 6015   2.036   3.572   0.436  0.2403 -0.5604 -0.4316
  399TMC3     O 6016   1.990   3.555   0.326  0.1869 -0.5000 -0.4912
  399TMC3     H 6017   2.262   3.545   0.579 -1.2824  1.7110 -0.8371
  399TMC3    H1 6018   1.901   3.355   0.444  0.2392  0.9254  1.1134
  399TMC3    H2 6019   2.205   3.124   0.638 -0.3266 -0.7340 -1.7037
  399TMC3    C7 6020   1.958   3.105   0.564 -0.3092 -0.3116 -0.2558
  399TMC3    C8 6021   2.347   3.331   0.709  0.4136 -0.7941 -0.3325
  399TMC3    O1 6022   2.006   3.012   0.627 -0.2680  0.0433  0.3693
  399TMC3    O2 6023   2.360   3.226   0.771  0.4595 -0.1367  0.1944
  400TMC3    C1 6024   0.770   1.687  16.965  0.7113 -0.0935 -0.3467
  400TMC3    C2 6025   0.656   1.633  16.907 -0.0746  0.3845 -0.0508
  400TMC3    C3 6026   0.559   1.716  16.854  0.7627  0.1886  0.1890
  400TMC3    C4 6027   0.785   1.818  16.957 -0.0294 -0.1349  0.1581
  400TMC3    C5 6028   0.682   1.905  16.921  0.1151 -0.0608  0.0455
  400TMC3    C6 6029   0.570   1.853  16.857  0.0388 -0.5817  0.6347
  400TMC3     C 6030   0.871   1.601  17.025  0.0259  0.2076  0.2759
  400TMC3     O 6031   0.839   1.485  17.042  0.2326  0.2958  0.6130
  400TMC3     H 6032   0.634   1.527  16.917  0.8269  0.0589 -1.6336
  400TMC3    H1 6033   0.873   1.862  17.005 -1.2099  1.4067  0.9098
  400TMC3    H2 6034   0.492   1.923  16.828 -1.6630 -2.1571  1.3858
  400TMC3    C7 6035   0.702   2.050  16.935 -0.2955  0.0749 -0.2724
  400TMC3    C8 6036   0.418   1.675  16.859 -0.1034 -0.8852 -0.0881
  400TMC3    O1 6037   0.802   2.087  16.995  0.3071  0.7944  0.5268
  400TMC3    O2 6038   0.344   1.762  16.899 -0.4267 -0.7773 -0.8198
  401MPD2     C 6039   4.059   0.930   1.528  0.0245  0.9274 -0.4078
  401MPD2    C1 6040   4.093   0.799   1.542 -0.0613 -0.4065 -0.1798
  401MPD2    C2 6041   3.990   0.708   1.573  0.5275  0.5489  0.3454
  401MPD2    C3 6042   3.858   0.753   1.576  0.4730 -0.0347  1.1927
  401MPD2    C4 6043   3.828   0.886   1.572  0.7045 -0.4054  0.7785
  401MPD2    C5 6044   3.935   0.968   1.546  0.2205 -0.6332 -0.0844
  401MPD2     H 6045   4.012   0.602   1.569  1.7844  0.8359 -0.2009
  401MPD2    H1 6046   3.726   0.921   1.561  1.5296  1.7325 -0.0740
  401MPD2    H2 6047   4.129   1.009   1.502  1.2450  0.0620  0.2462
  401MPD2    H3 6048   3.930   1.076   1.542  0.1422 -0.5839  1.3549
  401MPD2     N 6049   3.759   0.657   1.602  0.0989 -0.1915  0.2430
  401MPD2    H5 6050   3.781   0.566   1.641  2.6648  0.8658  1.2377
  401MPD2    N1 6051   4.229   0.760   1.524 -0.7627  0.4925  0.6531
  401MPD2    H7 6052   4.293   0.834   1.499 -0.2415 -1.1551 -2.8874
  402TMC3    C1 6053   3.553   0.548   1.617  0.1588 -0.2110 -0.4854
  402TMC3    C2 6054   3.586   0.481   1.732 -0.0120  1.1970  0.3188
  402TMC3    C3 6055   3.570   0.345   1.736 -0.4904 -0.2486  0.6663
  402TMC3    C4 6056   3.520   0.482   1.504 -0.4975  0.3737 -0.1348
  402TMC3    C5 6057   3.515   0.343   1.506 -0.0872  0.3529 -0.5402
  402TMC3    C6 6058   3.541   0.273   1.625 -0.1285  0.0602 -0.1569
  402TMC3     C 6059   3.622   0.677   1.599 -0.0964  1.4837 -0.3337
  402TMC3     O 6060   3.559   0.761   1.531  0.1713 -0.2967  0.1293
  402TMC3     H 6061   3.627   0.534   1.817  2.0058 -2.1276  1.4157
  402TMC3    H1 6062   3.510   0.544   1.416  1.3183  1.2627  0.2832
  402TMC3    H2 6063   3.541   0.164   1.630 -0.8464  0.0004 -1.2864
  402TMC3    C7 6064   3.574   0.302   1.382 -0.2093 -0.2700  0.3401
  402TMC3    C8 6065   3.632   0.265   1.839 -0.2197  1.1672  0.7495
  402TMC3    O1 6066   3.536   0.357   1.281  0.2414  0.7086  0.0542
  402TMC3    O2 6067   3.663   0.148   1.812 -0.0159 -0.0454  0.2022
  403MPD2     C 6068   2.585   2.804  13.549  0.0748  0.1501  0.0464
  403MPD2    C1 6069   2.527   2.914  13.605 -0.4371 -0.0700  0.3945
  403MPD2    C2 6070   2.583   2.956  13.724  0.9107  0.3694  0.5714
  403MPD2    C3 6071   2.697   2.899  13.772 -0.5350 -1.2034  0.5345
  403MPD2    C4 6072   2.756   2.782  13.710  0.0278  0.5127  0.2682
  403MPD2    C5 6073   2.697   2.733  13.598 -0.5271 -0.0297  0.4348
  403MPD2     H 6074   2.541   3.046  13.767 -1.6460  0.1741 -1.5493
  403MPD2    H1 6075   2.858   2.759  13.738 -0.3989 -0.0141  1.4066
  403MPD2    H2 6076   2.548   2.768  13.454 -0.5603 -1.2960  0.8520
  403MPD2    H3 6077   2.737   2.646  13.546 -3.0449 -0.6340 -0.4840
  403MPD2     N 6078   2.763   2.965  13.882  0.0222  0.0291 -0.1657
  403MPD2    H5 6079   2.723   3.053  13.915  0.8609  0.2457  0.2605
  403MPD2    N1 6080   2.407   2.963  13.543 -0.7835 -0.6543 -0.0530
  403MPD2    H7 6081   2.379   2.929  13.452 -0.1004  1.0743 -0.9170
  404TMC3    C1 6082   2.205   3.069  13.517 -0.6143 -0.3482  0.0991
  404TMC3    C2 6083   2.088   3.072  13.580 -0.2108 -0.7978 -0.8766
  404TMC3    C3 6084   1.976   3.035  13.514 -0.9501  0.3374 -0.0356
  404TMC3    C4 6085   2.216   3.019  13.391  0.4932  0.0869 -0.1375
  404TMC3    C5 6086   2.111   2.977  13.326  0.3071  0.5014  0.8681
  404TMC3    C6 6087   1.980   2.997  13.385  0.2041 -0.6919  0.1250
  404TMC3     C 6088   2.324   3.060  13.604  0.2777  0.2595 -0.0511
  404TMC3     O 6089   2.313   3.086  13.723  0.4747 -0.5283 -0.6546
  404TMC3     H 6090   2.085   3.120  13.677 -0.8195  2.2321 -2.4106
  404TMC3    H1 6091   2.304   3.057  13.341 -0.2454 -0.9765 -2.2110
  404TMC3    H2 6092   1.883   2.971  13.344 -0.1039  0.2429  0.2669
  404TMC3    C7 6093   2.137   2.923  13.192  0.0694  0.1603  0.8116
  404TMC3    C8 6094   1.844   3.067  13.566  0.1921 -0.3095 -0.2401
  404TMC3    O1 6095   2.255   2.923  13.158  0.8103 -0.4768 -0.2107
  404TMC3    O2 6096   1.756   3.097  13.486  0.1474 -0.1366 -0.8212
  405MPD2     C 6097   2.731   3.936  14.818  0.2485  0.4444  0.5975
  405MPD2    C1 6098   2.722   3.884  14.687  0.3465  0.1753 -0.0968
  405MPD2    C2 6099   2.710   3.978  14.582 -0.5815  0.0319 -0.0470
  405MPD2    C3 6100   2.698   4.111  14.607  0.1978 -0.8774 -0.5036
  405MPD2    C4 6101   2.701   4.168  14.731 -0.6586 -0.7183  0.1224
  405MPD2    C5 6102   2.723   4.072  14.836  0.3615  0.6126 -0.6220
  405MPD2     H 6103   2.702   3.936  14.482 -2.9728  0.1596  0.0942
  405MPD2    H1 6104   2.725   4.272  14.751  1.8183 -1.1606 -0.5028
  405MPD2    H2 6105   2.752   3.870  14.901  2.0978 -0.0592 -0.2644
  405MPD2    H3 6106   2.738   4.121  14.931 -1.1638 -0.5991  0.2531
  405MPD2     N 6107   2.682   4.181  14.486 -0.2322  0.0435 -0.0134
  405MPD2    H5 6108   2.662   4.120  14.408  0.9155 -0.4697  0.0919
  405MPD2    N1 6109   2.727   3.745  14.665 -0.1283 -0.2587  0.8847
  405MPD2    H7 6110   2.720   3.681  14.743 -2.4718 -2.0140 -0.7897
  406TMC3    C1 6111   2.562   4.499  14.178  0.1691  0.6290 -0.2143
  406TMC3    C2 6112   2.554   4.396  14.091  0.1985  0.3966  0.5234
  406TMC3    C3 6113   2.599   4.273  14.129 -0.3445 -0.1666 -0.6739
  406TMC3    C4 6114   2.620   4.481  14.301 -0.1176  0.4562  0.3741
  406TMC3    C5 6115   2.668   4.355  14.331 -0.8095 -0.5779 -0.4956
  406TMC3    C6 6116   2.672   4.251  14.241  0.0258 -0.4453  0.8422
  406TMC3     C 6117   2.434   4.565  14.186  0.6575 -0.1946  0.2536
  406TMC3     O 6118   2.433   4.677  14.239 -0.1278 -0.2718  0.0786
  406TMC3     H 6119   2.506   4.414  13.996 -1.0408 -0.3019  1.0239
  406TMC3    H1 6120   2.615   4.561  14.374 -2.1151  0.8245 -0.1518
  406TMC3    H2 6121   2.732   4.165  14.268 -0.6888 -1.5426 -1.0482
  406TMC3    C7 6122   2.676   4.315  14.470  0.0218  0.0255  0.3364
  406TMC3    C8 6123   2.571   4.167  14.036  0.0204 -0.1458 -0.3701
  406TMC3    O1 6124   2.677   4.398  14.559 -0.0136  0.6012  0.1062
  406TMC3    O2 6125   2.527   4.195  13.923 -0.2756 -0.4341  0.3339
  407MPD2     C 6126   0.522   0.242   9.941  0.4225 -0.2028  0.7136
  407MPD2    C1 6127   0.611   0.270  10.043  0.2372  0.7453  0.8308
  407MPD2    C2 6128   0.567   0.320  10.161  0.0474  1.0116  0.0567
  407MPD2    C3 6129   0.437   0.362  10.168  0.1849  0.4371  0.2267
  407MPD2    C4 6130   0.350   0.340  10.065  0.1130 -0.0122  0.2315
  407MPD2    C5 6131   0.388   0.276   9.952  0.2657  0.1340  0.1566
  407MPD2     H 6132   0.636   0.334  10.243 -2.7888  0.2795  2.5851
  407MPD2    H1 6133   0.247   0.374  10.067  0.9466  2.3352  3.1479
  407MPD2    H2 6134   0.554   0.193   9.850 -3.3463  1.8679 -1.7307
  407MPD2    H3 6135   0.321   0.272   9.867 -0.8424 -2.8114  1.1851
  407MPD2     N 6136   0.379   0.407  10.290  1.1483  0.4461  0.2009
  407MPD2    H5 6137   0.283   0.442  10.294  1.1283  0.5260 -0.9114
  407MPD2    N1 6138   0.748   0.238  10.044  0.4496 -0.1157 -0.0910
  407MPD2    H7 6139   0.804   0.259  10.126  1.6913  1.8474 -1.4537
  408TMC3    C1 6140   0.959   0.181   9.979  0.3418  0.0768 -0.1200
  408TMC3    C2 6141   1.033   0.061   9.975 -0.3644  0.1467 -0.3571
  408TMC3    C3 6142   1.154   0.061  10.043  0.1860 -0.3742  0.5835
  408TMC3    C4 6143   1.000   0.290  10.058 -0.2652 -0.5271 -0.0522
  408TMC3    C5 6144   1.121   0.283  10.127 -0.0565  0.2824  0.7867
  408TMC3    C6 6145   1.197   0.170  10.119  0.4461 -0.6320  0.0073
  408TMC3     C 6146   0.816   0.162   9.956 -0.5622 -0.6220 -0.1927
  408TMC3     O 6147   0.780   0.087   9.863  0.1922 -0.1715  0.4866
  408TMC3     H 6148   0.999   4.720   9.909 -0.2175  1.0719 -1.5272
  408TMC3    H1 6149   0.948   0.385  10.051  2.8326  1.3153  1.9200
  408TMC3    H2 6150   1.290   0.162  10.173 -0.4339 -1.5545  1.4129
  408TMC3    C7 6151   1.162   0.404  10.196  0.3089  0.5572 -0.3579
  408TMC3    C8 6152   1.256   4.701  10.004  0.5560 -1.0922 -0.9578
  408TMC3    O1 6153   1.095   0.507  10.171 -1.1044 -0.5222  0.2664
  408TMC3    O2 6154   1.218   4.588   9.986  0.2957 -0.2719 -0.0347
  409MPD2     C 6155   4.472   0.959  17.014  0.0816  0.2833 -0.3561
  409MPD2    C1 6156   4.502   0.994  17.144  0.5941 -0.2617 -0.4284
  409MPD2    C2 6157   4.524   1.127  17.167  0.0803  0.0229  0.1648
  409MPD2    C3 6158   4.519   1.222  17.067  0.6713  0.2853 -1.1227
  409MPD2    C4 6159   4.479   1.190  16.942  0.1734  0.1051  0.1710
  409MPD2    C5 6160   4.477   1.054  16.915 -0.0058 -0.0405  0.1606
  409MPD2     H 6161   4.552   1.144  17.270 -0.4219 -0.3211  0.3625
  409MPD2    H1 6162   4.464   1.260  16.860 -0.9741 -0.5246 -0.1554
  409MPD2    H2 6163   4.465   0.854  16.986  1.1362 -0.0199  0.4956
  409MPD2    H3 6164   4.446   1.023  16.816  0.0705 -0.5780  0.3088
  409MPD2     N 6165   4.552   1.359  17.084 -0.0525 -0.1899 -0.2040
  409MPD2    H5 6166   4.529   1.414  17.002  1.3701  0.8294  0.0827
  409MPD2    N1 6167   4.522   0.903  17.252 -0.3478 -0.0690 -0.2253
  409MPD2    H7 6168   4.549   0.949  17.338  0.1643 -2.7833  1.0551
  410TMC3    C1 6169   4.662   1.556  17.170 -0.5663 -0.2540 -0.8175
  410TMC3    C2 6170   0.040   1.599  17.230  0.1607  0.1831  0.4989
  410TMC3    C3 6171   0.092   1.717  17.182 -0.6680  0.6898  0.6881
  410TMC3    C4 6172   4.595   1.628  17.074 -0.3655 -0.5702  0.3054
  410TMC3    C5 6173   4.656   1.743  17.034 -0.7102 -0.3526  0.9540
  410TMC3    C6 6174   0.032   1.799  17.089 -1.4343 -0.2343 -0.4996
  410TMC3     C 6175   4.623   1.415  17.187  1.0175  0.1779 -0.2458
  410TMC3     O 6176   4.680   1.358  17.277  0.3088  0.1126  0.5186
  410TMC3     H 6177   0.082   1.548  17.316  0.3625  0.6708  0.6937
  410TMC3    H1 6178   4.513   1.583  17.019 -1.3346  0.6885  0.7207
  410TMC3    H2 6179   0.089   1.879  17.042  0.3179  0.3776  2.6297
  410TMC3    C7 6180   4.601   1.797  16.905  0.2793 -0.7079 -0.1451
  410TMC3    C8 6181   0.228   1.737  17.218 -0.4676  0.5610  0.0497
  410TMC3    O1 6182   4.522   1.726  16.840 -0.1307  0.1080 -0.5895
  410TMC3    O2 6183   0.262   1.853  17.240  0.1855 -0.0428 -0.2046
  411MPD2     C 6184   0.324   1.826  14.885  0.2453 -0.1126  0.2617
  411MPD2    C1 6185   0.192   1.842  14.918  0.1224  0.7413 -0.4195
  411MPD2    C2 6186   0.107   1.733  14.922 -0.1708  0.1538  0.3167
  411MPD2    C3 6187   0.160   1.606  14.901  0.2134  0.5832 -0.2506
  411MPD2    C4 6188   0.293   1.590  14.876  0.1414  0.2250  0.6850
  411MPD2    C5 6189   0.370   1.701  14.866 -0.6698 -0.1739 -0.2756
  411MPD2     H 6190   4.736   1.737  14.933  0.0095  0.9863  1.8130
  411MPD2    H1 6191   0.333   1.497  14.838  0.1136  1.0219 -1.2998
  411MPD2    H2 6192   0.385   1.913  14.864 -0.3035  0.8510  2.6580
  411MPD2    H3 6193   0.464   1.682  14.815 -1.0469 -2.0886 -0.2810
  411MPD2     N 6194   0.075   1.496  14.872 -0.1748 -0.9302  0.6266
  411MPD2    H5 6195   0.120   1.415  14.833  0.4165 -0.2712 -0.0574
  411MPD2    N1 6196   0.136   1.971  14.927  0.0621 -0.1111  0.2522
  411MPD2    H7 6197   0.203   2.048  14.925  0.2492 -0.2312  1.6304
  412TMC3    C1 6198   4.607   1.360  14.862 -0.1764  0.5227 -0.7085
  412TMC3    C2 6199   4.481   1.340  14.913  0.0458  0.4674 -0.4753
  412TMC3    C3 6200   4.394   1.253  14.851 -0.6241  0.2823 -0.4227
  412TMC3    C4 6201   4.641   1.305  14.742 -0.0750 -0.6123  0.0778
  412TMC3    C5 6202   4.559   1.210  14.682 -0.2438 -0.3876 -0.1454
  412TMC3    C6 6203   4.435   1.178  14.738  0.2584  0.7591  0.9957
  412TMC3     C 6204   4.680   1.477  14.915  0.0585  1.2472 -0.6371
  412TMC3     O 6205   4.625   1.535  15.005  0.0599 -0.3851 -0.1779
  412TMC3     H 6206   4.455   1.385  15.008  0.4292 -1.4649  0.5513
  412TMC3    H1 6207   4.707   1.363  14.678  0.5962 -1.8457 -0.3488
  412TMC3    H2 6208   4.365   1.103  14.701 -0.7542  1.3247  1.7550
  412TMC3    C7 6209   4.555   1.187  14.539  0.3048  0.4449  0.4431
  412TMC3    C8 6210   4.263   1.320  14.825  0.1388 -0.1630 -1.0194
  412TMC3    O1 6211   4.444   1.166  14.497  0.3824 -0.3052  0.1314
  412TMC3    O2 6212   4.215   1.383  14.921 -0.1930 -0.2593  0.1006
  413MPD2     C 6213   1.582   0.627  15.455 -0.0370  0.3289  0.1198
  413MPD2    C1 6214   1.541   0.540  15.356 -0.4395  0.2935 -0.1721
  413MPD2    C2 6215   1.636   0.461  15.293 -0.2842 -0.0118  0.2820
  413MPD2    C3 6216   1.768   0.458  15.330  0.1872  0.1409  0.1123
  413MPD2    C4 6217   1.804   0.553  15.426 -0.5380 -0.4148 -0.0061
  413MPD2    C5 6218   1.712   0.637  15.491  0.1505  0.1834 -0.2954
  413MPD2     H 6219   1.603   0.388  15.220 -1.2334  0.3208  0.3783
  413MPD2    H1 6220   1.909   0.560  15.450 -0.7814 -0.3492  1.0459
  413MPD2    H2 6221   1.512   0.691  15.508 -0.5569  0.8291 -1.1780
  413MPD2    H3 6222   1.741   0.691  15.580  0.1324  1.2317 -0.9284
  413MPD2     N 6223   1.857   0.372  15.260  0.8585 -0.0977 -0.3679
  413MPD2    H5 6224   1.820   0.313  15.187 -0.0573  0.6099 -0.4688
  413MPD2    N1 6225   1.405   0.517  15.343 -0.8629 -0.1532  0.4335
  413MPD2    H7 6226   1.345   0.563  15.411 -0.1006  0.5848  0.6063
  414TMC3    C1 6227   2.047   0.261  15.200  0.8695 -0.1182  0.0472
  414TMC3    C2 6228   2.091   0.148  15.267  0.3862 -0.5783 -0.0116
  414TMC3    C3 6229   2.100   0.027  15.198  0.6978 -0.8295  0.6618
  414TMC3    C4 6230   2.011   0.262  15.069  0.7005  0.6059  0.4284
  414TMC3    C5 6231   2.023   0.139  15.006  0.6459 -0.4826  0.1901
  414TMC3    C6 6232   2.061   0.024  15.074 -0.3580 -0.7255  0.6794
  414TMC3     C 6233   1.983   0.352  15.287  0.3223 -0.9891  0.1969
  414TMC3     O 6234   2.044   0.379  15.392  0.1057  0.3456  0.6046
  414TMC3     H 6235   2.097   0.145  15.376  1.5888  2.9871  0.0117
  414TMC3    H1 6236   1.974   0.350  15.016 -0.2118  0.0301  0.0928
  414TMC3    H2 6237   2.099   4.674  15.023 -0.4535 -0.6506  0.4811
  414TMC3    C7 6238   1.961   0.138  14.875 -0.2474 -0.0170  0.7088
  414TMC3    C8 6239   2.167   4.640  15.237  0.0847  0.0420  0.0732
  414TMC3    O1 6240   1.867   0.213  14.863 -0.1495 -0.0320  0.2291
  414TMC3    O2 6241   2.123   4.539  15.188  0.3319 -0.3097 -0.5296
  415TMC3    C1 6242   2.561   2.007   9.920 -0.5193 -0.4241 -0.5230
  415TMC3    C2 6243   2.613   2.042   9.796 -0.5257 -1.2574  0.7382
  415TMC3    C3 6244   2.535   2.003   9.690 -0.4967  0.1098  0.1146
  415TMC3    C4 6245   2.444   1.939   9.933  0.1731 -0.7118  0.0455
  415TMC3    C5 6246   2.366   1.907   9.825 -0.8533  0.0121 -0.0748
  415TMC3    C6 6247   2.411   1.937   9.702 -0.6740 -0.7272 -0.1586
  415TMC3     C 6248   2.638   2.032  10.039 -0.0063  0.4396  0.2390
  415TMC3     O 6249   2.574   2.037  10.142 -0.2850  0.9843  0.4647
  415TMC3     H 6250   2.710   2.088   9.783  1.8324 -6.4262 -0.1899
  415TMC3    H1 6251   2.416   1.905  10.032  2.9282  1.6725  1.6380
  415TMC3    H2 6252   2.358   1.905   9.612 -1.3192  4.1480 -1.5189
  415TMC3    C7 6253   2.246   1.823   9.846  1.0584  0.0413  0.6034
  415TMC3    C8 6254   2.614   2.012   9.562 -0.1773  0.4692  0.1586
  415TMC3    O1 6255   2.151   1.837   9.776 -0.0138 -0.4504  0.1794
  415TMC3    O2 6256   2.614   1.911   9.490  0.2755 -0.3893 -0.1544
  416MPD2     C 6257   4.587   1.999  11.480  0.2906 -0.2676  0.6311
  416MPD2    C1 6258   4.518   1.933  11.578 -0.4420 -1.1640 -0.0933
  416MPD2    C2 6259   4.550   1.799  11.600  0.1218  0.6591  0.1577
  416MPD2    C3 6260   4.637   1.729  11.514 -0.6785  0.5563  0.2306
  416MPD2    C4 6261   4.710   1.804  11.426  0.3076 -0.3231 -0.0195
  416MPD2    C5 6262   4.694   1.938  11.416  0.5014  0.7755 -0.1514
  416MPD2     H 6263   4.490   1.745  11.672 -2.7267  0.0114 -2.6943
  416MPD2    H1 6264   0.059   1.758  11.379  0.0058  0.4574 -1.3464
  416MPD2    H2 6265   4.568   2.103  11.456 -0.0542 -0.7107 -1.0451
  416MPD2    H3 6266   0.015   2.006  11.354  1.5161 -0.3073 -0.3762
  416MPD2     N 6267   4.649   1.587  11.535  0.2592  0.5336 -0.0774
  416MPD2    H5 6268   4.591   1.550  11.610  0.4994 -1.2024 -0.7603
  416MPD2    N1 6269   4.407   1.999  11.643 -0.5469 -0.4783 -0.0063
  416MPD2    H7 6270   4.394   2.095  11.614  1.4084 -0.0795  0.4321
  417TMC3    C1 6271   4.228   2.039  11.781 -0.2727 -0.1552  0.3887
  417TMC3    C2 6272   4.190   2.042  11.914  0.1119  0.0736  0.0758
  417TMC3    C3 6273   4.067   2.090  11.942  0.1493 -0.1119  0.6646
  417TMC3    C4 6274   4.139   2.071  11.688 -0.4148  0.3690 -0.1988
  417TMC3    C5 6275   4.014   2.121  11.713  0.4715  0.2474 -0.2884
  417TMC3    C6 6276   3.970   2.126  11.847  0.7024  0.0801 -0.2269
  417TMC3     C 6277   4.339   1.950  11.752 -0.1013  0.3037 -0.0437
  417TMC3     O 6278   4.379   1.868  11.833  0.2989 -0.5921  0.0256
  417TMC3     H 6279   4.257   2.013  11.995  1.1606  2.8860  0.1901
  417TMC3    H1 6280   4.169   2.082  11.584 -1.1198  0.3858 -0.3975
  417TMC3    H2 6281   3.871   2.158  11.878 -0.0312 -0.6081 -1.8849
  417TMC3    C7 6282   3.909   2.119  11.610 -0.4776  0.0199  0.5217
  417TMC3    C8 6283   4.057   2.170  12.060  0.0056 -0.3381  1.1472
  417TMC3    O1 6284   3.937   2.152  11.492  0.5658  0.4969  0.2242
  417TMC3    O2 6285   3.941   2.201  12.089 -0.1096  0.4296  0.3980
  418TMC3    C1 6286   2.395   4.553   0.618 -0.2773  0.1037  0.0631
  418TMC3    C2 6287   2.283   4.490   0.562  0.0365  0.1958 -0.0380
  418TMC3    C3 6288   2.229   4.380   0.621 -0.1058  0.3345  0.5413
  418TMC3    C4 6289   2.449   4.500   0.732  0.1380 -0.3649  0.1869
  418TMC3    C5 6290   2.395   4.380   0.791  0.0725  0.6001  0.0172
  418TMC3    C6 6291   2.289   4.311   0.727  0.6127  0.4407  0.0232
  418TMC3     C 6292   2.485   4.643   0.539  0.0979  0.1236  0.4344
  418TMC3     O 6293   2.434   0.013   0.502  0.5333  0.1446  0.1630
  418TMC3     H 6294   2.233   4.531   0.474  1.7264 -3.0602 -2.4772
  418TMC3    H1 6295   2.524   4.558   0.786  2.8866 -1.8308 -2.0300
  418TMC3    H2 6296   2.231   4.231   0.773  0.1638  0.7379 -0.0195
  418TMC3    C7 6297   2.468   4.305   0.891 -0.0165 -0.4527  0.0953
  418TMC3    C8 6298   2.141   4.303   0.543 -0.0812  0.1668 -0.0730
  418TMC3    O1 6299   2.426   4.192   0.902 -0.3908  0.1149 -0.9602
  418TMC3    O2 6300   2.062   4.369   0.474 -0.5354 -0.2579 -0.1117
  419MPD2     C 6301   1.172   1.713  12.911 -0.4952 -0.1544  0.0235
  419MPD2    C1 6302   1.049   1.782  12.921 -0.1244 -0.6106 -0.5912
  419MPD2    C2 6303   1.053   1.902  12.991 -0.3444  0.0354  0.1610
  419MPD2    C3 6304   1.163   1.955  13.053 -0.3673 -0.4766 -0.4405
  419MPD2    C4 6305   1.275   1.886  13.042 -0.1142 -0.3075 -0.5336
  419MPD2    C5 6306   1.284   1.766  12.972  0.7473 -0.2464  0.8240
  419MPD2     H 6307   0.964   1.961  13.005 -0.3424  0.6925 -2.6541
  419MPD2    H1 6308   1.373   1.919  13.075 -1.3436  1.5449  1.2391
  419MPD2    H2 6309   1.183   1.626  12.846  0.2719 -0.4233  0.5100
  419MPD2    H3 6310   1.380   1.716  12.961  0.3501 -1.1206  1.3574
  419MPD2     N 6311   1.152   2.080  13.107 -0.0758 -0.0605  0.1056
  419MPD2    H5 6312   1.061   2.115  13.135 -0.0154 -0.4200  0.7418
  419MPD2    N1 6313   0.928   1.748  12.853 -0.2518 -0.2999 -0.1919
  419MPD2    H7 6314   0.855   1.817  12.851  0.3989  0.4457  1.3548
  420TMC3    C1 6315   1.221   2.293  13.184 -0.2134 -0.0160  0.3618
  420TMC3    C2 6316   1.085   2.320  13.188  0.5233  0.1999 -0.0848
  420TMC3    C3 6317   1.039   2.399  13.289 -0.1765  0.2996 -0.3426
  420TMC3    C4 6318   1.313   2.351  13.269 -0.2441  0.2141 -0.2952
  420TMC3    C5 6319   1.257   2.422  13.377  0.4231  0.6546  0.4175
  420TMC3    C6 6320   1.126   2.457  13.382  0.2137 -0.3498  0.1591
  420TMC3     C 6321   1.263   2.158  13.136  0.6245  0.1895 -0.3379
  420TMC3     O 6322   1.381   2.140  13.124  0.3090 -0.1434 -0.0680
  420TMC3     H 6323   1.016   2.292  13.110  1.6894  0.8350 -1.3394
  420TMC3    H1 6324   1.409   2.301  13.269 -2.4030 -3.9132  2.4095
  420TMC3    H2 6325   1.078   2.502  13.469 -0.1551 -0.8154  0.1962
  420TMC3    C7 6326   1.340   2.442  13.497  0.3080  0.6984  0.5652
  420TMC3    C8 6327   0.896   2.417  13.279 -0.2562 -0.6345 -0.0244
  420TMC3    O1 6328   1.271   2.441  13.598  0.2737 -0.1754 -0.1803
  420TMC3    O2 6329   0.827   2.349  13.358  0.0002 -0.1424 -0.2541
  421TMC3    C1 6330   2.927   2.970  14.067 -0.2295 -0.6866 -0.3475
  421TMC3    C2 6331   2.917   3.110  14.064 -0.1061 -0.3495 -0.1504
  421TMC3    C3 6332   2.960   3.177  14.176 -0.3793  1.0415 -0.3725
  421TMC3    C4 6333   3.004   2.903  14.161  0.2040 -0.1861 -0.3259
  421TMC3    C5 6334   3.043   2.977  14.270 -0.2945 -0.3384  0.1113
  421TMC3    C6 6335   3.024   3.113  14.276  1.1311  0.3128  0.4668
  421TMC3     C 6336   2.851   2.893  13.965 -0.0913 -0.0508 -0.0122
  421TMC3     O 6337   2.878   2.771  13.977 -0.1342 -0.4392 -0.3950
  421TMC3     H 6338   2.873   3.164  13.981 -1.1410 -0.8517  0.0643
  421TMC3    H1 6339   3.017   2.795  14.157 -1.2804 -0.4366  1.5009
  421TMC3    H2 6340   3.047   3.159  14.371  1.1049 -0.2879  0.7619
  421TMC3    C7 6341   3.162   2.936  14.343 -0.1154 -0.1091  0.5299
  421TMC3    C8 6342   2.958   3.316  14.184 -0.9505  0.5228  0.1071
  421TMC3    O1 6343   3.189   2.988  14.447 -0.4170 -0.5170 -0.4762
  421TMC3    O2 6344   2.973   3.365  14.296 -0.0745  0.0252 -0.3235
  422TMC3    C1 6345   0.386   4.664  12.653  0.6134 -0.8251  0.2864
  422TMC3    C2 6346   0.385   4.728  12.768 -1.0213  0.0021 -0.4269
  422TMC3    C3 6347   0.288   4.702  12.861  0.2525 -0.1713  1.1363
  422TMC3    C4 6348   0.297   4.571  12.617  0.0029 -0.0687 -0.3663
  422TMC3    C5 6349   0.202   4.538  12.712  0.0804 -0.1731 -0.6484
  422TMC3    C6 6350   0.190   4.602  12.833  0.5696  0.4916 -0.8975
  422TMC3     C 6351   0.494   4.697  12.558 -0.0561 -1.0132  0.3184
  422TMC3     O 6352   0.532   0.080  12.553 -0.1501 -0.5728 -0.6194
  422TMC3     H 6353   0.462   0.064  12.790 -0.6282 -0.2938 -0.8261
  422TMC3    H1 6354   0.300   4.532  12.516 -3.4744  1.2282 -0.9768
  422TMC3    H2 6355   0.102   4.590  12.896  0.2089  0.9174 -1.3185
  422TMC3    C7 6356   0.095   4.460  12.652 -0.0710 -0.3856 -0.0883
  422TMC3    C8 6357   0.286   0.045  12.983 -0.2086 -0.1706 -0.5255
  422TMC3    O1 6358   0.133   4.416  12.541  0.4981 -0.6828 -0.4051
  422TMC3    O2 6359   0.372   0.129  12.995  0.4386 -0.7981 -0.6453
  423MPD2     C 6360   0.971   1.037   0.532  0.5072 -0.4625  0.2735
  423MPD2    C1 6361   1.051   0.947   0.599  0.0810 -0.3854 -0.3222
  423MPD2    C2 6362   1.113   0.842   0.536 -0.4709 -0.0605  0.1618
  423MPD2    C3 6363   1.097   0.826   0.400 -0.0463  0.4490  0.3461
  423MPD2    C4 6364   1.021   0.921   0.332 -0.6070 -0.3410 -0.2818
  423MPD2    C5 6365   0.949   1.017   0.398 -0.1371  0.4104  0.0621
  423MPD2     H 6366   1.181   0.779   0.592 -0.5571 -1.0453 -0.8664
  423MPD2    H1 6367   1.008   0.919   0.225 -0.5322  0.7793 -0.3112
  423MPD2    H2 6368   0.928   1.128   0.574  0.7003  0.1174 -0.7866
  423MPD2    H3 6369   0.878   1.080   0.346 -0.6987  1.3958  2.0337
  423MPD2     N 6370   1.158   0.724   0.320  0.3026  0.3699  0.1720
  423MPD2    H5 6371   1.155   0.743   0.220  1.6492 -1.8674 -0.2813
  423MPD2    N1 6372   1.084   0.965   0.737 -0.5604 -0.0710 -0.3182
  423MPD2    H7 6373   1.150   0.897   0.773 -2.5546 -1.2483  1.0872
  424TMC3    C1 6374   1.105   1.066   0.952 -0.7195  0.2483 -0.2809
  424TMC3    C2 6375   1.245   1.057   0.958  0.6358  0.0762  0.4480
  424TMC3    C3 6376   1.313   1.125   1.058  0.3185 -0.4523 -0.5226
  424TMC3    C4 6377   1.032   1.126   1.051  0.6537 -0.6278 -0.0783
  424TMC3    C5 6378   1.104   1.169   1.163 -0.5854  0.4385 -0.5149
  424TMC3    C6 6379   1.242   1.166   1.168 -0.5038  0.4435  0.1532
  424TMC3     C 6380   1.037   1.065   0.821 -0.1883 -0.4810  0.2201
  424TMC3     O 6381   0.941   1.136   0.805 -0.4199 -1.0831 -0.0992
  424TMC3     H 6382   1.301   1.013   0.876  1.9320  0.6521  1.0129
  424TMC3    H1 6383   0.924   1.131   1.043  0.9863  3.0398 -2.3896
  424TMC3    H2 6384   1.296   1.194   1.258  0.5122  0.9053 -0.5957
  424TMC3    C7 6385   1.040   1.227   1.278  0.7714  0.5531  0.1760
  424TMC3    C8 6386   1.448   1.077   1.077 -0.0336  0.0584  0.4935
  424TMC3    O1 6387   1.108   1.263   1.371  0.4621  0.2003 -0.4675
  424TMC3    O2 6388   1.484   0.984   1.007 -0.1274  0.0363 -0.6296
  425MPD2     C 6389   0.758   0.141  17.579 -0.2092 -0.4379 -0.0402
  425MPD2    C1 6390   0.678   0.037  17.615  0.1420 -0.1604 -0.1880
  425MPD2    C2 6391   0.554   0.054  17.657  0.1866  0.0210  0.0271
  425MPD2    C3 6392   0.508   0.187  17.660  0.3880  0.3251 -0.2977
  425MPD2    C4 6393   0.587   0.294  17.631  0.5709  0.0286  0.5610
  425MPD2    C5 6394   0.710   0.272  17.590  0.6093  0.0158 -0.3896
  425MPD2     H 6395   0.494   4.710  17.696  1.3851 -0.6191  0.5414
  425MPD2    H1 6396   0.554   0.397  17.629  0.4892  0.0294  2.4221
  425MPD2    H2 6397   0.860   0.126  17.544  0.7559  0.9740  2.1838
  425MPD2    H3 6398   0.757   0.360  17.548  0.3215 -0.5423 -1.8590
  425MPD2     N 6399   0.369   0.195  17.685 -0.4180 -0.8036  0.3822
  425MPD2    H5 6400   0.322   0.106  17.701 -0.2520 -0.8823  0.4317
  425MPD2    N1 6401   0.717   4.638  17.609  0.4588 -0.2827  0.2829
  425MPD2    H7 6402   0.645   4.567  17.615  1.6614 -1.5632 -0.2077
  426TMC3    C1 6403   0.819   4.442  17.529  0.0625 -0.2920 -0.6988
  426TMC3    C2 6404   0.847   4.396  17.405 -0.1928  0.0151  0.0788
  426TMC3    C3 6405   0.799   4.281  17.365  0.2078  0.3514 -1.0391
  426TMC3    C4 6406   0.738   4.362  17.612  0.8561 -0.3948 -0.0453
  426TMC3    C5 6407   0.692   4.244  17.571  0.0670 -0.6064 -0.6367
  426TMC3    C6 6408   0.715   4.204  17.443 -0.2707 -0.3178  0.5193
  426TMC3     C 6409   0.831   4.589  17.549  0.1109 -0.0840 -0.4087
  426TMC3     O 6410   0.920   4.647  17.490 -1.2629  0.5802 -0.8095
  426TMC3     H 6411   0.899   4.454  17.329  2.8248  0.9833  2.9008
  426TMC3    H1 6412   0.717   4.382  17.716 -0.0682  0.9519 -0.4904
  426TMC3    H2 6413   0.672   4.110  17.410  0.3395 -0.8438  1.2154
  426TMC3    C7 6414   0.615   4.161  17.662  0.6463  0.1927 -0.1775
  426TMC3    C8 6415   0.772   4.269  17.220  0.6163  0.8344 -0.0141
  426TMC3    O1 6416   0.572   4.215   0.016 -0.1777 -0.0637  0.3786
  426TMC3    O2 6417   0.742   4.157  17.176  0.6133 -0.0967  0.6995
  427MPD2     C 6418   3.907   1.988  15.181 -0.0105  0.1677  0.1131
  427MPD2    C1 6419   3.892   1.989  15.320 -0.5321 -0.9075 -0.0723
  427MPD2    C2 6420   3.782   2.056  15.381 -0.3061 -0.6798 -0.7388
  427MPD2    C3 6421   3.695   2.121  15.291  0.8825 -0.1424 -0.2416
  427MPD2    C4 6422   3.707   2.107  15.152 -0.0909 -0.3426  0.2321
  427MPD2    C5 6423   3.812   2.038  15.101 -0.6827 -0.4491 -0.4821
  427MPD2     H 6424   3.772   2.066  15.488  3.5102  1.7671 -0.6184
  427MPD2    H1 6425   3.641   2.157  15.082 -0.5446 -0.6958  0.4123
  427MPD2    H2 6426   3.984   1.924  15.141  0.6887  1.5472 -0.7593
  427MPD2    H3 6427   3.817   2.038  14.993  0.3106 -1.2451 -0.4353
  427MPD2     N 6428   3.582   2.185  15.344 -0.0026 -0.5063 -0.4376
  427MPD2    H5 6429   3.503   2.201  15.283 -1.0545 -0.0367  1.0494
  427MPD2    N1 6430   3.990   1.939  15.410  0.3867 -0.5450 -0.3639
  427MPD2    H7 6431   3.969   1.945  15.509  0.7966 -0.2946 -0.2931
  428TMC3    C1 6432   4.199   1.880  15.510  0.8482  0.1749 -0.2957
  428TMC3    C2 6433   4.152   1.791  15.608  0.5958  0.2418  0.2712
  428TMC3    C3 6434   4.239   1.768  15.712 -0.5216 -0.4776 -0.0685
  428TMC3    C4 6435   4.322   1.944  15.516 -0.6150 -0.1209  0.5036
  428TMC3    C5 6436   4.395   1.922  15.629  0.0915 -0.3605 -0.7225
  428TMC3    C6 6437   4.353   1.842  15.727  0.3992 -0.0390  0.7188
  428TMC3     C 6438   4.119   1.894  15.386  0.0231  0.5006  0.0075
  428TMC3     O 6439   4.179   1.903  15.282 -0.3206  0.0337  0.4083
  428TMC3     H 6440   4.056   1.742  15.603  0.2208  1.0641 -0.6906
  428TMC3    H1 6441   4.348   2.020  15.443  0.7070  0.0390  1.1411
  428TMC3    H2 6442   4.403   1.843  15.824  0.7682 -0.8214  0.5321
  428TMC3    C7 6443   4.521   1.991  15.656 -1.1616  0.6086  0.0736
  428TMC3    C8 6444   4.183   1.717  15.837 -0.5370  0.4925 -0.3095
  428TMC3    O1 6445   4.561   1.991  15.769  0.4095  0.1521 -0.3736
  428TMC3    O2 6446   4.203   1.796  15.933 -0.5217 -0.8954 -0.1709
  429MPD2     C 6447   0.098   2.248  17.630  0.2410  0.1337 -0.0312
  429MPD2    C1 6448   0.217   2.192  17.583 -0.1587  0.4637 -0.2546
  429MPD2    C2 6449   0.310   2.279  17.530 -0.0973  0.2451 -0.3103
  429MPD2    C3 6450   0.298   2.415  17.536  0.5993 -0.5312  0.2434
  429MPD2    C4 6451   0.175   2.468  17.574  0.5106  0.0814  0.5297
  429MPD2    C5 6452   0.080   2.382  17.626 -0.5174 -0.0677 -0.0585
  429MPD2     H 6453   0.400   2.239  17.486  0.1617  0.0455  0.4093
  429MPD2    H1 6454   0.139   2.569  17.563  0.0440 -0.2482 -1.1146
  429MPD2    H2 6455   0.017   2.195  17.679 -1.4258  0.6797 -2.1709
  429MPD2    H3 6456   4.721   2.420  17.660 -0.3365 -0.1471  0.5413
  429MPD2     N 6457   0.413   2.490  17.501 -0.1545 -0.1761 -0.0821
  429MPD2    H5 6458   0.491   2.440  17.460 -0.3038 -0.9222  0.5403
  429MPD2    N1 6459   0.245   2.053  17.573  0.2860  0.2835  0.4262
  429MPD2    H7 6460   0.333   2.026  17.531  0.1008 -2.6377  1.9196
  430TMC3    C1 6461   0.556   2.685  17.456  0.3526 -0.1151  0.2242
  430TMC3    C2 6462   0.529   2.804  17.389  0.1462 -0.6304  0.2868
  430TMC3    C3 6463   0.613   2.826  17.285  0.2665  0.8400 -0.1859
  430TMC3    C4 6464   0.643   2.588  17.417  0.3276  0.1721 -0.6186
  430TMC3    C5 6465   0.715   2.617  17.308  0.7984 -0.1731 -0.0086
  430TMC3    C6 6466   0.713   2.746  17.255 -0.3867 -0.9010  0.3019
  430TMC3     C 6467   0.427   2.628  17.504 -1.3929 -0.4830  0.0946
  430TMC3     O 6468   0.344   2.711  17.544 -0.7544 -0.3094 -0.2428
  430TMC3     H 6469   0.447   2.866  17.424 -0.3906 -0.7507 -0.7557
  430TMC3    H1 6470   0.665   2.500  17.476  0.0971 -0.3611 -1.3244
  430TMC3    H2 6471   0.776   2.765  17.170  1.9442 -1.3089  1.9272
  430TMC3    C7 6472   0.709   2.510  17.211  0.1695 -0.4503 -0.1537
  430TMC3    C8 6473   0.538   2.863  17.164 -0.4856  0.0509  0.8572
  430TMC3    O1 6474   0.699   2.398  17.255 -0.0844 -0.4263  0.0269
  430TMC3    O2 6475   0.587   2.822  17.061  0.1474 -0.2360 -0.0921
  431MPD2     C 6476   0.922   2.375  12.867  0.4392 -0.6889 -0.2052
  431MPD2    C1 6477   1.006   2.289  12.794 -0.5266 -0.0696 -1.0616
  431MPD2    C2 6478   0.943   2.187  12.726  0.2330 -0.6560 -0.5496
  431MPD2    C3 6479   0.810   2.165  12.727  0.2624 -0.1332  0.2309
  431MPD2    C4 6480   0.724   2.243  12.800 -0.0581 -0.3094 -0.1837
  431MPD2    C5 6481   0.784   2.352  12.867  0.3216 -0.5337  0.2531
  431MPD2     H 6482   1.001   2.124  12.659  0.4723 -1.1957  0.1579
  431MPD2    H1 6483   0.620   2.217  12.814 -0.0802  0.4861  1.2259
  431MPD2    H2 6484   0.959   2.456  12.928 -4.7101  0.9944  0.6595
  431MPD2    H3 6485   0.734   2.423  12.931 -2.1470 -0.4476 -1.7981
  431MPD2     N 6486   0.755   2.051  12.666 -0.7634  0.1935  0.6834
  431MPD2    H5 6487   0.664   2.025  12.703 -2.4825  2.1037 -2.1924
  431MPD2    N1 6488   1.141   2.305  12.792 -0.4478  0.3606 -0.3891
  431MPD2    H7 6489   1.186   2.231  12.739 -2.5793 -0.3435 -1.2014
  432TMC3    C1 6490   0.765   1.840  12.549  0.3729  0.3153 -0.2015
  432TMC3    C2 6491   0.805   1.772  12.440  0.4586  0.4558 -1.2247
  432TMC3    C3 6492   0.830   1.642  12.449  0.7467  0.4566  0.6385
  432TMC3    C4 6493   0.750   1.783  12.674  0.9157 -0.2794 -0.3279
  432TMC3    C5 6494   0.794   1.652  12.684  0.8509 -0.0288  0.2299
  432TMC3    C6 6495   0.825   1.583  12.576 -0.4731 -0.3349 -0.1113
  432TMC3     C 6496   0.822   1.974  12.567 -0.0672 -0.2831 -0.0359
  432TMC3     O 6497   0.923   1.997  12.497  0.4684 -0.5142  0.0041
  432TMC3     H 6498   0.831   1.830  12.352  0.3705  1.3009 -0.6880
  432TMC3    H1 6499   0.712   1.834  12.762 -0.4593 -0.1743 -0.9877
  432TMC3    H2 6500   0.874   1.487  12.588  1.0934  0.6786  1.5119
  432TMC3    C7 6501   0.907   1.639  12.776  0.4864  0.3543 -0.6682
  432TMC3    C8 6502   0.879   1.563  12.342  0.0005 -0.1640  0.0626
  432TMC3    O1 6503   0.981   1.541  12.770  0.1532  0.7594 -0.7185
  432TMC3    O2 6504   0.802   1.476  12.295  0.0493 -0.4534 -0.3077
  433MPD2     C 6505   0.119   0.403  11.236 -0.5501 -0.2954 -0.3825
  433MPD2    C1 6506   0.200   0.301  11.277  0.2030  0.9279  0.8059
  433MPD2    C2 6507   0.253   0.313  11.400 -0.0362  0.1193  0.6497
  433MPD2    C3 6508   0.221   0.417  11.479  0.3431 -1.1089 -0.6112
  433MPD2    C4 6509   0.132   0.511  11.441 -0.3821  0.4602  0.3474
  433MPD2    C5 6510   0.082   0.503  11.318  0.2212 -0.1009 -0.5821
  433MPD2     H 6511   0.328   0.241  11.433 -0.6203 -1.1683 -0.8277
  433MPD2    H1 6512   0.112   0.600  11.500  0.2295  0.6115  0.3243
  433MPD2    H2 6513   0.071   0.408  11.138  1.5906  0.8428 -1.3655
  433MPD2    H3 6514   0.004   0.570  11.285 -0.3915 -0.3023  0.4809
  433MPD2     N 6515   0.289   0.422  11.600 -0.6286 -0.2373  0.1404
  433MPD2    H5 6516   0.362   0.352  11.603 -0.0705  0.4504  2.7937
  433MPD2    N1 6517   0.226   0.196  11.187  0.3793  0.1019  0.1835
  433MPD2    H7 6518   0.191   0.200  11.092  0.0194 -0.8974  0.2703
  434TMC3    C1 6519   0.317   0.000  11.097 -0.4265  0.9137 -0.6653
  434TMC3    C2 6520   0.356   4.617  11.129  0.4217  0.5700  0.2174
  434TMC3    C3 6521   0.443   4.543  11.047  0.1255 -0.4588 -0.3078
  434TMC3    C4 6522   0.357   0.059  10.979  0.1787  0.9763 -0.8870
  434TMC3    C5 6523   0.458   4.732  10.902 -0.2997 -0.0045  0.0281
  434TMC3    C6 6524   0.490   4.601  10.929  0.0045 -0.6408  0.2789
  434TMC3     C 6525   0.301   0.087  11.216  0.1842  0.5422  0.2102
  434TMC3     O 6526   0.320   0.033  11.323 -0.0344  0.0991  0.1208
  434TMC3     H 6527   0.324   4.578  11.225 -1.1552  0.6267 -0.2846
  434TMC3    H1 6528   0.321   0.157  10.951  0.9428  0.7776 -2.5580
  434TMC3    H2 6529   0.570   4.564  10.867 -0.9166 -0.9241 -0.7502
  434TMC3    C7 6530   0.436   0.032  10.766 -0.4919 -0.5587  0.1210
  434TMC3    C8 6531   0.527   4.453  11.116  0.8444  0.2687 -0.2667
  434TMC3    O1 6532   0.432   0.150  10.736  0.2695  0.2480  0.9286
  434TMC3    O2 6533   0.491   4.427  11.230 -0.0230 -0.1530  0.0000
  435MPD2     C 6534   1.947   0.884  15.564 -0.2196 -0.7517 -0.7631
  435MPD2    C1 6535   1.915   0.873  15.697 -0.7168  0.0832  0.2870
  435MPD2    C2 6536   1.995   0.803  15.782  0.4230  0.7741  0.0988
  435MPD2    C3 6537   2.107   0.735  15.736 -0.6637 -0.3256 -0.4005
  435MPD2    C4 6538   2.158   0.771  15.613 -0.4469  0.1512 -0.5619
  435MPD2    C5 6539   2.073   0.840  15.525  0.2268 -0.2182 -0.2946
  435MPD2     H 6540   1.971   0.793  15.887  1.4203  0.6843  0.3257
  435MPD2    H1 6541   2.251   0.729  15.576 -0.0918  1.0108 -0.6416
  435MPD2    H2 6542   1.888   0.936  15.490 -0.1828 -0.8961 -0.8913
  435MPD2    H3 6543   2.112   0.848  15.424 -1.8775 -2.5567 -1.2665
  435MPD2     N 6544   2.169   0.665  15.841 -0.3434 -0.2100 -0.4035
  435MPD2    H5 6545   2.117   0.654  15.927 -1.8349 -0.5091 -1.3507
  435MPD2    N1 6546   1.790   0.911  15.747  0.8338 -0.0644 -0.4238
  435MPD2    H7 6547   1.757   0.855  15.824  0.5739  0.5947 -0.0612
  436TMC3    C1 6548   1.411   1.152  15.846 -0.0662 -0.6320  0.5578
  436TMC3    C2 6549   1.533   1.141  15.783  0.0669  0.2364 -0.2122
  436TMC3    C3 6550   1.587   1.017  15.770 -0.3885  0.0955 -0.1124
  436TMC3    C4 6551   1.339   1.047  15.883  0.1129  0.1064 -0.4012
  436TMC3    C5 6552   1.399   0.927  15.875 -0.2818 -0.0187  0.3385
  436TMC3    C6 6553   1.522   0.910  15.815 -0.0213  0.0971 -0.2922
  436TMC3     C 6554   1.354   1.290  15.840  0.3356  0.7618  0.3258
  436TMC3     O 6555   1.413   1.381  15.781  0.0878 -0.3626  0.4648
  436TMC3     H 6556   1.578   1.228  15.738  1.2795 -0.5468 -0.4914
  436TMC3    H1 6557   1.234   1.044  15.909 -0.1478 -1.2188 -1.5996
  436TMC3    H2 6558   1.571   0.814  15.811  3.8241  2.0888 -1.4706
  436TMC3    C7 6559   1.347   0.817  15.956 -0.5053 -0.1975 -0.8061
  436TMC3    C8 6560   1.708   1.004  15.687  0.5361  0.2049  0.3778
  436TMC3    O1 6561   1.397   0.707  15.932 -0.0599 -0.2968  0.2413
  436TMC3    O2 6562   1.739   1.097  15.615 -0.2836 -0.0309 -0.1478
  437TMC3    C1 6563   0.619   2.884  13.375 -0.8108 -0.4753 -0.1730
  437TMC3    C2 6564   0.488   2.844  13.370 -0.6158  0.2992  0.2542
  437TMC3    C3 6565   0.412   2.896  13.267 -0.3010  0.4074  0.4591
  437TMC3    C4 6566   0.674   2.982  13.297 -0.5217  0.5041 -0.1017
  437TMC3    C5 6567   0.601   3.026  13.188  0.1054  0.6028 -0.1854
  437TMC3    C6 6568   0.469   2.991  13.179  0.3748 -0.1196 -0.2353
  437TMC3     C 6569   0.703   2.820  13.469 -0.2605  0.6432  0.0382
  437TMC3     O 6570   0.818   2.860  13.481  0.9029  0.1101 -0.7606
  437TMC3     H 6571   0.452   2.748  13.407 -0.0044 -0.1008 -0.1865
  437TMC3    H1 6572   0.778   3.014  13.306 -0.6123  1.1523 -1.3838
  437TMC3    H2 6573   0.423   3.032  13.089 -1.1780 -0.3082  0.4840
  437TMC3    C7 6574   0.663   3.111  13.083  0.6393 -0.2695  0.1443
  437TMC3    C8 6575   0.282   2.835  13.232 -0.3913 -0.1801 -0.1306
  437TMC3    O1 6576   0.595   3.205  13.039  0.4501  0.1729  0.6069
  437TMC3    O2 6577   0.237   2.869  13.123 -0.1133 -0.1661 -0.3918
  438MPD2     C 6578   3.030   3.088  17.005  0.1718 -0.2498 -0.1855
  438MPD2    C1 6579   3.104   3.174  17.081  0.4732 -0.3819 -0.4046
  438MPD2    C2 6580   3.065   3.201  17.205 -0.1625 -0.0452  0.3717
  438MPD2    C3 6581   2.955   3.149  17.265 -0.4829 -0.5432  0.0386
  438MPD2    C4 6582   2.877   3.070  17.190 -0.1861 -0.1095  0.8828
  438MPD2    C5 6583   2.912   3.053  17.059 -0.9852 -0.2918 -0.1513
  438MPD2     H 6584   3.131   3.266  17.263  1.4954 -0.7236 -0.7472
  438MPD2    H1 6585   2.791   3.024  17.236 -1.5379  0.7619 -0.7570
  438MPD2    H2 6586   3.052   3.072  16.900 -0.7774  0.4389 -0.4874
  438MPD2    H3 6587   2.844   3.000  16.994 -0.8786 -2.3380  1.4143
  438MPD2     N 6588   2.916   3.162  17.404  0.3665  0.0605  0.0688
  438MPD2    H5 6589   2.835   3.111  17.438  2.1205 -3.1849 -0.6075
  438MPD2    N1 6590   3.220   3.231  17.029 -0.4901 -0.1586 -0.0330
  438MPD2    H7 6591   3.287   3.268  17.096 -0.1826  2.0928 -1.6063
  439TMC3    C1 6592   3.397   3.265  16.873  0.2076  0.8704 -0.3926
  439TMC3    C2 6593   3.421   3.311  16.749  1.1186  0.8821 -0.4295
  439TMC3    C3 6594   3.552   3.342  16.718  0.6128  0.0770 -0.0963
  439TMC3    C4 6595   3.504   3.233  16.960  0.5477 -0.5182 -0.2997
  439TMC3    C5 6596   3.633   3.270  16.928  0.1257  0.0616 -0.0106
  439TMC3    C6 6597   3.661   3.326  16.805 -0.6872 -0.1012 -1.2194
  439TMC3     C 6598   3.262   3.227  16.897  0.6123 -0.1131  0.3177
  439TMC3     O 6599   3.199   3.207  16.792 -0.4561  0.4628 -0.1795
  439TMC3     H 6600   3.342   3.315  16.675  0.7271  3.7435  0.1251
  439TMC3    H1 6601   3.485   3.178  17.052  1.5924 -1.0923 -0.4288
  439TMC3    H2 6602   3.759   3.350  16.766  0.4413 -1.0205  1.1015
  439TMC3    C7 6603   3.745   3.260  17.024  0.5081 -0.6253 -0.0215
  439TMC3    C8 6604   3.588   3.348  16.576  0.3720 -0.0985  0.3858
  439TMC3    O1 6605   3.716   3.211  17.133 -0.3282 -0.4864  0.0049
  439TMC3    O2 6606   3.698   3.298  16.554  0.0314  0.3384 -0.3089
  440MPD2     C 6607   2.145   4.298  14.662  0.7378  0.8701  0.5331
  440MPD2    C1 6608   2.101   4.288  14.791  0.1456  0.0125 -0.1161
  440MPD2    C2 6609   2.172   4.208  14.875  0.4059 -0.0968  0.0269
  440MPD2    C3 6610   2.289   4.137  14.833  0.0506 -0.3950  0.5107
  440MPD2    C4 6611   2.328   4.151  14.697 -0.4634  0.0539 -0.4989
  440MPD2    C5 6612   2.254   4.230  14.617  0.1265  0.0414 -0.0633
  440MPD2     H 6613   2.131   4.214  14.975  1.0675 -1.1254  0.3566
  440MPD2    H1 6614   2.415   4.098  14.659 -0.0878  0.7468 -0.6021
  440MPD2    H2 6615   2.083   4.358  14.596 -1.9406 -0.2233  2.0236
  440MPD2    H3 6616   2.283   4.226  14.512 -1.2763  2.3033 -0.5244
  440MPD2     N 6617   2.360   4.050  14.914 -0.1273  0.0122 -0.8674
  440MPD2    H5 6618   2.451   4.013  14.889 -0.9125 -1.0267 -2.1709
  440MPD2    N1 6619   1.986   4.356  14.836  0.3164  0.8986  0.3192
  440MPD2    H7 6620   1.968   4.350  14.936 -3.0802 -0.8465 -0.4096
  441TMC3    C1 6621   2.426   3.943  15.111  0.3433  0.6441 -0.6959
  441TMC3    C2 6622   2.519   4.037  15.143  0.4787 -0.2436  0.0600
  441TMC3    C3 6623   2.577   4.033  15.267 -0.7010  0.3469  0.4594
  441TMC3    C4 6624   2.393   3.859  15.203 -0.3358  0.3004  0.0362
  441TMC3    C5 6625   2.453   3.847  15.322 -0.2059 -0.3030 -0.5015
  441TMC3    C6 6626   2.537   3.940  15.363  0.3474  0.2517  0.5913
  441TMC3     C 6627   2.317   3.998  15.035  0.4086  0.4761  0.4492
  441TMC3     O 6628   2.203   3.996  15.079 -0.7836  0.6451 -0.0053
  441TMC3     H 6629   2.543   4.118  15.075  0.0401 -1.3462 -1.3851
  441TMC3    H1 6630   2.320   3.782  15.180  0.8128 -1.6111  2.7393
  441TMC3    H2 6631   2.588   3.941  15.458 -1.5462  1.1480  1.6161
  441TMC3    C7 6632   2.385   3.770  15.421 -0.2523 -0.3109 -0.8403
  441TMC3    C8 6633   2.598   4.163  15.323  0.3715  0.1332  0.4341
  441TMC3    O1 6634   2.267   3.797  15.422  0.0568 -0.1166  0.1445
  441TMC3    O2 6635   2.695   4.177  15.395  0.0537  0.3459  0.1406
  442MPD2     C 6636   0.135   3.599  17.329  0.2993  0.1848  0.2612
  442MPD2    C1 6637   0.138   3.693  17.222 -0.8657 -0.8175 -0.4108
  442MPD2    C2 6638   0.204   3.665  17.105 -0.4836 -0.4084 -0.1536
  442MPD2    C3 6639   0.269   3.541  17.087 -0.0952  0.3290  0.2240
  442MPD2    C4 6640   0.261   3.452  17.193 -0.3154  0.1056  0.1692
  442MPD2    C5 6641   0.187   3.474  17.305  0.4877 -0.0518 -0.9127
  442MPD2     H 6642   0.222   3.743  17.032  0.4839  0.9833  1.5495
  442MPD2    H1 6643   0.293   3.352  17.165 -1.4582 -0.3006  0.2980
  442MPD2    H2 6644   0.082   3.623  17.420  0.4700 -0.9766  0.6541
  442MPD2    H3 6645   0.178   3.389  17.371  1.7690  0.8856  0.4637
  442MPD2     N 6646   0.322   3.501  16.968 -0.0926  0.0227 -0.1210
  442MPD2    H5 6647   0.347   3.403  16.961 -2.2846 -0.4287 -1.6668
  442MPD2    N1 6648   0.081   3.822  17.236  0.0158 -0.4718  0.0809
  442MPD2    H7 6649   0.092   3.880  17.154  3.2586  0.9671  1.5402
  443TMC3    C1 6650   4.661   3.990  17.293 -0.1554 -0.2461 -0.3644
  443TMC3    C2 6651   0.000   4.079  17.217 -0.4453 -0.0631 -0.5954
  443TMC3    C3 6652   4.671   4.197  17.188 -0.3258 -0.3208 -0.6052
  443TMC3    C4 6653   4.541   4.022  17.353  0.1517 -0.7655  0.5156
  443TMC3    C5 6654   4.476   4.138  17.315  0.1918 -0.1313  0.4711
  443TMC3    C6 6655   4.545   4.223  17.234  0.1061 -0.2301  0.0455
  443TMC3     C 6656   4.714   3.854  17.322 -1.0806  0.6123 -0.1028
  443TMC3     O 6657   4.664   3.800  17.418 -0.2195 -0.1308  0.3186
  443TMC3     H 6658   0.102   4.060  17.183 -0.6539 -2.9101  0.4076
  443TMC3    H1 6659   4.495   3.952  17.422 -0.5983 -0.1364  0.6617
  443TMC3    H2 6660   4.500   4.308  17.185 -1.4235 -1.8652 -1.4136
  443TMC3    C7 6661   4.333   4.158  17.324  0.5428  0.6245  0.1122
  443TMC3    C8 6662   4.716   4.281  17.075 -0.1981 -0.5175  0.0475
  443TMC3    O1 6663   4.280   4.250  17.262  0.2767 -0.5479  0.4161
  443TMC3    O2 6664   4.637   4.298  16.989  0.1714  0.0714  0.0428
  444MPD2     C 6665   0.415   3.943  17.268  0.5216  0.3261 -0.3315
  444MPD2    C1 6666   0.413   3.841  17.354  0.1140 -0.0745  0.2081
  444MPD2    C2 6667   0.484   3.725  17.331 -0.1201 -0.0877 -0.2815
  444MPD2    C3 6668   0.553   3.715  17.212  0.3568 -0.5683 -0.6628
  444MPD2    C4 6669   0.548   3.819  17.119  0.6676  0.4307  0.4601
  444MPD2    C5 6670   0.477   3.931  17.147 -0.2074  0.5252  0.2868
  444MPD2     H 6671   0.483   3.642  17.400  0.5072  0.7115  0.7030
  444MPD2    H1 6672   0.583   3.805  17.017 -1.2255 -1.2722  0.0578
  444MPD2    H2 6673   0.352   4.029  17.289  0.0825 -0.8429  3.0915
  444MPD2    H3 6674   0.479   4.011  17.074 -0.5217  0.3455  0.0805
  444MPD2     N 6675   0.614   3.590  17.181  0.1360 -0.5640 -0.5550
  444MPD2    H5 6676   0.616   3.516  17.250  1.7779  0.4262  0.4788
  444MPD2    N1 6677   0.345   3.847  17.480 -0.0194  0.1872  0.6784
  444MPD2    H7 6678   0.345   3.765  17.540 -1.9776 -0.2291  0.1071
  445TMC3    C1 6679   0.733   3.420  17.076  0.0779  0.5977 -0.0124
  445TMC3    C2 6680   0.628   3.338  17.051  1.3293  0.0253 -0.3661
  445TMC3    C3 6681   0.650   3.216  16.994  0.3614  0.2824 -0.2401
  445TMC3    C4 6682   0.857   3.398  17.016  0.4496  0.2779  0.7629
  445TMC3    C5 6683   0.876   3.272  16.960  0.0014  0.2070  0.4988
  445TMC3    C6 6684   0.773   3.182  16.945  1.0132  0.2315  0.2806
  445TMC3     C 6685   0.699   3.561  17.072 -0.1162 -0.2060  0.4527
  445TMC3     O 6686   0.714   3.623  16.970 -0.3645 -0.2464  0.6874
  445TMC3     H 6687   0.528   3.371  17.075  1.9389  1.0514  0.7846
  445TMC3    H1 6688   0.941   3.467  17.014  0.9225 -0.2710  1.4377
  445TMC3    H2 6689   0.797   3.087  16.899 -1.8082 -0.6409  0.6151
  445TMC3    C7 6690   1.006   3.248  16.894  0.0231  0.1674 -0.6415
  445TMC3    C8 6691   0.531   3.169  16.929 -0.3158 -0.3362 -0.7094
  445TMC3    O1 6692   1.042   3.351  16.839 -0.3849 -0.0273 -0.2334
  445TMC3    O2 6693   0.438   3.242  16.908  0.0907  0.2703 -0.3463
  446MPD2     C 6694   0.173   4.259  11.651  0.9687 -0.1143 -0.6803
  446MPD2    C1 6695   0.143   4.359  11.558 -0.1097 -0.1854  0.3641
  446MPD2    C2 6696   0.238   4.456  11.538  0.8664  0.7030  0.6868
  446MPD2    C3 6697   0.374   4.433  11.580  0.6480 -0.9333 -0.4980
  446MPD2    C4 6698   0.398   4.340  11.683  0.1595 -1.4717  0.2411
  446MPD2    C5 6699   0.297   4.251  11.710  0.0533 -0.5245  0.3367
  446MPD2     H 6700   0.220   4.538  11.470  1.2092  0.7595  0.6593
  446MPD2    H1 6701   0.493   4.330  11.733  0.1881 -1.0944  0.2637
  446MPD2    H2 6702   0.095   4.189  11.677 -0.9403  2.1244 -0.3469
  446MPD2    H3 6703   0.312   4.173  11.783 -1.3106 -0.7797  0.3294
  446MPD2     N 6704   0.476   4.507  11.513  0.3598 -0.0717 -0.1556
  446MPD2    H5 6705   0.442   4.582  11.454  0.2258  0.6094  0.7877
  446MPD2    N1 6706   0.022   4.374  11.491  0.4613 -0.4207 -0.4369
  446MPD2    H7 6707   0.009   4.459  11.436  0.9402 -0.7155 -1.0104
  447TMC3    C1 6708   0.700   4.592  11.468  0.6576 -0.1721 -0.0789
  447TMC3    C2 6709   0.657   4.674  11.364  0.2634 -1.5998  0.4044
  447TMC3    C3 6710   0.742   4.690  11.260 -0.0132 -0.4183 -0.2552
  447TMC3    C4 6711   0.834   4.557  11.473 -0.1670 -0.8498  0.6436
  447TMC3    C5 6712   0.916   4.601  11.374  0.0030 -0.3587 -0.9241
  447TMC3    C6 6713   0.871   4.665  11.259 -0.4532  0.2071  0.3673
  447TMC3     C 6714   0.611   4.491  11.531 -0.0132  0.3051  0.2608
  447TMC3     O 6715   0.668   4.394  11.575 -0.5873  0.4234 -0.4051
  447TMC3     H 6716   0.550   4.680  11.344  0.0616 -2.4434  1.2316
  447TMC3    H1 6717   0.883   4.497  11.548  0.5208 -0.1485  0.7559
  447TMC3    H2 6718   0.937   4.699  11.180 -0.7340  1.0074  0.4810
  447TMC3    C7 6719   1.058   4.582  11.386  0.3459 -0.0361  0.4751
  447TMC3    C8 6720   0.696   0.065  11.173 -0.1260 -0.0623  0.4667
  447TMC3    O1 6721   1.114   4.539  11.290  0.0622 -0.5001 -0.5896
  447TMC3    O2 6722   0.755   0.082  11.066  1.1651 -0.0070 -0.6111
  448TMC3    C1 6723   2.698   0.147  17.054  0.3071  0.1261 -0.3815
  448TMC3    C2 6724   2.680   0.061  16.942  0.0370  0.1474 -0.3098
  448TMC3    C3 6725   2.748   4.676  16.947 -0.2109  0.1287  0.2350
  448TMC3    C4 6726   2.778   0.110  17.165  1.1612 -0.2487 -0.5509
  448TMC3    C5 6727   2.838   4.720  17.163  0.0906 -0.0662 -0.3584
  448TMC3    C6 6728   2.820   4.635  17.060  0.7899  0.0383 -0.5731
  448TMC3     C 6729   2.621   0.269  17.054 -0.1282 -0.4997 -0.5911
  448TMC3     O 6730   2.588   0.305  16.943  0.5065 -0.1658  0.3686
  448TMC3     H 6731   2.623   0.097  16.857 -0.6617 -0.2712 -0.0174
  448TMC3    H1 6732   2.804   0.191  17.232  0.6822 -0.6081  0.0830
  448TMC3    H2 6733   2.877   4.543  17.052  1.0082  0.2290 -1.2850
  448TMC3    C7 6734   2.951   4.686  17.260  0.4393  0.4078 -0.5160
  448TMC3    C8 6735   2.753   4.591  16.827 -0.4985 -0.1493 -0.9836
  448TMC3    O1 6736   3.019   4.589  17.231 -0.2827  0.6824 -0.1223
  448TMC3    O2 6737   2.775   4.472  16.851  0.0122  0.0097 -0.4554
  449MPD2     C 6738   4.645   3.150  13.951 -0.5803  0.3887  0.0870
  449MPD2    C1 6739   4.560   3.260  13.929 -0.2776 -0.4342 -0.4326
  449MPD2    C2 6740   4.428   3.247  13.916 -0.3660 -0.1699  0.3650
  449MPD2    C3 6741   4.374   3.119  13.926 -0.0290 -0.3327 -0.1331
  449MPD2    C4 6742   4.452   3.006  13.960 -0.0507 -0.4643 -0.5976
  449MPD2    C5 6743   4.590   3.021  13.960 -0.0930 -0.0516 -0.5444
  449MPD2     H 6744   4.364   3.334  13.901  0.2962  0.5884  1.8727
  449MPD2    H1 6745   4.407   2.908  13.974  0.4839 -0.5323  0.6221
  449MPD2    H2 6746   0.016   3.163  13.950 -0.5962  0.6163  1.2258
  449MPD2    H3 6747   4.661   2.939  13.963 -0.1956  0.0175  3.6924
  449MPD2     N 6748   4.232   3.114  13.916  0.1129  0.5573 -0.3726
  449MPD2    H5 6749   4.187   3.201  13.890 -0.3383  0.7585  1.0649
  449MPD2    N1 6750   4.599   3.395  13.926  0.3764  0.7373  0.8957
  449MPD2    H7 6751   4.523   3.461  13.918 -0.2857  0.0072  1.1187
  450TMC3    C1 6752   4.701   3.589  13.920 -0.1517  0.2843 -0.2835
  450TMC3    C2 6753   4.732   3.626  13.793 -0.2962  0.3651  0.7689
  450TMC3    C3 6754   4.646   3.713  13.725  0.0764  0.2849 -0.0450
  450TMC3    C4 6755   4.585   3.629  13.977 -1.2292 -0.3526 -0.2300
  450TMC3    C5 6756   4.492   3.712  13.914  0.2506 -0.4197 -0.6092
  450TMC3    C6 6757   4.530   3.757  13.789  0.1291 -0.5288 -0.6963
  450TMC3     C 6758   4.726   3.450  13.937 -0.7073 -0.3901 -0.9011
  450TMC3     O 6759   0.101   3.401  13.936 -0.0655 -0.0322 -0.5184
  450TMC3     H 6760   0.076   3.571  13.746  0.7030  2.4771  0.0177
  450TMC3    H1 6761   4.560   3.606  14.080  1.3746 -0.0062  0.4735
  450TMC3    H2 6762   4.482   3.832  13.727  1.0666 -1.1141 -2.1384
  450TMC3    C7 6763   4.360   3.679  13.936  0.3981 -0.3687  0.3082
  450TMC3    C8 6764   4.672   3.753  13.584 -0.1358  0.4946 -0.0105
  450TMC3    O1 6765   4.351   3.565  13.986 -0.0737  0.3643  0.0009
  450TMC3    O2 6766   4.585   3.821  13.534  0.2510  0.2888  0.1166
  451MPD2     C 6767   0.608   1.817   1.547 -0.6200 -0.6321  0.1207
  451MPD2    C1 6768   0.681   1.915   1.490  0.5275  0.0375  0.3886
  451MPD2    C2 6769   0.778   1.887   1.392 -0.0147 -0.5739 -0.0202
  451MPD2    C3 6770   0.784   1.752   1.336 -0.2074 -0.7513 -0.1605
  451MPD2    C4 6771   0.695   1.662   1.391 -0.0859 -0.9373  0.2256
  451MPD2    C5 6772   0.608   1.692   1.489 -0.4371  0.1552  0.3701
  451MPD2     H 6773   0.837   1.964   1.345  0.0937  0.0792  1.1863
  451MPD2    H1 6774   0.694   1.558   1.360  1.8832 -0.9093  0.1169
  451MPD2    H2 6775   0.541   1.838   1.630  1.2832 -0.5230  1.6334
  451MPD2    H3 6776   0.544   1.616   1.534  0.5709 -0.7779  0.2463
  451MPD2     N 6777   0.858   1.722   1.224 -0.3814  0.1157 -0.4610
  451MPD2    H5 6778   0.837   1.628   1.190 -1.6865  1.0512 -2.2369
  451MPD2    N1 6779   0.643   2.044   1.528 -0.1920 -0.4287 -0.3489
  451MPD2    H7 6780   0.563   2.058   1.588 -0.8011 -0.4171 -1.1637
  452TMC3    C1 6781   1.000   1.742   1.044 -0.0855 -0.0601  0.1940
  452TMC3    C2 6782   0.891   1.738   0.954 -0.1480  0.1498  0.0081
  452TMC3    C3 6783   0.916   1.748   0.823 -0.1699 -1.0611  0.9457
  452TMC3    C4 6784   1.124   1.766   1.000 -0.2924  0.5846  0.0850
  452TMC3    C5 6785   1.146   1.761   0.862 -0.3119 -0.1092  0.0253
  452TMC3    C6 6786   1.043   1.764   0.773  0.5910 -0.1347 -0.5499
  452TMC3     C 6787   0.959   1.796   1.178 -0.4710 -0.1872 -0.1990
  452TMC3     O 6788   1.015   1.901   1.221 -0.3910 -0.3278 -0.1102
  452TMC3     H 6789   0.787   1.748   0.984 -0.2341 -0.3321 -0.1195
  452TMC3    H1 6790   1.204   1.773   1.073 -1.6547 -2.7968  1.9178
  452TMC3    H2 6791   1.053   1.768   0.665  1.0846  0.7811 -0.4681
  452TMC3    C7 6792   1.276   1.809   0.808 -0.0189 -0.2976 -0.4705
  452TMC3    C8 6793   0.805   1.793   0.738 -0.9652 -0.1780 -0.4200
  452TMC3    O1 6794   1.280   1.848   0.687  0.0887  0.0586 -0.3009
  452TMC3    O2 6795   0.695   1.750   0.765 -0.2784 -0.8039 -0.3430
  453TMC3    C1 6796   2.272   3.640  11.771 -0.4699 -0.1249 -0.7044
  453TMC3    C2 6797   2.160   3.610  11.850  0.5181 -0.6666  0.3336
  453TMC3    C3 6798   2.119   3.476  11.851 -0.4735 -0.8747 -0.0636
  453TMC3    C4 6799   2.341   3.544  11.692  0.8105 -0.3156  0.9034
  453TMC3    C5 6800   2.296   3.413  11.703  0.1681 -0.2206  1.3266
  453TMC3    C6 6801   2.188   3.380  11.777  0.1984  0.2077 -0.6466
  453TMC3     C 6802   2.333   3.766  11.775  0.4712 -0.1903 -0.4287
  453TMC3     O 6803   2.455   3.781  11.746  0.4074 -0.1161  0.5458
  453TMC3     H 6804   2.115   3.680  11.920 -1.1021  0.7677 -2.1631
  453TMC3    H1 6805   2.432   3.570  11.640  0.3333 -0.0817  0.1825
  453TMC3    H2 6806   2.167   3.275  11.793  1.1540  0.2781  1.1752
  453TMC3    C7 6807   2.387   3.315  11.643  0.0862 -0.0021 -0.6335
  453TMC3    C8 6808   2.016   3.445  11.946  0.0181  0.4112 -0.1353
  453TMC3    O1 6809   2.475   3.352  11.570  0.8348 -0.1955  0.0253
  453TMC3    O2 6810   1.966   3.541  12.004 -0.4599 -0.5612  0.3336
  454MPD2     C 6811   1.127   4.003  15.763  0.0772  0.2284  0.0881
  454MPD2    C1 6812   1.007   4.027  15.821  0.1072  0.7339 -0.0118
  454MPD2    C2 6813   0.998   4.060  15.954 -0.2203 -0.2001  0.2358
  454MPD2    C3 6814   1.107   4.065  16.031  0.3856  0.1875  0.1674
  454MPD2    C4 6815   1.229   4.043  15.972 -0.5002  0.8813  0.2528
  454MPD2    C5 6816   1.240   4.014  15.840  0.1395  0.1579  0.1898
  454MPD2     H 6817   0.897   4.082  15.989 -1.0159 -1.0923 -1.5180
  454MPD2    H1 6818   1.319   4.046  16.031 -0.2224 -1.4887 -0.0343
  454MPD2    H2 6819   1.138   3.979  15.657  2.7019 -0.5931  0.5495
  454MPD2    H3 6820   1.335   3.987  15.795 -0.4847 -0.4423 -0.7531
  454MPD2     N 6821   1.097   4.065  16.168 -0.0712 -0.1752  0.0579
  454MPD2    H5 6822   1.179   4.033  16.220  0.5168 -1.5749 -1.7076
  454MPD2    N1 6823   0.882   4.026  15.758 -0.3205 -0.9409  0.5569
  454MPD2    H7 6824   0.808   4.073  15.809  1.2055 -0.3174  2.2025
  455TMC3    C1 6825   0.966   4.044  16.361  0.0889 -0.5937  0.3110
  455TMC3    C2 6826   0.893   4.116  16.455  0.3198  0.4138 -0.3321
  455TMC3    C3 6827   0.834   4.054  16.557 -0.2737 -0.0066 -0.0262
  455TMC3    C4 6828   0.960   3.910  16.362  0.2217  0.1036 -0.2230
  455TMC3    C5 6829   0.877   3.852  16.456 -0.1794  0.3227  0.1335
  455TMC3    C6 6830   0.810   3.921  16.553 -0.4682 -0.2292  0.0339
  455TMC3     C 6831   0.985   4.110  16.234 -0.4405  0.4361  0.1637
  455TMC3     O 6832   0.897   4.187  16.195  0.4088 -0.5824 -0.0426
  455TMC3     H 6833   0.904   4.223  16.451 -3.0549  0.6833 -1.8959
  455TMC3    H1 6834   0.994   3.847  16.281  1.9896  0.7743 -0.0069
  455TMC3    H2 6835   0.754   3.869  16.630  1.6961 -3.0306 -0.2516
  455TMC3    C7 6836   0.828   3.721  16.414  0.2607  0.2030 -0.0612
  455TMC3    C8 6837   0.799   4.122  16.683 -0.4994  1.0231 -0.7750
  455TMC3    O1 6838   0.806   3.701  16.296  0.1552 -0.5499  0.1966
  455TMC3    O2 6839   0.769   4.054  16.780  0.3427  0.0078 -0.3175
  456MPD2     C 6840   3.592   3.826  15.823 -0.1734  0.3393  0.1022
  456MPD2    C1 6841   3.629   3.804  15.951 -0.1865  0.0077  0.9247
  456MPD2    C2 6842   3.558   3.855  16.057  0.8545 -0.7106 -1.0233
  456MPD2    C3 6843   3.436   3.923  16.041  0.3252  0.3914 -0.4447
  456MPD2    C4 6844   3.408   3.966  15.913  0.0789  0.3648  0.1380
  456MPD2    C5 6845   3.491   3.922  15.809 -0.1344 -0.2638 -0.3412
  456MPD2     H 6846   3.589   3.819  16.154  0.6060 -1.8373 -1.3588
  456MPD2    H1 6847   3.322   4.023  15.879  0.7943  1.2717 -0.1660
  456MPD2    H2 6848   3.641   3.781  15.738 -0.2533  0.5656 -0.0657
  456MPD2    H3 6849   3.467   3.962  15.711 -2.9212 -0.4778  0.2505
  456MPD2     N 6850   3.350   3.948  16.147  0.3460 -0.1888 -0.2504
  456MPD2    H5 6851   3.397   3.941  16.237  2.6045  0.2098 -1.4019
  456MPD2    N1 6852   3.731   3.716  15.970  0.3567  0.5443  0.2820
  456MPD2    H7 6853   3.770   3.660  15.895 -0.7310  1.4746 -0.9899
  457TMC3    C1 6854   3.179   4.013  16.279  0.2791 -0.0246 -0.4135
  457TMC3    C2 6855   3.077   4.094  16.311  0.0267 -0.5773 -0.1154
  457TMC3    C3 6856   3.052   4.116  16.447 -0.3073 -0.1979 -0.4344
  457TMC3    C4 6857   3.249   3.937  16.372  0.0695 -0.0367 -0.2122
  457TMC3    C5 6858   3.217   3.953  16.504 -0.1640 -0.4332  0.1604
  457TMC3    C6 6859   3.130   4.053  16.541  1.3047 -0.1958  0.5992
  457TMC3     C 6860   3.237   4.020  16.148  0.2262  1.1949  0.4253
  457TMC3     O 6861   3.182   4.073  16.054  1.1798 -0.1612 -0.0179
  457TMC3     H 6862   3.030   4.147  16.229 -2.7966  1.6773  2.9166
  457TMC3    H1 6863   3.307   3.849  16.348  1.0641  0.2961  0.9844
  457TMC3    H2 6864   3.109   4.076  16.645 -1.5736 -0.1229  0.0013
  457TMC3    C7 6865   3.297   3.879  16.607  0.1666  0.3052  0.0916
  457TMC3    C8 6866   2.997   4.250  16.486 -0.3254 -0.3247 -0.2222
  457TMC3    O1 6867   3.248   3.874  16.720 -0.1731 -0.1103 -0.1367
  457TMC3    O2 6868   3.045   4.291  16.589 -0.1073  0.0113  0.7311
  458MPD2     C 6869   1.030   3.226  12.736 -0.3818  0.0655 -0.5375
  458MPD2    C1 6870   1.073   3.117  12.816 -0.0155  0.2466 -0.1797
  458MPD2    C2 6871   0.981   3.071  12.908  0.6713  0.4657 -0.2823
  458MPD2    C3 6872   0.865   3.135  12.939 -0.2282  0.5287 -0.2287
  458MPD2    C4 6873   0.825   3.239  12.857 -1.0149 -0.2731  0.4602
  458MPD2    C5 6874   0.905   3.273  12.756 -0.1427 -0.5697  0.5684
  458MPD2     H 6875   1.003   2.982  12.967  0.3223  0.9196  0.5263
  458MPD2    H1 6876   0.722   3.271  12.868 -1.2909 -0.3895 -1.6475
  458MPD2    H2 6877   1.091   3.269  12.658 -0.2598  1.2160  0.2015
  458MPD2    H3 6878   0.864   3.344  12.685 -0.9731 -2.2848 -0.6680
  458MPD2     N 6879   0.794   3.083  13.050 -0.2835  0.1881 -0.2093
  458MPD2    H5 6880   0.847   3.010  13.098 -0.7843  1.6350  2.4988
  458MPD2    N1 6881   1.199   3.064  12.799 -0.4484  0.1252  0.3858
  458MPD2    H7 6882   1.260   3.132  12.755 -1.3144 -0.8301 -2.2911
  459TMC3    C1 6883   1.392   2.949  12.881  0.2120 -0.1744 -0.2501
  459TMC3    C2 6884   1.479   3.019  12.802  0.1659  0.4450  0.2401
  459TMC3    C3 6885   1.604   3.045  12.846  0.4016  0.0861 -0.7045
  459TMC3    C4 6886   1.434   2.902  13.001  0.1952  0.6816 -0.2167
  459TMC3    C5 6887   1.563   2.935  13.050 -0.1042 -0.3398 -0.1441
  459TMC3    C6 6888   1.651   3.006  12.975  1.0768 -0.2388 -0.2016
  459TMC3     C 6889   1.248   2.942  12.846 -0.4263 -0.1661 -0.1702
  459TMC3     O 6890   1.176   2.851  12.893  0.8074  0.6005  0.5419
  459TMC3     H 6891   1.452   3.036  12.698  1.6417  0.5439 -0.1191
  459TMC3    H1 6892   1.366   2.839  13.057  0.6678 -0.0523 -0.4494
  459TMC3    H2 6893   1.747   3.045  13.009  1.1767  0.3933 -1.2011
  459TMC3    C7 6894   1.608   2.890  13.187  0.3016  0.1672 -0.3164
  459TMC3    C8 6895   1.684   3.152  12.785  0.1518 -0.3083 -0.3260
  459TMC3    O1 6896   1.728   2.884  13.215 -0.4729 -0.2247  0.0142
  459TMC3    O2 6897   1.806   3.147  12.794  0.6199 -0.0078 -0.5019
  460MPD2     C 6898   0.575   0.379  11.301  0.2613  0.2985  0.0759
  460MPD2    C1 6899   0.596   0.281  11.204 -0.0039 -0.1512  0.0353
  460MPD2    C2 6900   0.577   0.320  11.072 -0.3235 -0.7380  0.6932
  460MPD2    C3 6901   0.528   0.447  11.041 -0.3054 -0.3013  0.0133
  460MPD2    C4 6902   0.510   0.543  11.140 -0.4508  0.1826 -0.1055
  460MPD2    C5 6903   0.539   0.512  11.271 -0.4271  0.7658 -0.0559
  460MPD2     H 6904   0.609   0.261  10.987 -1.2263 -0.4149  0.1311
  460MPD2    H1 6905   0.492   0.648  11.120  1.8286  0.4378 -0.7596
  460MPD2    H2 6906   0.608   0.354  11.402  0.0504 -0.4739 -0.0464
  460MPD2    H3 6907   0.539   0.585  11.351  1.6057  1.9000 -1.0781
  460MPD2     N 6908   0.494   0.474  10.901  0.5409 -0.2355  0.7892
  460MPD2    H5 6909   0.514   0.401  10.833  2.2185  1.6861 -0.7941
  460MPD2    N1 6910   0.625   0.152  11.248  0.0388 -0.3229 -0.2355
  460MPD2    H7 6911   0.616   0.125  11.346  0.8321 -1.0067 -0.3526
  461TMC3    C1 6912   0.361   0.581  10.731  0.0746 -0.1231  0.2970
  461TMC3    C2 6913   0.387   0.484  10.647  0.1704  0.1643 -0.5853
  461TMC3    C3 6914   0.369   0.499  10.511 -0.1409 -0.2917 -0.4645
  461TMC3    C4 6915   0.309   0.696  10.682 -0.2241  0.2772  0.3003
  461TMC3    C5 6916   0.284   0.713  10.546  0.3053 -0.4836 -0.0375
  461TMC3    C6 6917   0.314   0.616  10.460 -0.3474 -0.0877  1.1109
  461TMC3     C 6918   0.414   0.585  10.865 -0.1355  0.2880  0.1370
  461TMC3     O 6919   0.397   0.694  10.923 -0.3345  0.1893  0.3364
  461TMC3     H 6920   0.436   0.393  10.681  2.8448  1.5225 -0.8222
  461TMC3    H1 6921   0.266   0.774  10.744  0.0928  0.9860 -0.3695
  461TMC3    H2 6922   0.304   0.633  10.354 -0.8453  1.7277  1.4434
  461TMC3    C7 6923   0.241   0.833  10.483  0.5636  1.2336  0.3847
  461TMC3    C8 6924   0.443   0.416  10.409  0.4698 -0.1763 -0.4486
  461TMC3    O1 6925   0.156   0.820  10.394 -0.4556 -0.2234  0.3640
  461TMC3    O2 6926   0.527   0.342  10.461  0.0901 -0.8484  0.6894
  462TMC3    C1 6927   0.878   1.850   0.254  0.5783 -0.0745 -0.2494
  462TMC3    C2 6928   0.976   1.780   0.318 -0.1912  0.2051 -0.8179
  462TMC3    C3 6929   0.939   1.673   0.398  0.8059 -0.0296  0.0348
  462TMC3    C4 6930   0.748   1.817   0.254  0.9728  0.6851 -0.2839
  462TMC3    C5 6931   0.715   1.704   0.331  0.4259  0.6149 -0.0046
  462TMC3    C6 6932   0.809   1.629   0.389  0.3380 -0.8170 -0.1977
  462TMC3     C 6933   0.939   1.946   0.168 -0.1275 -0.4345 -0.9901
  462TMC3     O 6934   1.054   1.985   0.191  0.6626 -0.1298  0.7475
  462TMC3     H 6935   1.082   1.802   0.304  0.4926 -2.0320  0.9446
  462TMC3    H1 6936   0.670   1.880   0.213 -0.4336  0.2509  1.7918
  462TMC3    H2 6937   0.785   1.560   0.469 -0.3757  0.1067  0.3759
  462TMC3    C7 6938   0.574   1.673   0.356  0.3283  0.7855  0.5217
  462TMC3    C8 6939   1.040   1.571   0.416 -0.6108 -0.3919 -0.6435
  462TMC3    O1 6940   0.553   1.583   0.437  0.0678 -0.0591 -0.3464
  462TMC3    O2 6941   1.137   1.589   0.485 -0.4559  0.0137 -0.1586
  463MPD2     C 6942   2.141   4.652   1.629  0.2669  0.4622 -0.2133
  463MPD2    C1 6943   2.061   0.018   1.584  0.2698  0.4323  0.5703
  463MPD2    C2 6944   2.113   0.138   1.573  0.0088 -0.8496  0.0360
  463MPD2    C3 6945   2.242   0.167   1.620  0.0616 -0.3725 -0.5363
  463MPD2    C4 6946   2.328   0.062   1.656  0.0979 -0.4885  0.2335
  463MPD2    C5 6947   2.269   4.675   1.669  1.0824 -0.1086  0.6858
  463MPD2     H 6948   2.053   0.215   1.525  1.2774  1.0393  1.5260
  463MPD2    H1 6949   2.432   0.072   1.683  0.3183 -2.0251 -0.0260
  463MPD2    H2 6950   2.105   4.550   1.625  1.7947 -0.0847  0.0303
  463MPD2    H3 6951   2.331   4.588   1.688  1.4175  0.1458  0.7640
  463MPD2     N 6952   2.297   0.298   1.609 -0.4658 -0.0272 -0.0622
  463MPD2    H5 6953   2.398   0.309   1.613 -0.2614 -1.4385 -1.6240
  463MPD2    N1 6954   1.921   0.021   1.552  0.5242 -0.1579 -0.3880
  463MPD2    H7 6955   1.880   0.108   1.517  2.8854  0.6466 -1.1339
  464TMC3    C1 6956   1.713   4.676   1.489  0.3478 -0.1114 -0.1368
  464TMC3    C2 6957   1.665   0.070   1.494  0.7314 -0.9471  0.1835
  464TMC3    C3 6958   1.529   0.082   1.511 -0.1066 -0.1572 -0.3165
  464TMC3    C4 6959   1.623   4.569   1.490 -0.2894  0.5722  0.1276
  464TMC3    C5 6960   1.489   4.596   1.494 -0.3374 -0.2178  0.4398
  464TMC3    C6 6961   1.434   4.725   1.502  0.5028  0.1143  0.0562
  464TMC3     C 6962   1.843   4.645   1.535  0.3969  0.1151 -0.1283
  464TMC3     O 6963   1.873   4.526   1.547 -0.1325  0.4062  0.4994
  464TMC3     H 6964   1.719   0.162   1.478 -1.8069  1.0616  3.1326
  464TMC3    H1 6965   1.670   4.473   1.505  0.5719  1.0631  0.5764
  464TMC3    H2 6966   1.331   0.021   1.502  0.6328  0.4700  2.8592
  464TMC3    C7 6967   1.395   4.483   1.479  0.1952  0.4505 -0.1007
  464TMC3    C8 6968   1.469   0.217   1.537  0.3258 -0.0628  0.8184
  464TMC3    O1 6969   1.441   4.368   1.457 -0.3308  0.2442 -0.1542
  464TMC3    O2 6970   1.354   0.246   1.514 -0.5454 -0.1501 -0.2807
  465MPD2     C 6971   2.636   4.370  17.313  0.7811  0.5292  0.3152
  465MPD2    C1 6972   2.513   4.322  17.356 -0.5839 -0.0317  0.8579
  465MPD2    C2 6973   2.448   4.227  17.279 -0.3809 -0.0458 -0.0400
  465MPD2    C3 6974   2.487   4.203  17.153 -0.2713 -0.3791  0.1697
  465MPD2    C4 6975   2.602   4.261  17.101 -0.0957  0.6832 -0.1350
  465MPD2    C5 6976   2.682   4.334  17.188 -0.4991 -0.0792 -0.2855
  465MPD2     H 6977   2.351   4.195  17.315 -0.9120 -0.6310 -1.9958
  465MPD2    H1 6978   2.653   4.236  17.009 -0.3787 -1.1230  0.1925
  465MPD2    H2 6979   2.704   4.426  17.375  0.8227 -0.7848  1.4653
  465MPD2    H3 6980   2.779   4.366  17.151 -0.3156  0.4380  0.6311
  465MPD2     N 6981   2.402   4.116  17.074  0.6409  0.2872 -0.1170
  465MPD2    H5 6982   2.312   4.087  17.112 -0.2336 -0.4847 -2.7560
  465MPD2    N1 6983   2.473   4.332  17.494 -1.1005 -0.0214 -0.5328
  465MPD2    H7 6984   2.424   4.254  17.537 -1.9591  1.5783  1.4221
  466TMC3    C1 6985   2.094   3.935  16.914 -0.8179  0.1939 -0.5683
  466TMC3    C2 6986   2.059   3.978  16.788  0.4422  0.1458 -0.2618
  466TMC3    C3 6987   2.151   4.030  16.701 -0.7323 -0.1109  0.0012
  466TMC3    C4 6988   2.222   3.957  16.957 -0.4754 -0.2389 -0.4159
  466TMC3    C5 6989   2.314   4.017  16.876  0.1111 -0.4624  0.3830
  466TMC3    C6 6990   2.285   4.044  16.740 -0.0794 -0.7609 -0.1112
  466TMC3     C 6991   1.992   3.890  17.009 -0.5373  0.6363 -0.1381
  466TMC3     O 6992   2.040   3.823  17.101 -0.3342  0.6789  1.1202
  466TMC3     H 6993   1.960   3.972  16.743  0.7712 -1.4082 -0.7655
  466TMC3    H1 6994   2.254   3.913  17.050  1.1343  1.8013 -0.0221
  466TMC3    H2 6995   2.360   4.102  16.688  0.5767 -0.9351  0.6445
  466TMC3    C7 6996   2.433   4.073  16.945 -0.2732 -0.0966 -0.5040
  466TMC3    C8 6997   2.101   4.136  16.611 -0.2136 -0.1879  0.7660
  466TMC3    O1 6998   2.515   4.127  16.870  0.0895 -0.0465  0.3219
  466TMC3    O2 6999   2.149   4.142  16.502 -0.4247  0.2706  0.0967
  467TMC3    C1 7000   3.722   2.519  14.042  0.3563  0.5752  0.0340
  467TMC3    C2 7001   3.708   2.618  13.950  0.2659 -0.0592 -0.2607
  467TMC3    C3 7002   3.630   2.595  13.843  0.1167 -0.1027 -0.0339
  467TMC3    C4 7003   3.621   2.428  14.054  0.5611  0.6850 -0.2938
  467TMC3    C5 7004   3.527   2.408  13.949 -0.4619  0.6491 -0.1336
  467TMC3    C6 7005   3.534   2.498  13.850  0.9071  0.1296 -0.1485
  467TMC3     C 7006   3.858   2.480  14.059  0.6419  0.1386  0.0152
  467TMC3     O 7007   3.938   2.576  14.068  0.8198 -0.2181 -0.0683
  467TMC3     H 7008   3.792   2.684  13.929  1.1947 -0.8505  0.9189
  467TMC3    H1 7009   3.636   2.352  14.129  0.5432  0.7749 -0.1987
  467TMC3    H2 7010   3.459   2.491  13.772 -0.1873 -2.9942  1.1733
  467TMC3    C7 7011   3.413   2.325  13.934  0.6100  0.0240 -0.1889
  467TMC3    C8 7012   3.658   2.667  13.715  0.0370  0.0930  0.7645
  467TMC3    O1 7013   3.393   2.280  13.822  0.2589  0.2361 -0.2823
  467TMC3    O2 7014   3.717   2.777  13.724 -0.6206 -0.0294  0.0845
  468MPD2     C 7015   2.193   0.356  10.922 -0.1784 -0.1543 -0.2739
  468MPD2    C1 7016   2.309   0.320  10.988  0.0688 -0.1217 -0.2960
  468MPD2    C2 7017   2.340   0.187  11.012 -0.5202  0.6017 -0.7565
  468MPD2    C3 7018   2.256   0.086  10.975  0.6658 -0.5189  0.0781
  468MPD2    C4 7019   2.141   0.123  10.914  0.1788 -0.1814 -0.4764
  468MPD2    C5 7020   2.109   0.254  10.880 -0.0460  0.2190  0.3014
  468MPD2     H 7021   2.438   0.153  11.044 -0.2060  0.0821 -2.2385
  468MPD2    H1 7022   2.073   0.042  10.887  0.1743 -0.5695  0.6878
  468MPD2    H2 7023   2.174   0.458  10.891  3.1347  0.1018 -1.4374
  468MPD2    H3 7024   2.029   0.278  10.811  1.0385 -1.7432 -1.6429
  468MPD2     N 7025   2.286   4.687  10.998 -0.6832  0.2052 -0.0004
  468MPD2    H5 7026   2.214   4.630  10.955  0.7015 -1.0299 -0.6818
  468MPD2    N1 7027   2.399   0.421  11.036 -0.3548 -0.0270 -0.1050
  468MPD2    H7 7028   2.485   0.385  11.077  0.3516  1.5954 -0.1735
  469TMC3    C1 7029   2.457   0.644  11.132  0.4367  0.3307 -0.5575
  469TMC3    C2 7030   2.569   0.598  11.188  0.6672 -0.2766 -1.0880
  469TMC3    C3 7031   2.630   0.675  11.285  0.5732  0.2388 -0.0131
  469TMC3    C4 7032   2.410   0.762  11.175  0.8503  0.1478  0.0174
  469TMC3    C5 7033   2.464   0.836  11.268 -0.5432 -0.2103 -0.3571
  469TMC3    C6 7034   2.582   0.795  11.325  0.9256 -0.3195 -0.2815
  469TMC3     C 7035   2.366   0.553  11.050  0.8003 -0.2895  0.1138
  469TMC3     O 7036   2.261   0.608  11.034 -0.0305 -0.4623 -0.5900
  469TMC3     H 7037   2.617   0.508  11.152 -0.5641 -1.4676  0.2436
  469TMC3    H1 7038   2.319   0.794  11.125  1.0705 -0.7273 -0.9360
  469TMC3    H2 7039   2.637   0.865  11.386  3.2800 -0.5048 -2.2056
  469TMC3    C7 7040   2.389   0.958  11.306 -0.7145  0.9254 -0.1669
  469TMC3    C8 7041   2.762   0.630  11.334 -0.1968  0.2757 -0.1008
  469TMC3    O1 7042   2.304   0.999  11.230  0.1174  0.2703 -0.0038
  469TMC3    O2 7043   2.825   0.552  11.264  0.1777  0.0605 -0.0966
  470TMC3    C1 7044   4.201   1.980   0.467  0.6489 -0.3264 -0.6196
  470TMC3    C2 7045   4.243   2.101   0.514 -0.4206 -0.4877 -0.8588
  470TMC3    C3 7046   4.301   2.102   0.641 -0.3965  0.1339  0.5651
  470TMC3    C4 7047   4.212   1.868   0.546 -0.2997 -0.1008 -0.1856
  470TMC3    C5 7048   4.287   1.870   0.658  0.4788 -0.1823  0.1023
  470TMC3    C6 7049   4.330   1.988   0.713  0.1327 -0.1732 -0.1868
  470TMC3     C 7050   4.131   1.973   0.337  0.4247  0.1132  0.4661
  470TMC3     O 7051   4.086   1.860   0.307  0.3764 -0.1094 -0.5267
  470TMC3     H 7052   4.220   2.193   0.461  0.0861  0.2036  0.1356
  470TMC3    H1 7053   4.186   1.771   0.504 -0.0324  0.1343 -0.9038
  470TMC3    H2 7054   4.379   1.999   0.809  1.3829 -1.8438 -0.6362
  470TMC3    C7 7055   4.280   1.753   0.748  0.5986  0.5202  0.5366
  470TMC3    C8 7056   4.333   2.232   0.705  0.8121  0.5608  0.3427
  470TMC3    O1 7057   4.209   1.658   0.715  0.2681 -0.2276 -0.3139
  470TMC3    O2 7058   4.349   2.222   0.829 -0.3482  0.2584  0.0267
  471MPD2     C 7059   0.129   3.004  16.914 -0.2851  0.0291  0.2313
  471MPD2    C1 7060   0.204   2.890  16.902 -0.5289 -0.3125 -0.6772
  471MPD2    C2 7061   0.311   2.871  16.988 -0.2916  0.2403 -0.4635
  471MPD2    C3 7062   0.327   2.962  17.098  0.4643 -0.1079  0.0131
  471MPD2    C4 7063   0.242   3.071  17.114  0.5987  0.7777 -0.8384
  471MPD2    C5 7064   0.143   3.093  17.020 -0.3069 -0.5412  0.1844
  471MPD2     H 7065   0.382   2.790  16.984  0.6034  0.8745  2.1073
  471MPD2    H1 7066   0.252   3.136  17.200  3.0947  1.3484 -1.5576
  471MPD2    H2 7067   0.049   3.016  16.842 -0.6111  0.9711  0.7465
  471MPD2    H3 7068   0.077   3.174  17.047 -1.6534 -0.7369 -2.4961
  471MPD2     N 7069   0.430   2.945  17.191 -0.1781  0.1885  0.0766
  471MPD2    H5 7070   0.423   2.990  17.281 -0.4502  0.1574  0.0711
  471MPD2    N1 7071   0.189   2.798  16.792 -0.0846  0.1847 -0.4061
  471MPD2    H7 7072   0.257   2.722  16.791 -1.2075 -0.8332  1.5239
  472TMC3    C1 7073   0.102   2.682  16.608 -0.2151 -0.1124 -0.2747
  472TMC3    C2 7074   0.046   2.688  16.483 -0.0040 -0.2065 -0.1403
  472TMC3    C3 7075   0.061   2.580  16.404 -0.3243 -0.0171 -0.6828
  472TMC3    C4 7076   0.172   2.571  16.650 -0.6027 -0.3000 -0.2274
  472TMC3    C5 7077   0.174   2.459  16.572  0.3672 -0.1357 -0.2308
  472TMC3    C6 7078   0.133   2.467  16.440  0.3294  0.1786  0.0739
  472TMC3     C 7079   0.100   2.803  16.689  0.2234 -0.3272  0.8230
  472TMC3     O 7080   0.017   2.884  16.651 -0.0406  1.0244 -0.2869
  472TMC3     H 7081   4.722   2.774  16.457 -1.1078 -1.4513 -1.6969
  472TMC3    H1 7082   0.186   2.555  16.757  0.4452  0.7639 -0.2002
  472TMC3    H2 7083   0.132   2.381  16.373  1.4665  1.4741 -1.6392
  472TMC3    C7 7084   0.138   2.334  16.636 -0.8209 -0.4375  0.5384
  472TMC3    C8 7085   4.668   2.528  16.357  0.2202 -0.6778  0.4157
  472TMC3    O1 7086   0.202   2.288  16.727 -0.3135 -0.7242 -0.3112
  472TMC3    O2 7087   4.642   2.416  16.389 -0.0501  0.1268 -0.8184
  473MPD2     C 7088   0.220   4.638  14.022 -0.4315  0.6455  0.1327
  473MPD2    C1 7089   0.349   4.670  13.983  0.2167 -0.6279  0.3614
  473MPD2    C2 7090   0.426   0.007  14.061  0.6605 -0.5849 -0.7073
  473MPD2    C3 7091   0.384   0.056  14.185 -0.9454 -0.1399 -0.6650
  473MPD2    C4 7092   0.257   0.017  14.227  0.4181  0.3392  0.1620
  473MPD2    C5 7093   0.174   4.676  14.147  0.0463 -0.3120  0.3537
  473MPD2     H 7094   0.525   0.036  14.027  0.3106 -0.5956 -1.7152
  473MPD2    H1 7095   0.213   0.047  14.321  1.6077 -2.6720  1.6769
  473MPD2    H2 7096   0.153   4.572  13.968  1.6973 -2.3523  1.1549
  473MPD2    H3 7097   0.080   4.642  14.190 -0.5203  1.0041  0.1483
  473MPD2     N 7098   0.456   0.146  14.260  0.4765  0.4669 -0.7177
  473MPD2    H5 7099   0.406   0.191  14.336  1.5465 -0.7796  0.7184
  473MPD2    N1 7100   0.384   4.663  13.848  0.1317  0.6730 -0.2090
  473MPD2    H7 7101   0.476   4.698  13.821  1.2329 -2.9938 -1.3170
  474TMC3    C1 7102   0.599   0.307  14.330  0.0712  1.0004 -0.1976
  474TMC3    C2 7103   0.498   0.387  14.377 -0.5009 -0.2442 -0.4928
  474TMC3    C3 7104   0.522   0.476  14.488  0.2034  0.2054 -0.4699
  474TMC3    C4 7105   0.727   0.330  14.374 -0.0136  1.1384 -0.0325
  474TMC3    C5 7106   0.752   0.430  14.475  0.7765 -0.1037 -0.3080
  474TMC3    C6 7107   0.648   0.490  14.541 -0.5898  0.6419  0.0409
  474TMC3     C 7108   0.577   0.196  14.238  0.3519  0.6814  0.1779
  474TMC3     O 7109   0.674   0.152  14.171  0.2017 -0.3168  0.0428
  474TMC3     H 7110   0.399   0.380  14.332 -0.9352  3.1105 -0.0787
  474TMC3    H1 7111   0.812   0.274  14.336 -1.2406 -0.9637  0.3009
  474TMC3    H2 7112   0.656   0.560  14.624 -0.8454  1.1116 -0.3342
  474TMC3    C7 7113   0.889   0.453  14.514 -0.4564 -0.4303  0.3069
  474TMC3    C8 7114   0.409   0.558  14.540 -0.3683 -0.3144 -0.4100
  474TMC3    O1 7115   0.972   0.406  14.438  0.0193 -0.2373  0.2604
  474TMC3    O2 7116   0.298   0.502  14.542 -0.7871 -0.0213  0.3962
  475MPD2     C 7117   3.899   2.403  10.222  0.2959  0.1405 -0.1128
  475MPD2    C1 7118   3.882   2.508  10.309 -0.1635  0.2889 -0.1497
  475MPD2    C2 7119   3.768   2.526  10.381 -0.0807  0.0096 -0.0866
  475MPD2    C3 7120   3.666   2.429  10.367 -0.4630 -0.3506  0.1482
  475MPD2    C4 7121   3.677   2.330  10.272 -0.7280  0.4120  0.2201
  475MPD2    C5 7122   3.795   2.311  10.206  0.3794 -0.6398  0.3389
  475MPD2     H 7123   3.758   2.606  10.454 -0.0094  1.0153 -1.1919
  475MPD2    H1 7124   3.592   2.267  10.246 -1.1172  0.7825  0.6126
  475MPD2    H2 7125   3.984   2.389  10.157 -0.5300  1.4210 -1.4691
  475MPD2    H3 7126   3.804   2.229  10.135 -0.2509  0.5395 -1.1064
  475MPD2     N 7127   3.548   2.445  10.442  0.2421 -0.1172  0.2341
  475MPD2    H5 7128   3.548   2.511  10.519  0.8355 -1.7940  1.6775
  475MPD2    N1 7129   3.980   2.606  10.332 -0.3771  0.0976  0.0198
  475MPD2    H7 7130   3.968   2.673  10.407 -0.3706  0.9269 -0.7158
  476TMC3    C1 7131   4.166   2.741  10.289 -0.1188  0.2507 -0.5514
  476TMC3    C2 7132   4.122   2.836  10.202 -0.0134 -0.0508 -0.2061
  476TMC3    C3 7133   4.081   2.955  10.254  0.2746  0.3890 -0.2047
  476TMC3    C4 7134   4.169   2.766  10.422  0.6135 -0.0449  0.0738
  476TMC3    C5 7135   4.124   2.886  10.474  0.8836  0.5944 -0.4381
  476TMC3    C6 7136   4.091   2.981  10.388 -0.1247  0.0437  0.5360
  476TMC3     C 7137   4.092   2.623  10.256 -0.2541  0.1954 -0.3735
  476TMC3     O 7138   4.120   2.589  10.142 -0.2041 -0.3667  0.3491
  476TMC3     H 7139   4.101   2.801  10.102  0.5444  2.0025 -1.0287
  476TMC3    H1 7140   4.171   2.684  10.492  2.2011 -1.9513 -2.2295
  476TMC3    H2 7141   4.054   3.077  10.423 -2.9440 -1.1730  0.8903
  476TMC3    C7 7142   4.030   2.861  10.586 -0.2356 -0.8538  0.0923
  476TMC3    C8 7143   3.948   3.001  10.214  0.1134 -0.2480 -0.8212
  476TMC3    O1 7144   3.959   2.764  10.579 -0.1692  0.0541  0.3304
  476TMC3    O2 7145   3.916   3.115  10.245 -0.6878 -0.6242 -0.1185
  477MPD2     C 7146   1.558   4.443  11.778 -0.3493  0.6473 -0.8971
  477MPD2    C1 7147   1.448   4.460  11.859 -0.0813 -0.5038 -0.7105
  477MPD2    C2 7148   1.470   4.449  11.997  0.1565 -1.0624  0.9703
  477MPD2    C3 7149   1.592   4.424  12.051 -0.6263  0.1201 -0.4700
  477MPD2    C4 7150   1.703   4.418  11.967 -0.4378 -0.0955  0.6148
  477MPD2    C5 7151   1.682   4.421  11.831  0.3901 -0.7425  0.6465
  477MPD2     H 7152   1.381   4.452  12.059  0.4391 -2.5758  1.4400
  477MPD2    H1 7153   1.803   4.401  12.006 -0.4923 -0.8745  0.4186
  477MPD2    H2 7154   1.542   4.439  11.671  0.0034  0.8018 -0.9555
  477MPD2    H3 7155   1.770   4.400  11.771  1.0375 -1.2138  1.7615
  477MPD2     N 7156   1.602   4.407  12.191  0.6656  0.1634 -0.1907
  477MPD2    H5 7157   1.519   4.418  12.248  1.5739  0.6981  1.0398
  477MPD2    N1 7158   1.318   4.465  11.801  0.0143  0.2777  0.0190
  477MPD2    H7 7159   1.314   4.472  11.700 -0.9978 -1.2725 -0.0581
  478TMC3    C1 7160   1.091   4.388  11.777  1.0054  0.3091 -0.4571
  478TMC3    C2 7161   0.973   4.391  11.846  0.3135 -0.9196 -0.3710
  478TMC3    C3 7162   0.877   4.303  11.808  0.1490  0.2418  0.2035
  478TMC3    C4 7163   1.117   4.291  11.687  0.7078 -0.5758 -0.4016
  478TMC3    C5 7164   1.011   4.218  11.638  0.3149 -0.2562 -0.1571
  478TMC3    C6 7165   0.892   4.221  11.703  0.0862 -0.0228 -1.0688
  478TMC3     C 7166   1.204   4.424  11.864 -0.5323 -0.6984  0.4497
  478TMC3     O 7167   1.171   4.413  11.982 -0.3361  0.2171  0.3410
  478TMC3     H 7168   0.959   4.461  11.927  0.1757 -0.6155 -0.6606
  478TMC3    H1 7169   1.213   4.285  11.635  0.3327 -0.7556 -1.0725
  478TMC3    H2 7170   0.803   4.185  11.652  1.9503 -0.5620 -3.9051
  478TMC3    C7 7171   1.016   4.190  11.492  0.0384  0.2053  0.1928
  478TMC3    C8 7172   0.748   4.322  11.848 -0.0486  0.7759  0.0678
  478TMC3    O1 7173   1.125   4.159  11.448  0.1865 -0.0461 -0.5795
  478TMC3    O2 7174   0.676   4.223  11.864  0.4450 -0.2615 -0.2460
  479MPD2     C 7175   4.716   2.238  15.446 -0.3107  0.3652  0.4290
  479MPD2    C1 7176   4.655   2.184  15.560  0.1963 -0.0526 -0.9359
  479MPD2    C2 7177   4.679   2.252  15.676  0.1010  0.5028  0.3120
  479MPD2    C3 7178   0.013   2.369  15.686  0.1417  0.1510 -0.4090
  479MPD2    C4 7179   0.084   2.412  15.576 -0.2333  0.2682 -0.5516
  479MPD2    C5 7180   0.073   2.339  15.460 -0.5134 -0.7697 -1.5766
  479MPD2     H 7181   4.641   2.214  15.770  0.0393 -1.6736 -0.6020
  479MPD2    H1 7182   0.158   2.492  15.582 -1.1647  0.9228  2.2459
  479MPD2    H2 7183   4.692   2.202  15.347 -0.3202  0.6049  0.3438
  479MPD2    H3 7184   0.136   2.377  15.381  1.5384 -0.8627  0.0013
  479MPD2     N 7185   0.028   2.448  15.815 -0.6183  0.1816 -0.4064
  479MPD2    H5 7186   0.092   2.527  15.810  0.2387 -0.4894 -0.1931
  479MPD2    N1 7187   4.572   2.066  15.552  0.0450  0.5052 -0.4272
  479MPD2    H7 7188   4.556   2.033  15.457  0.2182  0.1785 -0.3441
  480TMC3    C1 7189   4.395   2.276  16.071  0.1555  0.2145  0.7329
  480TMC3    C2 7190   4.295   2.330  15.995  0.1697 -0.3752 -0.2910
  480TMC3    C3 7191   4.337   2.408  15.888  0.8886 -0.2166 -0.0141
  480TMC3    C4 7192   4.530   2.301  16.046  0.2624 -0.2615 -0.4392
  480TMC3    C5 7193   4.565   2.380  15.942 -0.1555  0.5140  0.7761
  480TMC3    C6 7194   4.471   2.437  15.853 -0.4397  0.0371 -0.5558
  480TMC3     C 7195   4.375   2.160  16.155 -0.0137  0.5301  0.6979
  480TMC3     O 7196   4.465   2.077  16.160 -0.1248  0.1143 -0.0259
  480TMC3     H 7197   4.199   2.281  15.993  0.7127 -1.4287 -0.6557
  480TMC3    H1 7198   4.611   2.270  16.111 -0.6677 -1.5104  0.1181
  480TMC3    H2 7199   4.497   2.488  15.762  2.5625  1.8687  1.3303
  480TMC3    C7 7200   4.704   2.417  15.936 -0.3264 -0.9463 -0.1436
  480TMC3    C8 7201   4.248   2.401  15.771 -0.5102 -0.3287  0.0983
  480TMC3    O1 7202   0.025   2.412  16.044  0.3966  0.1259  0.3998
  480TMC3    O2 7203   4.132   2.369  15.794  0.1361 -0.0878 -0.8823
  481MPD2     C 7204   2.063   2.144  14.553  0.6896  0.1024 -0.1076
  481MPD2    C1 7205   1.953   2.056  14.544  0.3710  0.3544 -0.8902
  481MPD2    C2 7206   1.913   1.987  14.658 -0.1498  0.8251 -0.4144
  481MPD2    C3 7207   1.985   1.992  14.780  0.3668  0.4339 -0.4093
  481MPD2    C4 7208   2.100   2.073  14.783  0.3569  0.6879 -0.4898
  481MPD2    C5 7209   2.137   2.145  14.671 -0.3059 -0.5440  0.5827
  481MPD2     H 7210   1.830   1.917  14.652 -0.1917  0.6891  1.5664
  481MPD2    H1 7211   2.157   2.082  14.875 -0.1243  2.4500 -0.3709
  481MPD2    H2 7212   2.086   2.215  14.475 -0.5491  0.2570 -0.3238
  481MPD2    H3 7213   2.220   2.215  14.683  0.6044 -1.3020 -1.2472
  481MPD2     N 7214   1.953   1.927  14.900  0.1985 -0.7187 -0.1063
  481MPD2    H5 7215   2.012   1.958  14.976 -0.0609 -2.4489  0.7977
  481MPD2    N1 7216   1.882   2.048  14.422  0.3246 -0.5540  0.5916
  481MPD2    H7 7217   1.899   2.130  14.364 -0.7086 -0.6489  0.1585
  482TMC3    C1 7218   1.698   1.990  14.281  0.1031  0.8651 -0.1641
  482TMC3    C2 7219   1.606   1.899  14.240 -0.1462 -0.5944  0.0401
  482TMC3    C3 7220   1.541   1.924  14.127  0.0182  0.0347  0.5727
  482TMC3    C4 7221   1.727   2.097  14.200  0.3815  0.7491  0.2072
  482TMC3    C5 7222   1.663   2.118  14.078  0.0466  0.4470 -0.4756
  482TMC3    C6 7223   1.572   2.026  14.036 -0.2289 -0.3238 -0.2395
  482TMC3     C 7224   1.771   1.965  14.404 -0.2972 -0.0657  0.2478
  482TMC3     O 7225   1.744   1.863  14.465  0.3858 -0.5636 -0.3496
  482TMC3     H 7226   1.586   1.814  14.304 -1.7029 -0.6440 -0.4930
  482TMC3    H1 7227   1.801   2.169  14.233  1.5379  0.5455 -1.9350
  482TMC3    H2 7228   1.530   2.039  13.937  0.4898 -0.3005 -0.5414
  482TMC3    C7 7229   1.710   2.222  13.987  0.6599 -1.1960 -0.0981
  482TMC3    C8 7230   1.442   1.832  14.091  0.4979 -0.0991 -0.4374
  482TMC3    O1 7231   1.823   2.262  14.019  0.1548  0.5614 -0.0449
  482TMC3    O2 7232   1.407   1.750  14.175 -0.2761 -0.2504  0.1884
  483TMC3    C1 7233   4.402   0.605   1.467 -0.2566 -0.2672  0.1239
  483TMC3    C2 7234   4.449   0.706   1.385  0.1339  0.6334  0.1751
  483TMC3    C3 7235   4.574   0.685   1.333  0.0143  0.5862  0.4642
  483TMC3    C4 7236   4.469   0.491   1.488  0.0516 -0.3748 -0.2425
  483TMC3    C5 7237   4.584   0.468   1.424 -0.4528  0.0565 -0.3399
  483TMC3    C6 7238   4.635   0.565   1.343 -0.2333 -0.3187  0.2325
  483TMC3     C 7239   4.280   0.629   1.553 -0.2027  0.1561 -0.0108
  483TMC3     O 7240   4.236   0.533   1.619 -0.2015  0.3147  0.1585
  483TMC3     H 7241   4.397   0.798   1.359 -0.4363  0.3026  0.1585
  483TMC3    H1 7242   4.433   0.411   1.551 -0.6056 -0.9238 -1.3192
  483TMC3    H2 7243   4.726   0.538   1.291 -0.4516  4.2286 -2.5740
  483TMC3    C7 7244   4.625   0.328   1.403 -0.1593 -0.0602  0.0746
  483TMC3    C8 7245   4.624   0.772   1.224  0.0270  0.7357 -0.4129
  483TMC3    O1 7246   4.613   0.252   1.500  0.0373 -0.0094  0.0813
  483TMC3    O2 7247   4.542   0.831   1.156  0.2553 -0.5167 -0.0899
  484MPD2     C 7248   1.552   3.439  12.588 -0.5262  0.2293 -1.0561
  484MPD2    C1 7249   1.645   3.353  12.641  0.3098  1.1792 -0.2769
  484MPD2    C2 7250   1.780   3.377  12.600  0.4652 -0.0274  0.5982
  484MPD2    C3 7251   1.812   3.471  12.504 -0.1152  0.4758 -0.7070
  484MPD2    C4 7252   1.715   3.545  12.445 -0.4048  0.7794 -0.5877
  484MPD2    C5 7253   1.588   3.528  12.493 -0.4245  0.5185  0.4051
  484MPD2     H 7254   1.858   3.312  12.637 -0.3167 -1.3508 -0.0868
  484MPD2    H1 7255   1.743   3.628  12.381 -1.0980  0.8066 -0.8576
  484MPD2    H2 7256   1.446   3.423  12.602  0.0820 -1.9623  1.1792
  484MPD2    H3 7257   1.513   3.590  12.445 -0.5713 -0.4251 -0.5910
  484MPD2     N 7258   1.944   3.493  12.457 -0.5606 -0.4598 -0.6106
  484MPD2    H5 7259   1.951   3.547  12.371  2.2031  3.8918  2.3507
  484MPD2    N1 7260   1.603   3.240  12.718 -0.5359  0.2819  0.4009
  484MPD2    H7 7261   1.503   3.231  12.730 -0.6214 -1.6751 -1.7897
  485TMC3    C1 7262   2.181   3.473  12.430  0.3568  0.0118 -0.1574
  485TMC3    C2 7263   2.297   3.473  12.504 -0.0786  0.1683  0.6978
  485TMC3    C3 7264   2.413   3.442  12.442 -0.3306 -0.2110 -0.2738
  485TMC3    C4 7265   2.178   3.438  12.295 -0.1117 -0.3829  0.0234
  485TMC3    C5 7266   2.298   3.401  12.238 -0.0997  0.5223 -0.4846
  485TMC3    C6 7267   2.421   3.422  12.309 -0.4721  0.0354  0.0878
  485TMC3     C 7268   2.061   3.434  12.507  0.6791  0.9420  0.6121
  485TMC3     O 7269   2.082   3.366  12.608 -0.4126 -0.5511  0.3569
  485TMC3     H 7270   2.285   3.481  12.611  0.0283  0.4956  0.6853
  485TMC3    H1 7271   2.090   3.419  12.236  1.3069  0.7047 -2.4538
  485TMC3    H2 7272   2.512   3.386  12.263 -1.1096  0.1265 -1.2606
  485TMC3    C7 7273   2.296   3.260  12.213 -0.3462 -1.2368 -0.0496
  485TMC3    C8 7274   2.506   3.358  12.516 -0.6121 -0.3582 -0.1450
  485TMC3    O1 7275   2.396   3.209  12.165 -0.1636  0.3440  0.9169
  485TMC3    O2 7276   2.611   3.326  12.468  0.4786  0.1626  0.0207
  486MPD2     C 7277   4.153   2.472  13.275  0.3428 -0.2345 -0.4285
  486MPD2    C1 7278   4.188   2.433  13.143 -0.2185  0.7937 -0.2484
  486MPD2    C2 7279   4.184   2.523  13.039 -0.2810  0.5084  0.5135
  486MPD2    C3 7280   4.149   2.653  13.066 -0.0126  0.3378  0.2096
  486MPD2    C4 7281   4.116   2.695  13.194 -0.2102 -0.5975 -0.8736
  486MPD2    C5 7282   4.118   2.603  13.293 -0.1036 -0.5183 -0.1693
  486MPD2     H 7283   4.188   2.495  12.935  0.6790  1.2004  0.3672
  486MPD2    H1 7284   4.106   2.797  13.227  0.3035 -1.0500  0.6491
  486MPD2    H2 7285   4.154   2.403  13.359 -0.4954  0.7583  0.4032
  486MPD2    H3 7286   4.091   2.633  13.393  2.9619 -0.3346  0.6087
  486MPD2     N 7287   4.154   2.745  12.955 -0.3101 -0.3681  0.4585
  486MPD2    H5 7288   4.154   2.713  12.859 -0.2913 -0.0975  0.3690
  486MPD2    N1 7289   4.224   2.296  13.134  0.1563 -0.1965 -0.3884
  486MPD2    H7 7290   4.218   2.236  13.216 -0.1176  0.5785  0.1656
  487TMC3    C1 7291   4.286   2.095  13.035 -0.0029 -0.0208  0.4077
  487TMC3    C2 7292   4.259   2.001  12.944 -0.7161  0.3824 -0.0975
  487TMC3    C3 7293   4.310   1.878  12.957 -0.1484  0.0256  0.3640
  487TMC3    C4 7294   4.363   2.068  13.144 -0.6718 -0.4864  0.3949
  487TMC3    C5 7295   4.410   1.938  13.160  0.2180  0.1656  0.4993
  487TMC3    C6 7296   4.400   1.845  13.060 -0.1053  0.2256 -1.0629
  487TMC3     C 7297   4.239   2.228  13.015 -0.2343  0.2516 -0.0957
  487TMC3     O 7298   4.213   2.263  12.899  0.2018  0.5337 -0.6329
  487TMC3     H 7299   4.183   2.008  12.867 -0.8075  0.6262  0.0169
  487TMC3    H1 7300   4.384   2.136  13.225 -0.1711 -1.4007  1.0280
  487TMC3    H2 7301   4.429   1.744  13.086 -1.8901  0.6402  2.5769
  487TMC3    C7 7302   4.393   1.876  13.296 -0.7830 -0.4526  0.4615
  487TMC3    C8 7303   4.226   1.764  12.941 -0.6709  0.2481 -0.7587
  487TMC3    O1 7304   4.377   1.757  13.306 -1.2248  0.2828 -0.2007
  487TMC3    O2 7305   4.287   1.655  12.935  0.1133 -0.5876 -0.1417
  488MPD2     C 7306   4.236   3.938  16.202  0.4401 -0.2052 -0.8520
  488MPD2    C1 7307   4.284   4.031  16.297 -0.3608 -0.5295  0.2898
  488MPD2    C2 7308   4.206   4.056  16.410  0.4278  0.0797 -0.7219
  488MPD2    C3 7309   4.073   4.008  16.423 -0.4734 -0.2829 -0.6945
  488MPD2    C4 7310   4.029   3.917  16.323 -0.6541  0.0152 -0.1312
  488MPD2    C5 7311   4.114   3.884  16.217  0.6660  0.0059  0.3783
  488MPD2     H 7312   4.252   4.107  16.493 -1.9214 -0.2014  0.7519
  488MPD2    H1 7313   3.935   3.869  16.347 -0.3293  1.1546  3.4248
  488MPD2    H2 7314   4.302   3.901  16.125  1.0647  1.5323 -1.1459
  488MPD2    H3 7315   4.086   3.805  16.148 -3.1047  0.9027  0.8953
  488MPD2     N 7316   4.003   4.045  16.542  0.3953 -0.4600 -0.3130
  488MPD2    H5 7317   4.057   4.101  16.608  0.8379 -1.0792 -0.1571
  488MPD2    N1 7318   4.420   4.071  16.313  0.2386  0.7010  0.5568
  488MPD2    H7 7319   4.448   4.135  16.386  1.5634 -0.5542  1.1398
  489TMC3    C1 7320   3.812   4.050  16.688  0.5101 -0.2454 -0.5993
  489TMC3    C2 7321   3.887   4.006  16.794  0.3239 -0.5599 -0.4116
  489TMC3    C3 7322   3.827   3.993  16.918  0.2558  0.2543 -0.2935
  489TMC3    C4 7323   3.675   4.062  16.692  0.3977 -0.7720  0.3464
  489TMC3    C5 7324   3.618   4.048  16.817  0.1552 -0.3380  0.0895
  489TMC3    C6 7325   3.693   4.018  16.926  0.3256 -0.0157 -0.4905
  489TMC3     C 7326   3.864   4.030  16.553  0.0223  0.1472 -0.0858
  489TMC3     O 7327   3.783   4.005  16.464  0.5536 -0.3315  0.9367
  489TMC3     H 7328   3.994   3.988  16.783  0.6174 -0.3937  2.1288
  489TMC3    H1 7329   3.619   4.091  16.604  1.5645  3.1774  0.9211
  489TMC3    H2 7330   3.647   3.984  17.019  1.2766 -0.1315 -0.0648
  489TMC3    C7 7331   3.499   4.129  16.837 -0.3374  0.4104  0.1408
  489TMC3    C8 7332   3.920   4.021  17.027 -0.4288 -0.5095 -0.3309
  489TMC3    O1 7333   3.482   4.211  16.745  0.0755 -0.4876  0.5708
  489TMC3    O2 7334   4.035   4.054  17.004  1.2120  0.6634  0.1894
  490MPD2     C 7335   0.600   3.312   0.008  0.8532 -0.5476  0.3199
  490MPD2    C1 7336   0.522   3.308   0.124  0.3100 -0.6660 -0.1787
  490MPD2    C2 7337   0.585   3.332   0.245 -0.3576 -0.4460 -0.6186
  490MPD2    C3 7338   0.724   3.357   0.245 -1.0000  0.2165  0.0786
  490MPD2    C4 7339   0.796   3.340   0.133  0.1953  0.1718  0.1703
  490MPD2    C5 7340   0.739   3.318   0.015 -0.3312  0.7415 -0.1578
  490MPD2     H 7341   0.517   3.344   0.328  2.0292 -0.3009  1.3032
  490MPD2    H1 7342   0.904   3.341   0.138  0.2646  3.3380 -2.4238
  490MPD2    H2 7343   0.555   3.295  17.657 -1.1295 -1.6296  1.4298
  490MPD2    H3 7344   0.802   3.314  17.674 -0.0960  0.9838  0.0006
  490MPD2     N 7345   0.798   3.416   0.352  0.0362  0.3101 -0.2746
  490MPD2    H5 7346   0.895   3.444   0.337  0.1402 -0.5437 -1.1812
  490MPD2    N1 7347   0.381   3.287   0.117  0.2424 -0.2876 -0.4850
  490MPD2    H7 7348   0.334   3.303   0.205  1.9929 -2.4148  0.8319
  491TMC3    C1 7349   0.159   3.256   0.025  0.2256  0.3059  0.0421
  491TMC3    C2 7350   0.130   3.165   0.125  0.0009  0.1106 -0.1191
  491TMC3    C3 7351   0.022   3.081   0.117 -0.0502  0.5019 -0.2185
  491TMC3    C4 7352   0.079   3.262  17.655  0.3698  0.2534 -0.5515
  491TMC3    C5 7353   4.722   3.164  17.646  0.0242  0.1263  0.5286
  491TMC3    C6 7354   4.685   3.088   0.003  0.3556  0.0743  0.2082
  491TMC3     C 7355   0.304   3.276  17.747 -0.4213  0.2138  0.1973
  491TMC3     O 7356   0.349   3.284  17.633  0.1841 -0.2119  0.3189
  491TMC3     H 7357   0.183   3.168   0.220 -3.0862 -0.5971  1.6205
  491TMC3    H1 7358   0.120   3.317  17.570 -1.8407  2.1733 -0.3579
  491TMC3    H2 7359   4.605   3.017  17.733 -0.4409  0.9290  0.3826
  491TMC3    C7 7360   4.654   3.139  17.518  0.2711 -0.5747 -0.3437
  491TMC3    C8 7361   4.692   3.031   0.235 -0.3095  0.1066 -0.2283
  491TMC3    O1 7362   4.591   3.037  17.503 -0.2197  0.1273 -0.3959
  491TMC3    O2 7363   4.580   2.982   0.218  0.3674 -0.1492 -0.4717
  492MPD2     C 7364   1.230   3.277  11.025 -0.1266 -0.5595  0.6867
  492MPD2    C1 7365   1.126   3.193  11.011 -0.0698 -0.9200  0.1040
  492MPD2    C2 7366   1.055   3.158  11.120 -0.3917  0.0410  0.1418
  492MPD2    C3 7367   1.079   3.194  11.248 -0.2538  0.5863  0.2633
  492MPD2    C4 7368   1.188   3.282  11.266 -0.9448 -0.0336  0.1474
  492MPD2    C5 7369   1.257   3.317  11.152  0.3953  0.4118  0.6362
  492MPD2     H 7370   0.975   3.086  11.106 -0.4151 -0.0182  0.5987
  492MPD2    H1 7371   1.230   3.305  11.363  2.9195 -1.1051 -1.2664
  492MPD2    H2 7372   1.300   3.298  10.945  0.7301  1.0456  1.8588
  492MPD2    H3 7373   1.347   3.376  11.160  1.7353 -1.6548  1.0405
  492MPD2     N 7374   1.016   3.147  11.362  0.1809 -0.6502 -0.5239
  492MPD2    H5 7375   1.058   3.166  11.453  0.2020 -0.6534 -0.5330
  492MPD2    N1 7376   1.088   3.147  10.882 -0.5850 -0.0020 -0.4469
  492MPD2    H7 7377   1.158   3.160  10.809  2.0417 -0.5565  1.9530
  493TMC3    C1 7378   0.987   3.037  10.705 -0.0024  1.0085  0.6777
  493TMC3    C2 7379   0.967   3.150  10.625 -0.2054 -0.4457  0.6591
  493TMC3    C3 7380   0.895   3.130  10.513  0.0717 -0.5522 -0.0205
  493TMC3    C4 7381   0.926   2.922  10.680 -0.4007  0.4638  0.8135
  493TMC3    C5 7382   0.847   2.904  10.566 -0.0163 -0.0154  0.1504
  493TMC3    C6 7383   0.835   3.011  10.479 -0.5356 -0.4982 -0.8819
  493TMC3     C 7384   0.987   3.060  10.850 -0.0042 -0.2300  0.0827
  493TMC3     O 7385   0.904   3.004  10.919  0.5520 -0.1712  0.4413
  493TMC3     H 7386   1.032   3.236  10.643  2.5599 -2.8524  2.0949
  493TMC3    H1 7387   0.970   2.843  10.739 -1.8788  0.1818  1.5543
  493TMC3    H2 7388   0.779   3.001  10.386  1.0097 -2.2429 -1.6223
  493TMC3    C7 7389   0.767   2.782  10.565 -0.1198  0.0405 -0.4325
  493TMC3    C8 7390   0.901   3.231  10.405 -0.6757  0.6389  0.3085
  493TMC3    O1 7391   0.707   2.757  10.461 -0.4341  0.6815  0.0627
  493TMC3    O2 7392   0.818   3.216  10.321 -0.7101  0.2436 -0.1420
  494TMC3    C1 7393   0.986   0.394   0.762  0.1337  0.1862  0.0145
  494TMC3    C2 7394   0.977   0.269   0.819  0.0294  0.8794 -0.1102
  494TMC3    C3 7395   0.973   0.174   0.726  0.7969 -0.1610 -0.5780
  494TMC3    C4 7396   0.989   0.427   0.629 -0.1941 -0.8083 -0.9310
  494TMC3    C5 7397   0.986   0.321   0.547 -0.7554 -0.5076  0.1904
  494TMC3    C6 7398   0.971   0.190   0.593  0.1881 -0.4592  0.1934
  494TMC3     C 7399   0.986   0.506   0.856 -0.1532 -1.1641 -0.2296
  494TMC3     O 7400   1.066   0.493   0.949 -0.4584  0.1984  0.7610
  494TMC3     H 7401   0.982   0.251   0.926 -0.6648  1.8348  0.0739
  494TMC3    H1 7402   0.981   0.528   0.591  0.5642 -0.3555  0.1234
  494TMC3    H2 7403   0.956   0.114   0.518  1.9914  0.1073 -0.7603
  494TMC3    C7 7404   0.961   0.334   0.406 -0.1628 -0.4340  0.6622
  494TMC3    C8 7405   0.968   0.035   0.779 -0.0714 -0.1470 -0.1431
  494TMC3    O1 7406   1.015   0.252   0.338 -0.1745  0.5392  0.2545
  494TMC3    O2 7407   1.008   0.021   0.892 -0.5045 -0.1825 -0.5815
  495TMC3    C1 7408   4.710   2.136  14.944  0.1105 -0.7877  0.2930
  495TMC3    C2 7409   4.632   2.131  14.824  0.1420  0.8339 -0.4505
  495TMC3    C3 7410   4.523   2.214  14.814  0.5960 -0.5044  0.3016
  495TMC3    C4 7411   4.672   2.214  15.044  0.4494  1.1211 -0.3163
  495TMC3    C5 7412   4.555   2.279  15.033 -0.0407 -0.2406 -0.5595
  495TMC3    C6 7413   4.478   2.281  14.927  0.9147 -0.6671  0.0411
  495TMC3     C 7414   0.014   2.002  14.980  0.7386  0.2754 -1.3813
  495TMC3     O 7415   4.661   1.926  15.021  0.1603  0.4529  0.1711
  495TMC3     H 7416   4.677   2.085  14.737 -2.3538 -1.9235 -0.2823
  495TMC3    H1 7417   4.731   2.211  15.135  1.2814 -1.7848 -0.9529
  495TMC3    H2 7418   4.395   2.350  14.922  1.8837  0.4430 -0.7080
  495TMC3    C7 7419   4.496   2.326  15.158  0.2025  0.4418  0.5431
  495TMC3    C8 7420   4.417   2.192  14.721 -0.4794  0.3214 -0.6427
  495TMC3    O1 7421   4.568   2.392  15.231 -0.3931  0.6015 -0.4275
  495TMC3    O2 7422   4.308   2.236  14.762 -0.1375 -0.1326 -0.6587
  496MPD2     C 7423   2.215   2.512  15.777 -0.4882 -0.2487  0.0284
  496MPD2    C1 7424   2.100   2.440  15.751 -0.1486  0.4077  0.2077
  496MPD2    C2 7425   1.973   2.468  15.801  0.5518 -0.1713 -0.2073
  496MPD2    C3 7426   1.968   2.572  15.891 -0.2716 -0.0025  0.4713
  496MPD2    C4 7427   2.084   2.643  15.922  0.7416  0.2765 -0.5437
  496MPD2    C5 7428   2.210   2.613  15.864 -0.2221 -0.6283 -1.1590
  496MPD2     H 7429   1.886   2.413  15.765  0.6446  0.8059 -1.9252
  496MPD2    H1 7430   2.082   2.730  15.987  2.3504 -0.9545  1.1520
  496MPD2    H2 7431   2.309   2.472  15.742 -1.1105 -0.5673 -1.2664
  496MPD2    H3 7432   2.297   2.669  15.897 -1.2298  0.8417 -1.0103
  496MPD2     N 7433   1.845   2.607  15.955  0.3778 -0.3355 -0.1361
  496MPD2    H5 7434   1.847   2.661  16.041  1.6088 -1.6473  0.6662
  496MPD2    N1 7435   2.124   2.326  15.676  0.5049  0.5573  0.0656
  496MPD2    H7 7436   2.211   2.318  15.625 -0.4368 -0.0332 -1.4693
  497TMC3    C1 7437   1.617   2.627  16.008 -0.1554  0.0360  0.5680
  497TMC3    C2 7438   1.490   2.659  15.965  0.1359  0.3078 -0.3777
  497TMC3    C3 7439   1.404   2.697  16.059 -0.6134 -0.2984  0.1804
  497TMC3    C4 7440   1.660   2.622  16.138  0.0574 -0.4307  0.8627
  497TMC3    C5 7441   1.564   2.655  16.228 -0.2120  0.4703  0.0508
  497TMC3    C6 7442   1.442   2.696  16.194 -0.6718 -0.0624  0.5046
  497TMC3     C 7443   1.720   2.587  15.914 -0.5905 -0.5754 -1.1830
  497TMC3     O 7444   1.683   2.567  15.800 -0.6398  0.0217 -0.4413
  497TMC3     H 7445   1.475   2.670  15.858 -3.4915 -0.6685  0.0164
  497TMC3    H1 7446   1.743   2.560  16.171  2.1731  1.1022 -1.5876
  497TMC3    H2 7447   1.366   2.716  16.269 -0.7997  1.1876  0.0459
  497TMC3    C7 7448   1.595   2.624  16.367 -0.8633 -0.2437 -0.4976
  497TMC3    C8 7449   1.264   2.667  16.030 -0.0240  0.0408  0.3877
  497TMC3    O1 7450   1.496   2.608  16.436 -0.8759  0.1117 -0.0898
  497TMC3    O2 7451   1.187   2.688  16.122  0.4303  0.1025 -0.2450
  498MPD2     C 7452   2.880   2.278   9.208 -0.0961  0.4820  0.5686
  498MPD2    C1 7453   2.861   2.358   9.321  0.4831 -0.4885  0.1886
  498MPD2    C2 7454   2.789   2.307   9.424 -0.4641  0.3106 -0.7730
  498MPD2    C3 7455   2.723   2.181   9.419  0.1369  0.4983  0.1802
  498MPD2    C4 7456   2.746   2.098   9.307  0.1878  0.3825 -0.6753
  498MPD2    C5 7457   2.811   2.156   9.199 -0.6141 -0.6796 -0.2060
  498MPD2     H 7458   2.787   2.367   9.514  0.5658 -1.3207  0.3403
  498MPD2    H1 7459   2.715   1.994   9.303 -0.6940  0.6485 -0.6807
  498MPD2    H2 7460   2.942   2.304   9.124  0.4861  0.0482  0.8694
  498MPD2    H3 7461   2.816   2.101   9.106 -1.8012 -0.7250 -0.2395
  498MPD2     N 7462   2.658   2.137   9.535  0.0776 -0.7669 -0.4388
  498MPD2    H5 7463   2.629   2.204   9.605  0.1652 -0.2362 -0.9161
  498MPD2    N1 7464   2.922   2.480   9.339  0.3017 -1.2016 -0.5953
  498MPD2    H7 7465   2.902   2.524   9.428 -1.1942  1.0618 -2.0414
  499TMC3    C1 7466   3.077   2.662   9.323 -0.0452 -0.4230 -0.6087
  499TMC3    C2 7467   3.211   2.659   9.342  0.7401  0.1443 -0.0642
  499TMC3    C3 7468   3.262   2.745   9.435 -0.5194 -0.3687 -0.9253
  499TMC3    C4 7469   2.990   2.751   9.382  0.1429  0.3982  0.2790
  499TMC3    C5 7470   3.050   2.840   9.464  0.4825 -0.4043  0.1475
  499TMC3    C6 7471   3.182   2.837   9.495  0.1252  0.0656 -0.2374
  499TMC3     C 7472   3.018   2.543   9.263 -0.6296 -0.4649  0.0584
  499TMC3     O 7473   3.090   2.502   9.171  0.7891  0.3739  0.1592
  499TMC3     H 7474   3.273   2.576   9.312 -0.3416 -0.1158 -1.6281
  499TMC3    H1 7475   2.884   2.750   9.358 -0.2442  1.9504  1.9284
  499TMC3    H2 7476   3.227   2.900   9.570 -2.8288  2.2082 -0.2651
  499TMC3    C7 7477   2.982   2.963   9.496 -0.2520 -0.5950  0.0006
  499TMC3    C8 7478   3.403   2.772   9.423  0.0548  0.2329  0.5626
  499TMC3    O1 7479   2.919   3.005   9.394  0.2129 -0.4898  0.3074
  499TMC3    O2 7480   3.469   2.680   9.376 -0.2313  0.3376 -0.4714
  500MPD2     C 7481   4.435   3.967   9.847 -0.4023 -0.1475  0.2095
  500MPD2    C1 7482   4.434   4.048   9.959  0.1019  0.5815  0.0287
  500MPD2    C2 7483   4.314   4.107   9.996  0.5378 -0.2080  0.3383
  500MPD2    C3 7484   4.200   4.081   9.918  0.1512 -0.4595 -0.3985
  500MPD2    C4 7485   4.203   4.005   9.807 -0.4348  0.0518 -0.1463
  500MPD2    C5 7486   4.316   3.945   9.779 -0.4164  0.2621 -0.0567
  500MPD2     H 7487   4.320   4.181  10.076  0.6538 -0.6231  0.7136
  500MPD2    H1 7488   4.117   3.974   9.748 -0.9178 -0.4117  0.8039
  500MPD2    H2 7489   4.523   3.929   9.795 -0.5336  0.6248 -0.5808
  500MPD2    H3 7490   4.312   3.884   9.689 -1.5418 -1.2617  1.0159
  500MPD2     N 7491   4.068   4.135   9.940  0.6286  0.1818 -0.3219
  500MPD2    H5 7492   3.997   4.111   9.872 -0.0164 -0.2247  0.4967
  500MPD2    N1 7493   4.552   4.091  10.027  0.5910  0.2757  0.0321
  500MPD2    H7 7494   4.540   4.154  10.106  0.4645 -1.1458  1.1391
  501TMC3    C1 7495   0.043   4.074  10.088  0.3924  0.1958 -0.0857
  501TMC3    C2 7496   0.052   4.212  10.100 -0.5806  0.0353 -0.3374
  501TMC3    C3 7497   0.162   4.261  10.173  0.0729 -0.1750  0.9084
  501TMC3    C4 7498   0.147   3.987  10.131  0.0984  0.6621  0.2596
  501TMC3    C5 7499   0.258   4.044  10.189  0.6129 -0.1065 -0.0248
  501TMC3    C6 7500   0.269   4.182  10.206  0.6706  0.0672 -0.1445
  501TMC3     C 7501   4.666   4.012  10.020  0.1334 -0.6072  0.1431
  501TMC3     O 7502   4.686   3.897   9.980  0.1712  0.0171  0.0164
  501TMC3     H 7503   4.719   4.285  10.061 -0.3093  0.1261 -0.6527
  501TMC3    H1 7504   0.120   3.883  10.139 -0.9522  1.0910  2.2127
  501TMC3    H2 7505   0.356   4.231  10.249  0.2437 -1.1072  2.0714
  501TMC3    C7 7506   0.332   3.969  10.285  0.3298 -0.6266  0.0930
  501TMC3    C8 7507   0.168   4.398  10.209 -0.7237 -0.0928  0.1938
  501TMC3    O1 7508   0.424   4.029  10.343 -0.3688 -0.5353  0.1266
  501TMC3    O2 7509   0.115   4.476  10.130 -0.1123 -0.2969  0.0096
  502TMC3    C1 7510   4.046   3.213  14.965  0.1292 -0.3479  0.2098
  502TMC3    C2 7511   4.046   3.351  14.961  0.0688  0.4740 -0.7971
  502TMC3    C3 7512   3.937   3.417  15.011  0.1885  0.0223  0.3716
  502TMC3    C4 7513   3.937   3.153  15.017 -0.5226 -0.2507 -0.0316
  502TMC3    C5 7514   3.833   3.224  15.075  0.8145 -0.3636  0.2598
  502TMC3    C6 7515   3.826   3.360  15.059 -0.0021  0.6082  0.3777
  502TMC3     C 7516   4.164   3.162  15.034 -0.5383 -0.2574  0.2412
  502TMC3     O 7517   4.273   3.207  15.000  0.2802  0.0302 -0.8253
  502TMC3     H 7518   4.129   3.413  14.928  1.7371 -1.2236  0.1937
  502TMC3    H1 7519   3.943   3.044  15.024  1.5728  0.0345  2.9646
  502TMC3    H2 7520   3.746   3.418  15.103  0.2929  0.1148  1.5548
  502TMC3    C7 7521   3.786   3.160  15.202  0.0966  0.6436 -0.4389
  502TMC3    C8 7522   3.939   3.568  15.011  0.5823 -0.6249  0.1882
  502TMC3    O1 7523   3.845   3.056  15.227 -0.3335 -0.0209  0.3138
  502TMC3    O2 7524   4.050   3.621  15.013  1.2038  0.1546 -0.2942
  503MPD2     C 7525   1.151   3.811  17.007  0.8898 -0.2979  0.4633
  503MPD2    C1 7526   1.137   3.878  17.131  1.0001  0.9778  0.2102
  503MPD2    C2 7527   1.164   3.802  17.241 -0.0590 -0.3397  0.0414
  503MPD2    C3 7528   1.199   3.673  17.236  0.1731 -0.3021 -0.3012
  503MPD2    C4 7529   1.194   3.598  17.117 -0.6665  0.1547  0.1029
  503MPD2    C5 7530   1.173   3.675  17.003  0.6995  0.2519 -0.6642
  503MPD2     H 7531   1.174   3.855  17.335 -2.0983 -0.6338  0.4379
  503MPD2    H1 7532   1.212   3.492  17.105  2.3040  0.7561 -0.6441
  503MPD2    H2 7533   1.145   3.864  16.913  2.8510  0.1217  0.5685
  503MPD2    H3 7534   1.158   3.623  16.909  1.2974 -0.9572 -0.0834
  503MPD2     N 7535   1.238   3.618  17.361 -0.2248 -0.3246  0.5540
  503MPD2    H5 7536   1.238   3.678  17.443  0.2600 -0.9551  1.0203
  503MPD2    N1 7537   1.130   4.018  17.145 -0.3181  0.5393 -0.1689
  503MPD2    H7 7538   1.127   4.058  17.238  0.6897  1.6874 -0.6232
  504TMC3    C1 7539   1.390   3.488  17.497 -0.6929  0.3966  0.6103
  504TMC3    C2 7540   1.375   3.579  17.601 -0.0358 -0.0727 -0.1657
  504TMC3    C3 7541   1.477   3.608  17.679 -0.0867  0.7646  0.0915
  504TMC3    C4 7542   1.509   3.429  17.476  0.0758  0.2589 -0.1209
  504TMC3    C5 7543   1.616   3.461  17.554 -0.0126  0.1490 -0.3480
  504TMC3    C6 7544   1.598   3.545  17.664 -0.1244  0.5202  0.2123
  504TMC3     C 7545   1.307   3.497  17.372  0.6086 -0.4594 -0.0706
  504TMC3     O 7546   1.311   3.404  17.295 -0.7261 -0.2933 -0.3481
  504TMC3     H 7547   1.281   3.632  17.615  0.5530  1.2434 -1.2435
  504TMC3    H1 7548   1.526   3.393  17.376  0.4798  0.5538 -0.1608
  504TMC3    H2 7549   1.682   3.582  17.722  2.0405 -0.7894 -2.0930
  504TMC3    C7 7550   1.746   3.441  17.495 -0.0330  0.4949 -1.0686
  504TMC3    C8 7551   1.475   3.729   0.008  0.0939  1.2862  0.1036
  504TMC3    O1 7552   1.743   3.396  17.382  0.4684 -0.6109  0.1024
  504TMC3    O2 7553   1.407   3.821  17.705  0.6846 -0.0180  0.1159
  505MPD2     C 7554   2.098   1.859  10.885 -0.0955  0.0109  0.0533
  505MPD2    C1 7555   2.182   1.755  10.860 -0.3203 -0.3229 -0.0152
  505MPD2    C2 7556   2.318   1.767  10.864  0.6012  0.6014  0.1280
  505MPD2    C3 7557   2.368   1.888  10.892  1.0000 -0.6938  0.3951
  505MPD2    C4 7558   2.287   1.996  10.914  0.8726 -0.8499  0.6004
  505MPD2    C5 7559   2.150   1.982  10.922  0.2087  0.7827  0.0259
  505MPD2     H 7560   2.385   1.689  10.831 -0.4193 -1.2072  2.3431
  505MPD2    H1 7561   2.334   2.092  10.926  1.5038 -1.2605  1.4623
  505MPD2    H2 7562   1.990   1.853  10.899  0.0653  0.6108  1.5660
  505MPD2    H3 7563   2.088   2.071  10.931 -0.3484  0.4259 -0.2955
  505MPD2     N 7564   2.503   1.922  10.890  0.3487 -0.2293 -0.5530
  505MPD2    H5 7565   2.532   2.018  10.898  2.7682 -0.9078 -1.1892
  505MPD2    N1 7566   2.116   1.630  10.834  1.0494 -0.6114 -0.0257
  505MPD2    H7 7567   2.015   1.636  10.820  0.8960 -2.4661  0.2626
  506TMC3    C1 7568   2.112   1.400  10.768 -0.2572  0.0039 -0.6260
  506TMC3    C2 7569   2.032   1.439  10.662 -0.8776  0.4056  0.1445
  506TMC3    C3 7570   2.055   1.386  10.536  0.1433 -0.1178  0.9292
  506TMC3    C4 7571   2.197   1.295  10.751  0.7701  0.5681  0.9360
  506TMC3    C5 7572   2.217   1.244  10.624 -0.2455 -0.0522 -0.5651
  506TMC3    C6 7573   2.155   1.289  10.509 -0.1208  0.4266 -0.1297
  506TMC3     C 7574   2.184   1.509  10.828  0.3419  0.2448 -0.1752
  506TMC3     O 7575   2.302   1.486  10.859  0.8846  0.0244 -0.1509
  506TMC3     H 7576   1.949   1.507  10.671  0.9321  2.9010 -1.9929
  506TMC3    H1 7577   2.247   1.246  10.834  2.4933 -1.5758 -1.3739
  506TMC3    H2 7578   2.168   1.243  10.412 -0.9924  1.2645 -0.6385
  506TMC3    C7 7579   2.354   1.209  10.601 -0.4921 -0.2327  0.3002
  506TMC3    C8 7580   1.987   1.441  10.418 -0.0238  0.3575  1.0403
  506TMC3    O1 7581   2.389   1.126  10.521 -0.1385  0.1424  0.6538
  506TMC3    O2 7582   1.872   1.474  10.444  0.1682 -0.0915  0.3902
  507TMC3    C1 7583   2.480   3.448  14.541  0.0103  0.3445  0.0371
  507TMC3    C2 7584   2.508   3.385  14.422  0.4374  0.1528  0.8088
  507TMC3    C3 7585   2.620   3.416  14.356  0.2941  0.5489 -0.4221
  507TMC3    C4 7586   2.574   3.530  14.605 -1.3091  0.4701  0.7409
  507TMC3    C5 7587   2.688   3.553  14.539 -0.3204  0.0645 -0.1769
  507TMC3    C6 7588   2.703   3.499  14.414  1.1093 -0.2033  0.4753
  507TMC3     C 7589   2.351   3.441  14.601  0.4410 -0.3664  0.1967
  507TMC3     O 7590   2.339   3.489  14.712  0.3075 -0.1129  1.1604
  507TMC3     H 7591   2.434   3.323  14.372  0.0903  0.7029  0.6443
  507TMC3    H1 7592   2.554   3.569  14.704  0.5066 -1.0145  1.6952
  507TMC3    H2 7593   2.797   3.519  14.364  0.8247 -1.2505 -0.4733
  507TMC3    C7 7594   2.731   3.688  14.544  0.6841  0.5134  0.3012
  507TMC3    C8 7595   2.593   3.467  14.227  0.4951 -0.8013  1.0711
  507TMC3    O1 7596   2.783   3.726  14.441 -0.1789 -0.1371 -0.0548
  507TMC3    O2 7597   2.547   3.390  14.144  0.1648 -0.1226 -0.2347
  508MPD2     C 7598   2.791   1.033  16.473  0.2996  0.4721 -0.0434
  508MPD2    C1 7599   2.916   1.030  16.428 -0.0645 -0.2488 -0.5466
  508MPD2    C2 7600   2.929   1.064  16.297 -0.5617 -0.4639 -0.3342
  508MPD2    C3 7601   2.816   1.086  16.219 -0.6039 -0.3456  0.0809
  508MPD2    C4 7602   2.689   1.078  16.266  0.3639  0.0380  0.0053
  508MPD2    C5 7603   2.676   1.056  16.395  0.5365 -0.4066  0.3305
  508MPD2     H 7604   3.023   1.074  16.243 -0.2198  0.2119  0.3821
  508MPD2    H1 7605   2.598   1.091  16.208  0.3283 -1.5289 -0.2774
  508MPD2    H2 7606   2.767   1.020  16.578 -0.1566  1.6659  0.0070
  508MPD2    H3 7607   2.579   1.055  16.444  0.8594 -2.3763  0.9211
  508MPD2     N 7608   2.846   1.119  16.089 -0.9223 -0.2275  0.0155
  508MPD2    H5 7609   2.943   1.143  16.071 -0.0187 -2.6850  1.6076
  508MPD2    N1 7610   3.025   1.013  16.516 -0.1366  0.1207  0.0086
  508MPD2    H7 7611   3.006   1.006  16.616 -0.0131 -2.0540 -0.1184
  509TMC3    C1 7612   2.844   1.411  15.745  0.3235 -0.4269  0.0273
  509TMC3    C2 7613   2.981   1.398  15.741  0.1923  0.1367 -0.4498
  509TMC3    C3 7614   3.042   1.291  15.804 -0.0264  0.2223  0.1529
  509TMC3    C4 7615   2.769   1.308  15.801  0.5553 -0.0875  0.0004
  509TMC3    C5 7616   2.833   1.202  15.866  0.4224  0.2255 -0.4182
  509TMC3    C6 7617   2.974   1.191  15.859  0.3082 -0.4007  0.4737
  509TMC3     C 7618   2.777   1.538  15.740  0.3493 -0.1490  0.1027
  509TMC3     O 7619   2.659   1.543  15.768 -0.5972 -0.1550 -0.2801
  509TMC3     H 7620   3.040   1.483  15.709 -0.5991  0.9048  0.1210
  509TMC3    H1 7621   2.662   1.312  15.818  0.4925 -4.4352  0.7056
  509TMC3    H2 7622   3.025   1.105  15.901 -0.0473 -0.4356  0.8426
  509TMC3    C7 7623   2.765   1.133  15.982 -0.5641  0.3750 -0.2885
  509TMC3    C8 7624   3.180   1.308  15.846  0.8261  0.6181 -0.0577
  509TMC3    O1 7625   2.641   1.134  15.983 -0.0771 -0.3096  0.9013
  509TMC3    O2 7626   3.251   1.214  15.841 -0.5290  0.2432 -0.3445
  510MPD2     C 7627   0.921   2.756  14.782 -0.1366 -0.2595 -0.0465
  510MPD2    C1 7628   1.014   2.667  14.829 -0.1594  0.4201 -0.1539
  510MPD2    C2 7629   1.136   2.667  14.766 -0.2677  0.7480  0.9987
  510MPD2    C3 7630   1.160   2.743  14.655  0.0241  0.3224  0.8067
  510MPD2    C4 7631   1.063   2.825  14.607  0.4474 -0.5439  0.5185
  510MPD2    C5 7632   0.950   2.842  14.682 -0.6102 -0.5442  0.4193
  510MPD2     H 7633   1.215   2.604  14.805  1.0946  0.4797 -2.2167
  510MPD2    H1 7634   1.077   2.899  14.529  0.6596  1.2678  2.2772
  510MPD2    H2 7635   0.828   2.761  14.837  0.0306 -1.1860  0.3221
  510MPD2    H3 7636   0.896   2.930  14.649  0.2042 -0.0193  0.5009
  510MPD2     N 7637   1.286   2.748  14.585  0.3750  0.4810  0.9376
  510MPD2    H5 7638   1.353   2.682  14.624 -1.8304 -1.2934  1.7810
  510MPD2    N1 7639   0.972   2.578  14.938  0.4752  0.1585  0.3669
  510MPD2    H7 7640   0.883   2.590  14.984  0.3390 -3.5396  1.0303
  511TMC3    C1 7641   0.980   2.391  15.077 -0.3792 -0.0730 -0.2705
  511TMC3    C2 7642   0.906   2.459  15.170  0.3086 -0.5519  0.8824
  511TMC3    C3 7643   0.819   2.391  15.254 -0.0365  0.2676 -0.2115
  511TMC3    C4 7644   0.974   2.251  15.072  0.4397 -0.3181 -0.8735
  511TMC3    C5 7645   0.893   2.184  15.160  0.7303 -1.1038 -0.9240
  511TMC3    C6 7646   0.811   2.251  15.253  0.1991 -0.4898 -0.3897
  511TMC3     C 7647   1.042   2.464  14.970  0.6180  0.2026  0.8283
  511TMC3     O 7648   1.132   2.413  14.906 -0.0750 -0.1588  0.6485
  511TMC3     H 7649   0.899   2.567  15.169 -2.0574 -0.7096  0.1465
  511TMC3    H1 7650   1.025   2.196  14.994  3.3688  2.2571 -0.7831
  511TMC3    H2 7651   0.754   2.195  15.327  0.1298 -0.7530 -0.6447
  511TMC3    C7 7652   0.854   2.056  15.113 -0.4045 -0.7620 -0.1878
  511TMC3    C8 7653   0.753   2.476  15.357  1.4609 -0.2500 -0.1812
  511TMC3    O1 7654   0.834   2.036  14.994 -0.0944 -0.1790  0.6717
  511TMC3    O2 7655   0.785   2.589  15.364 -0.3270  0.4155  0.6225
  512TMC3    C1 7656   0.249   1.774  14.002 -0.5360  0.1332  0.1133
  512TMC3    C2 7657   0.333   1.866  14.056  0.2522  0.1632 -0.0121
  512TMC3    C3 7658   0.446   1.817  14.123  0.5664  0.8253 -0.5141
  512TMC3    C4 7659   0.276   1.638  14.015 -0.3976  0.7005 -1.0247
  512TMC3    C5 7660   0.400   1.602  14.060 -0.2164 -0.4723  0.1773
  512TMC3    C6 7661   0.472   1.685  14.134 -0.3238 -0.4101  0.5577
  512TMC3     C 7662   0.112   1.812  14.024 -0.7745 -0.3060 -0.1649
  512TMC3     O 7663   0.071   1.925  13.998  0.1185 -0.6075  0.1626
  512TMC3     H 7664   0.300   1.969  14.063 -3.3136 -1.0253  0.8145
  512TMC3    H1 7665   0.203   1.564  13.987 -0.2563  0.0665  0.2745
  512TMC3    H2 7666   0.556   1.644  14.189 -0.1279 -0.9926 -0.1737
  512TMC3    C7 7667   0.398   1.459  14.098 -0.0932 -0.7767  0.0075
  512TMC3    C8 7668   0.541   1.909  14.190 -0.3342  0.0272 -0.4023
  512TMC3    O1 7669   0.387   1.442  14.221 -0.5171 -0.3674  0.3521
  512TMC3    O2 7670   0.583   1.872  14.296  0.1482  0.7514  0.4262
  513MPD2     C 7671   2.071   2.217  13.476  1.0193 -0.2151  0.1949
  513MPD2    C1 7672   2.039   2.083  13.461  0.3146 -0.5450 -0.0416
  513MPD2    C2 7673   2.084   1.995  13.560 -0.6105 -0.2101  0.9138
  513MPD2    C3 7674   2.159   2.035  13.673 -0.0760  0.4772 -0.3824
  513MPD2    C4 7675   2.204   2.165  13.678 -0.3436  0.6446  1.0681
  513MPD2    C5 7676   2.155   2.250  13.582  1.1188  0.0097 -0.2849
  513MPD2     H 7677   2.067   1.888  13.555 -0.7626 -0.1945  1.0984
  513MPD2    H1 7678   2.263   2.201  13.761  0.3185 -0.5563  1.1283
  513MPD2    H2 7679   2.051   2.288  13.396 -1.0646 -0.6778  0.3043
  513MPD2    H3 7680   2.188   2.353  13.578  0.3927  0.2554  0.0393
  513MPD2     N 7681   2.192   1.936  13.762 -0.5496 -0.1123 -0.2402
  513MPD2    H5 7682   2.143   1.849  13.745 -0.3112 -0.2125 -0.4129
  513MPD2    N1 7683   1.976   2.024  13.350  0.3543  0.3224 -0.7671
  513MPD2    H7 7684   1.973   1.923  13.357 -0.0742  0.3857 -0.0490
  514TMC3    C1 7685   1.867   1.971  13.157  0.9333  0.0129  0.2714
  514TMC3    C2 7686   1.887   1.995  13.027 -0.2617  0.8209 -0.4967
  514TMC3    C3 7687   1.971   1.903  12.962  0.1088 -0.6452 -0.5626
  514TMC3    C4 7688   1.890   1.846  13.208  0.3574 -0.0977 -0.3526
  514TMC3    C5 7689   1.968   1.753  13.147 -0.5135  0.2537  0.3447
  514TMC3    C6 7690   2.005   1.778  13.015 -0.6993  0.3606  0.6341
  514TMC3     C 7691   1.905   2.086  13.247 -0.0790 -0.5053  0.3061
  514TMC3     O 7692   1.901   2.206  13.219 -0.3788 -0.3192  0.5723
  514TMC3     H 7693   1.880   2.097  12.992  0.9732  0.8367 -0.7107
  514TMC3    H1 7694   1.850   1.832  13.308  0.6154  0.7517 -0.1372
  514TMC3    H2 7695   2.067   1.708  12.960 -2.3558 -1.4569  1.0687
  514TMC3    C7 7696   2.063   1.703  13.238  0.2933  0.0813 -0.3732
  514TMC3    C8 7697   2.031   1.937  12.838  0.0817 -0.2399 -0.1543
  514TMC3    O1 7698   2.069   1.758  13.348 -0.1634  0.1432  0.5979
  514TMC3    O2 7699   2.137   1.887  12.808 -0.3893  0.1564 -0.1043
  515MPD2     C 7700   0.038   3.997  14.983 -0.5034  0.0249  0.1914
  515MPD2    C1 7701   0.149   3.932  14.930 -0.7192 -0.1802  0.0888
  515MPD2    C2 7702   0.270   4.003  14.923 -1.1194  0.1905  0.6290
  515MPD2    C3 7703   0.285   4.130  14.981  0.1955 -0.0753  0.9859
  515MPD2    C4 7704   0.171   4.193  15.036  0.1887 -0.0741 -0.2266
  515MPD2    C5 7705   0.048   4.125  15.035  0.4291 -0.2026  0.9794
  515MPD2     H 7706   0.361   3.959  14.884 -1.1632  0.5164  0.1635
  515MPD2    H1 7707   0.176   4.291  15.083  2.6078  0.1169 -0.8349
  515MPD2    H2 7708   4.677   3.952  14.987 -1.2721  1.7833  1.2922
  515MPD2    H3 7709   4.703   4.171  15.089  0.4576 -1.1003  1.7862
  515MPD2     N 7710   0.409   4.194  15.000  0.7018 -0.6320  0.0898
  515MPD2    H5 7711   0.418   4.271  15.066  1.3564 -0.0741 -0.6582
  515MPD2    N1 7712   0.139   3.810  14.866 -0.4486 -0.4737  0.3165
  515MPD2    H7 7713   0.215   3.769  14.814 -0.7654 -1.1678  0.3910
  516TMC3    C1 7714   0.040   3.619  14.794 -0.1938  0.2345 -0.3030
  516TMC3    C2 7715   0.007   3.660  14.669 -0.3837  0.8077 -0.6243
  516TMC3    C3 7716   4.693   3.560  14.586  0.0634  0.4647 -0.7221
  516TMC3    C4 7717   4.732   3.500  14.845  0.8117 -0.1910 -0.2042
  516TMC3    C5 7718   4.689   3.402  14.759 -0.1700 -0.2844  0.4322
  516TMC3    C6 7719   4.665   3.429  14.627  0.0846  0.4472 -0.2030
  516TMC3     C 7720   0.041   3.723  14.892  0.6245  0.6069 -0.8851
  516TMC3     O 7721   4.694   3.713  14.982  0.3971 -0.1217  0.4791
  516TMC3     H 7722   4.729   3.766  14.651 -1.2300  0.7567 -0.2410
  516TMC3    H1 7723   0.006   3.488  14.952  1.5607  1.1592 -0.1261
  516TMC3    H2 7724   4.603   3.362  14.569  1.9765  0.6953 -2.5011
  516TMC3    C7 7725   4.641   3.277  14.817 -0.1896 -0.0493 -0.1228
  516TMC3    C8 7726   4.600   3.616  14.495  0.6073  0.4204  0.2756
  516TMC3    O1 7727   4.618   3.275  14.940 -0.9207 -0.1221 -1.1736
  516TMC3    O2 7728   4.498   3.546  14.482 -0.3020  0.1794  0.3905
  517MPD2     C 7729   4.381   0.668   0.018 -0.2610  0.1183 -0.1073
  517MPD2    C1 7730   4.507   0.649   0.073  0.5046 -0.2466 -0.5769
  517MPD2    C2 7731   4.551   0.740   0.166  0.4768 -0.5168 -0.2207
  517MPD2    C3 7732   4.478   0.854   0.195  0.3583 -0.4029  0.4170
  517MPD2    C4 7733   4.358   0.869   0.141 -0.9089 -0.2643 -1.5285
  517MPD2    C5 7734   4.312   0.774   0.056 -0.1989  0.7593  0.5761
  517MPD2     H 7735   4.651   0.731   0.208 -0.7156 -3.1570  1.9987
  517MPD2    H1 7736   4.288   0.949   0.164  0.1204  0.7104 -1.7997
  517MPD2    H2 7737   4.341   0.603  17.688  1.2710 -0.8326 -0.1094
  517MPD2    H3 7738   4.217   0.786   0.007 -0.8856 -1.3132  1.3928
  517MPD2     N 7739   4.516   0.940   0.293 -0.6309 -0.8343 -1.0985
  517MPD2    H5 7740   4.457   1.022   0.300 -2.1434 -2.0170  0.0430
  517MPD2    N1 7741   4.592   0.542   0.046  0.1029  0.7323  0.1677
  517MPD2    H7 7742   4.686   0.551   0.084  1.7552 -0.7764 -3.5643
  518TMC3    C1 7743   4.667   0.334  17.712  0.3313 -0.4436 -0.2948
  518TMC3    C2 7744   4.623   0.208  17.717  0.1069 -0.8854  0.0700
  518TMC3    C3 7745   4.714   0.113  17.699 -0.1783 -0.2350  0.4529
  518TMC3    C4 7746   0.063   0.369  17.698  0.0233 -0.3459  0.4140
  518TMC3    C5 7747   0.150   0.270  17.682  0.3162 -0.3751 -0.1682
  518TMC3    C6 7748   0.115   0.137  17.667 -0.3058 -0.1504 -0.6387
  518TMC3     C 7749   4.561   0.433  17.717 -0.7229  0.0442 -0.6278
  518TMC3     O 7750   4.454   0.403  17.666 -0.3573 -0.2158  0.0333
  518TMC3     H 7751   4.520   0.180  17.738 -0.0183  0.1746  0.9223
  518TMC3    H1 7752   0.094   0.473  17.695 -0.3033 -0.2228  1.5447
  518TMC3    H2 7753   0.175   0.047  17.662  1.5267  1.0892 -0.9201
  518TMC3    C7 7754   0.287   0.307  17.669  0.0356  0.1494  0.3220
  518TMC3    C8 7755   4.691   4.709  17.718 -0.8093  0.5397 -0.9417
  518TMC3    O1 7756   0.323   0.423  17.669 -0.9885 -0.5593  0.7398
  518TMC3    O2 7757   0.010   4.633  17.638  0.3552  0.2042  0.0510
  519MPD2     C 7758   1.744   3.700  14.533  0.9030 -0.1164  0.2490
  519MPD2    C1 7759   1.713   3.714  14.399  0.7887  0.3361  0.1219
  519MPD2    C2 7760   1.808   3.683  14.301 -0.5839  0.4310 -0.1444
  519MPD2    C3 7761   1.935   3.668  14.333  0.3056  0.2477  0.6734
  519MPD2    C4 7762   1.971   3.661  14.467  0.4576  0.4322  0.0012
  519MPD2    C5 7763   1.871   3.658  14.565 -1.0034 -0.1354  0.4613
  519MPD2     H 7764   1.779   3.659  14.200 -0.1797  1.1673 -0.4361
  519MPD2    H1 7765   2.074   3.637  14.492  0.2114  0.2944  0.8997
  519MPD2    H2 7766   1.669   3.704  14.611 -0.6441  2.0101 -1.3387
  519MPD2    H3 7767   1.891   3.641  14.671 -0.4954  0.4743  0.4634
  519MPD2     N 7768   2.037   3.628  14.251  0.0724  1.0632  0.0310
  519MPD2    H5 7769   2.125   3.600  14.293 -0.1660  0.8564  0.3897
  519MPD2    N1 7770   1.581   3.741  14.366  0.7325 -0.4712  0.7868
  519MPD2    H7 7771   1.518   3.777  14.436 -0.1267  1.8145 -1.1428
  520TMC3    C1 7772   2.132   3.564  14.045  0.7537  0.2517  0.3751
  520TMC3    C2 7773   2.129   3.580  13.907 -0.4562 -0.0475  0.4584
  520TMC3    C3 7774   2.188   3.473  13.837  0.4778 -0.2663 -0.9687
  520TMC3    C4 7775   2.177   3.442  14.104  0.1835  0.8818 -0.3089
  520TMC3    C5 7776   2.241   3.346  14.026 -0.0363 -0.6551 -0.2213
  520TMC3    C6 7777   2.243   3.360  13.890  0.5716 -0.0680 -0.0211
  520TMC3     C 7778   2.027   3.638  14.112  0.2992 -0.3465  0.2237
  520TMC3     O 7779   1.958   3.710  14.047 -0.1081 -0.4496  0.4312
  520TMC3     H 7780   2.087   3.672  13.870 -0.6168 -0.9586 -1.6353
  520TMC3    H1 7781   2.187   3.445  14.212  1.0162 -0.5420 -0.3396
  520TMC3    H2 7782   2.301   3.294  13.826  1.6891  0.9097 -0.0331
  520TMC3    C7 7783   2.286   3.231  14.096  0.5540 -0.4523  0.0482
  520TMC3    C8 7784   2.123   3.452  13.710  0.7605  0.1252  0.5273
  520TMC3    O1 7785   2.282   3.231  14.217 -0.1053 -0.3451  0.5746
  520TMC3    O2 7786   2.187   3.400  13.622 -0.1073 -0.0557 -0.2392
  521MPD2     C 7787   2.097   1.724   0.169 -0.1089  0.0718 -0.5769
  521MPD2    C1 7788   2.060   1.659   0.055 -0.4561  0.1195  0.0692
  521MPD2    C2 7789   2.143   1.671  17.693  0.6050 -0.0895  0.2951
  521MPD2    C3 7790   2.264   1.725  17.700  0.0771 -0.6019 -0.2897
  521MPD2    C4 7791   2.298   1.801   0.063  0.4861  0.1961  0.1978
  521MPD2    C5 7792   2.209   1.804   0.163 -0.1124 -0.4962  0.0005
  521MPD2     H 7793   2.109   1.619  17.604 -0.0819  1.9758 -0.6482
  521MPD2    H1 7794   2.393   1.854   0.065  0.1827  0.7406  0.1441
  521MPD2    H2 7795   2.047   1.715   0.264  1.2589  1.8789  0.3194
  521MPD2    H3 7796   2.230   1.857   0.256 -1.0800 -0.9097  0.4507
  521MPD2     N 7797   2.347   1.698  17.586 -0.2219  0.7573  0.1916
  521MPD2    H5 7798   2.302   1.657  17.504  0.2077  1.2080 -0.2704
  521MPD2    N1 7799   1.940   1.589   0.056  0.1888 -0.4566 -0.0785
  521MPD2    H7 7800   1.893   1.586   0.146  3.8121 -1.3412  1.7992
  522TMC3    C1 7801   2.551   1.704  17.455 -0.3330 -0.6300  0.3696
  522TMC3    C2 7802   2.683   1.702  17.453 -0.5379  0.3728  0.4783
  522TMC3    C3 7803   2.751   1.638  17.350 -0.5051  0.4139 -0.1908
  522TMC3    C4 7804   2.481   1.658  17.350  0.2599 -0.2277  0.6324
  522TMC3    C5 7805   2.554   1.621  17.233  0.2434  0.0160  0.2225
  522TMC3    C6 7806   2.688   1.608  17.231 -0.0561  0.5295 -0.4202
  522TMC3     C 7807   2.481   1.735  17.580 -0.5801 -0.1323 -0.3387
  522TMC3     O 7808   2.548   1.794  17.667 -0.5743  0.5036  0.4187
  522TMC3     H 7809   2.746   1.727  17.537  1.6358 -1.0773 -0.7162
  522TMC3    H1 7810   2.374   1.671  17.336  0.5748  2.2085  0.4883
  522TMC3    H2 7811   2.731   1.573  17.138  2.1353 -0.5739  1.0121
  522TMC3    C7 7812   2.477   1.549  17.132  0.1790  0.2605 -0.0182
  522TMC3    C8 7813   2.892   1.615  17.361 -0.3963  0.2111  0.2341
  522TMC3    O1 7814   2.501   1.433  17.107 -0.7170 -0.1526 -0.7121
  522TMC3    O2 7815   2.958   1.662  17.450  0.4213 -0.0748 -0.1722
  523MPD2     C 7816   0.370   1.156  10.554  0.0192 -0.1399 -0.3687
  523MPD2    C1 7817   0.292   1.067  10.488 -0.1464  0.1313 -0.2796
  523MPD2    C2 7818   0.199   1.111  10.399  0.5462  0.0084  0.2976
  523MPD2    C3 7819   0.191   1.243  10.362  0.0207 -0.1874 -0.1534
  523MPD2    C4 7820   0.273   1.336  10.428  0.2660 -0.3071  0.4673
  523MPD2    C5 7821   0.359   1.286  10.521  0.0034 -0.3672  0.6316
  523MPD2     H 7822   0.130   1.038  10.358  0.9163  1.4071 -2.8227
  523MPD2    H1 7823   0.255   1.441  10.410 -1.6951 -0.7921 -0.4011
  523MPD2    H2 7824   0.436   1.124  10.633  0.3190 -0.2382 -0.6591
  523MPD2    H3 7825   0.422   1.357  10.572 -2.8067  0.4077  2.9956
  523MPD2     N 7826   0.097   1.297  10.270 -0.0631 -0.6256  0.4254
  523MPD2    H5 7827   0.088   1.397  10.257 -1.3592 -0.7030  0.7385
  523MPD2    N1 7828   0.309   0.938  10.537 -0.3732 -0.0884  0.2725
  523MPD2    H7 7829   0.367   0.919  10.618  0.7785  1.8604 -0.1010
  524TMC3    C1 7830   4.689   1.291  10.080 -0.4150  0.1706  0.3171
  524TMC3    C2 7831   4.644   1.232   9.969  0.0526 -0.7300 -0.1071
  524TMC3    C3 7832   4.559   1.304   9.890  0.2125 -0.9522  0.1503
  524TMC3    C4 7833   4.643   1.409  10.118  0.3995  0.3326  0.2253
  524TMC3    C5 7834   4.548   1.474  10.044 -0.3991 -0.0390  0.1153
  524TMC3    C6 7835   4.497   1.417   9.931 -0.0161  0.0185  0.2614
  524TMC3     C 7836   0.037   1.215  10.173 -1.0328 -0.6689 -0.3590
  524TMC3     O 7837   0.074   1.104  10.133 -0.0787  0.0198 -0.0175
  524TMC3     H 7838   4.693   1.148   9.921  3.3729  0.6649  0.8877
  524TMC3    H1 7839   4.681   1.456  10.208 -2.2103  0.8826  1.0203
  524TMC3    H2 7840   4.417   1.453   9.868 -2.1177 -2.0860  1.7353
  524TMC3    C7 7841   4.469   1.584  10.095  0.4892 -0.4663  0.5990
  524TMC3    C8 7842   4.525   1.242   9.765 -0.4802 -0.3133  0.5162
  524TMC3    O1 7843   4.492   1.618  10.205 -0.1190  0.1704  0.4582
  524TMC3    O2 7844   4.532   1.122   9.755 -0.6808  0.0337 -0.5111
  525MPD2     C 7845   2.905   3.012  14.754  0.3826  0.5581  0.6364
  525MPD2    C1 7846   3.031   3.031  14.820 -0.0111 -0.0194  0.0265
  525MPD2    C2 7847   3.113   3.132  14.773  0.5533 -0.6235 -0.4435
  525MPD2    C3 7848   3.068   3.227  14.687 -0.1322 -0.0833  0.7897
  525MPD2    C4 7849   2.941   3.220  14.629 -0.1673  0.6110  0.2324
  525MPD2    C5 7850   2.864   3.108  14.664 -0.0312 -0.2247  0.6070
  525MPD2     H 7851   3.211   3.141  14.817 -0.5103 -0.1417  1.8076
  525MPD2    H1 7852   2.902   3.301  14.568 -0.9267  0.5706  0.6728
  525MPD2    H2 7853   2.834   2.932  14.771 -0.5239  1.4679  1.1314
  525MPD2    H3 7854   2.760   3.095  14.635  0.1905 -1.4855  0.3767
  525MPD2     N 7855   3.147   3.343  14.658  0.3824 -0.2061 -0.4016
  525MPD2    H5 7856   3.106   3.424  14.613  2.0954  1.3703  0.8653
  525MPD2    N1 7857   3.073   2.943  14.918 -0.1142 -0.7680 -0.6428
  525MPD2    H7 7858   3.169   2.951  14.950 -0.4682 -1.8602  0.6860
  526TMC3    C1 7859   3.044   2.791  15.109  0.4955  0.4574  0.1764
  526TMC3    C2 7860   2.969   2.774  15.217 -1.0852  0.2865  0.0737
  526TMC3    C3 7861   3.030   2.727  15.332 -0.2722  0.3200  0.3358
  526TMC3    C4 7862   3.173   2.749  15.098  0.0372 -0.0237 -0.0097
  526TMC3    C5 7863   3.236   2.716  15.217  0.0913  0.0651 -0.5237
  526TMC3    C6 7864   3.160   2.712  15.337  0.3607 -0.5470 -0.2400
  526TMC3     C 7865   2.984   2.867  14.997 -0.0750 -0.2010  0.2728
  526TMC3     O 7866   2.862   2.878  14.997  0.2283 -0.1072 -0.1706
  526TMC3     H 7867   2.871   2.820  15.220 -1.8954 -1.4151 -0.1590
  526TMC3    H1 7868   3.225   2.746  15.003 -0.3176 -0.6503 -0.1839
  526TMC3    H2 7869   3.212   2.661  15.418  1.2559  0.1156 -0.3924
  526TMC3    C7 7870   3.355   2.628  15.221 -0.7273 -0.6821  0.8937
  526TMC3    C8 7871   2.966   2.746  15.461  0.3944 -0.1584 -0.2096
  526TMC3    O1 7872   3.385   2.576  15.325 -0.4932  0.2991  0.3669
  526TMC3    O2 7873   3.035   2.790  15.553  0.2659  0.3935 -0.0904
  527MPD2     C 7874   0.594   1.260   1.544 -0.4620  0.9854 -0.1062
  527MPD2    C1 7875   0.570   1.231   1.415  0.4799  0.2620  0.2941
  527MPD2    C2 7876   0.676   1.209   1.330 -0.5263  0.2925 -0.2768
  527MPD2    C3 7877   0.804   1.231   1.371  0.3917  0.1611  0.1991
  527MPD2    C4 7878   0.830   1.245   1.509 -0.1360  0.0051 -0.7072
  527MPD2    C5 7879   0.725   1.277   1.593 -0.4177  0.4506 -0.5754
  527MPD2     H 7880   0.650   1.191   1.226 -4.0223 -0.6216  0.7587
  527MPD2    H1 7881   0.929   1.273   1.545  0.4227 -0.7278 -1.6866
  527MPD2    H2 7882   0.507   1.266   1.607 -1.0367 -0.2822 -0.7812
  527MPD2    H3 7883   0.749   1.308   1.694 -0.2261  0.3665 -0.5958
  527MPD2     N 7884   0.902   1.213   1.271  0.4043  0.6867 -0.2541
  527MPD2    H5 7885   0.866   1.202   1.176 -0.4006 -2.3559  0.3997
  527MPD2    N1 7886   0.442   1.201   1.360 -0.7563  0.4961  0.5501
  527MPD2    H7 7887   0.428   1.206   1.260 -0.4494 -1.9793  0.3806
  528TMC3    C1 7888   0.202   1.150   1.355  0.4383 -0.3590  0.3075
  528TMC3    C2 7889   0.176   1.200   1.231 -0.0070 -0.0211  0.2707
  528TMC3    C3 7890   0.046   1.196   1.192  0.2049 -0.0878 -0.5379
  528TMC3    C4 7891   0.104   1.100   1.437 -0.6234 -0.5298 -0.2713
  528TMC3    C5 7892   4.714   1.100   1.394  1.0116 -0.1337  0.2342
  528TMC3    C6 7893   4.683   1.152   1.269  0.1248  0.6909 -0.3167
  528TMC3     C 7894   0.328   1.185   1.425  0.4090  0.3513 -0.5017
  528TMC3     O 7895   0.320   1.169   1.546 -0.2897  0.0635 -0.7419
  528TMC3     H 7896   0.242   1.266   1.176  1.1728 -1.2644  0.1848
  528TMC3    H1 7897   0.126   1.068   1.538 -1.8561 -0.3079  0.0733
  528TMC3    H2 7898   4.585   1.158   1.223 -1.6401 -2.7842  2.9756
  528TMC3    C7 7899   4.614   1.049   1.487  1.0731 -0.3729 -0.0906
  528TMC3    C8 7900   0.009   1.300   1.093 -0.5721 -0.4431  0.5128
  528TMC3    O1 7901   4.498   1.083   1.463  0.0505 -0.6016  0.3768
  528TMC3    O2 7902   0.076   1.401   1.082 -0.2521  0.2301 -0.0853
  529MPD2     C 7903   2.821   0.331   1.076  0.1628 -0.1248  0.4779
  529MPD2    C1 7904   2.915   0.247   1.020  0.7539 -0.0066  0.1436
  529MPD2    C2 7905   2.943   0.263   0.886  0.2980  0.4496  0.4690
  529MPD2    C3 7906   2.884   0.363   0.805 -0.5427 -0.1750  0.9336
  529MPD2    C4 7907   2.788   0.439   0.866  0.1220 -0.0733  0.0416
  529MPD2    C5 7908   2.756   0.421   0.998  0.2481 -0.1843 -0.0142
  529MPD2     H 7909   3.011   0.193   0.839 -1.4527  0.0842 -1.5530
  529MPD2    H1 7910   2.730   0.510   0.808 -3.0912 -1.0793  2.0266
  529MPD2    H2 7911   2.780   0.309   1.174  0.6683 -0.6152  0.5767
  529MPD2    H3 7912   2.686   0.486   1.050  1.6156  1.7675 -0.5938
  529MPD2     N 7913   2.914   0.387   0.669 -0.3763 -0.1536  0.4986
  529MPD2    H5 7914   2.858   0.458   0.621 -0.2315  1.1050  2.1875
  529MPD2    N1 7915   2.973   0.143   1.090 -0.3232  0.4530  0.5332
  529MPD2    H7 7916   3.032   0.080   1.036  1.1451  3.3346 -1.2342
  530TMC3    C1 7917   3.048   0.011   1.271 -0.5367 -0.1279  0.4390
  530TMC3    C2 7918   3.103   0.022   1.401  0.0345  0.8038  0.9040
  530TMC3    C3 7919   3.182   4.652   1.447  0.5253 -0.2627 -0.3335
  530TMC3    C4 7920   3.074   4.637   1.192 -0.2822  0.5625 -0.0675
  530TMC3    C5 7921   3.146   4.534   1.246 -0.4336 -0.2667 -0.0356
  530TMC3    C6 7922   3.206   4.541   1.369 -0.3986 -0.2874 -0.4413
  530TMC3     C 7923   2.965   0.123   1.227  0.3622  0.6801 -0.1874
  530TMC3     O 7924   2.926   0.208   1.310  0.4451  0.0861  1.1157
  530TMC3     H 7925   3.093   0.116   1.453 -1.3331  0.0063  2.0848
  530TMC3    H1 7926   3.026   4.628   1.096 -1.7438  1.8566  0.5423
  530TMC3    H2 7927   3.242   4.448   1.412  4.0428  1.2706 -0.7546
  530TMC3    C7 7928   3.210   4.438   1.153 -0.3116 -0.2254  0.5906
  530TMC3    C8 7929   3.273   4.680   1.554 -0.1840 -0.4785  0.1709
  530TMC3    O1 7930   3.223   4.476   1.036  0.4821 -0.0851 -0.0983
  530TMC3    O2 7931   3.263   0.048   1.612 -0.3838 -0.4218  0.2084
  531MPD2     C 7932   2.285   1.323  13.477  0.0877 -0.4282  0.8460
  531MPD2    C1 7933   2.297   1.459  13.492  0.1825  0.5171  0.3846
  531MPD2    C2 7934   2.256   1.542  13.391 -0.3685  0.4836  0.8165
  531MPD2    C3 7935   2.191   1.494  13.279 -0.1682 -0.2329  0.0231
  531MPD2    C4 7936   2.185   1.365  13.257 -0.5384 -0.2944 -0.1797
  531MPD2    C5 7937   2.235   1.279  13.348  0.0404  0.1128 -0.4134
  531MPD2     H 7938   2.261   1.650  13.401 -0.9631  0.8458 -2.7497
  531MPD2    H1 7939   2.129   1.347  13.166  1.4733 -1.1426 -1.2435
  531MPD2    H2 7940   2.312   1.250  13.553  1.5075 -0.4139  0.3590
  531MPD2    H3 7941   2.231   1.175  13.317 -0.5334 -0.2421  0.8447
  531MPD2     N 7942   2.109   1.581  13.198  0.1640 -0.7208 -0.0120
  531MPD2    H5 7943   2.064   1.536  13.119 -0.4155  0.7655 -0.5486
  531MPD2    N1 7944   2.342   1.530  13.610 -0.5166 -0.1944  0.7484
  531MPD2    H7 7945   2.337   1.632  13.610  1.4037 -0.0856 -0.5400
  532TMC3    C1 7946   2.374   1.579  13.847  0.4248 -0.0909 -0.0243
  532TMC3    C2 7947   2.312   1.692  13.828 -0.1678 -0.2684  0.5507
  532TMC3    C3 7948   2.334   1.800  13.902 -0.4628 -0.4019  0.4075
  532TMC3    C4 7949   2.495   1.567  13.920  0.1102  0.3731  0.3597
  532TMC3    C5 7950   2.519   1.680  13.998 -0.9787 -0.0728 -0.0598
  532TMC3    C6 7951   2.432   1.789  13.999  0.1841  0.0035  0.6749
  532TMC3     C 7952   2.363   1.480  13.736 -0.4201  0.3905  0.0132
  532TMC3     O 7953   2.397   1.363  13.762 -0.7021  0.1296  0.6228
  532TMC3     H 7954   2.224   1.692  13.764  0.2697  2.2922 -0.0558
  532TMC3    H1 7955   2.550   1.473  13.919 -2.2210 -0.9908  0.3522
  532TMC3    H2 7956   2.446   1.870  14.069  3.0258  0.0355  0.0680
  532TMC3    C7 7957   2.649   1.732  13.991 -1.2862  0.2323 -0.1750
  532TMC3    C8 7958   2.304   1.937  13.847 -0.2283 -0.6336  0.0878
  532TMC3    O1 7959   2.651   1.853  13.991 -0.1008  0.0300 -0.1287
  532TMC3    O2 7960   2.373   2.030  13.884 -0.1406  0.7164 -0.3582
  533TMC3    C1 7961   3.321   3.499  14.675 -0.4000  0.3090 -0.0970
  533TMC3    C2 7962   3.458   3.511  14.662 -0.0926 -0.2014  0.5796
  533TMC3    C3 7963   3.527   3.604  14.735  0.7774 -0.4878 -0.2470
  533TMC3    C4 7964   3.258   3.574  14.767  0.2020 -0.2901  0.1620
  533TMC3    C5 7965   3.322   3.679  14.833 -0.2788 -0.6058  0.1541
  533TMC3    C6 7966   3.459   3.684  14.819 -1.6461  0.4754 -0.9029
  533TMC3     C 7967   3.279   3.363  14.689 -0.5428  0.0108 -0.0757
  533TMC3     O 7968   3.366   3.289  14.738  0.4055  0.2151 -0.5898
  533TMC3     H 7969   3.512   3.441  14.599  0.6726  0.2435  0.7287
  533TMC3    H1 7970   3.152   3.569  14.790  0.5966 -0.4343  1.9138
  533TMC3    H2 7971   3.509   3.777  14.844 -0.2390 -0.3488 -0.6422
  533TMC3    C7 7972   3.272   3.677  14.963 -0.5751  0.7453  0.3469
  533TMC3    C8 7973   3.643   3.662  14.680 -0.3520  0.3258 -0.3317
  533TMC3    O1 7974   3.344   3.640  15.054  0.5486 -0.3245  0.3284
  533TMC3    O2 7975   3.637   3.781  14.654  0.1050 -0.0932  0.4997
  534MPD2     C 7976   1.151   4.304   1.445  0.0378  0.3803 -0.7298
  534MPD2    C1 7977   1.158   4.431   1.490 -0.3252  0.0325  0.4211
  534MPD2    C2 7978   1.040   4.485   1.539 -0.1985  0.1608  0.0002
  534MPD2    C3 7979   0.917   4.418   1.540 -0.4717 -0.1659  0.7395
  534MPD2    C4 7980   0.914   4.292   1.490  0.3778  0.3698 -1.1653
  534MPD2    C5 7981   1.030   4.238   1.434 -0.4866 -0.0941  0.4325
  534MPD2     H 7982   1.044   4.582   1.586 -1.5007  1.0958 -1.8005
  534MPD2    H1 7983   0.822   4.235   1.488  0.9438 -0.6163  0.5723
  534MPD2    H2 7984   1.237   4.259   1.395 -0.9049 -1.3494 -0.7742
  534MPD2    H3 7985   1.033   4.143   1.384 -2.2823 -0.6233  1.3439
  534MPD2     N 7986   0.790   4.473   1.582 -0.2181  0.1081  0.9670
  534MPD2    H5 7987   0.716   4.407   1.559  0.2539 -0.0846  0.0247
  534MPD2    N1 7988   1.269   4.517   1.508  0.8700  0.2390 -0.3428
  534MPD2    H7 7989   1.246   4.614   1.528  0.4597 -0.2499  1.5729
  535TMC3    C1 7990   0.639   4.643   1.624 -0.5170  0.6840 -0.2538
  535TMC3    C2 7991   0.567   4.706   1.725  0.2857  1.4462  0.2513
  535TMC3    C3 7992   0.456   0.035   1.689 -0.3392 -0.0306 -0.1223
  535TMC3    C4 7993   0.597   4.637   1.488  0.3035  1.0845  0.3195
  535TMC3    C5 7994   0.485   4.716   1.460 -0.3726  0.3414 -0.4901
  535TMC3    C6 7995   0.417   0.043   1.557  0.2416 -0.1646  0.2641
  535TMC3     C 7996   0.764   4.588   1.655 -0.1405 -0.5333  0.6392
  535TMC3     O 7997   0.846   4.637   1.732 -0.5694  0.4262 -0.4809
  535TMC3     H 7998   0.596   4.685   1.827  1.9356  1.5937 -0.1802
  535TMC3    H1 7999   0.646   4.582   1.408 -1.4638 -2.9172  1.9799
  535TMC3    H2 8000   0.322   0.089   1.531  1.5059  0.7947 -2.5050
  535TMC3    C7 8001   0.443   4.729   1.322 -1.0636  0.0598  0.7251
  535TMC3    C8 8002   0.353   0.059   1.788  0.0630  0.0949 -0.1209
  535TMC3    O1 8003   0.468   4.635   1.249 -0.5539 -0.2247  0.3741
  535TMC3    O2 8004   0.243   0.069   1.743 -0.3545  0.0045 -0.3888
  536MPD2     C 8005   4.608   3.043  16.372  0.0119  0.5234 -0.4818
  536MPD2    C1 8006   4.489   2.996  16.420  0.2068  0.0786  0.1211
  536MPD2    C2 8007   4.382   3.005  16.338  0.0940 -0.2581  0.1307
  536MPD2    C3 8008   4.395   3.073  16.215  0.0558 -0.3865 -0.4416
  536MPD2    C4 8009   4.511   3.111  16.171 -0.3788  0.5354  0.0362
  536MPD2    C5 8010   4.624   3.106  16.254 -0.4474 -0.0425 -0.6429
  536MPD2     H 8011   4.280   2.985  16.370  0.2537  1.5430  1.7172
  536MPD2    H1 8012   4.518   3.153  16.071  1.8443 -0.4482 -0.2212
  536MPD2    H2 8013   4.691   3.049  16.441 -0.1789 -1.1672 -0.1203
  536MPD2    H3 8014   4.716   3.150  16.218  0.0961 -1.5692 -1.1179
  536MPD2     N 8015   4.286   3.092  16.125  0.0066  0.4453  0.4572
  536MPD2    H5 8016   4.310   3.127  16.032 -0.5333  1.6128  0.7593
  536MPD2    N1 8017   4.492   2.931  16.551  0.0725 -0.3106  0.7186
  536MPD2    H7 8018   4.582   2.924  16.597  0.0225  2.5404  1.2220
  537TMC3    C1 8019   4.410   2.797  16.719 -0.8927  0.5809  0.3537
  537TMC3    C2 8020   4.485   2.865  16.814  0.7672  0.4425  0.1968
  537TMC3    C3 8021   4.487   2.818  16.939 -0.0943  0.4867 -0.3819
  537TMC3    C4 8022   4.328   2.697  16.759 -0.3972  0.9998  0.0040
  537TMC3    C5 8023   4.338   2.641  16.885  0.2113 -0.0315 -0.1205
  537TMC3    C6 8024   4.424   2.701  16.978 -0.1580 -0.9536  0.0306
  537TMC3     C 8025   4.382   2.876  16.604 -0.0921 -0.5117 -1.0377
  537TMC3     O 8026   4.264   2.889  16.584 -0.2458 -0.4734 -0.4423
  537TMC3     H 8027   4.550   2.948  16.791  1.0685  0.6506  1.8022
  537TMC3    H1 8028   4.278   2.645  16.677 -0.1652  2.7240 -1.2226
  537TMC3    H2 8029   4.433   2.669  17.082  1.0843 -1.3561 -0.2072
  537TMC3    C7 8030   4.238   2.541  16.921 -0.0166  0.0167 -0.6296
  537TMC3    C8 8031   4.528   2.901  17.046  0.1452 -0.2758  0.8665
  537TMC3    O1 8032   4.152   2.507  16.841  0.1120  0.2434  0.4795
  537TMC3    O2 8033   4.549   2.843  17.150 -0.0510  0.5811 -0.5247
  538TMC3    C1 8034   1.227   0.416  11.538  0.1161  0.3921  0.1519
  538TMC3    C2 8035   1.354   0.442  11.501 -0.2491 -0.2418  0.2399
  538TMC3    C3 8036   1.382   0.529  11.394 -0.1004 -0.3761 -0.6231
  538TMC3    C4 8037   1.124   0.481  11.477  0.2341 -0.3616 -0.0047
  538TMC3    C5 8038   1.151   0.572  11.372 -0.3887 -0.1710  0.3741
  538TMC3    C6 8039   1.281   0.598  11.332  0.0090  0.2017  0.1574
  538TMC3     C 8040   1.204   0.391  11.678  0.3852  0.6845  0.0806
  538TMC3     O 8041   1.146   0.292  11.710  0.1396  0.4084  0.2375
  538TMC3     H 8042   1.437   0.401  11.559  0.9999 -0.3221 -1.5841
  538TMC3    H1 8043   1.020   0.483  11.509  1.2221  0.9787  3.0487
  538TMC3    H2 8044   1.312   0.673  11.260  0.0530 -0.3073 -0.3621
  538TMC3    C7 8045   1.036   0.656  11.343 -0.1733  0.9548 -0.0161
  538TMC3    C8 8046   1.513   0.525  11.342  0.5927 -0.2947 -0.3858
  538TMC3    O1 8047   0.940   0.596  11.299 -0.0208  0.0436  0.6406
  538TMC3    O2 8048   1.582   0.441  11.400 -0.2269  0.0052  0.0945
  539MPD2     C 8049   0.525   4.401  12.028 -0.3696 -0.8058 -0.5810
  539MPD2    C1 8050   0.613   4.486  11.963  0.4653 -0.1763 -0.1131
  539MPD2    C2 8051   0.584   4.622  11.963 -0.0596  0.2953  0.1923
  539MPD2    C3 8052   0.489   4.684  12.043 -0.2233  0.3471  0.5797
  539MPD2    C4 8053   0.410   4.591  12.117 -0.4782  0.3386  0.3593
  539MPD2    C5 8054   0.421   4.452  12.107  0.3360 -0.4639  1.2418
  539MPD2     H 8055   0.651   4.687  11.908 -2.5570  0.0436 -3.2069
  539MPD2    H1 8056   0.342   4.640  12.186 -1.2668 -1.2164  0.6983
  539MPD2    H2 8057   0.553   4.296  12.030 -0.9180 -0.9325  0.6572
  539MPD2    H3 8058   0.363   4.380  12.162  0.6107 -2.1822 -0.7387
  539MPD2     N 8059   0.460   0.088  12.044  0.3912 -0.1447  0.1286
  539MPD2    H5 8060   0.389   0.109  12.114  1.6037 -0.1434  1.3514
  539MPD2    N1 8061   0.720   4.449  11.882  0.0399  0.0447  0.7464
  539MPD2    H7 8062   0.792   4.514  11.851 -2.3529  1.8916 -0.9555
  540TMC3    C1 8063   0.438   0.308  11.957 -0.4391 -0.4595  0.3328
  540TMC3    C2 8064   0.422   0.370  11.833 -0.4197 -0.4842 -0.1121
  540TMC3    C3 8065   0.342   0.480  11.822 -0.2221  0.6024  0.1559
  540TMC3    C4 8066   0.390   0.363  12.066 -0.4623 -1.1428  0.5806
  540TMC3    C5 8067   0.320   0.477  12.058  0.1195  0.5070 -0.8268
  540TMC3    C6 8068   0.298   0.538  11.937 -0.2490  0.2398 -0.3279
  540TMC3     C 8069   0.510   0.180  11.960 -0.0911  0.2159  0.1912
  540TMC3     O 8070   0.598   0.175  11.876  0.3466 -0.2104  0.3746
  540TMC3     H 8071   0.478   0.333  11.747  0.6090 -2.2210  1.3115
  540TMC3    H1 8072   0.412   0.312  12.159  0.8211 -0.8718  0.4240
  540TMC3    H2 8073   0.250   0.635  11.933 -1.9210 -0.6243 -1.5912
  540TMC3    C7 8074   0.275   0.554  12.176 -0.4212 -0.6282  0.0591
  540TMC3    C8 8075   0.255   0.500  11.707 -0.2581  0.7250 -0.4052
  540TMC3    O1 8076   0.190   0.642  12.155  0.2567 -0.4253  0.2933
  540TMC3    O2 8077   0.150   0.563  11.720  0.0125 -0.4958  0.0513
  541MPD2     C 8078   3.311   2.292  13.262 -0.5127  0.2912  0.2211
  541MPD2    C1 8079   3.398   2.217  13.185  0.0029  0.3690 -0.3502
  541MPD2    C2 8080   3.479   2.282  13.092  0.1627  0.3828  0.0761
  541MPD2    C3 8081   3.469   2.419  13.074  0.1449 -0.1862 -0.3500
  541MPD2    C4 8082   3.389   2.493  13.161  0.4961 -0.1235 -0.3994
  541MPD2    C5 8083   3.310   2.428  13.250  0.6268 -0.4617  0.2343
  541MPD2     H 8084   3.546   2.223  13.031  0.4282 -0.3072  1.0343
  541MPD2    H1 8085   3.374   2.600  13.163  0.3305 -0.1799  0.8772
  541MPD2    H2 8086   3.243   2.244  13.332  0.1015 -0.7152  0.1157
  541MPD2    H3 8087   3.243   2.487  13.311 -1.4337 -1.2806 -1.2556
  541MPD2     N 8088   3.548   2.495  12.981 -0.0498  0.1708 -0.4802
  541MPD2    H5 8089   3.527   2.593  12.966 -0.4400  0.2448  0.5807
  541MPD2    N1 8090   3.399   2.078  13.179 -0.1732  0.2013 -0.5572
  541MPD2    H7 8091   3.478   2.039  13.127 -0.3904 -2.5988  1.1869
  542TMC3    C1 8092   3.698   2.548  12.806 -0.2584 -0.0828  0.2599
  542TMC3    C2 8093   3.828   2.542  12.765  0.7478  0.1658  0.2081
  542TMC3    C3 8094   3.862   2.552  12.636 -0.1935 -0.5529  0.9700
  542TMC3    C4 8095   3.601   2.579  12.719  0.0060  0.2343 -0.9585
  542TMC3    C5 8096   3.640   2.605  12.589 -0.2951 -0.0484 -0.2447
  542TMC3    C6 8097   3.771   2.583  12.545 -0.8576  0.7106  0.5585
  542TMC3     C 8098   3.659   2.456  12.912  0.4181  0.0804  0.8561
  542TMC3     O 8099   3.739   2.369  12.937  0.4140 -0.0384 -0.4604
  542TMC3     H 8100   3.904   2.503  12.831 -0.6921 -2.6455  0.2057
  542TMC3    H1 8101   3.497   2.587  12.747  0.5116  0.5334  0.8169
  542TMC3    H2 8102   3.799   2.598  12.441 -0.7477 -3.9230 -0.0671
  542TMC3    C7 8103   3.536   2.623  12.494  0.0848  0.5855  0.3070
  542TMC3    C8 8104   3.993   2.522  12.592  0.0626  0.5777  0.1411
  542TMC3    O1 8105   3.425   2.576  12.526 -0.5312  0.1077  0.5915
  542TMC3    O2 8106   4.081   2.556  12.667 -0.8129  0.8579  0.2570
  543TMC3    C1 8107   2.927   3.259  17.622  0.3899 -0.2257  0.8034
  543TMC3    C2 8108   2.894   3.140  17.674  0.2521 -0.1115 -0.3344
  543TMC3    C3 8109   2.858   3.127   0.063 -0.3286  0.1779  0.5751
  543TMC3    C4 8110   2.932   3.371  17.705 -0.8767  1.1217  0.0847
  543TMC3    C5 8111   2.892   3.362   0.089  0.1988 -0.0984 -0.3352
  543TMC3    C6 8112   2.858   3.237   0.143 -0.5207 -0.1274  0.8363
  543TMC3     C 8113   2.973   3.264  17.480  0.2676 -1.1684  0.2871
  543TMC3     O 8114   3.035   3.366  17.446 -0.3240 -0.2222 -0.0342
  543TMC3     H 8115   2.893   3.052  17.611 -0.5893 -0.3739  0.0362
  543TMC3    H1 8116   2.961   3.463  17.656  0.4244  1.0275  0.6819
  543TMC3    H2 8117   2.821   3.231   0.245  0.0099  0.2604  1.0579
  543TMC3    C7 8118   2.909   3.472   0.187 -0.2693 -0.0424  0.4322
  543TMC3    C8 8119   2.835   2.996   0.110 -0.4190 -0.7902 -0.6343
  543TMC3    O1 8120   2.907   3.442   0.306  0.0747  0.2492  0.0174
  543TMC3    O2 8121   2.830   2.913   0.023 -0.7110  0.0730  0.2261
  544MPD2     C 8122   2.830   2.636   0.481 -0.9060  0.6037  0.6533
  544MPD2    C1 8123   2.839   2.628   0.342  1.4441  0.3048  0.2130
  544MPD2    C2 8124   2.853   2.746   0.271 -0.0901  0.0849 -0.6298
  544MPD2    C3 8125   2.832   2.868   0.329  0.8579  0.0099  0.5373
  544MPD2    C4 8126   2.825   2.880   0.464  0.2401  0.0240  0.6398
  544MPD2    C5 8127   2.827   2.762   0.536  0.1739  0.4482  0.6138
  544MPD2     H 8128   2.859   2.741   0.163 -3.5018  0.2261 -0.8419
  544MPD2    H1 8129   2.819   2.976   0.515 -3.4590 -0.9791  2.0606
  544MPD2    H2 8130   2.818   2.550   0.546  0.1621 -0.6448 -0.8083
  544MPD2    H3 8131   2.793   2.770   0.638  0.2459 -0.6738  0.7218
  544MPD2     N 8132   2.825   2.986   0.252  0.2395 -0.8455  0.1903
  544MPD2    H5 8133   2.806   3.068   0.309 -1.9649 -0.5751 -0.9243
  544MPD2    N1 8134   2.836   2.504   0.275 -0.0193 -0.0277  0.2950
  544MPD2    H7 8135   2.839   2.425   0.339  0.6804 -0.5077 -0.3230
  545TMC3    C1 8136   2.800   2.343   0.121 -0.0571 -0.0494 -0.4082
  545TMC3    C2 8137   2.876   2.276   0.033  0.8370  0.2078 -0.2556
  545TMC3    C3 8138   2.879   2.138   0.041  0.1495  0.6262  0.4976
  545TMC3    C4 8139   2.708   2.280   0.195 -0.4265  0.0810  0.5488
  545TMC3    C5 8140   2.714   2.143   0.198 -0.4503  0.1567  0.1549
  545TMC3    C6 8141   2.787   2.068   0.113 -0.0824 -0.6165  0.7956
  545TMC3     C 8142   2.843   2.476   0.142 -0.0735 -0.1337  0.8202
  545TMC3     O 8143   2.857   2.552   0.046 -0.0651  0.2495  0.3405
  545TMC3     H 8144   2.947   2.332  17.721 -1.9587  1.9766 -1.9607
  545TMC3    H1 8145   2.651   2.347   0.259 -0.9223  1.2414 -1.0951
  545TMC3    H2 8146   2.780   1.960   0.103  0.2930 -0.5482 -0.2564
  545TMC3    C7 8147   2.605   2.076   0.271  0.3194  0.1225  0.2497
  545TMC3    C8 8148   2.965   2.059  17.702 -0.7351 -0.4072 -0.4199
  545TMC3    O1 8149   2.496   2.135   0.283  0.0077  0.4042  0.0669
  545TMC3    O2 8150   2.975   1.944  17.745 -0.2863  0.6509 -0.1286
  546MPD2     C 8151   4.493   3.343   0.402 -0.3815  0.3021 -0.0530
  546MPD2    C1 8152   4.488   3.366   0.270  0.1484  0.1809  0.0867
  546MPD2    C2 8153   4.587   3.445   0.208 -0.2818  0.7371 -0.1036
  546MPD2    C3 8154   4.678   3.513   0.288 -0.2957 -0.0584  0.2476
  546MPD2    C4 8155   4.680   3.486   0.425  0.3862 -0.4019 -0.1393
  546MPD2    C5 8156   4.592   3.395   0.482  0.3974 -0.1791 -0.7037
  546MPD2     H 8157   4.589   3.466   0.101  0.9477 -2.2128 -0.6611
  546MPD2    H1 8158   0.011   3.549   0.481  1.0137 -0.6132 -0.6665
  546MPD2    H2 8159   4.426   3.272   0.450 -0.2818 -0.5422 -1.1707
  546MPD2    H3 8160   4.599   3.383   0.590  1.1647  1.7249 -0.5341
  546MPD2     N 8161   0.038   3.597   0.236 -0.6458 -0.1411 -0.5469
  546MPD2    H5 8162   0.096   3.642   0.306 -1.8886 -1.8773  1.5684
  546MPD2    N1 8163   4.387   3.293   0.202 -0.0351  0.0710 -0.2511
  546MPD2    H7 8164   4.315   3.245   0.255 -1.5184 -1.0961 -3.3018
  547TMC3    C1 8165   4.271   3.192   0.022 -0.3571 -0.1257  0.0213
  547TMC3    C2 8166   4.258   3.184  17.634 -0.3914  0.6606 -0.0541
  547TMC3    C3 8167   4.161   3.107  17.578  0.1615 -0.7068  0.3794
  547TMC3    C4 8168   4.207   3.104   0.107  0.0498  0.7816 -0.0343
  547TMC3    C5 8169   4.129   3.010   0.045 -0.2051 -0.6928  0.6901
  547TMC3    C6 8170   4.094   3.018  17.655 -1.0864  0.6434  0.7614
  547TMC3     C 8171   4.373   3.293   0.066  0.0429  0.0586 -0.3984
  547TMC3     O 8172   4.423   3.368  17.726 -0.4527 -0.4572  0.1980
  547TMC3     H 8173   4.318   3.254  17.577 -0.5403  1.3231  0.5908
  547TMC3    H1 8174   4.239   3.084   0.209 -0.4237  0.1123 -0.0124
  547TMC3    H2 8175   4.014   2.956  17.616  0.2884 -1.3331  1.0988
  547TMC3    C7 8176   4.031   2.941   0.129  0.8193  1.4941 -0.0067
  547TMC3    C8 8177   4.088   3.157  17.463 -0.0127 -0.2202  0.4699
  547TMC3    O1 8178   3.992   3.005   0.225 -0.4702 -1.0907  0.0331
  547TMC3    O2 8179   3.970   3.132  17.457  0.3428  0.0514  0.3452
  548MPD2     C 8180   4.206   4.147  12.205 -0.0715 -0.0173 -0.4909
  548MPD2    C1 8181   4.187   4.036  12.286  0.3213 -0.4264 -0.5711
  548MPD2    C2 8182   4.274   3.931  12.264  0.4078 -0.0888 -0.2089
  548MPD2    C3 8183   4.388   3.942  12.177  0.3406  0.3423  0.0649
  548MPD2    C4 8184   4.414   4.059  12.115  0.7782  0.1141 -0.3584
  548MPD2    C5 8185   4.314   4.152  12.118 -0.1418  0.0874 -0.3372
  548MPD2     H 8186   4.260   3.831  12.305  0.8431  0.7676  2.0258
  548MPD2    H1 8187   4.494   4.074  12.044  1.4858  0.7718  0.5800
  548MPD2    H2 8188   4.133   4.227  12.194 -0.8875 -0.5743  0.9107
  548MPD2    H3 8189   4.314   4.236  12.051 -1.7407  1.1077  0.9424
  548MPD2     N 8190   4.475   3.830  12.176  0.2305  0.1103  0.6572
  548MPD2    H5 8191   4.447   3.756  12.239  0.7235  1.5329  2.5852
  548MPD2    N1 8192   4.068   4.028  12.361  0.4502 -0.0626  0.0617
  548MPD2    H7 8193   4.008   4.110  12.360 -0.7583 -0.8748  3.4788
  549TMC3    C1 8194   3.930   3.965  12.537 -0.5386  0.7092  0.4567
  549TMC3    C2 8195   3.834   4.051  12.492 -0.8305  0.2426 -0.0377
  549TMC3    C3 8196   3.731   4.074  12.579 -0.1076  0.0427 -0.2141
  549TMC3    C4 8197   3.936   3.906  12.662 -0.5672  0.5388  0.3515
  549TMC3    C5 8198   3.825   3.929  12.741  0.2194  0.8304  0.0479
  549TMC3    C6 8199   3.729   4.023  12.712 -0.1426  0.5282  0.1915
  549TMC3     C 8200   4.036   3.924  12.445 -0.0495 -0.5212  0.0924
  549TMC3     O 8201   4.084   3.811  12.473  0.2681  0.1183 -0.1135
  549TMC3     H 8202   3.837   4.099  12.395  1.7095  1.4249  0.6352
  549TMC3    H1 8203   4.012   3.831  12.680 -1.5715 -0.4311  0.5372
  549TMC3    H2 8204   3.643   4.027  12.778 -0.0799  1.2015  0.2297
  549TMC3    C7 8205   3.809   3.845  12.862 -0.1037  0.5151 -0.3001
  549TMC3    C8 8206   3.610   4.128  12.529  0.0785  0.1043  0.0756
  549TMC3    O1 8207   3.769   3.897  12.965  0.4678  0.2366 -0.3552
  549TMC3    O2 8208   3.604   4.143  12.411 -0.1651 -0.2435  0.0790
  550TMC3    C1 8209   2.826   1.294  12.480  0.3540 -0.4782 -0.7264
  550TMC3    C2 8210   2.793   1.377  12.584  0.5604  0.1018  0.3819
  550TMC3    C3 8211   2.689   1.467  12.569  0.7695 -0.4786 -0.1534
  550TMC3    C4 8212   2.751   1.288  12.363  0.0068 -0.1047  0.2310
  550TMC3    C5 8213   2.657   1.387  12.345  0.2636  0.4058 -1.1254
  550TMC3    C6 8214   2.626   1.480  12.444  0.1851  0.8626 -0.2947
  550TMC3     C 8215   2.948   1.209  12.498 -0.4638  0.2106 -0.7684
  550TMC3     O 8216   2.990   1.188  12.610  0.5479 -0.0384  0.2363
  550TMC3     H 8217   2.848   1.369  12.678  1.7989  0.2562 -0.3266
  550TMC3    H1 8218   2.774   1.225  12.278  1.8160  1.6796 -0.6079
  550TMC3    H2 8219   2.563   1.564  12.417 -2.8886 -1.0755  0.8412
  550TMC3    C7 8220   2.599   1.388  12.211  0.7781 -0.3251  0.4167
  550TMC3    C8 8221   2.659   1.561  12.676 -0.2164  0.3958  0.2710
  550TMC3    O1 8222   2.667   1.333  12.124 -0.5326 -0.0206  0.5513
  550TMC3    O2 8223   2.644   1.676  12.645  0.1233  0.0484 -0.0248
  551TMC3    C1 8224   1.007   4.281  13.246 -0.2458 -0.7339 -0.0058
  551TMC3    C2 8225   1.134   4.307  13.211  0.1370  0.3785 -0.1430
  551TMC3    C3 8226   1.186   4.423  13.265 -0.8037  0.4757  0.5947
  551TMC3    C4 8227   0.941   4.351  13.344  0.7548 -0.2236 -0.1035
  551TMC3    C5 8228   1.002   4.457  13.404 -0.5827  0.2511  0.4204
  551TMC3    C6 8229   1.119   4.508  13.352  1.2089  0.0183  0.3322
  551TMC3     C 8230   0.921   4.218  13.144 -0.0095  0.6656  0.4468
  551TMC3     O 8231   0.809   4.191  13.177 -0.5247  0.3203 -0.0341
  551TMC3     H 8232   1.188   4.252  13.135  2.7457  2.5111  0.1861
  551TMC3    H1 8233   0.839   4.322  13.368  0.1654 -0.0239 -2.3577
  551TMC3    H2 8234   1.173   4.588  13.401  0.9793  0.3550  0.0372
  551TMC3    C7 8235   0.960   4.493  13.542 -0.2743  0.0192 -0.0879
  551TMC3    C8 8236   1.320   4.461  13.213  0.2408 -0.5474 -0.6567
  551TMC3    O1 8237   0.938   4.408  13.629 -0.5627 -0.7655  0.2165
  551TMC3    O2 8238   1.364   4.383  13.137  0.1552  0.1523 -0.0162
  552MPD2     C 8239   2.236   1.284  14.195 -0.7985 -0.4473 -0.0247
  552MPD2    C1 8240   2.378   1.274  14.192 -0.4058  0.5664  0.6883
  552MPD2    C2 8241   2.452   1.381  14.243 -0.6204  0.1724  0.0433
  552MPD2    C3 8242   2.394   1.500  14.279  0.1290 -0.5035 -0.2012
  552MPD2    C4 8243   2.259   1.505  14.272  0.3353  0.6170 -0.3453
  552MPD2    C5 8244   2.182   1.398  14.236  0.2444 -0.4487 -0.2910
  552MPD2     H 8245   2.557   1.357  14.253 -1.1679 -1.9456  0.5791
  552MPD2    H1 8246   2.201   1.593  14.298  0.3042  0.7639 -0.9140
  552MPD2    H2 8247   2.174   1.205  14.157 -1.0533  0.1184 -0.7905
  552MPD2    H3 8248   2.073   1.406  14.233  0.4936  3.0150 -0.2329
  552MPD2     N 8249   2.464   1.605  14.341 -0.9760  0.1826  0.1918
  552MPD2    H5 8250   2.406   1.681  14.375 -3.2919 -1.0580 -1.0054
  552MPD2    N1 8251   2.447   1.165  14.138  0.1736 -0.6714  0.1059
  552MPD2    H7 8252   2.548   1.177  14.139 -0.1923  2.5752 -1.5930
  553TMC3    C1 8253   2.518   1.035  13.969 -0.0970 -0.4118  0.8509
  553TMC3    C2 8254   2.530   1.099  13.846 -0.4050 -0.0559  0.3604
  553TMC3    C3 8255   2.644   1.175  13.829  0.4000  0.3525  0.8314
  553TMC3    C4 8256   2.624   1.034  14.054  0.4098  0.2883  0.0768
  553TMC3    C5 8257   2.737   1.112  14.034  0.1195  0.2827 -0.6745
  553TMC3    C6 8258   2.754   1.185  13.920 -0.2681 -0.9392 -0.2314
  553TMC3     C 8259   2.402   1.082  14.039 -0.6027  1.5672  0.4202
  553TMC3     O 8260   2.288   1.077  13.997  0.0248  0.2448  0.0405
  553TMC3     H 8261   2.440   1.117  13.789 -0.2255  1.7042  0.6554
  553TMC3    H1 8262   2.611   0.979  14.147  0.2728 -0.3902 -0.3402
  553TMC3    H2 8263   2.840   1.251  13.919 -0.0736 -1.1541  2.4503
  553TMC3    C7 8264   2.782   1.165  14.157  0.5284  0.3427 -0.4356
  553TMC3    C8 8265   2.675   1.222  13.701 -0.5772 -0.0623  0.4804
  553TMC3    O1 8266   2.708   1.150  14.252 -0.3248 -0.3272  0.1789
  553TMC3    O2 8267   2.778   1.291  13.701 -0.3072  0.0689 -0.5918
  554TMC3    C1 8268   3.957   0.733  11.872 -0.4912  0.6127  0.0280
  554TMC3    C2 8269   3.886   0.645  11.796 -0.1910 -0.8186  0.1466
  554TMC3    C3 8270   3.921   0.630  11.665  0.2995  0.1814 -0.1404
  554TMC3    C4 8271   4.070   0.795  11.830  0.3226  0.1535  0.5796
  554TMC3    C5 8272   4.108   0.763  11.699  0.0843 -0.4150 -0.4567
  554TMC3    C6 8273   4.039   0.680  11.617 -0.4252 -0.4775  0.1827
  554TMC3     C 8274   3.981   0.681  12.004 -0.2808 -0.0078  0.4165
  554TMC3     O 8275   3.945   0.752  12.094  0.1900 -0.9198 -0.0175
  554TMC3     H 8276   3.792   0.608  11.834 -0.5602 -1.6493 -1.5982
  554TMC3    H1 8277   4.133   0.856  11.893  2.2942  0.0326 -1.2658
  554TMC3    H2 8278   4.078   0.651  11.520  1.6030 -2.0760  1.4730
  554TMC3    C7 8279   4.247   0.771  11.666  0.6540  0.0701 -0.1952
  554TMC3    C8 8280   3.812   0.586  11.573 -0.2751 -0.3489  0.3030
  554TMC3    O1 8281   4.273   0.806  11.552  0.3488 -0.4847  0.2245
  554TMC3    O2 8282   3.691   0.577  11.605 -0.0083  0.3412 -0.3509
  555TMC3    C1 8283   3.198   0.138  14.953 -0.6198 -0.3364 -0.5459
  555TMC3    C2 8284   3.166   0.263  15.008 -0.4817 -0.1050 -0.9736
  555TMC3    C3 8285   3.172   0.275  15.144 -0.0738 -0.0227 -0.1666
  555TMC3    C4 8286   3.253   0.041  15.029 -0.0384 -0.4045 -0.0795
  555TMC3    C5 8287   3.241   0.062  15.163 -0.4892 -0.6841  0.5202
  555TMC3    C6 8288   3.202   0.171  15.230 -0.1162  0.1442  0.3483
  555TMC3     C 8289   3.112   0.089  14.847  0.7966  0.5039  0.1717
  555TMC3     O 8290   3.166   0.016  14.767  0.2195 -0.0028 -0.2294
  555TMC3     H 8291   3.149   0.346  14.941 -1.4565  2.5623  2.5507
  555TMC3    H1 8292   3.261   4.678  14.989  2.1092 -1.5879  3.4266
  555TMC3    H2 8293   3.200   0.175  15.339  0.1914 -0.1892  0.3660
  555TMC3    C7 8294   3.248   4.680  15.247  0.0479  0.7575 -0.2556
  555TMC3    C8 8295   3.069   0.362  15.201  0.2890 -0.0602  0.4231
  555TMC3    O1 8296   3.173   4.675  15.347  0.0610 -0.1995  0.8014
  555TMC3    O2 8297   2.971   0.374  15.134 -0.0820  0.0705 -0.0722
  556MPD2     C 8298   1.287   1.577  10.849 -0.2092 -1.0941  0.1051
  556MPD2    C1 8299   1.384   1.568  10.947  0.2249  0.9996  0.0340
  556MPD2    C2 8300   1.508   1.513  10.915 -0.1909 -0.4238  0.0049
  556MPD2    C3 8301   1.523   1.457  10.788 -0.7855  0.0704  0.0080
  556MPD2    C4 8302   1.429   1.478  10.692  0.0475  0.1498  0.0966
  556MPD2    C5 8303   1.314   1.543  10.724 -0.7419 -0.4502 -0.5791
  556MPD2     H 8304   1.584   1.520  10.992 -0.9750  1.0098  0.6400
  556MPD2    H1 8305   1.444   1.451  10.588 -2.2361 -1.7360  0.2728
  556MPD2    H2 8306   1.191   1.627  10.858  1.0555  1.5799 -1.2815
  556MPD2    H3 8307   1.230   1.557  10.656 -1.1564  1.6531  0.3856
  556MPD2     N 8308   1.640   1.377  10.768  0.1017  0.8209 -0.2240
  556MPD2    H5 8309   1.706   1.382  10.845 -0.3378 -0.4655  0.2351
  556MPD2    N1 8310   1.367   1.626  11.074 -0.8526 -0.1090 -0.0370
  556MPD2    H7 8311   1.452   1.649  11.124 -0.8978  1.7523 -0.7965
  557TMC3    C1 8312   1.770   1.201  10.670  0.7371 -0.2509  0.4604
  557TMC3    C2 8313   1.824   1.153  10.555  0.0600  0.5741  0.2901
  557TMC3    C3 8314   1.882   1.029  10.565  0.4288  0.1768 -0.2652
  557TMC3    C4 8315   1.766   1.134  10.788  0.0114  0.2366  0.0225
  557TMC3    C5 8316   1.824   1.010  10.793 -0.5813  0.8293 -0.9023
  557TMC3    C6 8317   1.883   0.954  10.681  0.0648 -0.0173  0.5506
  557TMC3     C 8318   1.658   1.298  10.656  0.0615  0.1317 -0.1652
  557TMC3     O 8319   1.586   1.281  10.558 -0.2728  0.5631  0.7409
  557TMC3     H 8320   1.820   1.204  10.459  1.3119  0.8812  0.4063
  557TMC3    H1 8321   1.713   1.166  10.877  0.4599  0.1400  0.3297
  557TMC3    H2 8322   1.938   0.860  10.687 -1.3862 -1.0114 -1.6193
  557TMC3    C7 8323   1.766   0.923  10.885  0.1957  0.3058 -0.4208
  557TMC3    C8 8324   1.956   0.998  10.450  0.7298 -0.8079 -0.3095
  557TMC3    O1 8325   1.645   0.934  10.901  0.3883 -0.1859 -0.0349
  557TMC3    O2 8326   1.960   1.084  10.359 -0.5258 -0.3652  0.3419
  558TMC3    C1 8327   3.892   4.252  10.030  0.0626 -0.2169  0.1323
  558TMC3    C2 8328   3.805   4.229  10.131  0.0172  0.6849 -0.8698
  558TMC3    C3 8329   3.672   4.204  10.107 -0.4443  1.2990 -0.2554
  558TMC3    C4 8330   3.848   4.268   9.900 -0.3705  0.5199  0.6048
  558TMC3    C5 8331   3.715   4.239   9.873  0.0805  0.1450  0.1287
  558TMC3    C6 8332   3.623   4.211   9.975 -0.0468 -0.3980 -0.2590
  558TMC3     C 8333   4.030   4.216  10.048 -0.1125 -0.1793  0.4729
  558TMC3     O 8334   4.088   4.249  10.148 -0.2910 -0.4593 -0.0467
  558TMC3     H 8335   3.845   4.233  10.232  0.4247 -0.4216 -0.9839
  558TMC3    H1 8336   3.906   4.313   9.821 -0.7290  2.1109  1.2563
  558TMC3    H2 8337   3.519   4.197   9.947 -0.2416 -0.1036  0.2936
  558TMC3    C7 8338   3.660   4.281   9.750  0.0535  0.3292 -1.0250
  558TMC3    C8 8339   3.582   4.191  10.215  0.9883 -0.2521 -0.2727
  558TMC3    O1 8340   3.711   4.378   9.698 -0.3542 -0.1670 -0.6565
  558TMC3    O2 8341   3.467   4.223  10.187  0.0781 -0.4089  0.0165
  559MPD2     C 8342   3.977   0.152  11.114  0.2243 -0.5757  0.1273
  559MPD2    C1 8343   3.935   0.019  11.119  0.1758 -0.2594  0.2388
  559MPD2    C2 8344   4.028   4.659  11.152 -0.0879  0.3461 -0.0652
  559MPD2    C3 8345   4.161   4.690  11.174  0.2172 -0.3607 -0.3082
  559MPD2    C4 8346   4.202   0.085  11.163 -0.3250 -0.2094  0.0731
  559MPD2    C5 8347   4.105   0.184  11.148 -0.3564  0.4265  0.4844
  559MPD2     H 8348   3.992   4.556  11.154 -1.1357  0.7222  1.0911
  559MPD2    H1 8349   4.305   0.115  11.177  0.5693 -3.4193  0.4415
  559MPD2    H2 8350   3.908   0.230  11.084  2.6124  1.4143 -0.0958
  559MPD2    H3 8351   4.139   0.287  11.139 -1.6836  0.9915  2.1127
  559MPD2     N 8352   4.252   4.583  11.192  0.3737 -0.3312 -0.1322
  559MPD2    H5 8353   4.201   4.499  11.167  1.6689 -0.6731 -1.6105
  559MPD2    N1 8354   3.799   4.722  11.088  0.7729 -0.5032 -0.1689
  559MPD2    H7 8355   3.728   0.056  11.073  2.4607  1.3358  0.5832
  560TMC3    C1 8356   4.416   4.449  11.281  0.5185  0.5594 -0.4968
  560TMC3    C2 8357   4.383   4.365  11.181 -0.0060 -0.4788  0.7164
  560TMC3    C3 8358   4.438   4.240  11.193  0.6276 -0.2767  0.7288
  560TMC3    C4 8359   4.523   4.428  11.367  0.2745  0.0547 -0.0266
  560TMC3    C5 8360   4.574   4.301  11.371 -0.0864 -0.1640 -0.5171
  560TMC3    C6 8361   4.537   4.205  11.284 -0.0241 -0.0939  0.2103
  560TMC3     C 8362   4.366   4.580  11.276  0.3230  0.1492 -0.0411
  560TMC3     O 8363   4.429   4.667  11.333  0.4419  0.5528  0.1144
  560TMC3     H 8364   4.306   4.379  11.106  0.8454 -1.1653 -0.2792
  560TMC3    H1 8365   4.557   4.496  11.445  0.3704  1.1173 -0.9992
  560TMC3    H2 8366   4.578   4.105  11.294  1.4834  0.2319 -2.6934
  560TMC3    C7 8367   4.683   4.271  11.456 -0.2674 -1.2910 -1.1030
  560TMC3    C8 8368   4.368   4.141  11.113 -0.5987  0.5255 -0.1939
  560TMC3    O1 8369   4.703   4.152  11.475  0.3282 -0.1897  0.4045
  560TMC3    O2 8370   4.264   4.176  11.051  0.0715  0.2115  0.0913
  561TMC3    C1 8371   1.931   3.542  11.558  0.2626 -0.4421 -0.8764
  561TMC3    C2 8372   1.849   3.482  11.653  0.2530  0.0429  0.0603
  561TMC3    C3 8373   1.766   3.565  11.728 -0.0522 -0.6520 -0.4693
  561TMC3    C4 8374   1.940   3.679  11.556  0.4390 -1.0629  0.7801
  561TMC3    C5 8375   1.848   3.758  11.621 -0.7553  1.0633  0.2421
  561TMC3    C6 8376   1.765   3.700  11.716  0.4802  0.2497 -0.2789
  561TMC3     C 8377   2.028   3.463  11.485 -0.0106 -0.1894 -0.4157
  561TMC3     O 8378   2.117   3.528  11.431  0.0182 -0.0419 -0.0144
  561TMC3     H 8379   1.837   3.376  11.670  3.1354 -0.1413  0.9891
  561TMC3    H1 8380   2.012   3.716  11.483 -0.9122  2.1232  1.0485
  561TMC3    H2 8381   1.682   3.759  11.753  0.8821  0.9194 -0.4586
  561TMC3    C7 8382   1.877   3.902  11.636 -0.0289 -0.3866  0.1897
  561TMC3    C8 8383   1.702   3.508  11.844  0.1190  0.6375  0.7224
  561TMC3    O1 8384   1.830   3.959  11.734  0.4687  0.2774  0.6768
  561TMC3    O2 8385   1.641   3.402  11.841 -0.3475 -0.0724 -0.0745
  562TMC3    C1 8386   2.707   0.679  16.181  0.0656 -0.1984 -0.2845
  562TMC3    C2 8387   2.620   0.786  16.155  0.0915 -0.3287  0.2715
  562TMC3    C3 8388   2.596   0.813  16.022 -0.5764 -0.5175 -0.0904
  562TMC3    C4 8389   2.774   0.606  16.084  0.1338 -1.0410  0.2941
  562TMC3    C5 8390   2.728   0.625  15.962 -0.0534  0.1446 -0.1569
  562TMC3    C6 8391   2.635   0.726  15.927 -0.5571 -0.0218 -0.3763
  562TMC3     C 8392   2.725   0.647  16.322  0.5660  0.3393 -0.3458
  562TMC3     O 8393   2.629   0.656  16.393  0.4140 -0.3401  0.1659
  562TMC3     H 8394   2.593   0.852  16.236  0.1410 -0.1593  0.1496
  562TMC3    H1 8395   2.834   0.517  16.099 -0.4022 -1.2877  0.9443
  562TMC3    H2 8396   2.595   0.731  15.827 -1.7170  1.0273  0.1408
  562TMC3    C7 8397   2.768   0.538  15.853  0.4813 -1.1842  0.2152
  562TMC3    C8 8398   2.459   0.866  16.009 -0.2801  0.5945 -0.7427
  562TMC3    O1 8399   2.696   0.525  15.757  0.1250  0.2747 -0.0194
  562TMC3    O2 8400   2.390   0.874  16.109  0.1548 -0.3346  0.3693
  563MPD2     C 8401   0.444   2.000  15.655  0.6887 -0.2322 -0.2796
  563MPD2    C1 8402   0.450   2.061  15.778  0.4243 -0.0307  0.1430
  563MPD2    C2 8403   0.576   2.098  15.827  0.0176  0.8404  0.0149
  563MPD2    C3 8404   0.687   2.058  15.756  0.4047 -0.0550 -0.1086
  563MPD2    C4 8405   0.683   1.984  15.639 -0.3589  0.1463 -0.3829
  563MPD2    C5 8406   0.560   1.963  15.589 -0.4207  0.3972 -0.0373
  563MPD2     H 8407   0.588   2.145  15.924 -2.1370  0.5383  0.4342
  563MPD2    H1 8408   0.770   1.954  15.583 -0.6218 -1.2389 -0.0634
  563MPD2    H2 8409   0.349   1.971  15.610  0.9142 -2.3540  0.6432
  563MPD2    H3 8410   0.557   1.918  15.490  0.5703  0.1841  0.0255
  563MPD2     N 8411   0.810   2.091  15.817  0.1743  0.2219  0.3045
  563MPD2    H5 8412   0.810   2.151  15.900 -0.6411 -0.8280  1.0594
  563MPD2    N1 8413   0.328   2.088  15.843  1.2744  0.3216  0.1119
  563MPD2    H7 8414   0.242   2.060  15.798  2.1492 -1.8520 -0.2325
  564TMC3    C1 8415   0.189   2.154  16.024 -0.5727 -0.1314 -0.9555
  564TMC3    C2 8416   0.106   2.058  15.976  0.1101 -0.3951 -0.0804
  564TMC3    C3 8417   0.007   2.016  16.062 -0.3967 -0.1461  0.5376
  564TMC3    C4 8418   0.198   2.188  16.160 -0.5138 -0.4982  0.4006
  564TMC3    C5 8419   0.110   2.134  16.244  0.0316 -0.3709 -0.3533
  564TMC3    C6 8420   0.015   2.052  16.194 -0.1385 -0.4291 -0.3893
  564TMC3     C 8421   0.316   2.167  15.956  0.2083  0.0439  0.3707
  564TMC3     O 8422   0.400   2.225  16.022  0.3841  0.1852  0.0484
  564TMC3     H 8423   0.087   2.059  15.869  2.2506 -1.4314 -0.4627
  564TMC3    H1 8424   0.270   2.261  16.196 -1.5625  1.9533 -2.4497
  564TMC3    H2 8425   4.664   2.032  16.254  0.1373 -0.3243  0.0527
  564TMC3    C7 8426   0.182   2.063  16.351  0.2919 -0.2052  0.2033
  564TMC3    C8 8427   4.724   1.878  16.051 -0.1890 -0.7858 -0.0370
  564TMC3    O1 8428   0.291   2.104  16.382  0.3371  0.9156 -0.2133
  564TMC3    O2 8429   4.683   1.834  16.155  0.4177 -0.0401 -0.0412
  565TMC3    C1 8430   1.977   2.732  10.529  0.0698 -0.1851 -0.1862
  565TMC3    C2 8431   1.899   2.761  10.639  0.5616  0.0258  0.1274
  565TMC3    C3 8432   1.823   2.659  10.688  0.2292 -0.2917 -0.4367
  565TMC3    C4 8433   1.961   2.617  10.457 -0.0296  0.4152 -0.3309
  565TMC3    C5 8434   1.894   2.516  10.514 -0.0992  0.7847 -0.0294
  565TMC3    C6 8435   1.816   2.535  10.620 -0.2453 -0.5698 -0.0977
  565TMC3     C 8436   2.041   2.836  10.453  0.4524 -1.0399 -0.8032
  565TMC3     O 8437   2.092   2.797  10.350 -0.7987  0.2378  0.0781
  565TMC3     H 8438   1.913   2.852  10.696 -1.8129 -0.1737  1.0349
  565TMC3    H1 8439   2.005   2.603  10.359  0.0864  1.1408 -0.3814
  565TMC3    H2 8440   1.777   2.452  10.678 -0.4301 -1.0383 -0.9036
  565TMC3    C7 8441   1.922   2.379  10.478  0.1168 -0.4032 -0.5814
  565TMC3    C8 8442   1.733   2.668  10.803 -1.2213 -0.0864 -0.1401
  565TMC3    O1 8443   1.847   2.289  10.504 -0.0811 -0.2140  0.4908
  565TMC3    O2 8444   1.691   2.563  10.853  0.2530 -0.1084 -0.0232
  566MPD2     C 8445   3.369   3.740  14.335 -0.2348 -0.2121 -0.4818
  566MPD2    C1 8446   3.397   3.874  14.355 -0.2539  0.3559 -0.2666
  566MPD2    C2 8447   3.366   3.970  14.259  0.2261  0.3605  0.5205
  566MPD2    C3 8448   3.291   3.931  14.146  0.8788 -0.0165 -0.1471
  566MPD2    C4 8449   3.269   3.797  14.124 -0.3562  0.2943 -0.5625
  566MPD2    C5 8450   3.305   3.699  14.218  0.3092  0.5015  0.4907
  566MPD2     H 8451   3.395   4.074  14.265  0.5850  0.1986  1.6701
  566MPD2    H1 8452   3.211   3.762  14.038  0.3538 -1.2140 -0.4261
  566MPD2    H2 8453   3.380   3.664  14.412 -1.6306 -1.0650 -1.1171
  566MPD2    H3 8454   3.291   3.591  14.214 -0.9288  0.7039 -0.6244
  566MPD2     N 8455   3.231   4.024  14.056 -0.0626 -0.4506 -0.4974
  566MPD2    H5 8456   3.177   3.978  13.984 -1.0076 -0.3985  0.1780
  566MPD2    N1 8457   3.483   3.913  14.458  0.1734 -0.0883 -0.3612
  566MPD2    H7 8458   3.509   3.839  14.522  2.8885  0.6652 -0.5605
  567TMC3    C1 8459   3.606   4.058  14.604 -0.2831 -0.6093  0.3657
  567TMC3    C2 8460   3.681   4.178  14.603 -0.6390  0.5786 -0.0600
  567TMC3    C3 8461   3.648   4.278  14.693  0.1702 -0.0136 -0.2691
  567TMC3    C4 8462   3.514   4.033  14.701 -0.5413 -0.3030  0.3940
  567TMC3    C5 8463   3.481   4.145  14.788  0.1005  0.2904 -0.0833
  567TMC3    C6 8464   3.556   4.263  14.789  0.0196  0.4608 -0.6724
  567TMC3     C 8465   3.554   4.029  14.477 -0.0195  0.3006 -0.2260
  567TMC3     O 8466   3.574   4.120  14.391 -0.0606 -0.8904  0.0387
  567TMC3     H 8467   3.757   4.193  14.526 -0.7561 -1.8444 -0.6465
  567TMC3    H1 8468   3.439   3.955  14.696 -4.6486  3.7062 -0.4970
  567TMC3    H2 8469   3.541   4.347  14.856  1.2558 -0.7870  1.1787
  567TMC3    C7 8470   3.390   4.111  14.899 -0.4356  0.0655  0.3958
  567TMC3    C8 8471   3.698   4.409  14.660 -0.2549 -0.7605  0.8202
  567TMC3    O1 8472   3.383   3.994  14.926  0.7411 -0.3155  0.7645
  567TMC3    O2 8473   3.802   4.421  14.598 -0.3602  0.4273  0.2933
  568MPD2     C 8474   0.188   0.391  16.324  0.1423 -0.5874 -0.3073
  568MPD2    C1 8475   0.240   0.488  16.406 -0.2459  0.3883  0.1180
  568MPD2    C2 8476   0.180   0.610  16.400  0.1508 -0.1830 -0.2065
  568MPD2    C3 8477   0.065   0.638  16.319  0.1438 -0.0558  0.0696
  568MPD2    C4 8478   0.011   0.535  16.254 -0.3000 -0.0850  0.1861
  568MPD2    C5 8479   0.075   0.414  16.251 -0.0621 -0.9103  0.2218
  568MPD2     H 8480   0.217   0.684  16.470 -0.5169  1.2961 -1.4196
  568MPD2    H1 8481   4.662   0.547  16.188 -0.5803  0.5999  0.6807
  568MPD2    H2 8482   0.222   0.288  16.326  0.7828 -0.3622  0.2806
  568MPD2    H3 8483   0.034   0.337  16.187 -0.0193  0.4317 -1.3964
  568MPD2     N 8484   0.025   0.768  16.312  0.4291 -0.0967 -0.4301
  568MPD2    H5 8485   0.071   0.837  16.371 -1.4354  0.9334 -0.2052
  568MPD2    N1 8486   0.351   0.454  16.487  0.1042 -0.7941  0.1351
  568MPD2    H7 8487   0.401   0.367  16.473  0.6315 -0.2432 -1.3571
  569TMC3    C1 8488   4.658   0.964  16.258  0.6886 -0.2316 -0.7120
  569TMC3    C2 8489   4.664   0.993  16.392  0.8306 -0.0399  0.1150
  569TMC3    C3 8490   4.737   1.100  16.426 -0.3627  0.4843  0.3484
  569TMC3    C4 8491   4.727   1.041  16.164 -0.2692  0.4364  0.0645
  569TMC3    C5 8492   0.060   1.151  16.206  0.2440 -0.0411  0.4666
  569TMC3    C6 8493   0.066   1.183  16.335 -0.1779  0.3723 -0.4752
  569TMC3     C 8494   4.662   0.823  16.236 -0.1178  0.4849 -0.6893
  569TMC3     O 8495   4.586   0.775  16.153  0.6820  0.5713 -0.6376
  569TMC3     H 8496   4.621   0.917  16.456  0.8131  1.5144  1.9753
  569TMC3    H1 8497   4.732   1.022  16.058 -1.8819 -0.2167  0.1107
  569TMC3    H2 8498   0.133   1.266  16.355 -1.1226  0.3054  3.0727
  569TMC3    C7 8499   0.112   1.236  16.102  0.3452  0.3730  0.0606
  569TMC3    C8 8500   0.012   1.140  16.570  0.0013 -0.1284 -0.4838
  569TMC3    O1 8501   0.168   1.172  16.014 -0.1008  0.4416  0.3170
  569TMC3    O2 8502   4.661   1.102  16.642 -0.8075 -0.4524  0.2272
  570TMC3    C1 8503   4.649   4.102  16.265  0.1987 -0.5673  0.2856
  570TMC3    C2 8504   0.011   4.100  16.174 -0.8757 -0.4293 -0.4835
  570TMC3    C3 8505   0.122   4.170  16.212 -0.4984 -0.5517  0.0429
  570TMC3    C4 8506   4.654   4.175  16.383  0.4170  0.3788 -0.1866
  570TMC3    C5 8507   0.024   4.251  16.414  0.2718 -0.2455 -0.4854
  570TMC3    C6 8508   0.131   4.249  16.326 -0.2797 -0.0999  0.1639
  570TMC3     C 8509   4.522   4.048  16.226  0.2271  0.2524  0.4076
  570TMC3     O 8510   4.516   3.999  16.115  0.9775  0.5097 -0.1762
  570TMC3     H 8511   4.727   4.053  16.078 -2.7283 -0.9806  0.1970
  570TMC3    H1 8512   4.576   4.182  16.457  0.7141 -0.3460  0.1916
  570TMC3    H2 8513   0.222   4.301  16.352 -0.0942  0.9956 -2.7462
  570TMC3    C7 8514   0.045   4.279  16.557 -0.5788  0.1569  0.0033
  570TMC3    C8 8515   0.209   4.209  16.109 -0.4576 -0.1496  0.4253
  570TMC3    O1 8516   4.679   4.306  16.616 -0.4515  0.1551 -0.2901
  570TMC3    O2 8517   0.265   4.318  16.125  0.2448 -0.3968 -0.9722
  571MPD2     C 8518   1.566   2.673   0.845  0.1708 -0.3210  0.1930
  571MPD2    C1 8519   1.634   2.557   0.867  0.1557  0.3973 -0.3350
  571MPD2    C2 8520   1.771   2.542   0.839 -1.0761 -0.5311  0.2763
  571MPD2    C3 8521   1.836   2.655   0.800 -0.0935  0.0163  0.1888
  571MPD2    C4 8522   1.770   2.772   0.797 -0.1188  0.2342  0.3097
  571MPD2    C5 8523   1.641   2.785   0.821 -0.4103  0.0240 -0.5974
  571MPD2     H 8524   1.815   2.443   0.845  1.8993  0.6830 -1.7995
  571MPD2    H1 8525   1.833   2.858   0.780  0.1054  0.1769  0.8527
  571MPD2    H2 8526   1.459   2.683   0.848  0.0583 -0.4581 -3.6704
  571MPD2    H3 8527   1.590   2.881   0.809  0.8157  0.9324  1.4900
  571MPD2     N 8528   1.971   2.662   0.773  0.0179 -0.0204 -1.2584
  571MPD2    H5 8529   2.008   2.752   0.744 -1.1868  0.9152  0.1423
  571MPD2    N1 8530   1.552   2.453   0.917  0.0172 -0.7044 -0.0170
  571MPD2    H7 8531   1.453   2.474   0.920  0.3172  0.4962  1.7309
  572TMC3    C1 8532   2.183   2.613   0.701 -0.5913  0.4825  0.2404
  572TMC3    C2 8533   2.293   2.545   0.744 -0.3978 -0.2737  1.0956
  572TMC3    C3 8534   2.413   2.592   0.697 -0.0529 -0.6584  0.4331
  572TMC3    C4 8535   2.190   2.729   0.630  0.1326 -0.4367 -0.7140
  572TMC3    C5 8536   2.313   2.780   0.595 -0.3268  0.4887 -0.2585
  572TMC3    C6 8537   2.423   2.709   0.621  0.3706  0.3878  0.5528
  572TMC3     C 8538   2.061   2.564   0.761 -0.5392  0.2793  0.0914
  572TMC3     O 8539   2.052   2.448   0.801  0.3292  0.3261  0.1708
  572TMC3     H 8540   2.289   2.485   0.834 -1.0504 -0.7987  0.7101
  572TMC3    H1 8541   2.101   2.773   0.586 -0.1698 -1.9454 -1.6282
  572TMC3    H2 8542   2.520   2.733   0.578  0.2765  1.9938  1.2441
  572TMC3    C7 8543   2.310   2.868   0.487  0.3253 -0.2288 -0.2674
  572TMC3    C8 8544   2.529   2.541   0.759 -0.3980  0.2435 -0.2298
  572TMC3    O1 8545   2.225   2.856   0.401  0.3478  0.9178  0.0366
  572TMC3    O2 8546   2.624   2.623   0.756 -0.0054  0.0808 -0.3984
  573MPD2     C 8547   3.530   1.523   1.113  0.3992  0.3897 -0.1966
  573MPD2    C1 8548   3.473   1.598   1.016  0.2370 -0.6674 -0.4247
  573MPD2    C2 8549   3.348   1.572   0.964 -0.7742  0.4089 -0.9886
  573MPD2    C3 8550   3.277   1.460   1.005  1.1393  0.1866  0.2319
  573MPD2    C4 8551   3.333   1.381   1.105 -0.5230  0.4492 -0.0230
  573MPD2    C5 8552   3.460   1.409   1.152  0.8754 -0.6725  0.1817
  573MPD2     H 8553   3.302   1.639   0.893 -2.1834 -0.5451 -0.9817
  573MPD2    H1 8554   3.276   1.299   1.147 -1.6611  1.5633  0.6064
  573MPD2    H2 8555   3.627   1.542   1.158  1.0967 -1.2352 -1.0094
  573MPD2    H3 8556   3.499   1.344   1.229 -0.2391 -0.2675  1.0864
  573MPD2     N 8557   3.141   1.428   0.964  0.0202 -0.0751 -0.3753
  573MPD2    H5 8558   3.101   1.348   1.012  1.6668  0.2006  1.4305
  573MPD2    N1 8559   3.537   1.724   0.992  0.0762 -0.3757  0.1429
  573MPD2    H7 8560   3.616   1.742   1.053 -2.2856  0.5545  2.9294
  574TMC3    C1 8561   2.941   1.420   0.853 -0.6713 -0.4054  0.9294
  574TMC3    C2 8562   2.850   1.472   0.763 -0.6939  0.5117 -0.3549
  574TMC3    C3 8563   2.731   1.405   0.741 -0.3149 -0.1364 -0.0475
  574TMC3    C4 8564   2.921   1.303   0.921 -0.0220  0.0199 -0.1235
  574TMC3    C5 8565   2.797   1.248   0.901  0.9205  0.1759  0.3003
  574TMC3    C6 8566   2.702   1.295   0.817  0.9227  0.9724 -0.0955
  574TMC3     C 8567   3.068   1.492   0.873  0.2064 -0.3659  0.6433
  574TMC3     O 8568   3.073   1.605   0.827  0.4911 -0.0223  0.1324
  574TMC3     H 8569   2.869   1.569   0.719 -2.4719  1.1027  0.1878
  574TMC3    H1 8570   2.984   1.267   1.002 -0.2018 -0.2876 -0.1222
  574TMC3    H2 8571   2.603   1.252   0.805  2.1770 -1.7175 -0.8865
  574TMC3    C7 8572   2.760   1.143   0.997 -0.5592  0.7398 -0.0164
  574TMC3    C8 8573   2.623   1.454   0.657 -0.2938  0.0687 -0.7288
  574TMC3    O1 8574   2.838   1.128   1.091 -0.1154 -0.4751  0.0470
  574TMC3    O2 8575   2.510   1.415   0.677 -0.1694  0.3428 -0.0521
  575TMC3    C1 8576   1.293   2.484  11.539 -0.3846 -0.3846 -0.1235
  575TMC3    C2 8577   1.220   2.368  11.522 -0.2298  0.7010  0.1143
  575TMC3    C3 8578   1.184   2.331  11.392  0.0309  0.5341 -0.1415
  575TMC3    C4 8579   1.348   2.555  11.435  0.5327  0.2607  0.1466
  575TMC3    C5 8580   1.310   2.506  11.314  0.6162 -0.0902  0.0983
  575TMC3    C6 8581   1.237   2.394  11.288 -0.0057 -0.1480  0.1236
  575TMC3     C 8582   1.310   2.542  11.668 -0.2038  0.9519  0.0134
  575TMC3     O 8583   1.338   2.659  11.673  0.6566  0.1425 -0.4146
  575TMC3     H 8584   1.192   2.312  11.610  0.1567  3.4156  1.9816
  575TMC3    H1 8585   1.418   2.637  11.445 -0.3467  1.3757 -3.0690
  575TMC3    H2 8586   1.217   2.367  11.185 -1.4208 -2.7677  1.0742
  575TMC3    C7 8587   1.357   2.573  11.192  0.3004 -0.0748  0.2855
  575TMC3    C8 8588   1.131   2.195  11.384 -0.4268  0.5103  0.1893
  575TMC3    O1 8589   1.376   2.499  11.093  0.3917 -0.0467 -0.4713
  575TMC3    O2 8590   1.099   2.142  11.490  0.1609 -0.2682  0.3016
  576MPD2     C 8591   1.259   4.581  12.795  0.2746  0.4769 -0.3030
  576MPD2    C1 8592   1.358   4.614  12.699 -0.1092 -0.0143  0.1483
  576MPD2    C2 8593   1.431   4.729  12.720 -0.5993  0.0605 -0.6487
  576MPD2    C3 8594   1.403   0.075  12.827  0.2592 -0.3822 -0.2797
  576MPD2    C4 8595   1.299   0.046  12.903 -0.7971 -0.4240 -0.8055
  576MPD2    C5 8596   1.221   4.677  12.883 -0.6319 -0.6871 -0.2392
  576MPD2     H 8597   1.515   0.005  12.652  2.1125  1.0568  2.8963
  576MPD2    H1 8598   1.277   0.119  12.980 -0.4942 -1.7597  0.5452
  576MPD2    H2 8599   1.194   4.495  12.786  1.1443 -0.0906 -1.1605
  576MPD2    H3 8600   1.147   4.651  12.957 -0.5450 -0.5191 -0.0938
  576MPD2     N 8601   1.468   0.197  12.850  0.1950 -0.0626 -1.1570
  576MPD2    H5 8602   1.452   0.236  12.943  1.5767 -1.1346 -0.4505
  576MPD2    N1 8603   1.393   4.534  12.589 -0.4980 -0.2175 -0.2348
  576MPD2    H7 8604   1.454   4.568  12.516 -0.0425 -0.8257 -0.1378
  577TMC3    C1 8605   1.459   4.327  12.499 -0.5482  0.2934  0.1036
  577TMC3    C2 8606   1.418   4.190  12.487 -0.3709  0.3005 -0.3379
  577TMC3    C3 8607   1.505   4.110  12.415  0.0853  0.4929  0.4776
  577TMC3    C4 8608   1.565   4.383  12.439  0.2934 -0.8287  0.3274
  577TMC3    C5 8609   1.652   4.296  12.379 -0.0022  0.4050 -0.7575
  577TMC3    C6 8610   1.626   4.157  12.369 -0.0561 -0.4485 -0.1888
  577TMC3     C 8611   1.361   4.401  12.583 -0.8218  0.0397 -0.4533
  577TMC3     O 8612   1.309   4.327  12.667 -0.1280  0.4646  0.3557
  577TMC3     H 8613   1.330   4.146  12.530  1.4783 -2.4068  0.6998
  577TMC3    H1 8614   1.605   4.483  12.445 -3.1920  0.3315  3.7400
  577TMC3    H2 8615   1.687   4.095  12.304  0.3629 -1.7945  1.4951
  577TMC3    C7 8616   1.706   4.344  12.252  0.3719 -0.0611  0.2479
  577TMC3    C8 8617   1.452   3.983  12.356  0.3642  0.6443 -0.4279
  577TMC3    O1 8618   1.802   4.286  12.204 -0.1071 -0.0937  0.2650
  577TMC3    O2 8619   1.335   3.957  12.369  0.8208  0.2300  0.4862
  578MPD2     C 8620   3.683   0.323   2.202  0.1803  0.1804 -0.6011
  578MPD2    C1 8621   3.715   0.286   2.076 -1.0130  0.5158 -0.1349
  578MPD2    C2 8622   3.816   0.190   2.064 -0.8953 -0.0700 -0.8048
  578MPD2    C3 8623   3.896   0.143   2.173 -0.4473 -0.2177  0.4028
  578MPD2    C4 8624   3.853   0.187   2.294 -0.3064  0.0647  0.6543
  578MPD2    C5 8625   3.744   0.270   2.305 -0.4634 -0.2113 -0.9868
  578MPD2     H 8626   3.843   0.158   1.964 -1.4738  2.2612 -1.6966
  578MPD2    H1 8627   3.889   0.130   2.379 -1.7761 -1.4747  0.2479
  578MPD2    H2 8628   3.599   0.390   2.215  1.9718  1.9703  1.5037
  578MPD2    H3 8629   3.709   0.282   2.407 -3.5395  1.5453 -2.2561
  578MPD2     N 8630   4.004   0.057   2.156  0.1802 -0.5048  0.3241
  578MPD2    H5 8631   4.014   0.021   2.061  0.7564 -0.9202  0.5457
  578MPD2    N1 8632   3.639   0.332   1.965 -0.1308  0.0380 -0.0187
  578MPD2    H7 8633   3.578   0.410   1.981 -1.4638 -1.2193  0.9793
  579TMC3    C1 8634   4.225   4.733   2.175  0.3002  0.0328  0.3823
  579TMC3    C2 8635   4.342   0.042   2.230  0.1350  0.2636  0.9690
  579TMC3    C3 8636   4.453   4.736   2.166  0.4170  0.6819 -0.1252
  579TMC3    C4 8637   4.201   4.655   2.063  0.3331 -0.1176  0.1175
  579TMC3    C5 8638   4.316   4.615   2.006  0.2187 -0.0460  0.3018
  579TMC3    C6 8639   4.440   4.647   2.064  0.2656  0.6131  0.2976
  579TMC3     C 8640   4.109   0.059   2.240  0.6352 -0.2946 -0.4047
  579TMC3     O 8641   4.119   0.109   2.353 -0.3804 -0.4140  1.1408
  579TMC3     H 8642   4.351   0.113   2.311  1.8229 -0.0200  1.0447
  579TMC3    H1 8643   4.103   4.611   2.045  0.1637 -0.4674  1.8129
  579TMC3    H2 8644   4.529   4.602   2.023 -1.7668  0.4542 -3.9294
  579TMC3    C7 8645   4.313   4.525   1.885  0.1507 -0.0004 -0.1153
  579TMC3    C8 8646   4.579   0.063   2.194  0.7119 -1.0331  0.1894
  579TMC3    O1 8647   4.423   4.471   1.866 -0.0456 -0.1361 -0.0026
  579TMC3    O2 8648   4.584   0.117   2.301  0.4692  0.6390  0.0398
  580TMC3    C1 8649   3.468   3.768  12.140  0.3854  0.6409  0.5180
  580TMC3    C2 8650   3.555   3.876  12.131  0.0562  0.0306 -0.8241
  580TMC3    C3 8651   3.672   3.864  12.197 -0.0424  0.6415 -0.6777
  580TMC3    C4 8652   3.490   3.659  12.227  0.2076  0.4576  0.3481
  580TMC3    C5 8653   3.610   3.652  12.290  0.2634 -0.1377  0.2649
  580TMC3    C6 8654   3.704   3.757  12.274  0.4004 -0.5773 -0.3608
  580TMC3     C 8655   3.380   3.746  12.032 -0.0098  0.0157  0.3093
  580TMC3     O 8656   3.266   3.704  12.049 -0.3209  0.1783 -0.1483
  580TMC3     H 8657   3.544   3.958  12.062 -2.1664 -0.7098 -1.3260
  580TMC3    H1 8658   3.409   3.587  12.239 -0.6887  1.4242  0.1547
  580TMC3    H2 8659   3.797   3.746  12.328  0.2399  1.3237  0.2916
  580TMC3    C7 8660   3.666   3.522  12.309  0.8403 -0.3301  0.5543
  580TMC3    C8 8661   3.775   3.941  12.140 -0.3319  0.3166 -0.1356
  580TMC3    O1 8662   3.783   3.521  12.345 -0.0151 -0.2059 -0.1199
  580TMC3    O2 8663   3.762   4.059  12.125  0.6683  0.5236 -0.3285
  581MPD2     C 8664   1.803   3.167  14.953 -0.0850 -0.2163 -0.1434
  581MPD2    C1 8665   1.763   3.241  15.059  0.5252  0.6893  0.2755
  581MPD2    C2 8666   1.625   3.277  15.067  0.2929  0.4928  0.4612
  581MPD2    C3 8667   1.534   3.212  14.980  0.8533  0.6497 -0.4290
  581MPD2    C4 8668   1.585   3.133  14.877  0.1496  0.4910 -0.2331
  581MPD2    C5 8669   1.718   3.115  14.866 -0.3119  0.3487  0.4843
  581MPD2     H 8670   1.593   3.342  15.147 -1.1552  1.9009 -1.2873
  581MPD2    H1 8671   1.532   3.081  14.798 -1.9668  0.9722  0.8864
  581MPD2    H2 8672   1.908   3.146  14.935  0.4354  1.0589  1.3953
  581MPD2    H3 8673   1.761   3.061  14.782 -0.8894  0.3301  0.2054
  581MPD2     N 8674   1.400   3.267  14.982  0.7988  0.8083 -0.1653
  581MPD2    H5 8675   1.378   3.339  15.049  0.8188 -1.5179  2.3481
  581MPD2    N1 8676   1.861   3.281  15.155 -0.6836  0.6452 -0.6595
  581MPD2    H7 8677   1.957   3.261  15.130 -2.2144 -1.7912 -4.7285
  582TMC3    C1 8678   1.957   3.310  15.363  0.0880  0.6613  0.3799
  582TMC3    C2 8679   1.940   3.343  15.488  0.0213 -0.4008  0.5862
  582TMC3    C3 8680   2.019   3.272  15.578  0.2036  0.3007 -0.1472
  582TMC3    C4 8681   2.036   3.202  15.332  0.6517  0.7019 -0.0879
  582TMC3    C5 8682   2.087   3.115  15.416  0.7149 -0.3031  0.2383
  582TMC3    C6 8683   2.082   3.158  15.545  0.4029 -0.5966  0.5619
  582TMC3     C 8684   1.839   3.330  15.283 -1.0537 -0.2057  0.3408
  582TMC3     O 8685   1.740   3.379  15.334 -0.3136  0.1161 -0.1989
  582TMC3     H 8686   1.876   3.424  15.521  1.8764  0.0536  3.0327
  582TMC3    H1 8687   2.054   3.177  15.228  0.8062  1.7642 -0.3141
  582TMC3    H2 8688   2.129   3.097  15.620 -1.3437 -0.8781  1.4110
  582TMC3    C7 8689   2.015   2.995  15.379  0.2101  0.9540  0.4046
  582TMC3    C8 8690   2.007   3.310  15.719 -0.2776  0.8979  0.5393
  582TMC3    O1 8691   2.068   2.917  15.301  0.1417 -0.9257  0.3409
  582TMC3    O2 8692   1.896   3.360  15.752 -0.1518 -0.3575  0.1208
  583MPD2     C 8693   1.491   4.576  16.946  0.4843 -0.2654  0.1687
  583MPD2    C1 8694   1.450   4.686  16.880 -0.1843 -0.2921  0.3129
  583MPD2    C2 8695   1.390   0.050  16.951 -0.3071 -0.2560 -0.9826
  583MPD2    C3 8696   1.366   0.039  17.085  0.7989 -0.0840 -0.2338
  583MPD2    C4 8697   1.402   4.659  17.147  0.2860 -0.1396  0.2144
  583MPD2    C5 8698   1.467   4.559  17.073 -0.6027  0.4375  0.2326
  583MPD2     H 8699   1.355   0.139  16.900  2.7168 -0.0646 -2.7100
  583MPD2    H1 8700   1.397   4.637  17.253  1.4050  2.9109  0.9001
  583MPD2    H2 8701   1.533   4.491  16.894  1.0626 -0.9492  1.7639
  583MPD2    H3 8702   1.500   4.464  17.115 -0.0812  0.0817 -0.9738
  583MPD2     N 8703   1.307   0.143  17.153  0.4020  0.5099  0.5936
  583MPD2    H5 8704   1.283   0.226  17.099  2.0301  0.6482  0.0901
  583MPD2    N1 8705   1.468   4.709  16.738 -0.1008 -0.4588 -0.2970
  583MPD2    H7 8706   1.446   0.062  16.697  1.1898  0.0919  0.2262
  584TMC3    C1 8707   1.244   0.274  17.336 -0.2267  0.1816 -0.4070
  584TMC3    C2 8708   1.329   0.374  17.296  0.3249  0.0958  0.0192
  584TMC3    C3 8709   1.334   0.485  17.377 -0.6412 -0.1203  0.3427
  584TMC3    C4 8710   1.167   0.281  17.448  0.6206  0.1022 -0.3859
  584TMC3    C5 8711   1.169   0.398  17.518  0.3528  1.3003  0.7905
  584TMC3    C6 8712   1.249   0.506  17.481 -1.0426  0.2636  0.5274
  584TMC3     C 8713   1.259   0.141  17.285 -0.0624 -0.4151  0.1708
  584TMC3     O 8714   1.234   0.048  17.360 -0.6679  0.4300 -0.0321
  584TMC3     H 8715   1.388   0.367  17.205 -1.6847 -1.5702 -1.1729
  584TMC3    H1 8716   1.106   0.195  17.473 -0.9671  0.5124 -2.8103
  584TMC3    H2 8717   1.249   0.596  17.542  2.0984  1.1637 -0.7518
  584TMC3    C7 8718   1.099   0.392  17.644 -0.1553 -0.1361 -0.3905
  584TMC3    C8 8719   1.374   0.600  17.299  0.0923 -0.1723  0.1558
  584TMC3    O1 8720   1.113   0.292  17.712 -0.3684  0.5703 -0.0931
  584TMC3    O2 8721   1.379   0.596  17.180  0.4922  0.1881 -0.2599
  585MPD2     C 8722   0.514   4.202   0.859 -0.4546  0.1293  0.3359
  585MPD2    C1 8723   0.521   4.228   0.725 -0.1286 -0.1515  0.5691
  585MPD2    C2 8724   0.584   4.133   0.639  0.0420  0.5769  0.1966
  585MPD2    C3 8725   0.637   4.018   0.695  0.2761 -0.0095 -0.6782
  585MPD2    C4 8726   0.628   3.996   0.834 -1.2208 -0.3009  0.3119
  585MPD2    C5 8727   0.563   4.084   0.911 -1.4790  1.0031 -0.3161
  585MPD2     H 8728   0.585   4.146   0.532  0.3941  1.9318  0.3701
  585MPD2    H1 8729   0.673   3.908   0.879  0.8549  0.8751  0.5359
  585MPD2    H2 8730   0.482   4.278   0.929  0.3533 -0.7073  1.6244
  585MPD2    H3 8731   0.560   4.068   1.018 -0.0630  2.2771 -0.0830
  585MPD2     N 8732   0.706   3.920   0.621 -0.5286 -0.6165 -0.1997
  585MPD2    H5 8733   0.747   3.853   0.685 -0.4119  2.2517  2.7388
  585MPD2    N1 8734   0.456   4.341   0.680 -0.0380 -0.0823 -0.0294
  585MPD2    H7 8735   0.419   4.404   0.751  1.7629  3.6694 -2.3746
  586TMC3    C1 8736   0.781   3.783   0.447 -0.3881 -0.2298  0.0061
  586TMC3    C2 8737   0.888   3.785   0.368  0.3392  0.2538  0.2181
  586TMC3    C3 8738   0.979   3.685   0.381  0.0490  0.1026  0.2604
  586TMC3    C4 8739   0.747   3.682   0.529  0.0572  0.6932 -0.3484
  586TMC3    C5 8740   0.822   3.567   0.522  0.5411 -0.0163  0.6613
  586TMC3    C6 8741   0.943   3.572   0.461  0.8463 -0.0781 -0.7012
  586TMC3     C 8742   0.718   3.914   0.489  0.1221  0.2412 -0.8684
  586TMC3     O 8743   0.701   3.999   0.403  0.2072 -1.4904 -0.3487
  586TMC3     H 8744   0.925   3.882   0.337  3.5972 -1.0833 -0.0860
  586TMC3    H1 8745   0.653   3.686   0.583  0.5431 -1.5368  0.6795
  586TMC3    H2 8746   1.007   3.485   0.454  1.4446  0.3586 -0.6723
  586TMC3    C7 8747   0.743   3.461   0.469 -0.3845  0.0774  0.0430
  586TMC3    C8 8748   1.055   3.651   0.262 -0.1105 -0.1903  0.5022
  586TMC3    O1 8749   0.626   3.450   0.509 -0.3862  0.6830 -0.3354
  586TMC3    O2 8750   1.121   3.547   0.281  0.0467 -0.0490  0.2544
  587TMC3    C1 8751   3.218   3.070  16.526 -0.0727 -0.1553 -0.1160
  587TMC3    C2 8752   3.119   3.161  16.507 -0.1302 -0.7895  0.2696
  587TMC3    C3 8753   3.139   3.252  16.409 -0.1214  0.5740 -0.3600
  587TMC3    C4 8754   3.339   3.067  16.457  0.2561 -0.3688 -0.4148
  587TMC3    C5 8755   3.338   3.146  16.344 -0.1632 -0.4225 -0.0158
  587TMC3    C6 8756   3.243   3.245  16.327  0.0637  0.3822  0.3422
  587TMC3     C 8757   3.191   2.971  16.623  0.6304 -0.3296  0.2613
  587TMC3     O 8758   3.290   2.924  16.676  0.4664 -0.3801  0.0461
  587TMC3     H 8759   3.037   3.165  16.577 -0.2486  2.2451 -0.0774
  587TMC3    H1 8760   3.409   2.984  16.460 -1.0111 -1.4326 -0.2126
  587TMC3    H2 8761   3.249   3.295  16.232 -1.1359 -0.7120 -0.3159
  587TMC3    C7 8762   3.369   3.073  16.218  0.5743 -0.8508 -0.5079
  587TMC3    C8 8763   3.034   3.340  16.380 -0.0097 -0.0699 -0.3386
  587TMC3    O1 8764   3.287   3.085  16.128 -0.0436 -0.3256 -0.0629
  587TMC3    O2 8765   3.046   3.404  16.277 -0.5606 -0.1749  0.7881
  588TMC3    C1 8766   0.910   0.394  10.467 -0.3199 -0.6392  0.2419
  588TMC3    C2 8767   0.882   0.282  10.405 -0.9215  0.6096 -0.1142
  588TMC3    C3 8768   0.967   0.175  10.430 -0.0357 -0.0150  0.0369
  588TMC3    C4 8769   1.017   0.416  10.546  0.4201 -0.9108  0.3612
  588TMC3    C5 8770   1.094   0.310  10.568  0.2453 -0.5087  0.3005
  588TMC3    C6 8771   1.077   0.181  10.518 -0.8478  0.0487  0.9751
  588TMC3     C 8772   0.818   0.505  10.464 -0.2302 -0.4304  0.1061
  588TMC3     O 8773   0.766   0.532  10.356  0.5440  0.0135  0.5942
  588TMC3     H 8774   0.791   0.273  10.348  0.4396  0.4096 -2.2525
  588TMC3    H1 8775   1.041   0.519  10.568 -0.6802 -0.8791  1.3969
  588TMC3    H2 8776   1.150   0.105  10.545  0.2701  0.5564 -0.6158
  588TMC3    C7 8777   1.195   0.326  10.668 -0.0663  0.3889  0.3998
  588TMC3    C8 8778   0.931   0.049  10.367  0.2844  0.2975  0.5618
  588TMC3    O1 8779   1.305   0.277  10.645  0.3259  0.5021  0.0615
  588TMC3    O2 8780   0.828   0.054  10.305  0.5830  0.6208 -0.0867
  589TMC3    C1 8781   4.211   2.855   1.344 -0.4532  0.3991  0.2779
  589TMC3    C2 8782   4.250   2.787   1.459 -0.2562 -0.3624 -0.6076
  589TMC3    C3 8783   4.339   2.681   1.442  0.4341 -0.0957  0.3347
  589TMC3    C4 8784   4.242   2.804   1.213 -0.2847  0.3234 -0.2947
  589TMC3    C5 8785   4.325   2.690   1.205 -0.0968  0.0241 -0.4180
  589TMC3    C6 8786   4.369   2.632   1.319  0.1562  0.3175  0.1930
  589TMC3     C 8787   4.179   2.995   1.348 -0.1359 -0.1672  0.2708
  589TMC3     O 8788   4.127   3.054   1.255 -0.2747 -0.1839 -0.9555
  589TMC3     H 8789   4.232   2.829   1.557  2.6836 -0.9780  0.1894
  589TMC3    H1 8790   4.200   2.864   1.133 -0.6987  0.4885  0.0487
  589TMC3    H2 8791   4.411   2.532   1.315 -1.1026 -0.2005 -0.1262
  589TMC3    C7 8792   4.335   2.609   1.090  0.5474  0.3390  0.3941
  589TMC3    C8 8793   4.389   2.619   1.568  0.3671  0.7337  0.2257
  589TMC3    O1 8794   4.344   2.490   1.101 -0.3944  0.9143  0.0688
  589TMC3    O2 8795   4.326   2.633   1.667  0.3127  0.3973 -0.1474
  590MPD2     C 8796   3.777   0.795  16.552 -1.1858  0.5036 -0.0597
  590MPD2    C1 8797   3.752   0.929  16.583  0.1256  0.0780 -0.1491
  590MPD2    C2 8798   3.850   1.026  16.557 -0.0829  0.0015  0.8278
  590MPD2    C3 8799   3.969   0.986  16.492  0.5624  1.4026 -0.3187
  590MPD2    C4 8800   3.982   0.857  16.444  0.0794  0.0531 -0.2777
  590MPD2    C5 8801   3.891   0.764  16.481  1.3504  0.0645 -0.7085
  590MPD2     H 8802   3.836   1.128  16.588  0.3123  0.3466 -0.1268
  590MPD2    H1 8803   4.061   0.823  16.379 -0.2776  0.9463 -1.1733
  590MPD2    H2 8804   3.711   0.716  16.586 -0.3421  0.0290  0.4856
  590MPD2    H3 8805   3.904   0.662  16.446  0.4508  0.0851 -1.0986
  590MPD2     N 8806   4.054   1.089  16.461  0.0683  0.0729 -0.2695
  590MPD2    H5 8807   4.028   1.178  16.503  0.2078 -0.4042  0.8433
  590MPD2    N1 8808   3.624   0.950  16.636  0.0483  0.2429 -0.1897
  590MPD2    H7 8809   3.565   0.869  16.651  1.1725 -0.3700  0.8623
  591TMC3    C1 8810   4.238   1.203  16.358  0.1141  0.5597 -0.2245
  591TMC3    C2 8811   4.297   1.199  16.241 -0.2636 -0.7548 -0.8387
  591TMC3    C3 8812   4.345   1.318  16.182  0.0624  0.0328  0.8210
  591TMC3    C4 8813   4.199   1.321  16.411 -0.9350 -0.3715  0.6660
  591TMC3    C5 8814   4.239   1.438  16.353  0.1873 -0.4657  0.7083
  591TMC3    C6 8815   4.319   1.440  16.237  0.3925 -0.0150 -0.5635
  591TMC3     C 8816   4.164   1.077  16.383 -0.1382  0.3670 -0.8406
  591TMC3     O 8817   4.211   0.977  16.326 -0.4709  0.1576 -0.0715
  591TMC3     H 8818   4.306   1.117  16.171 -0.0552 -0.4230 -1.2075
  591TMC3    H1 8819   4.141   1.329  16.502 -0.2098  2.1240  0.9117
  591TMC3    H2 8820   4.354   1.539  16.208 -1.8564  0.6312 -1.0959
  591TMC3    C7 8821   4.170   1.561  16.401  0.6652  0.2652  0.1733
  591TMC3    C8 8822   4.437   1.301  16.070  0.1696 -0.0430 -0.0316
  591TMC3    O1 8823   4.066   1.556  16.468  0.4087 -0.4921 -0.4089
  591TMC3    O2 8824   4.454   1.189  16.017  0.5687  0.7192  0.6025
  592MPD2     C 8825   0.089   2.873  11.512  0.0093 -0.3422  0.4401
  592MPD2    C1 8826   0.048   2.958  11.613 -0.0171 -0.6520 -0.0371
  592MPD2    C2 8827   4.677   2.909  11.685 -0.2046 -0.3287  0.1495
  592MPD2    C3 8828   4.613   2.794  11.656 -0.2882  0.2220  0.7963
  592MPD2    C4 8829   4.647   2.719  11.546  0.0998 -0.0237 -0.9003
  592MPD2    C5 8830   0.025   2.754  11.475  0.6403  0.3098 -0.2873
  592MPD2     H 8831   4.653   2.958  11.778  2.9334  0.9073  0.3190
  592MPD2    H1 8832   4.599   2.625  11.522  1.5362 -1.0893  0.3758
  592MPD2    H2 8833   0.169   2.906  11.446 -0.3243 -0.3167  0.0467
  592MPD2    H3 8834   0.067   2.681  11.406  1.7411  1.0663 -0.4120
  592MPD2     N 8835   4.512   2.753  11.751 -0.5796  0.7934  0.4963
  592MPD2    H5 8836   4.511   2.812  11.833 -2.7198  0.0697  0.9999
  592MPD2    N1 8837   0.123   3.077  11.634 -0.2919 -0.6553 -0.5032
  592MPD2    H7 8838   0.197   3.089  11.566  1.5236 -0.9322  1.4377
  593TMC3    C1 8839   0.209   3.269  11.740  0.2559  0.2799 -0.4164
  593TMC3    C2 8840   0.185   3.365  11.833  0.2895  0.0272  0.3906
  593TMC3    C3 8841   0.289   3.460  11.843 -0.6884  1.8553  0.0426
  593TMC3    C4 8842   0.322   3.257  11.668  0.0847 -0.4706 -0.1593
  593TMC3    C5 8843   0.427   3.348  11.694 -0.9933 -0.2877  0.4251
  593TMC3    C6 8844   0.410   3.453  11.780 -0.0361  0.4996  0.3763
  593TMC3     C 8845   0.114   3.159  11.739  0.5164  0.5006  0.5668
  593TMC3     O 8846   0.017   3.167  11.816  0.0230 -0.6194  0.2373
  593TMC3     H 8847   0.100   3.383  11.898  0.8628  0.0347  1.1365
  593TMC3    H1 8848   0.348   3.175  11.602  2.4230  1.3004 -1.4617
  593TMC3    H2 8849   0.473   3.541  11.782  0.2832  0.2887 -0.3460
  593TMC3    C7 8850   0.529   3.358  11.593 -0.4866  0.2389 -0.3325
  593TMC3    C8 8851   0.243   3.588  11.902  0.3636 -0.2681 -0.7922
  593TMC3    O1 8852   0.520   3.291  11.491  0.5327 -0.5067  0.4353
  593TMC3    O2 8853   0.123   3.611  11.912  0.0895  0.5599  1.2096
  594MPD2     C 8854   3.161   1.837  14.125 -0.7853 -0.3519 -0.8835
  594MPD2    C1 8855   3.139   1.881  14.261  0.0361  0.2185  0.1005
  594MPD2    C2 8856   3.225   1.967  14.329  0.8448 -0.7882 -0.4132
  594MPD2    C3 8857   3.339   2.016  14.256 -0.0990  0.1199  0.7539
  594MPD2    C4 8858   3.349   1.986  14.123 -0.0448  0.3014  0.2943
  594MPD2    C5 8859   3.266   1.903  14.059 -0.0808 -0.1504  0.4734
  594MPD2     H 8860   3.207   2.011  14.427 -1.4168 -1.6964 -0.4405
  594MPD2    H1 8861   3.432   2.016  14.060  0.6181 -1.9951  0.0669
  594MPD2    H2 8862   3.089   1.785  14.063 -1.3187 -1.0189  0.2930
  594MPD2    H3 8863   3.281   1.888  13.952 -3.0783  1.2271 -0.1479
  594MPD2     N 8864   3.430   2.099  14.320  0.2751  0.6479  0.3999
  594MPD2    H5 8865   3.419   2.114  14.420  0.3012 -1.8255  0.7611
  594MPD2    N1 8866   3.028   1.822  14.326  0.8366 -1.1909  0.6915
  594MPD2    H7 8867   2.971   1.763  14.265 -1.4054  0.8017  0.8964
  595TMC3    C1 8868   3.852   2.286  14.412  0.7970  0.4178  0.5227
  595TMC3    C2 8869   3.774   2.197  14.337  0.3222  0.4623 -0.7192
  595TMC3    C3 8870   3.641   2.199  14.360  0.9007  0.0218 -0.3842
  595TMC3    C4 8871   3.800   2.355  14.525  0.3686 -0.0128  0.8184
  595TMC3    C5 8872   3.666   2.352  14.537 -0.3119 -0.2740  0.5566
  595TMC3    C6 8873   3.583   2.283  14.449 -0.2108 -0.4482 -0.6734
  595TMC3     C 8874   3.996   2.253  14.430  0.0757  0.0815 -0.6502
  595TMC3     O 8875   4.080   2.344  14.458  0.6746  0.3197  0.4311
  595TMC3     H 8876   3.820   2.145  14.254 -0.2538  1.1798 -1.4808
  595TMC3    H1 8877   3.869   2.411  14.588 -2.6536  2.8390  1.6181
  595TMC3    H2 8878   3.477   2.280  14.471 -0.3196  0.0943 -1.1330
  595TMC3    C7 8879   3.604   2.402  14.660  0.1888 -0.1976  0.3173
  595TMC3    C8 8880   3.549   2.129  14.264  0.4981 -0.2220  0.3839
  595TMC3    O1 8881   3.482   2.413  14.657 -0.1290 -0.1123 -0.1806
  595TMC3    O2 8882   3.590   2.116  14.155 -0.4819 -0.8760 -0.4494
  596MPD2     C 8883   2.330   4.566  16.851  0.7566  0.0016 -0.3370
  596MPD2    C1 8884   2.337   4.683  16.791 -0.3908 -0.6290 -0.6299
  596MPD2    C2 8885   2.381   4.694  16.659  0.2878 -0.4303 -0.4298
  596MPD2    C3 8886   2.399   4.576  16.584  0.4564  0.0832 -0.3252
  596MPD2    C4 8887   2.400   4.454  16.658  0.1717  0.0191 -0.4571
  596MPD2    C5 8888   2.369   4.453  16.787  0.0528  0.0765 -0.1462
  596MPD2     H 8889   2.375   0.056  16.618 -0.3855 -0.6437 -0.8497
  596MPD2    H1 8890   2.418   4.353  16.622 -0.2932  0.5454 -2.1845
  596MPD2    H2 8891   2.291   4.547  16.950 -0.4383 -1.2750 -1.0440
  596MPD2    H3 8892   2.373   4.360  16.842 -0.1938 -0.2120 -0.6159
  596MPD2     N 8893   2.396   4.574  16.443  0.3011  0.6430 -0.1771
  596MPD2    H5 8894   2.391   4.480  16.404 -0.1873  0.4218  0.4085
  596MPD2    N1 8895   2.300   0.067  16.857  0.4002  1.2594 -0.1962
  596MPD2    H7 8896   2.294   0.151  16.800  0.6470  1.5917  0.2732
  597TMC3    C1 8897   2.165   0.193  17.021  0.2273 -0.1890  0.2657
  597TMC3    C2 8898   2.160   0.301  16.936 -0.2349 -0.5306 -0.1037
  597TMC3    C3 8899   2.107   0.420  16.980  0.6487  0.0880 -0.4699
  597TMC3    C4 8900   2.110   0.196  17.141 -0.2853 -0.2666 -0.1087
  597TMC3    C5 8901   2.053   0.315  17.179 -0.3458  0.1896 -0.7952
  597TMC3    C6 8902   2.032   0.426  17.094  0.0274 -0.3327 -0.0911
  597TMC3     C 8903   2.244   0.073  16.986  0.0828  0.6129  0.2884
  597TMC3     O 8904   2.261   4.729  17.077  0.5373  0.5025  0.5585
  597TMC3     H 8905   2.208   0.295  16.839  0.5911 -0.0358  0.2760
  597TMC3    H1 8906   2.118   0.121  17.219  0.1910 -1.3143 -1.1639
  597TMC3    H2 8907   1.983   0.520  17.117  1.2024 -0.0434  1.2141
  597TMC3    C7 8908   1.988   0.327  17.309 -0.9517  0.2164  0.1608
  597TMC3    C8 8909   2.115   0.532  16.894 -0.8141  0.3085  0.4827
  597TMC3    O1 8910   1.938   0.230  17.357 -0.2322  0.3556  0.1868
  597TMC3    O2 8911   2.034   0.623  16.918 -0.3052  0.6604 -0.4478
  598TMC3    C1 8912   0.931   1.263  15.686 -0.9505  0.1471 -0.0947
  598TMC3    C2 8913   0.849   1.218  15.795  0.4487  0.4876 -0.5974
  598TMC3    C3 8914   0.711   1.249  15.784 -0.0236 -0.2638  0.0177
  598TMC3    C4 8915   0.888   1.341  15.584  0.5111 -0.3553  0.4373
  598TMC3    C5 8916   0.752   1.361  15.583  0.2125 -0.2786 -0.4379
  598TMC3    C6 8917   0.661   1.308  15.676  0.3627  0.0106  0.3846
  598TMC3     C 8918   1.043   1.175  15.657 -0.2308 -0.6058  0.0178
  598TMC3     O 8919   1.046   1.064  15.704 -0.2534  0.1924  0.0623
  598TMC3     H 8920   0.892   1.177  15.886  0.5038 -0.6284 -1.1298
  598TMC3    H1 8921   0.951   1.366  15.499  1.2252 -0.6628  0.8717
  598TMC3    H2 8922   0.555   1.334  15.675  0.1774 -0.7812 -0.5809
  598TMC3    C7 8923   0.698   1.425  15.464  0.4118  0.6012  0.1145
  598TMC3    C8 8924   0.616   1.166  15.855  0.0745 -0.0333 -0.0436
  598TMC3    O1 8925   0.594   1.380  15.425 -0.1069  0.4083  0.0983
  598TMC3    O2 8926   0.504   1.209  15.875 -0.2421 -0.6136  0.1623
  599MPD2     C 8927   0.570   4.089  16.220  0.7517 -0.1415  0.2761
  599MPD2    C1 8928   0.532   3.977  16.156 -0.5030  0.2934  0.1577
  599MPD2    C2 8929   0.474   3.874  16.232 -0.4604  0.8816  0.4303
  599MPD2    C3 8930   0.458   3.895  16.371 -0.1148  0.1410  0.4621
  599MPD2    C4 8931   0.489   4.005  16.431  0.5979  0.4513  0.5193
  599MPD2    C5 8932   0.543   4.105  16.354  0.0792  1.0944  0.1582
  599MPD2     H 8933   0.437   3.780  16.192  1.7631  0.1597  0.0731
  599MPD2    H1 8934   0.476   4.021  16.537 -0.9018  1.8387  0.1277
  599MPD2    H2 8935   0.601   4.179  16.168 -2.8834 -0.9346 -3.2944
  599MPD2    H3 8936   0.571   4.197  16.403  0.4340  1.7526 -1.2641
  599MPD2     N 8937   0.401   3.791  16.453  0.2395 -0.0472 -0.0319
  599MPD2    H5 8938   0.421   3.794  16.552 -0.5071  1.4602  0.0633
  599MPD2    N1 8939   0.549   3.969  16.012 -0.3591 -0.1955  0.0135
  599MPD2    H7 8940   0.584   4.051  15.964  3.3053 -2.7420 -1.6920
  600TMC3    C1 8941   0.323   3.571  16.512 -0.3938  0.0932  0.3761
  600TMC3    C2 8942   0.227   3.473  16.494  0.3026  0.3142 -0.3005
  600TMC3    C3 8943   0.189   3.415  16.611 -0.4714 -0.0322  0.0264
  600TMC3    C4 8944   0.391   3.587  16.630  0.2834  0.1280 -0.1506
  600TMC3    C5 8945   0.358   3.507  16.736  0.3922  0.3451  0.7233
  600TMC3    C6 8946   0.253   3.417  16.723  0.4024 -0.2748  0.5883
  600TMC3     C 8947   0.332   3.679  16.407  0.4128 -0.2695 -0.9231
  600TMC3     O 8948   0.303   3.633  16.297  0.0832  0.5597 -0.1553
  600TMC3     H 8949   0.182   3.455  16.397  0.4832  1.9099 -0.6902
  600TMC3    H1 8950   0.476   3.654  16.636  1.2256 -1.0926  0.0683
  600TMC3    H2 8951   0.219   3.359  16.809 -2.8313 -0.5665 -0.9158
  600TMC3    C7 8952   0.344   3.577  16.856  0.4123 -1.0225 -0.4840
  600TMC3    C8 8953   0.070   3.334  16.604  0.3844  0.3737 -0.3610
  600TMC3    O1 8954   0.348   3.700  16.847 -0.4425  0.7235 -0.0239
  600TMC3    O2 8955   0.068   3.243  16.689 -0.5817  0.1518 -0.5634
  601MPD2     C 8956   2.546   3.263   0.285  0.1527 -0.2571 -0.6390
  601MPD2    C1 8957   2.469   3.172   0.221 -0.2559  0.2853  0.0423
  601MPD2    C2 8958   2.415   3.067   0.292 -0.5841 -0.4755 -0.1932
  601MPD2    C3 8959   2.460   3.056   0.429 -0.1487  0.3326 -0.1701
  601MPD2    C4 8960   2.547   3.138   0.488 -0.1727  0.9133 -0.9368
  601MPD2    C5 8961   2.585   3.248   0.414 -0.0734 -0.1625 -0.7194
  601MPD2     H 8962   2.350   2.990   0.253 -0.6640  0.3973 -1.7583
  601MPD2    H1 8963   2.576   3.126   0.592  2.1766  1.2706 -1.5488
  601MPD2    H2 8964   2.593   3.350   0.240  1.5917 -1.0502 -0.6418
  601MPD2    H3 8965   2.650   3.329   0.447  1.0071 -1.7091  0.9458
  601MPD2     N 8966   2.419   2.951   0.512  0.4031  0.4128 -0.3779
  601MPD2    H5 8967   2.471   2.945   0.599 -0.8947  1.1914  0.4414
  601MPD2    N1 8968   2.427   3.190   0.089  0.2970  0.1653 -0.5503
  601MPD2    H7 8969   2.372   3.116   0.046 -0.1991 -0.4147  1.0737
  602TMC3    C1 8970   2.410   3.282  17.622  0.7977  0.1122 -0.7105
  602TMC3    C2 8971   2.276   3.240  17.633  0.5601 -0.1414  0.0378
  602TMC3    C3 8972   2.210   3.213  17.517  0.5666 -0.1902 -0.9188
  602TMC3    C4 8973   2.481   3.278  17.510 -0.7737  0.3328  0.1906
  602TMC3    C5 8974   2.409   3.246  17.397  0.0945  0.4638 -0.5054
  602TMC3    C6 8975   2.280   3.202  17.402  0.4458 -0.2554  0.1923
  602TMC3     C 8976   2.491   3.271  17.738  0.4830 -0.2532  0.5873
  602TMC3     O 8977   2.599   3.326  17.732 -0.0172  0.3333  0.0831
  602TMC3     H 8978   2.228   3.250  17.730  1.4283  0.2070  0.4317
  602TMC3    H1 8979   2.587   3.304  17.513 -0.5170 -0.7860  0.9271
  602TMC3    H2 8980   2.228   3.198  17.306 -1.4153  0.4076  1.1711
  602TMC3    C7 8981   2.494   3.230  17.281 -0.2602  0.2763 -0.4582
  602TMC3    C8 8982   2.081   3.149  17.523 -0.0474  0.1480 -0.6985
  602TMC3    O1 8983   2.602   3.284  17.282  0.4409 -0.2059 -0.0230
  602TMC3    O2 8984   1.996   3.194  17.599 -0.0556  0.5654  0.0089
  603TMC3    C1 8985   0.774   2.205  11.014 -0.6748  0.2186  0.1257
  603TMC3    C2 8986   0.778   2.280  11.124 -0.1741  0.2636 -0.9815
  603TMC3    C3 8987   0.863   2.388  11.127  0.2727 -0.1228 -0.4496
  603TMC3    C4 8988   0.847   2.240  10.905 -0.9014  0.2022 -0.0807
  603TMC3    C5 8989   0.932   2.351  10.909  0.2697  0.6769  0.0307
  603TMC3    C6 8990   0.953   2.419  11.028  0.2648 -0.3933  0.8750
  603TMC3     C 8991   0.685   2.089  11.012  0.3660  0.1055 -0.0788
  603TMC3     O 8992   0.592   2.091  11.095 -0.0361  0.4711 -0.2474
  603TMC3     H 8993   0.726   2.249  11.214  0.4800  2.2536  0.0734
  603TMC3    H1 8994   0.859   2.189  10.811  0.8306 -0.8099  0.6824
  603TMC3    H2 8995   1.003   2.513  11.007 -1.6944  0.5612  0.5116
  603TMC3    C7 8996   1.005   2.381  10.786 -0.0942  0.4110  0.0329
  603TMC3    C8 8997   0.860   2.460  11.250 -0.0529 -0.5485 -0.0762
  603TMC3    O1 8998   1.123   2.406  10.796  0.7163 -0.2697  0.3877
  603TMC3    O2 8999   0.775   2.429  11.330  0.6227  0.2348 -0.2042
  604MPD2     C 9000   1.001   1.630  15.988  0.1285  0.1021  0.0203
  604MPD2    C1 9001   0.991   1.523  16.070  0.1710 -0.4539 -0.8544
  604MPD2    C2 9002   1.071   1.411  16.048  0.1932  0.3503 -0.2013
  604MPD2    C3 9003   1.161   1.410  15.940  0.4768 -0.1047  0.0078
  604MPD2    C4 9004   1.180   1.525  15.866 -0.6846 -0.0970 -0.0093
  604MPD2    C5 9005   1.096   1.627  15.891 -0.8692  0.3945  0.6584
  604MPD2     H 9006   1.057   1.321  16.108  1.5567 -0.5014 -1.1762
  604MPD2    H1 9007   1.258   1.537  15.792 -1.2121 -0.9039 -0.6924
  604MPD2    H2 9008   0.947   1.723  16.003 -0.6512 -0.5131  0.9833
  604MPD2    H3 9009   1.109   1.716  15.831 -0.1237 -0.1104  0.0793
  604MPD2     N 9010   1.243   1.289  15.917  0.1586 -0.1191  0.6270
  604MPD2    H5 9011   1.217   1.202  15.962 -2.2344 -0.0066 -0.5435
  604MPD2    N1 9012   0.912   1.539  16.189  0.4903  0.9531 -0.3832
  604MPD2    H7 9013   0.863   1.627  16.198 -0.8597  0.4594 -2.8977
  605TMC3    C1 9014   0.874   1.544  16.417 -1.0038  0.0438  0.3537
  605TMC3    C2 9015   0.960   1.556  16.518  0.5679  0.2333 -0.6225
  605TMC3    C3 9016   0.952   1.675  16.586  0.1393 -0.2373  0.0223
  605TMC3    C4 9017   0.770   1.637  16.392  0.6116  0.2879  0.1836
  605TMC3    C5 9018   0.761   1.752  16.470  0.4207 -0.1681 -0.3251
  605TMC3    C6 9019   0.847   1.774  16.570  0.2200  0.0975 -0.6467
  605TMC3     C 9020   0.922   1.468  16.303 -0.7492  0.0385  0.8465
  605TMC3     O 9021   0.992   1.365  16.325 -0.2833  0.2082 -0.1811
  605TMC3     H 9022   1.044   1.491  16.537 -1.0671 -1.3715  1.0900
  605TMC3    H1 9023   0.705   1.628  16.306 -0.5954 -1.0261  1.2295
  605TMC3    H2 9024   0.831   1.863  16.629 -1.5921 -1.1251  0.7237
  605TMC3    C7 9025   0.628   1.802  16.491  0.4931 -1.3896 -0.2856
  605TMC3    C8 9026   1.065   1.721  16.666  0.1712  0.6159 -0.3914
  605TMC3    O1 9027   0.613   1.920  16.523 -0.1615  0.5067  0.0450
  605TMC3    O2 9028   1.067   1.844  16.697  0.3980  0.0145  0.6255
  606TMC3    C1 9029   1.980   0.401   0.038 -0.5882 -0.5009  0.8137
  606TMC3    C2 9030   2.072   0.501   0.032 -0.1181  0.3071 -0.1198
  606TMC3    C3 9031   2.194   0.474  17.719  0.4042 -0.3904 -1.1281
  606TMC3    C4 9032   2.000   0.282  17.713 -0.5569 -0.3163  0.8005
  606TMC3    C5 9033   2.125   0.264  17.662 -0.6814  0.1432  0.7407
  606TMC3    C6 9034   2.224   0.359  17.651  0.1324 -1.1797 -0.1909
  606TMC3     C 9035   1.870   0.404   0.128 -0.5550 -0.0443 -0.5977
  606TMC3     O 9036   1.781   0.320   0.106  0.0970  0.3648 -0.1709
  606TMC3     H 9037   2.047   0.602   0.061 -2.6806 -0.7377  1.2345
  606TMC3    H1 9038   1.920   0.210  17.710 -1.1988  0.3054  2.7113
  606TMC3    H2 9039   2.321   0.337  17.608 -0.0509 -1.7939 -0.2866
  606TMC3    C7 9040   2.147   0.145  17.577 -0.1912  0.2996 -0.1689
  606TMC3    C8 9041   2.313   0.543   0.009 -0.3365  0.6823 -0.1411
  606TMC3    O1 9042   2.244   0.151  17.503  0.5453  0.3407 -0.3158
  606TMC3    O2 9043   2.417   0.512  17.703 -0.2653 -0.3457  0.2806
  607MPD2     C 9044   0.339   2.716  11.726  0.0087 -0.3369 -0.0459
  607MPD2    C1 9045   0.413   2.809  11.802 -0.1872 -0.0083  0.1992
  607MPD2    C2 9046   0.353   2.876  11.904 -0.0770  0.3939 -0.1141
  607MPD2    C3 9047   0.225   2.842  11.949  0.1965  0.4283 -0.3350
  607MPD2    C4 9048   0.163   2.733  11.887 -0.1406 -0.8610  0.8257
  607MPD2    C5 9049   0.216   2.680  11.771 -0.5515  0.4297 -0.1528
  607MPD2     H 9050   0.406   2.957  11.953  0.4416  0.1784 -0.3250
  607MPD2    H1 9051   0.064   2.702  11.917 -0.6620  1.1092  1.1439
  607MPD2    H2 9052   0.388   2.658  11.649 -2.1051 -0.4466 -1.2996
  607MPD2    H3 9053   0.164   2.598  11.725  0.5623  0.3708 -1.3203
  607MPD2     N 9054   0.173   2.922  12.054  0.2676  0.1069 -0.3252
  607MPD2    H5 9055   0.224   3.007  12.076 -1.2977  1.2057 -0.9341
  607MPD2    N1 9056   0.537   2.861  11.777  0.1618 -0.1029 -0.1272
  607MPD2    H7 9057   0.580   2.913  11.853 -3.0661 -1.0011  2.2598
  608TMC3    C1 9058   0.712   2.945  11.630  0.4941 -0.0353 -0.0191
  608TMC3    C2 9059   0.763   3.009  11.739  0.4694  0.3531 -0.0163
  608TMC3    C3 9060   0.861   3.099  11.724 -0.8496  0.1463 -0.2807
  608TMC3    C4 9061   0.729   2.982  11.496 -0.2281 -0.5379  0.0975
  608TMC3    C5 9062   0.823   3.081  11.487 -0.1017  0.1465  0.3722
  608TMC3    C6 9063   0.880   3.144  11.594 -0.1349 -0.2474 -0.6737
  608TMC3     C 9064   0.601   2.857  11.653  0.1853  0.3837 -0.2152
  608TMC3     O 9065   0.565   2.804  11.548  0.7922 -0.4678 -0.3614
  608TMC3     H 9066   0.747   2.962  11.835 -0.7283 -1.5171 -1.1203
  608TMC3    H1 9067   0.687   2.940  11.406 -0.2571 -0.9853  0.3179
  608TMC3    H2 9068   0.948   3.227  11.579 -1.5874  1.0269 -0.0685
  608TMC3    C7 9069   0.886   3.101  11.359 -0.0148  0.2496 -0.5034
  608TMC3    C8 9070   0.877   3.200  11.825 -0.6985 -0.2247  0.4141
  608TMC3    O1 9071   0.822   3.065  11.264 -0.7318  0.4882 -0.6063
  608TMC3    O2 9072   0.971   3.278  11.827 -0.1176 -0.4706 -0.9528
  609TMC3    C1 9073   3.796   1.179   9.324 -0.1611  0.2934  0.8866
  609TMC3    C2 9074   3.801   1.208   9.190  0.3339  0.4435  0.2913
  609TMC3    C3 9075   3.910   1.163   9.124 -0.6132  0.2030 -0.3216
  609TMC3    C4 9076   3.873   1.083   9.386 -0.7918 -0.7397 -0.2821
  609TMC3    C5 9077   3.980   1.033   9.313  0.4306  0.1874  0.1381
  609TMC3    C6 9078   4.006   1.084   9.185 -1.2632 -0.4627  0.6949
  609TMC3     C 9079   3.691   1.242   9.405 -0.3316  0.3195  0.0084
  609TMC3     O 9080   3.667   1.185   9.510 -0.1932 -0.1709 -0.3068
  609TMC3     H 9081   3.731   1.282   9.153  0.4593  0.5825  0.3292
  609TMC3    H1 9082   3.864   1.051   9.489  0.2613  1.2175  0.4279
  609TMC3    H2 9083   4.094   1.057   9.129 -0.4042 -0.8520  2.2296
  609TMC3    C7 9084   4.093   0.988   9.388  0.3957  0.4609  0.0298
  609TMC3    C8 9085   3.917   1.178   8.980  0.1118  0.2525  0.0364
  609TMC3    O1 9086   4.107   1.037   9.502 -0.1724 -0.0116  0.0823
  609TMC3    O2 9087   4.021   1.141   8.935  0.0937  0.4372  0.4723
  610TMC3    C1 9088   0.576   3.102  12.636 -0.0569 -0.7716  0.0358
  610TMC3    C2 9089   0.651   3.103  12.526 -0.2966  0.1681 -0.0924
  610TMC3    C3 9090   0.716   2.987  12.496  0.1264  0.1561  0.5059
  610TMC3    C4 9091   0.578   3.000  12.727  0.1026 -0.2429 -0.1805
  610TMC3    C5 9092   0.663   2.896  12.707 -0.2953  0.1253 -0.2359
  610TMC3    C6 9093   0.739   2.892  12.591  0.0475  0.1178  0.3135
  610TMC3     C 9094   0.481   3.207  12.651 -0.0960 -0.4517 -0.1794
  610TMC3     O 9095   0.516   3.315  12.607 -0.2143 -0.0147  0.6775
  610TMC3     H 9096   0.630   3.179  12.451 -0.5035 -0.8595 -1.0861
  610TMC3    H1 9097   0.524   3.020  12.819  2.7118  2.8650  0.6780
  610TMC3    H2 9098   0.788   2.800  12.560 -1.0936 -0.6895  0.8850
  610TMC3    C7 9099   0.690   2.804  12.813 -0.5589 -0.0629 -0.2716
  610TMC3    C8 9100   0.808   2.985  12.386 -0.1826 -0.2210  0.4057
  610TMC3    O1 9101   0.802   2.756  12.808 -0.6110  0.1955  0.1162
  610TMC3    O2 9102   0.855   2.875  12.358 -0.2326  0.2747 -0.3259
  611MPD2     C 9103   0.181   1.908  10.171  0.1286 -0.2517 -0.3337
  611MPD2    C1 9104   0.115   2.022  10.190 -0.3600  0.3339 -1.3995
  611MPD2    C2 9105   0.176   2.136  10.146  0.4114  0.4281 -0.3038
  611MPD2    C3 9106   0.308   2.146  10.100  0.0292  0.5040  0.4161
  611MPD2    C4 9107   0.367   2.021  10.077 -0.2180 -0.6506  0.3622
  611MPD2    C5 9108   0.309   1.902  10.119  0.3677  0.4098 -0.1206
  611MPD2     H 9109   0.116   2.225  10.158  0.7790  0.8548 -1.7158
  611MPD2    H1 9110   0.470   2.023  10.044 -1.2429  0.7904 -2.7370
  611MPD2    H2 9111   0.134   1.820  10.211  1.0183  0.2593  1.8345
  611MPD2    H3 9112   0.364   1.809  10.121  0.8745  0.6664 -2.4726
  611MPD2     N 9113   0.375   2.262  10.050 -0.5598  0.0297 -0.4234
  611MPD2    H5 9114   0.474   2.251  10.030  0.2561  2.3021  2.3223
  611MPD2    N1 9115   4.720   2.006  10.235  0.2787 -0.1491  0.3171
  611MPD2    H7 9116   4.702   1.913  10.271  0.0976 -0.8706 -1.6750
  612TMC3    C1 9117   0.418   2.492  10.024 -0.5206 -1.1457  0.2983
  612TMC3    C2 9118   0.541   2.493  10.094  0.2730 -0.1204 -0.6411
  612TMC3    C3 9119   0.622   2.605  10.083 -0.0675  0.2696 -0.1906
  612TMC3    C4 9120   0.372   2.613   9.972 -0.6288  0.5928  0.3029
  612TMC3    C5 9121   0.456   2.726   9.959  0.0812  0.4617 -0.2114
  612TMC3    C6 9122   0.577   2.721  10.026 -0.0169  0.0151  0.2530
  612TMC3     C 9123   0.323   2.387  10.029 -0.2512  0.2438  0.2786
  612TMC3     O 9124   0.202   2.418  10.041 -0.2941  0.3424  0.6391
  612TMC3     H 9125   0.579   2.405  10.144 -0.1472  0.0480 -0.0270
  612TMC3    H1 9126   0.281   2.600   9.916 -1.5009 -2.3687  2.3754
  612TMC3    H2 9127   0.636   2.811  10.039 -1.4521  1.1765 -1.3171
  612TMC3    C7 9128   0.390   2.843   9.904  0.4385  0.6777  0.1944
  612TMC3    C8 9129   0.751   2.616  10.146 -0.4735  0.9885  0.2887
  612TMC3    O1 9130   0.270   2.830   9.894  0.0255 -0.1302  0.1729
  612TMC3    O2 9131   0.833   2.697  10.103 -0.1012 -0.6475  0.5522
  613MPD2     C 9132   3.360   0.647  16.472 -0.1734  0.1576  0.1214
  613MPD2    C1 9133   3.297   0.616  16.354 -0.1302  0.1424  0.6480
  613MPD2    C2 9134   3.322   0.496  16.287  0.3240 -0.3677  0.2570
  613MPD2    C3 9135   3.412   0.408  16.346  0.3936 -0.1619 -0.5156
  613MPD2    C4 9136   3.471   0.445  16.460  0.8850  0.6745 -0.0298
  613MPD2    C5 9137   3.444   0.554  16.533 -0.8837  0.8463  0.4662
  613MPD2     H 9138   3.270   0.467  16.197  1.1216  0.9128 -0.6277
  613MPD2    H1 9139   3.535   0.366  16.498  0.2911 -0.8518 -2.1495
  613MPD2    H2 9140   3.340   0.743  16.517  2.2628  0.2796  0.9342
  613MPD2    H3 9141   3.497   0.575  16.625  1.8346 -0.9990 -0.6824
  613MPD2     N 9142   3.451   0.291  16.286  0.2867  0.5042 -0.0017
  613MPD2    H5 9143   3.524   0.236  16.330 -0.1382  1.1224  1.4872
  613MPD2    N1 9144   3.220   0.716  16.289 -0.1337 -0.5736  0.1223
  613MPD2    H7 9145   3.237   0.812  16.319  0.9621 -0.4762 -0.8068
  614TMC3    C1 9146   3.143   0.828  16.103 -0.7709 -0.6505 -0.5568
  614TMC3    C2 9147   3.266   0.897  16.088  0.0247  0.0639  0.2704
  614TMC3    C3 9148   3.315   0.906  15.960 -0.0009 -0.7462  0.6781
  614TMC3    C4 9149   3.054   0.831  15.997 -0.3011 -0.6795  0.3814
  614TMC3    C5 9150   3.106   0.844  15.874  0.4087  0.4307 -0.2452
  614TMC3    C6 9151   3.235   0.878  15.849  0.4294  0.3187 -0.6302
  614TMC3     C 9152   3.146   0.702  16.170  0.1238 -0.2168  0.3736
  614TMC3     O 9153   3.089   0.606  16.118 -0.2480 -0.1996 -0.0501
  614TMC3     H 9154   3.343   0.886  16.164  0.3712  1.1950  0.0759
  614TMC3    H1 9155   2.957   0.782  15.999 -0.9636  0.6351  0.8962
  614TMC3    H2 9156   3.276   0.884  15.749  0.4500  0.0330 -0.6373
  614TMC3    C7 9157   3.023   0.831  15.765 -0.6786  0.7957  0.2107
  614TMC3    C8 9158   3.449   0.853  15.944 -0.4032  0.5181  1.0088
  614TMC3    O1 9159   2.919   0.891  15.772  0.2583 -0.1256 -0.4706
  614TMC3    O2 9160   3.481   0.763  16.022  0.8129 -0.2598  0.1234
  615MPD2     C 9161   3.251   1.598  16.833  0.0976 -0.4158 -0.1800
  615MPD2    C1 9162   3.119   1.636  16.835  0.0147 -0.2046 -0.0811
  615MPD2    C2 9163   3.034   1.591  16.742 -0.3081  0.5127  0.2772
  615MPD2    C3 9164   3.081   1.521  16.635  0.3964  0.4189 -0.5421
  615MPD2    C4 9165   3.215   1.486  16.630 -0.1610 -0.0559  0.4079
  615MPD2    C5 9166   3.297   1.519  16.733 -0.2789  0.3447 -0.1804
  615MPD2     H 9167   2.928   1.613  16.753 -0.1170  0.3120  2.4792
  615MPD2    H1 9168   3.255   1.421  16.553 -2.3812 -0.0279 -0.7487
  615MPD2    H2 9169   3.329   1.625  16.904 -1.3023  0.7532  0.9002
  615MPD2    H3 9170   3.400   1.486  16.733 -0.4686 -0.2390  2.3910
  615MPD2     N 9171   3.008   1.504  16.520 -0.7068 -0.0053  0.3334
  615MPD2    H5 9172   3.066   1.494  16.437 -1.8879  2.7087 -0.8244
  615MPD2    N1 9173   3.070   1.729  16.932 -0.1235  0.0541 -0.3562
  615MPD2    H7 9174   2.970   1.744  16.942  0.0714  1.1454 -0.0353
  616TMC3    C1 9175   3.094   1.928  17.049  0.1488  0.1890 -0.1294
  616TMC3    C2 9176   3.164   2.039  17.016 -0.1430  0.1575 -0.0257
  616TMC3    C3 9177   3.135   2.160  17.071 -0.5842  0.0230 -0.2650
  616TMC3    C4 9178   2.983   1.938  17.129  0.0594  0.6972 -0.2675
  616TMC3    C5 9179   2.943   2.057  17.179  0.3492  0.5533  0.5130
  616TMC3    C6 9180   3.024   2.165  17.155  0.0788  0.0899 -0.4195
  616TMC3     C 9181   3.155   1.808  17.006 -0.3092  0.4409  0.0736
  616TMC3     O 9182   3.276   1.802  17.024  0.1185  0.3003 -0.2827
  616TMC3     H 9183   3.250   2.041  16.950  1.1677  1.8636  1.7439
  616TMC3    H1 9184   2.918   1.853  17.148  1.4316 -0.4421 -0.6660
  616TMC3    H2 9185   2.996   2.253  17.212  0.0385 -0.9839  1.2099
  616TMC3    C7 9186   2.848   2.055  17.292 -0.3996 -0.0114 -0.3273
  616TMC3    C8 9187   3.225   2.282  17.056 -0.2508 -0.3318 -0.9726
  616TMC3    O1 9188   2.778   1.956  17.298  0.4289 -0.1140 -0.9063
  616TMC3    O2 9189   3.187   2.379  17.116 -0.2758 -0.1087 -0.5764
  617MPD2     C 9190   1.463   4.282  13.597 -0.4404 -0.6963 -0.2328
  617MPD2    C1 9191   1.484   4.269  13.734  0.2678  0.3642  0.3741
  617MPD2    C2 9192   1.377   4.249  13.816 -0.4694  0.2572  0.0293
  617MPD2    C3 9193   1.246   4.257  13.772 -0.2316 -0.2817 -0.0223
  617MPD2    C4 9194   1.230   4.271  13.638  0.7534  0.6904  0.0841
  617MPD2    C5 9195   1.337   4.282  13.551 -0.8671 -0.5581  0.0066
  617MPD2     H 9196   1.388   4.221  13.920  1.6267  0.5637 -0.1089
  617MPD2    H1 9197   1.131   4.272  13.594  0.6387  1.7626  0.3597
  617MPD2    H2 9198   1.542   4.294  13.523 -0.8770 -0.8929 -0.7294
  617MPD2    H3 9199   1.318   4.276  13.445  0.7533 -1.9479 -0.2030
  617MPD2     N 9200   1.133   4.226  13.852  0.2458  0.3830 -1.1456
  617MPD2    H5 9201   1.044   4.228  13.802  0.5843 -0.9583 -1.7872
  617MPD2    N1 9202   1.615   4.271  13.788 -0.2841 -0.6506 -0.0975
  617MPD2    H7 9203   1.689   4.250  13.721  2.3094 -1.4935  3.0049
  618TMC3    C1 9204   1.787   4.284  13.935  0.0686 -0.0591  0.3198
  618TMC3    C2 9205   1.857   4.169  13.905 -0.5891 -0.2121  0.4523
  618TMC3    C3 9206   1.994   4.174  13.911 -0.3550 -0.1981 -0.3341
  618TMC3    C4 9207   1.843   4.403  13.954  0.2378  0.1729  0.7811
  618TMC3    C5 9208   1.977   4.404  13.946 -0.2418 -0.4033  0.1688
  618TMC3    C6 9209   2.057   4.292  13.938  0.1586 -0.2185  0.2069
  618TMC3     C 9210   1.647   4.273  13.921 -0.5163 -0.1799 -0.4916
  618TMC3     O 9211   1.578   4.300  14.021 -0.0120 -0.0415 -0.0778
  618TMC3     H 9212   1.806   4.074  13.897  0.1504 -0.5797  0.0463
  618TMC3    H1 9213   1.795   4.497  13.981 -2.7452 -0.8780 -0.9000
  618TMC3    H2 9214   2.164   4.298  13.956 -0.1827 -1.1737  2.5368
  618TMC3    C7 9215   2.035   4.527  13.902 -0.3962 -0.0976  0.0983
  618TMC3    C8 9216   2.073   4.057  13.882 -0.3281  0.4425 -0.2213
  618TMC3    O1 9217   1.990   4.630  13.942 -0.3863  0.2030  0.1400
  618TMC3    O2 9218   2.172   4.022  13.947 -0.0798 -0.1168 -0.2142
  619MPD2     C 9219   2.831   0.738  13.828  0.9000  0.3063  0.7814
  619MPD2    C1 9220   2.791   0.830  13.729 -0.6433 -0.3319  0.7279
  619MPD2    C2 9221   2.663   0.828  13.682  0.6030  0.3668 -0.0821
  619MPD2    C3 9222   2.575   0.742  13.737 -0.5113 -0.4560  0.6978
  619MPD2    C4 9223   2.614   0.653  13.834  0.0514  0.7343  0.1947
  619MPD2    C5 9224   2.748   0.641  13.872 -0.4536  0.8115 -0.1176
  619MPD2     H 9225   2.631   0.903  13.611  1.0765 -0.0784 -0.7599
  619MPD2    H1 9226   2.539   0.588  13.878  0.8355 -0.6197 -0.4856
  619MPD2    H2 9227   2.931   0.733  13.870  0.1622  1.4512  2.6612
  619MPD2    H3 9228   2.787   0.574  13.948 -1.7581 -2.0134 -1.9146
  619MPD2     N 9229   2.437   0.759  13.723 -0.6338 -0.1400  0.1558
  619MPD2    H5 9230   2.380   0.700  13.784 -0.7686 -0.3650 -0.1904
  619MPD2    N1 9231   2.876   0.928  13.663  0.0698 -0.0341 -0.5622
  619MPD2    H7 9232   2.837   0.981  13.585 -0.4253  2.1238  1.1403
  620TMC3    C1 9233   3.072   1.051  13.637  0.2622 -0.1685 -0.0428
  620TMC3    C2 9234   3.034   1.069  13.505  0.4147 -0.2217 -0.8111
  620TMC3    C3 9235   3.072   1.193  13.458  0.5785  0.6650 -0.4550
  620TMC3    C4 9236   3.152   1.138  13.710  0.2422 -0.1928 -0.2391
  620TMC3    C5 9237   3.175   1.264  13.668 -0.6730  0.1961 -0.1632
  620TMC3    C6 9238   3.140   1.288  13.538  0.5845  0.2168  0.6248
  620TMC3     C 9239   3.003   0.954  13.711  0.5795 -0.7682 -0.4368
  620TMC3     O 9240   3.052   0.927  13.822 -0.0604  0.1637  0.7506
  620TMC3     H 9241   2.972   0.999  13.451  1.0515 -0.7994 -0.8024
  620TMC3    H1 9242   3.184   1.110  13.810  0.0697 -1.5697 -0.5663
  620TMC3    H2 9243   3.170   1.382  13.492  2.2776 -0.2811  0.6952
  620TMC3    C7 9244   3.119   1.359  13.759 -0.0253 -0.1899 -0.3532
  620TMC3    C8 9245   3.057   1.227  13.320 -0.2170 -0.2188 -0.6581
  620TMC3    O1 9246   3.068   1.318  13.865  0.0746 -0.2038  0.6869
  620TMC3    O2 9247   3.157   1.281  13.267  0.3308 -0.2119  0.5892
  621MPD2     C 9248   3.310   0.080  10.479  0.3193  0.0899 -1.0434
  621MPD2    C1 9249   3.268   0.096  10.351 -0.5332 -0.5319 -0.2062
  621MPD2    C2 9250   3.301   0.216  10.281 -0.1041  0.9328  0.0078
  621MPD2    C3 9251   3.357   0.320  10.348 -0.9972  0.4116  0.3846
  621MPD2    C4 9252   3.382   0.299  10.477 -0.3886  0.0780  0.1217
  621MPD2    C5 9253   3.358   0.183  10.547 -0.3770 -0.3823 -0.2368
  621MPD2     H 9254   3.286   0.225  10.174 -2.2168  1.7392  0.3665
  621MPD2    H1 9255   3.439   0.370  10.536  0.0043  1.4309 -1.8908
  621MPD2    H2 9256   3.305   4.730  10.544 -1.6960  2.6054  2.1690
  621MPD2    H3 9257   3.368   0.168  10.654 -0.1935  2.8101  0.1875
  621MPD2     N 9258   3.407   0.429  10.275 -0.6874 -0.0129  0.4892
  621MPD2    H5 9259   3.418   0.423  10.174  2.4038 -2.0894  0.9281
  621MPD2    N1 9260   3.181   0.001  10.286  0.0140  0.2467 -0.1287
  621MPD2    H7 9261   3.144   0.022  10.194  0.3106  0.4442 -0.2052
  622TMC3    C1 9262   3.030   4.553  10.276  0.0586  0.5357  0.0885
  622TMC3    C2 9263   2.950   4.481  10.357  0.0210  0.2566  0.0107
  622TMC3    C3 9264   2.816   4.463  10.323 -0.3430 -0.7501  0.4134
  622TMC3    C4 9265   2.991   4.585  10.146 -0.3641 -0.1621 -0.1013
  622TMC3    C5 9266   2.863   4.554  10.104  0.1707  0.3667  0.8352
  622TMC3    C6 9267   2.773   4.506  10.200  0.0194  0.0825  0.1286
  622TMC3     C 9268   3.136   4.625  10.342  0.0928  0.1130 -0.1293
  622TMC3     O 9269   3.144   4.590  10.461  0.0759 -0.7766  0.0106
  622TMC3     H 9270   2.988   4.453  10.455  0.3970  0.0875 -0.1839
  622TMC3    H1 9271   3.064   4.617  10.073  2.2335 -2.6382  1.4269
  622TMC3    H2 9272   2.666   4.508  10.184 -0.0291 -0.6008  0.3489
  622TMC3    C7 9273   2.824   4.589   9.971 -0.5388 -0.4322  0.7563
  622TMC3    C8 9274   2.728   4.517  10.426  0.1555 -0.3952 -1.1767
  622TMC3    O1 9275   2.746   4.510   9.920 -0.4049  0.4435  0.4056
  622TMC3    O2 9276   2.606   4.502  10.419  0.0725  0.0163  0.0307
  623MPD2     C 9277   1.620   2.297  16.011 -0.6900 -0.3747  0.1494
  623MPD2    C1 9278   1.522   2.272  16.104 -0.3688 -0.3665 -0.2370
  623MPD2    C2 9279   1.556   2.249  16.233 -0.0421 -0.1703  0.5512
  623MPD2    C3 9280   1.689   2.246  16.278  0.1333  0.5325 -0.4846
  623MPD2    C4 9281   1.788   2.262  16.185 -0.4565 -0.6708 -0.2839
  623MPD2    C5 9282   1.750   2.300  16.060 -0.1393 -0.5211 -0.7609
  623MPD2     H 9283   1.479   2.228  16.307 -1.4457 -0.4479 -0.9914
  623MPD2    H1 9284   1.894   2.261  16.206 -0.9309 -1.1322  2.0698
  623MPD2    H2 9285   1.603   2.308  15.905 -1.1592  0.6923  0.3349
  623MPD2    H3 9286   1.828   2.332  15.991 -1.2592  1.4088 -1.1293
  623MPD2     N 9287   1.706   2.211  16.410 -0.7501  0.0890 -0.6701
  623MPD2    H5 9288   1.619   2.192  16.460 -0.6730 -0.3547 -0.7036
  623MPD2    N1 9289   1.380   2.254  16.075  0.0281 -0.3376 -0.0797
  623MPD2    H7 9290   1.322   2.227  16.154 -1.1552 -0.6070 -1.0496
  624TMC3    C1 9291   1.939   1.969  16.726 -0.4642  0.3922  0.1725
  624TMC3    C2 9292   1.819   1.906  16.754 -0.6696 -0.0974  1.1603
  624TMC3    C3 9293   1.704   1.965  16.710  0.3220 -0.0336 -0.1939
  624TMC3    C4 9294   1.931   2.085  16.665 -0.4363  0.4063  0.5818
  624TMC3    C5 9295   1.819   2.138  16.610  0.3216  0.6304  0.2906
  624TMC3    C6 9296   1.701   2.087  16.647 -0.2263 -0.0622  0.1162
  624TMC3     C 9297   2.067   1.915  16.763  0.5464 -0.3466 -0.4359
  624TMC3     O 9298   2.160   1.989  16.793 -0.1030 -0.1929 -0.2226
  624TMC3     H 9299   1.820   1.814  16.811  1.4590 -0.4914  0.4760
  624TMC3    H1 9300   2.021   2.141  16.641 -0.3984  0.8693  1.7911
  624TMC3    H2 9301   1.606   2.126  16.613 -0.5450 -1.5917 -0.7605
  624TMC3    C7 9302   1.828   2.199  16.479  0.6263  0.0826  0.2967
  624TMC3    C8 9303   1.581   1.898  16.722 -0.7988  0.1782  0.2238
  624TMC3    O1 9304   1.940   2.219  16.438  0.1492 -0.1316 -0.0534
  624TMC3    O2 9305   1.484   1.946  16.666 -0.1707 -0.3337  0.1433
  625MPD2     C 9306   2.237   3.366   1.040 -1.1006 -0.5850  0.0913
  625MPD2    C1 9307   2.243   3.501   1.046  0.3010 -0.1377 -0.1243
  625MPD2    C2 9308   2.357   3.568   1.092 -0.5205  0.0465  0.1965
  625MPD2    C3 9309   2.470   3.497   1.131 -0.7416  0.5651 -0.2877
  625MPD2    C4 9310   2.453   3.357   1.134  0.3041  0.0286 -0.1505
  625MPD2    C5 9311   2.338   3.290   1.095  0.2682  0.2541  0.2396
  625MPD2     H 9312   2.368   3.676   1.088  2.6793 -0.2862 -0.0299
  625MPD2    H1 9313   2.540   3.297   1.157 -0.2554 -0.8075 -0.2203
  625MPD2    H2 9314   2.149   3.312   1.007 -1.1796  0.0730 -0.7550
  625MPD2    H3 9315   2.326   3.183   1.108  0.2362  0.1726 -0.4532
  625MPD2     N 9316   2.596   3.561   1.150 -0.1854 -0.1936  0.3825
  625MPD2    H5 9317   2.601   3.657   1.119  0.2611  0.4207  2.3731
  625MPD2    N1 9318   2.130   3.583   1.022 -0.2876 -0.2589 -0.0711
  625MPD2    H7 9319   2.125   3.679   1.052 -0.2740 -0.5139  0.7463
  626TMC3    C1 9320   1.925   3.642   0.919 -0.6709 -0.0675 -0.7966
  626TMC3    C2 9321   1.882   3.650   0.789  0.3829  0.0549  0.5444
  626TMC3    C3 9322   1.779   3.739   0.763  0.2124 -0.3152 -0.3659
  626TMC3    C4 9323   1.875   3.719   1.018  0.5320 -0.3050 -0.0701
  626TMC3    C5 9324   1.771   3.796   0.986  0.6113 -0.7347  0.0043
  626TMC3    C6 9325   1.719   3.809   0.864  0.1285 -0.3369  0.6928
  626TMC3     C 9326   2.026   3.538   0.947  0.5419  0.7192 -0.1360
  626TMC3     O 9327   2.026   3.448   0.870 -0.5053  0.1370 -0.2685
  626TMC3     H 9328   1.924   3.582   0.715 -0.7833 -0.8463  0.7085
  626TMC3    H1 9329   1.887   3.699   1.124 -0.3526 -1.3973 -0.1791
  626TMC3    H2 9330   1.634   3.875   0.846  0.6345 -0.2053 -1.2189
  626TMC3    C7 9331   1.704   3.857   1.100 -0.0327 -0.1307 -0.3414
  626TMC3    C8 9332   1.723   3.725   0.633  0.1256  0.6177 -0.0695
  626TMC3    O1 9333   1.769   3.870   1.205  0.0967 -0.2905 -0.1016
  626TMC3    O2 9334   1.747   3.621   0.573  0.0731 -0.1332  0.2266
  627MPD2     C 9335   0.634   3.187  14.561  0.0209  0.0327  0.0151
  627MPD2    C1 9336   0.698   3.136  14.673  0.2643  0.2484  0.2407
  627MPD2    C2 9337   0.651   3.017  14.713  0.3933 -0.0234 -0.4939
  627MPD2    C3 9338   0.545   2.946  14.659 -0.0999  0.1588 -0.6266
  627MPD2    C4 9339   0.490   2.998  14.537  0.1989  0.7270 -0.4106
  627MPD2    C5 9340   0.535   3.119  14.493 -0.5417 -0.0822 -0.5253
  627MPD2     H 9341   0.686   2.982  14.810  1.1701 -0.3469 -0.8967
  627MPD2    H1 9342   0.409   2.952  14.481 -0.9540 -0.6104  2.3620
  627MPD2    H2 9343   0.673   3.279  14.518  0.5154 -0.1782  0.0150
  627MPD2    H3 9344   0.491   3.155  14.400  0.5252 -1.2321 -1.4732
  627MPD2     N 9345   0.481   2.844  14.731 -0.3367 -0.2503  0.3102
  627MPD2    H5 9346   0.515   2.825  14.825  0.7663  0.4036  0.0470
  627MPD2    N1 9347   0.807   3.194  14.744  0.1252 -0.6050  0.5171
  627MPD2    H7 9348   0.838   3.144  14.827  2.1508 -1.6175 -0.8286
  628TMC3    C1 9349   0.969   3.355  14.795  0.7437  0.8954 -0.4315
  628TMC3    C2 9350   1.070   3.266  14.833  0.3422 -0.2065 -0.3533
  628TMC3    C3 9351   1.177   3.310  14.904  0.3932  0.1245  0.7804
  628TMC3    C4 9352   0.998   3.485  14.802  0.3255  0.3058 -0.7000
  628TMC3    C5 9353   1.102   3.525  14.882 -0.3980 -0.2460  0.2310
  628TMC3    C6 9354   1.194   3.438  14.939  0.2290  0.6647  0.3636
  628TMC3     C 9355   0.865   3.318  14.710 -0.1949 -0.2264  0.4187
  628TMC3     O 9356   0.848   3.398  14.618  0.3163  0.4940 -0.7806
  628TMC3     H 9357   1.074   3.163  14.802 -3.2126  0.0842 -1.7436
  628TMC3    H1 9358   0.924   3.561  14.779  1.8634  1.1488 -2.7928
  628TMC3    H2 9359   1.283   3.483  14.981  1.1071 -0.8637  0.1516
  628TMC3    C7 9360   1.137   3.662  14.877 -0.3236 -0.4769 -0.2429
  628TMC3    C8 9361   1.297   3.226  14.897  0.3103 -0.7619 -0.8076
  628TMC3    O1 9362   1.224   3.703  14.955  0.2985 -0.1302 -0.1555
  628TMC3    O2 9363   1.297   3.130  14.820 -0.0539  0.2285  0.8455
  629MPD2     C 9364   3.606   2.544  16.843 -0.9346  0.0508  0.7925
  629MPD2    C1 9365   3.620   2.411  16.814  0.2483 -0.6633 -0.5961
  629MPD2    C2 9366   3.531   2.316  16.861 -0.3036 -0.0216  0.0497
  629MPD2    C3 9367   3.434   2.355  16.945  0.0924  0.1337 -0.0995
  629MPD2    C4 9368   3.416   2.494  16.969  0.1003 -0.3377 -0.1495
  629MPD2    C5 9369   3.496   2.583  16.907  0.2999  0.3691 -0.5186
  629MPD2     H 9370   3.540   2.212  16.833 -0.9386 -0.5805  1.8689
  629MPD2    H1 9371   3.337   2.530  17.034 -1.0671 -3.1685  0.0186
  629MPD2    H2 9372   3.672   2.621  16.806 -0.2681 -1.0488 -0.3350
  629MPD2    H3 9373   3.477   2.690  16.903  0.9698  0.3804 -3.3624
  629MPD2     N 9374   3.339   2.258  16.985 -0.1335  0.1731  0.2495
  629MPD2    H5 9375   3.357   2.164  16.952  0.5910  0.0725  0.9463
  629MPD2    N1 9376   3.733   2.380  16.740  0.5791  0.3463  0.1599
  629MPD2    H7 9377   3.792   2.459  16.718 -0.0450  1.5890  2.9845
  630TMC3    C1 9378   3.924   2.253  16.679  0.1069  0.2370  0.6807
  630TMC3    C2 9379   3.956   2.319  16.567 -0.0817  0.0962 -0.0176
  630TMC3    C3 9380   4.084   2.285  16.513  0.1917  0.1493  0.1628
  630TMC3    C4 9381   3.997   2.148  16.730  0.2271  0.6973  0.6519
  630TMC3    C5 9382   4.126   2.134  16.692 -0.4435 -0.0229 -0.4718
  630TMC3    C6 9383   4.173   2.203  16.580  0.7302 -1.2004  0.2176
  630TMC3     C 9384   3.787   2.249  16.721  0.2506  1.2258  1.0065
  630TMC3     O 9385   3.738   2.143  16.748 -0.1337 -0.0371 -0.3219
  630TMC3     H 9386   3.894   2.396  16.524 -0.7631 -0.7229 -0.5188
  630TMC3    H1 9387   3.956   2.096  16.816  0.6375 -1.5439 -0.5025
  630TMC3    H2 9388   4.275   2.192  16.546 -0.7826  2.6362 -5.4597
  630TMC3    C7 9389   4.223   2.128  16.798  0.4015  0.2862  0.0321
  630TMC3    C8 9390   4.169   2.401  16.468  0.4030  0.0682 -0.3841
  630TMC3    O1 9391   4.226   2.026  16.865  0.2493 -0.0402 -0.2895
  630TMC3    O2 9392   4.270   2.413  16.536 -0.2309  0.1448 -0.5250
  631MPD2     C 9393   2.110   1.537  15.904 -0.2483  0.7001 -0.4656
  631MPD2    C1 9394   2.214   1.624  15.871 -0.1386 -0.3591 -0.6517
  631MPD2    C2 9395   2.334   1.605  15.935 -0.2294  0.2480  0.3757
  631MPD2    C3 9396   2.356   1.504  16.024 -0.1637  0.0118  0.5871
  631MPD2    C4 9397   2.250   1.422  16.065  0.2524 -0.3842  0.7723
  631MPD2    C5 9398   2.134   1.434  15.994 -0.1061  0.6348 -0.5911
  631MPD2     H 9399   2.423   1.661  15.908 -0.4415  0.5059  0.2170
  631MPD2    H1 9400   2.264   1.345  16.141 -0.2900  1.0686  2.3431
  631MPD2    H2 9401   2.014   1.557  15.857 -0.1646  1.5045 -0.2928
  631MPD2    H3 9402   2.051   1.371  16.023  0.0069  0.2664 -1.0788
  631MPD2     N 9403   2.487   1.493  16.077  0.0420 -0.2245 -0.2094
  631MPD2    H5 9404   2.553   1.555  16.031 -0.9940  0.8896 -0.2123
  631MPD2    N1 9405   2.189   1.737  15.781 -0.2843 -0.5647  0.8974
  631MPD2    H7 9406   2.100   1.747  15.733  0.5609 -1.4987 -0.8690
  632TMC3    C1 9407   2.244   1.919  15.645 -0.3276  0.8604  0.5162
  632TMC3    C2 9408   2.124   1.991  15.658  0.1056  0.7803  0.5832
  632TMC3    C3 9409   2.110   2.112  15.590 -0.1662 -1.0741 -0.8363
  632TMC3    C4 9410   2.350   1.971  15.576  0.0986  0.6807 -0.5549
  632TMC3    C5 9411   2.334   2.083  15.508  0.2928  0.0712  0.7069
  632TMC3    C6 9412   2.208   2.153  15.507  1.0501  0.0574  0.0853
  632TMC3     C 9413   2.281   1.836  15.758  0.0624  0.0309  0.2522
  632TMC3     O 9414   2.390   1.855  15.808  0.5749  0.1640  0.0567
  632TMC3     H 9415   2.050   1.980  15.737 -0.8442 -2.6910 -0.7641
  632TMC3    H1 9416   2.440   1.910  15.577  0.5101  1.2904 -0.1763
  632TMC3    H2 9417   2.200   2.239  15.442 -0.1588 -0.2725 -0.1890
  632TMC3    C7 9418   2.425   2.120  15.404  0.0984 -0.1531  0.0396
  632TMC3    C8 9419   2.040   2.216  15.657  0.5421  0.1927 -0.7503
  632TMC3    O1 9420   2.383   2.142  15.291  1.1002 -0.1664 -0.6050
  632TMC3    O2 9421   1.944   2.181  15.729 -0.5425  0.4446 -0.0953
  633MPD2     C 9422   1.725   0.054  17.580 -0.2508 -0.2736 -0.1155
  633MPD2    C1 9423   1.682   4.703  17.477  0.3333  0.3642  0.3470
  633MPD2    C2 9424   1.657   4.568  17.511 -0.0416 -0.1024 -0.1893
  633MPD2    C3 9425   1.675   4.527  17.647 -0.8907  0.2434  0.0162
  633MPD2    C4 9426   1.688   4.625  17.738 -0.5135  0.2182  0.2032
  633MPD2    C5 9427   1.717   0.018  17.713 -0.0051  0.0871  0.5446
  633MPD2     H 9428   1.628   4.495  17.436 -0.6473  0.0353 -0.0955
  633MPD2    H1 9429   1.685   4.602   0.097 -0.4462  0.9820  0.3710
  633MPD2    H2 9430   1.760   0.153  17.553  0.1028 -0.3633  0.0128
  633MPD2    H3 9431   1.749   0.082   0.048  1.0702 -0.2777  0.4197
  633MPD2     N 9432   1.670   4.399  17.697  0.0498  0.3805 -0.3758
  633MPD2    H5 9433   1.678   4.397   0.052 -1.7911  0.6936 -0.2272
  633MPD2    N1 9434   1.670   0.008  17.346  0.2101 -0.1667  0.2777
  633MPD2    H7 9435   1.673   4.665  17.284  0.2578  0.4940 -0.5731
  634TMC3    C1 9436   1.702   0.148  17.154  1.1503 -0.2741  0.7629
  634TMC3    C2 9437   1.783   0.049  17.094 -0.8559  0.3999  0.0411
  634TMC3    C3 9438   1.807   0.060  16.958  0.0105  0.3092  0.3234
  634TMC3    C4 9439   1.660   0.256  17.080  0.1624  1.1017 -0.1536
  634TMC3    C5 9440   1.692   0.263  16.947 -0.9015 -0.1794  1.0438
  634TMC3    C6 9441   1.766   0.167  16.885  0.2768 -0.1829  1.0953
  634TMC3     C 9442   1.663   0.132  17.294 -0.1395 -0.0608  0.2109
  634TMC3     O 9443   1.618   0.222  17.359 -0.3264  0.0222  0.5782
  634TMC3     H 9444   1.820   4.699  17.146 -0.9307 -0.6291 -1.6427
  634TMC3    H1 9445   1.612   0.342  17.126 -0.7168  0.9378 -0.7588
  634TMC3    H2 9446   1.756   0.164  16.777  1.2165  1.0724  0.9633
  634TMC3    C7 9447   1.636   0.366  16.864  0.3192  0.5358  0.9332
  634TMC3    C8 9448   1.872   4.679  16.906 -0.8268  0.3308 -0.0947
  634TMC3    O1 9449   1.624   0.328  16.750  0.3005 -0.5834 -0.1197
  634TMC3    O2 9450   1.893   4.578  16.972  0.0531  0.2289 -0.1492
  635TMC3    C1 9451   1.484   2.240   0.972  0.3858  0.1427 -0.2686
  635TMC3    C2 9452   1.509   2.151   1.071  0.1391 -0.0080 -0.0689
  635TMC3    C3 9453   1.409   2.069   1.110 -0.1350  0.2355 -0.0941
  635TMC3    C4 9454   1.356   2.257   0.926 -0.0216  0.1859 -0.1650
  635TMC3    C5 9455   1.261   2.171   0.970  0.2166  0.5579 -0.5737
  635TMC3    C6 9456   1.278   2.076   1.063 -0.4745 -0.4126 -0.2546
  635TMC3     C 9457   1.597   2.334   0.961  0.3435 -0.0013  0.4522
  635TMC3     O 9458   1.711   2.307   0.998 -0.3497 -0.0719  0.4659
  635TMC3     H 9459   1.610   2.139   1.109 -0.8130 -0.4134  2.3349
  635TMC3    H1 9460   1.336   2.327   0.846  1.5510 -0.5866 -1.2303
  635TMC3    H2 9461   1.195   2.022   1.109  0.3060  0.7504  2.5379
  635TMC3    C7 9462   1.127   2.181   0.917 -1.2381 -0.0131 -1.1810
  635TMC3    C8 9463   1.432   1.954   1.202 -0.5036  1.0842  0.1862
  635TMC3    O1 9464   1.072   2.071   0.905  0.1295  0.7411 -0.5001
  635TMC3    O2 9465   1.343   1.873   1.223  0.1260 -0.0081 -0.2342
  636MPD2     C 9466   2.929   0.353  15.665 -0.2147  0.1580 -0.1799
  636MPD2    C1 9467   2.968   0.407  15.783 -0.5046  0.6074  0.3487
  636MPD2    C2 9468   3.102   0.374  15.812 -0.2476 -0.7656 -0.0895
  636MPD2    C3 9469   3.182   0.284  15.754  0.2875 -0.2355 -0.2799
  636MPD2    C4 9470   3.135   0.223  15.642  0.0847  0.1253  0.0603
  636MPD2    C5 9471   3.007   0.256  15.597 -0.1696  0.2668 -0.0360
  636MPD2     H 9472   3.148   0.422  15.897 -3.5369 -1.5019  2.1345
  636MPD2    H1 9473   3.198   0.149  15.593 -0.5869  0.0615 -0.7106
  636MPD2    H2 9474   2.830   0.372  15.625 -1.0992 -0.2880  1.7886
  636MPD2    H3 9475   2.962   0.213  15.508 -0.3654  0.5150 -0.0556
  636MPD2     N 9476   3.312   0.262  15.802  0.0492 -0.1591 -0.3078
  636MPD2    H5 9477   3.341   0.317  15.882  3.9154 -1.8580 -0.5383
  636MPD2    N1 9478   2.902   0.498  15.866 -0.4041 -0.1434 -0.4053
  636MPD2    H7 9479   2.959   0.532  15.943 -1.2789  2.1650 -0.7833
  637TMC3    C1 9480   3.518   0.188  15.842 -0.1464 -0.4259  0.7340
  637TMC3    C2 9481   3.461   0.146  15.960  0.1196 -1.0519  0.1621
  637TMC3    C3 9482   3.510   0.185  16.078  0.1763  0.2989  0.2495
  637TMC3    C4 9483   3.635   0.253  15.840  0.2120  0.1247  0.6447
  637TMC3    C5 9484   3.686   0.303  15.951  0.9926  0.4724  0.1533
  637TMC3    C6 9485   3.624   0.261  16.071  0.0129  0.5132 -0.1340
  637TMC3     C 9486   3.414   0.198  15.738 -0.1050  0.0008 -0.1450
  637TMC3     O 9487   3.440   0.162  15.623  0.3537  0.0153 -0.5044
  637TMC3     H 9488   3.373   0.084  15.951 -1.9716  1.5924  2.2847
  637TMC3    H1 9489   3.666   0.303  15.749 -0.1829 -0.1484  0.3618
  637TMC3    H2 9490   3.671   0.296  16.162 -0.6465 -0.4098  0.5654
  637TMC3    C7 9491   3.719   0.445  15.952  0.3356 -0.4357  0.5473
  637TMC3    C8 9492   3.404   0.237  16.169 -0.5572 -0.0305  0.4453
  637TMC3    O1 9493   3.685   0.500  16.052  0.4475  0.4777 -0.1587
  637TMC3    O2 9494   3.307   0.275  16.104 -0.7483 -0.1474  0.0187
  638MPD2     C 9495   2.965   3.830  15.067  0.5037 -0.8502  0.8486
  638MPD2    C1 9496   3.075   3.747  15.077 -0.6478  0.0382  0.2171
  638MPD2    C2 9497   3.075   3.651  15.185 -0.0923 -0.3254 -0.4782
  638MPD2    C3 9498   2.969   3.646  15.278  0.5589  1.0433 -0.1401
  638MPD2    C4 9499   2.874   3.741  15.269  0.9189 -0.0883  0.0389
  638MPD2    C5 9500   2.871   3.835  15.165 -0.5189  0.5550 -0.1330
  638MPD2     H 9501   3.151   3.574  15.178 -1.1783 -1.5094  0.9126
  638MPD2    H1 9502   2.796   3.753  15.342  0.1640 -1.0585 -0.6138
  638MPD2    H2 9503   2.956   3.889  14.976 -1.6545 -2.1753  0.2232
  638MPD2    H3 9504   2.801   3.917  15.161  0.3367  1.3265  0.5979
  638MPD2     N 9505   2.963   3.534  15.370 -0.3074  0.1596 -0.3446
  638MPD2    H5 9506   3.028   3.461  15.343  0.5808  0.4658  0.9437
  638MPD2    N1 9507   3.154   3.742  14.968  0.2157  0.0001 -0.3088
  638MPD2    H7 9508   3.127   3.799  14.889  0.9786  1.6818  0.6379
  639TMC3    C1 9509   2.877   3.375  15.515 -0.1317  0.4131 -0.0030
  639TMC3    C2 9510   2.771   3.286  15.504  0.3339 -0.6679  0.6254
  639TMC3    C3 9511   2.801   3.157  15.524  1.2332  0.0378 -0.1594
  639TMC3    C4 9512   3.007   3.345  15.539  0.1439 -0.4421 -0.7030
  639TMC3    C5 9513   3.027   3.212  15.562 -0.0504  0.1236 -0.0226
  639TMC3    C6 9514   2.926   3.116  15.565  0.3754 -0.1700 -0.1600
  639TMC3     C 9515   2.846   3.497  15.442 -0.4086 -0.7357 -0.2003
  639TMC3     O 9516   2.744   3.566  15.458  0.0658  0.4041 -0.2405
  639TMC3     H 9517   2.687   3.302  15.437  1.1578  2.1230  0.2854
  639TMC3    H1 9518   3.094   3.410  15.538 -1.8201  2.2015  0.7053
  639TMC3    H2 9519   2.953   3.012  15.549 -1.1165 -0.3928 -1.2665
  639TMC3    C7 9520   3.157   3.159  15.575 -0.3472  0.0328 -0.5862
  639TMC3    C8 9521   2.748   3.068  15.422  0.2161  0.4948 -0.1151
  639TMC3    O1 9522   3.158   3.074  15.659 -0.1114 -0.0049  0.1484
  639TMC3    O2 9523   2.839   3.032  15.346  0.2693  0.2773  0.3106
  640MPD2     C 9524   3.700   1.837  10.236 -0.2500 -0.1488  0.2555
  640MPD2    C1 9525   3.690   1.866  10.101 -0.1200 -0.1150 -0.6307
  640MPD2    C2 9526   3.599   1.967  10.048 -0.4332 -0.1685 -1.0384
  640MPD2    C3 9527   3.531   2.035  10.144  0.2832  0.1219 -0.3765
  640MPD2    C4 9528   3.556   2.021  10.281  0.1012 -0.1221 -0.2862
  640MPD2    C5 9529   3.636   1.922  10.325  0.1260  0.0769 -0.1571
  640MPD2     H 9530   3.613   1.995   9.944  0.1123 -0.8308 -1.1399
  640MPD2    H1 9531   3.507   2.091  10.348 -0.5025  0.5592 -1.4344
  640MPD2    H2 9532   3.762   1.756  10.274 -1.7382 -0.7674  1.3401
  640MPD2    H3 9533   3.651   1.901  10.430 -0.2744 -3.4584 -0.7783
  640MPD2     N 9534   3.443   2.145  10.107 -0.5063  0.8446  0.0693
  640MPD2    H5 9535   3.407   2.202  10.183  1.3510  2.2468 -0.0934
  640MPD2    N1 9536   3.781   1.787  10.014  0.3961  0.3425  0.3290
  640MPD2    H7 9537   3.859   1.741  10.060  0.1679 -0.5803 -0.1993
  641TMC3    C1 9538   3.881   1.688   9.821  0.2967  0.1336 -0.6622
  641TMC3    C2 9539   3.946   1.599   9.899  0.1149 -0.0096 -0.0738
  641TMC3    C3 9540   4.045   1.525   9.839  0.1110 -0.2615  0.0071
  641TMC3    C4 9541   3.901   1.711   9.686 -0.2787  0.3799  0.7354
  641TMC3    C5 9542   4.007   1.644   9.631  0.6620 -0.5402  0.1036
  641TMC3    C6 9543   4.083   1.555   9.708 -0.3622 -0.1359 -0.4224
  641TMC3     C 9544   3.777   1.771   9.880 -0.2769 -0.5055  0.9132
  641TMC3     O 9545   3.682   1.798   9.804  0.0948 -0.0575 -0.0949
  641TMC3     H 9546   3.927   1.586  10.005  0.9561 -0.5644  0.0122
  641TMC3    H1 9547   3.846   1.788   9.634  0.7167 -1.5904 -3.2605
  641TMC3    H2 9548   4.165   1.494   9.671 -1.6315 -2.1815  0.1158
  641TMC3    C7 9549   4.002   1.641   9.482  0.5691 -0.6453  0.4788
  641TMC3    C8 9550   4.125   1.431   9.904 -0.3714 -0.6414 -0.2605
  641TMC3    O1 9551   3.931   1.720   9.424 -0.1115 -0.4586 -0.2218
  641TMC3    O2 9552   4.206   1.371   9.835 -0.4088  0.4111 -0.1572
  642TMC3    C1 9553   4.659   3.691  12.142 -0.7301  0.6234 -0.0300
  642TMC3    C2 9554   0.041   3.699  12.211  0.6687 -0.8685  0.2468
  642TMC3    C3 9555   0.078   3.589  12.284  0.1850 -0.3142  0.2539
  642TMC3    C4 9556   4.570   3.587  12.149 -0.3621  0.3476 -0.3323
  642TMC3    C5 9557   4.611   3.476  12.219  0.5766 -0.4798 -0.4861
  642TMC3    C6 9558   4.727   3.479  12.295 -0.6845  0.8297  0.1670
  642TMC3     C 9559   4.597   3.820  12.109  0.4886  0.1062 -0.3828
  642TMC3     O 9560   4.650   3.903  12.034  0.0542 -0.4544  0.6058
  642TMC3     H 9561   0.098   3.791  12.208 -1.7076  0.6613  1.9286
  642TMC3    H1 9562   4.493   3.588  12.073 -1.6669 -0.9334  0.9569
  642TMC3    H2 9563   0.028   3.400  12.359  2.5805  3.1659  1.1210
  642TMC3    C7 9564   4.541   3.357  12.202  0.3154  0.8588 -0.2353
  642TMC3    C8 9565   0.207   3.575  12.348  0.8254 -0.2339  0.5030
  642TMC3    O1 9566   4.486   3.335  12.093  0.0647 -0.1482  0.1972
  642TMC3    O2 9567   0.253   3.461  12.375  0.4944  0.4860  0.3707
  643TMC3    C1 9568   3.351   3.175   0.413 -0.4647 -0.1146 -0.0301
  643TMC3    C2 9569   3.243   3.131   0.349 -0.0405  0.5680 -0.6423
  643TMC3    C3 9570   3.238   3.000   0.314  0.3611 -0.3602  0.5075
  643TMC3    C4 9571   3.451   3.093   0.446  0.0886 -0.6181 -0.5345
  643TMC3    C5 9572   3.443   2.957   0.426 -0.5402  0.6293 -0.4624
  643TMC3    C6 9573   3.330   2.909   0.359 -0.5514  0.4920  0.1921
  643TMC3     C 9574   3.391   3.303   0.369 -0.1765  0.2764 -0.0666
  643TMC3     O 9575   3.340   3.338   0.264  0.4062 -0.2844  0.2290
  643TMC3     H 9576   3.165   3.192   0.306 -1.0373  0.7844  1.4816
  643TMC3    H1 9577   3.532   3.125   0.510 -0.9565  1.4175 -0.2339
  643TMC3    H2 9578   3.326   2.805   0.328  4.1023 -0.0086  1.2132
  643TMC3    C7 9579   3.567   2.906   0.370  0.0521  0.3403  0.6307
  643TMC3    C8 9580   3.201   2.979   0.170  0.5100  0.5290  0.5506
  643TMC3    O1 9581   3.633   3.002   0.339  0.2180  0.1630  0.5076
  643TMC3    O2 9582   3.165   2.869   0.130  0.4475 -0.0819  0.1497
  644MPD2     C 9583   3.311   2.468   9.670 -0.0831 -0.1943 -0.0420
  644MPD2    C1 9584   3.440   2.488   9.707 -0.5209 -0.3978  0.3578
  644MPD2    C2 9585   3.472   2.611   9.775  0.0441 -0.2548  0.1120
  644MPD2    C3 9586   3.380   2.709   9.788  0.3595  0.6342 -0.3223
  644MPD2    C4 9587   3.257   2.686   9.744  0.1720  0.1007 -0.6543
  644MPD2    C5 9588   3.222   2.564   9.707 -0.4289  0.2792  0.0381
  644MPD2     H 9589   3.574   2.638   9.802  0.3660  0.8833 -2.2569
  644MPD2    H1 9590   3.168   2.745   9.760 -0.1390 -0.5253 -0.0926
  644MPD2    H2 9591   3.269   2.382   9.620  0.8340 -0.0597 -1.0376
  644MPD2    H3 9592   3.115   2.552   9.695 -0.3437 -0.1906 -0.2507
  644MPD2     N 9593   3.430   2.836   9.830  0.1400 -0.3739 -0.4218
  644MPD2    H5 9594   3.529   2.849   9.847  0.2719 -1.5976 -0.2701
  644MPD2    N1 9595   3.538   2.389   9.687 -0.1830  0.1204 -0.5755
  644MPD2    H7 9596   3.509   2.317   9.622 -1.2727  0.3680 -0.3541
  645TMC3    C1 9597   3.431   3.064   9.848  1.3113  0.1584  0.1863
  645TMC3    C2 9598   3.369   3.167   9.911  0.8711  0.5174 -0.0183
  645TMC3    C3 9599   3.448   3.260   9.975  0.2311 -0.3982  0.1207
  645TMC3    C4 9600   3.573   3.047   9.839 -0.2914 -0.9929 -0.5225
  645TMC3    C5 9601   3.648   3.148   9.904 -0.0452  0.8850 -0.0589
  645TMC3    C6 9602   3.589   3.251   9.966  0.4061  0.4204  0.0577
  645TMC3     C 9603   3.348   2.946   9.840  0.0064 -0.1849  0.1385
  645TMC3     O 9604   3.233   2.963   9.822 -0.3757  0.3935 -0.5899
  645TMC3     H 9605   3.261   3.178   9.914  0.8675  1.5333 -3.1203
  645TMC3    H1 9606   3.624   2.983   9.768  3.8578 -0.0673  1.5917
  645TMC3    H2 9607   3.646   3.336  10.004  2.2029 -0.6776 -0.1947
  645TMC3    C7 9608   3.784   3.167   9.879  0.2268  0.1245  0.5243
  645TMC3    C8 9609   3.389   3.388  10.001 -0.5173  0.4133 -0.1679
  645TMC3    O1 9610   3.827   3.280   9.879  0.3200 -0.0077 -0.1223
  645TMC3    O2 9611   3.449   3.492   9.983  0.5559 -0.2898 -1.0960
  646MPD2     C 9612   3.263   2.278  14.945  0.5286 -0.4230 -0.1534
  646MPD2    C1 9613   3.175   2.326  15.038  0.3567 -0.5816  0.1396
  646MPD2    C2 9614   3.070   2.405  15.003  0.0361  0.3940 -0.4878
  646MPD2    C3 9615   3.057   2.455  14.877 -0.5476 -0.0797 -0.1258
  646MPD2    C4 9616   3.145   2.401  14.786 -0.1616  0.6252 -0.2145
  646MPD2    C5 9617   3.238   2.309  14.818 -0.7364 -0.2158 -0.7363
  646MPD2     H 9618   2.996   2.433  15.077  2.2311  0.6295  1.6213
  646MPD2    H1 9619   3.138   2.435  14.683  2.1797 -5.4055 -2.3348
  646MPD2    H2 9620   3.342   2.211  14.975  0.4550  0.5022  2.0817
  646MPD2    H3 9621   3.303   2.269  14.742  1.6101  0.2821  0.9944
  646MPD2     N 9622   2.951   2.542  14.840  0.5282 -0.2807 -0.4465
  646MPD2    H5 9623   2.870   2.547  14.900  0.9858  0.3591  0.1201
  646MPD2    N1 9624   3.205   2.306  15.179  0.1003  0.3952 -0.3010
  646MPD2    H7 9625   3.285   2.245  15.191  1.3129  2.0327 -0.0965
  647TMC3    C1 9626   3.199   2.301  15.406 -0.5145 -0.0724 -0.3419
  647TMC3    C2 9627   3.129   2.247  15.507 -0.2073 -0.2758 -0.2120
  647TMC3    C3 9628   3.205   2.181  15.600 -0.1816 -0.6801  0.1282
  647TMC3    C4 9629   3.336   2.296  15.403  0.2852  1.0162  0.1013
  647TMC3    C5 9630   3.410   2.239  15.500  0.4187  0.1906 -0.9595
  647TMC3    C6 9631   3.340   2.185  15.604  0.3938  0.0015 -0.3534
  647TMC3     C 9632   3.124   2.330  15.289 -0.2437  0.0354  0.0176
  647TMC3     O 9633   3.006   2.364  15.293 -0.0506 -0.6486 -0.2963
  647TMC3     H 9634   3.024   2.231  15.485 -0.7410 -1.1209  2.9097
  647TMC3    H1 9635   3.396   2.352  15.332 -0.8557 -1.0405 -2.4777
  647TMC3    H2 9636   3.399   2.133  15.679 -1.4540 -0.2421  0.9265
  647TMC3    C7 9637   3.547   2.189  15.479  0.2900 -0.0112  0.2416
  647TMC3    C8 9638   3.139   2.072  15.668 -0.8044  0.1722 -0.4025
  647TMC3    O1 9639   3.596   2.133  15.578  0.5770 -0.3122 -0.1709
  647TMC3    O2 9640   3.206   1.967  15.677 -0.6967  0.0009  1.1465
  648TMC3    C1 9641   2.368   4.666  16.234 -0.2896 -1.1010 -0.4446
  648TMC3    C2 9642   2.437   4.563  16.182 -0.1815  0.0189  0.3754
  648TMC3    C3 9643   2.450   4.547  16.049  0.0984 -0.8819 -0.0807
  648TMC3    C4 9644   2.294   0.015  16.156 -0.0230 -0.5486  0.6853
  648TMC3    C5 9645   2.316   0.002  16.023  0.0215 -0.5288  0.6751
  648TMC3    C6 9646   2.389   4.635  15.963 -0.4856  0.5881  0.4258
  648TMC3     C 9647   2.391   4.689  16.368  0.5043 -0.0581 -0.5161
  648TMC3     O 9648   2.385   0.066  16.404  0.1292 -0.2101  0.0576
  648TMC3     H 9649   2.496   4.499  16.247  1.0227 -0.4694 -1.1804
  648TMC3    H1 9650   2.260   0.102  16.210 -0.8410 -1.8139  2.1845
  648TMC3    H2 9651   2.386   4.625  15.855  1.6748 -0.1210  0.4396
  648TMC3    C7 9652   2.256   0.089  15.930 -0.7182 -0.4223  0.8030
  648TMC3    C8 9653   2.503   4.421  16.003 -0.2572  0.3458 -0.8034
  648TMC3    O1 9654   2.313   0.107  15.826  0.1013  0.1589  1.0857
  648TMC3    O2 9655   2.616   4.393  16.044  0.0546  0.3002 -0.0255
  649TMC3    C1 9656   1.256   0.973  12.847  0.5399 -0.6845  0.7220
  649TMC3    C2 9657   1.352   1.075  12.858  0.6256 -0.0406 -0.6899
  649TMC3    C3 9658   1.449   1.052  12.947  0.1718 -0.2709 -0.1381
  649TMC3    C4 9659   1.279   0.849  12.901 -0.5251  0.6855 -0.1792
  649TMC3    C5 9660   1.384   0.831  12.991 -0.0453 -0.3441  0.5839
  649TMC3    C6 9661   1.471   0.935  13.015  0.0814 -0.2879  0.5806
  649TMC3     C 9662   1.127   1.016  12.800 -0.5363 -0.0646  0.3764
  649TMC3     O 9663   1.096   1.134  12.794 -0.1741  0.2425 -1.0386
  649TMC3     H 9664   1.318   1.172  12.823 -0.1649  0.4928  1.5458
  649TMC3    H1 9665   1.202   0.774  12.912 -0.2733  0.8435  2.4905
  649TMC3    H2 9666   1.556   0.925  13.082  0.7454 -0.5322 -0.2886
  649TMC3    C7 9667   1.364   0.734  13.101 -0.7031  0.2687 -0.8386
  649TMC3    C8 9668   1.528   1.167  12.993 -0.9982  0.6489 -0.1027
  649TMC3    O1 9669   1.342   0.621  13.064 -0.0811 -0.5543 -0.3156
  649TMC3    O2 9670   1.578   1.159  13.105  0.1815 -0.0812  0.1432
  650TMC3    C1 9671   4.140   2.954  12.844 -0.4739  0.1423  0.8138
  650TMC3    C2 9672   4.193   3.081  12.847  0.3459  0.0581 -0.1888
  650TMC3    C3 9673   4.159   3.153  12.736  0.4464 -0.6085 -0.2061
  650TMC3    C4 9674   4.062   2.903  12.743  0.0552 -0.4425  0.3102
  650TMC3    C5 9675   4.042   2.974  12.631 -0.4852  0.2903  0.6022
  650TMC3    C6 9676   4.096   3.103  12.631 -0.4165  0.4269  0.5899
  650TMC3     C 9677   4.136   2.883  12.965  0.3057  0.8640 -0.3576
  650TMC3     O 9678   4.140   2.948  13.070  0.0065  0.1750  0.3981
  650TMC3     H 9679   4.252   3.130  12.924 -0.0288 -0.5117  0.4604
  650TMC3    H1 9680   4.008   2.810  12.749 -1.0097  0.1703  0.2689
  650TMC3    H2 9681   4.100   3.169  12.545  1.1454  1.4945  1.4875
  650TMC3    C7 9682   3.918   2.964  12.556 -0.0296  0.2464 -0.5147
  650TMC3    C8 9683   4.125   3.294  12.770  0.4114  0.0757 -0.1761
  650TMC3    O1 9684   3.850   2.860  12.567 -0.1903 -0.4981  0.0655
  650TMC3    O2 9685   4.087   3.351  12.670  0.0830  0.2916 -0.0920
  651MPD2     C 9686   2.894   4.067  11.058 -0.4020  0.9108 -0.5130
  651MPD2    C1 9687   2.871   4.199  11.020  0.1036  0.2430 -0.0485
  651MPD2    C2 9688   2.986   4.282  11.009 -0.0365 -0.0303  0.7468
  651MPD2    C3 9689   3.116   4.241  11.032  0.3180 -0.5804  0.6754
  651MPD2    C4 9690   3.130   4.111  11.080 -0.2817 -0.2868  0.2619
  651MPD2    C5 9691   3.024   4.028  11.088 -0.3817  1.0364  0.2194
  651MPD2     H 9692   2.970   4.385  10.981  3.0416  0.3683  0.4158
  651MPD2    H1 9693   3.227   4.066  11.098  0.6391  1.2498 -0.9206
  651MPD2    H2 9694   2.810   4.002  11.080  0.0292 -0.0747 -1.7786
  651MPD2    H3 9695   3.050   3.924  11.106  1.1669  1.5549  0.9684
  651MPD2     N 9696   3.212   4.337  11.007  0.2770 -0.6442  0.4037
  651MPD2    H5 9697   3.187   4.424  10.962  0.5000 -0.2470  1.0399
  651MPD2    N1 9698   2.745   4.255  10.997  0.5872 -0.2015  0.4062
  651MPD2    H7 9699   2.746   4.355  10.977  0.1626  0.3350  3.1512
  652TMC3    C1 9700   3.604   4.579  11.069 -1.2397  0.0181  0.3771
  652TMC3    C2 9701   3.546   4.459  11.050  0.4503  0.0668  0.3094
  652TMC3    C3 9702   3.411   4.455  11.035  0.0738  0.1606  0.1541
  652TMC3    C4 9703   3.530   4.693  11.077 -0.1496 -0.7735  0.0676
  652TMC3    C5 9704   3.398   4.684  11.052  0.4965 -0.0194  0.8316
  652TMC3    C6 9705   3.330   4.567  11.035  0.5786  0.8264 -0.7291
  652TMC3     C 9706   3.751   4.589  11.079 -0.2627 -0.7269 -0.4575
  652TMC3     O 9707   3.802   4.477  11.087  0.0005  0.5574 -0.3899
  652TMC3     H 9708   3.613   4.374  11.058 -0.5942 -0.7357  0.4473
  652TMC3    H1 9709   3.576   0.053  11.089 -2.9623  0.6621 -0.6611
  652TMC3    H2 9710   3.223   4.569  11.017 -0.1033  0.6112  3.1926
  652TMC3    C7 9711   3.318   0.061  11.035 -0.0395  0.2819  0.2940
  652TMC3    C8 9712   3.341   4.326  11.054 -0.2667  0.5458 -0.0703
  652TMC3    O1 9713   3.200   0.047  11.068 -0.1970  0.2953 -0.2173
  652TMC3    O2 9714   3.418   4.237  11.090 -0.1444 -0.3444  0.1766
  653MPD2     C 9715   1.380   4.625   0.148  0.2486  0.1993 -0.2246
  653MPD2    C1 9716   1.317   4.723   0.070  0.4196  0.1044  0.9618
  653MPD2    C2 9717   1.260   4.683  17.694  0.5273  0.1652 -0.1730
  653MPD2    C3 9718   1.268   4.551  17.647  0.2686 -0.7629 -0.5311
  653MPD2    C4 9719   1.318   4.456  17.738  0.9099 -0.1084 -0.5085
  653MPD2    C5 9720   1.369   4.491   0.112  0.1541  0.3582 -0.2987
  653MPD2     H 9721   1.227   0.023  17.627 -2.6482  0.2621  1.5199
  653MPD2    H1 9722   1.330   4.351  17.716 -1.3701 -0.5813  0.4926
  653MPD2    H2 9723   1.444   4.650   0.232 -1.5250  0.1916  1.1267
  653MPD2    H3 9724   1.412   4.418   0.180 -1.8097  0.6989  1.3104
  653MPD2     N 9725   1.221   4.528  17.513 -0.0141 -0.1406  0.1911
  653MPD2    H5 9726   1.188   4.610  17.464  1.5772 -0.0181 -0.6832
  653MPD2    N1 9727   1.312   0.119   0.098 -0.2860 -0.1956  0.1436
  653MPD2    H7 9728   1.276   0.184   0.029 -1.7093  0.0417  1.1014
  654TMC3    C1 9729   1.177   4.394  17.313 -0.2496  0.0331  0.2639
  654TMC3    C2 9730   1.134   4.505  17.242 -0.3052  0.0328 -0.1564
  654TMC3    C3 9731   1.103   4.486  17.108  0.2446  0.2148  0.0791
  654TMC3    C4 9732   1.183   4.268  17.250 -0.4806  0.6502 -0.2489
  654TMC3    C5 9733   1.144   4.250  17.116  0.4461 -0.0219 -0.0379
  654TMC3    C6 9734   1.107   4.361  17.047 -0.4002 -0.7425  0.1881
  654TMC3     C 9735   1.232   4.406  17.448 -0.2290 -0.0956 -0.0235
  654TMC3     O 9736   1.290   4.303  17.483  0.6643 -0.5807 -0.5110
  654TMC3     H 9737   1.123   4.602  17.290  1.6215  0.4898 -0.6307
  654TMC3    H1 9738   1.220   4.184  17.308 -1.7194  1.1015  1.2096
  654TMC3    H2 9739   1.061   4.358  16.949 -0.4134 -0.6709  0.1920
  654TMC3    C7 9740   1.123   4.117  17.053  0.3787 -0.7586  0.1566
  654TMC3    C8 9741   1.066   4.590  17.019  0.2241 -0.3000  0.1639
  654TMC3    O1 9742   1.097   4.115  16.932 -0.0985 -0.6536 -0.4981
  654TMC3    O2 9743   1.028   4.691  17.075 -0.2307  0.3563 -0.2351
  655MPD2     C 9744   2.752   0.041  15.950 -0.0505 -0.1467  0.0679
  655MPD2    C1 9745   2.668   0.112  15.870  0.4136  0.8491 -0.5729
  655MPD2    C2 9746   2.665   0.087  15.733 -0.3068 -0.3078 -0.0811
  655MPD2    C3 9747   2.750   4.722  15.682  0.5636  0.2913  0.4287
  655MPD2    C4 9748   2.814   4.632  15.767  0.0849  0.4081  0.3942
  655MPD2    C5 9749   2.822   4.665  15.903  0.5516  0.8766  0.5673
  655MPD2     H 9750   2.606   0.143  15.661  0.1777 -0.3203 -0.4822
  655MPD2    H1 9751   2.856   4.541  15.726  1.1640  1.1341 -0.1453
  655MPD2    H2 9752   2.757   0.060  16.057  1.0239 -1.0510  0.1830
  655MPD2    H3 9753   2.881   4.607  15.973 -0.5333  0.3834  1.0750
  655MPD2     N 9754   2.753   4.686  15.539 -0.3129  0.0035 -0.0878
  655MPD2    H5 9755   2.770   4.589  15.515 -0.1864 -0.1215  0.5115
  655MPD2    N1 9756   2.573   0.210  15.919 -0.0148 -0.4891  0.1407
  655MPD2    H7 9757   2.495   0.236  15.859 -0.6325  1.5001  1.7885
  656TMC3    C1 9758   2.449   0.364  16.058  0.2583 -0.0108  0.1926
  656TMC3    C2 9759   2.404   0.404  16.182  0.2641 -0.5576  0.0230
  656TMC3    C3 9760   2.317   0.505  16.181 -0.1835 -1.9472  0.4522
  656TMC3    C4 9761   2.407   0.424  15.940  0.6894 -0.1306  0.2151
  656TMC3    C5 9762   2.336   0.539  15.955  0.2971  0.3928  0.0626
  656TMC3    C6 9763   2.280   0.572  16.072  0.7590  0.7558  0.4784
  656TMC3     C 9764   2.546   0.258  16.049 -0.4361  0.3886 -0.0441
  656TMC3     O 9765   2.597   0.223  16.154  1.0136 -0.2311  0.3372
  656TMC3     H 9766   2.453   0.365  16.271 -1.6632 -0.5129  1.1094
  656TMC3    H1 9767   2.439   0.383  15.845 -1.5199  1.4053 -1.1963
  656TMC3    H2 9768   2.212   0.653  16.095 -0.8164 -0.3764 -0.2723
  656TMC3    C7 9769   2.290   0.608  15.826 -0.0102  0.8092 -0.0197
  656TMC3    C8 9770   2.205   0.460  16.260 -0.3101  0.4996  0.2840
  656TMC3    O1 9771   2.359   0.586  15.726  0.2865 -0.5611  0.1067
  656TMC3    O2 9772   2.189   0.340  16.275 -0.2166 -0.6565  0.0885
  657TMC3    C1 9773   1.794   4.496  14.845 -0.3415 -0.0815  0.7560
  657TMC3    C2 9774   1.812   4.497  14.982  0.4589  0.0771 -0.0206
  657TMC3    C3 9775   1.738   4.590  15.048 -0.4705  0.0339  0.1039
  657TMC3    C4 9776   1.697   4.571  14.779 -0.5875  0.3335 -0.1033
  657TMC3    C5 9777   1.635   4.668  14.853  0.1067 -0.6035  1.7077
  657TMC3    C6 9778   1.655   4.684  14.991 -0.3441 -0.6857  0.6311
  657TMC3     C 9779   1.899   4.429  14.763  1.3072 -0.1057 -0.6357
  657TMC3     O 9780   1.875   4.432  14.642 -0.1222 -0.3946 -0.2246
  657TMC3     H 9781   1.890   4.447  15.039 -0.4422 -0.9786  0.3059
  657TMC3    H1 9782   1.692   4.567  14.671 -1.5558 -1.4583 -0.0028
  657TMC3    H2 9783   1.587   0.006  15.051 -0.6143  0.0272 -0.3861
  657TMC3    C7 9784   1.514   0.002  14.798  0.3988  0.5095 -0.4141
  657TMC3    C8 9785   1.772   4.611  15.184  0.5632  0.6489 -0.3757
  657TMC3    O1 9786   1.454   0.069  14.884  0.6588  0.1954 -0.4705
  657TMC3    O2 9787   1.837   4.525  15.241  0.5289 -0.0562 -0.2677
  658MPD2     C 9788   3.014   4.233  15.209  0.5356  0.3766 -0.1670
  658MPD2    C1 9789   3.042   4.347  15.134  0.4791  0.1199  0.6097
  658MPD2    C2 9790   3.138   4.337  15.037 -0.0407 -0.3906 -0.6677
  658MPD2    C3 9791   3.211   4.219  15.022 -0.3736  0.2323  0.0516
  658MPD2    C4 9792   3.182   4.106  15.105  0.4437 -0.0910 -0.5381
  658MPD2    C5 9793   3.071   4.112  15.188 -0.0089 -0.4194  0.0238
  658MPD2     H 9794   3.162   4.420  14.970 -0.0136 -0.2536 -0.4889
  658MPD2    H1 9795   3.232   4.012  15.086  3.5269  1.0076  2.3029
  658MPD2    H2 9796   2.940   4.241  15.288 -1.0515  0.8385 -1.7042
  658MPD2    H3 9797   3.041   4.031  15.254  3.0056 -1.2382  0.3743
  658MPD2     N 9798   3.317   4.229  14.932  0.3651  0.6407 -0.9174
  658MPD2    H5 9799   3.346   4.309  14.877 -0.5691 -0.1486 -2.5499
  658MPD2    N1 9800   2.960   4.456  15.162 -0.1947 -0.5887  0.2695
  658MPD2    H7 9801   2.913   4.460  15.252 -1.4460  2.9738 -0.5318
  659TMC3    C1 9802   2.832   4.643  15.128  0.6137  0.7723  0.1843
  659TMC3    C2 9803   2.818   4.655  15.265 -0.3778  0.1086  0.3876
  659TMC3    C3 9804   2.702   4.714  15.308  0.0605 -0.0600  0.4495
  659TMC3    C4 9805   2.732   4.682  15.036 -0.6481  0.1258 -0.1044
  659TMC3    C5 9806   2.620   0.002  15.090  0.5512  0.4937  0.4348
  659TMC3    C6 9807   2.607   0.024  15.222 -0.4192  0.3145  0.1606
  659TMC3     C 9808   2.940   4.562  15.077 -0.2864 -0.5133  0.7445
  659TMC3     O 9809   2.969   4.583  14.960 -0.2742  0.1205 -0.1982
  659TMC3     H 9810   2.894   4.625  15.336  0.1171 -0.5168 -0.4153
  659TMC3    H1 9811   2.758   4.687  14.931  0.3199  3.1707  0.2672
  659TMC3    H2 9812   2.527   0.084  15.266  0.5539  2.6396 -1.2696
  659TMC3    C7 9813   2.503   0.036  15.010  0.6047 -0.0542 -0.0368
  659TMC3    C8 9814   2.702   0.034  15.440  0.1433 -0.0136  1.1255
  659TMC3    O1 9815   2.418   0.106  15.064  0.3255  0.2271 -0.3121
  659TMC3    O2 9816   2.651   0.148  15.451  0.4516 -0.3510 -0.6073
  660MPD2     C 9817   1.240   3.759  12.639  0.0666 -0.1188 -0.1870
  660MPD2    C1 9818   1.111   3.813  12.640  0.4074 -0.1249 -0.0424
  660MPD2    C2 9819   1.033   3.777  12.749  0.0077 -0.3786  0.3075
  660MPD2    C3 9820   1.073   3.687  12.842 -0.9094 -0.2892 -0.3372
  660MPD2    C4 9821   1.204   3.648  12.851 -0.4257 -0.4801  0.4896
  660MPD2    C5 9822   1.286   3.689  12.747  0.1400  0.0134  0.9716
  660MPD2     H 9823   0.934   3.820  12.752  0.0111 -0.3416 -0.1666
  660MPD2    H1 9824   1.239   3.584  12.931 -0.0215  0.1712  0.8362
  660MPD2    H2 9825   1.302   3.779  12.553  0.4434 -0.1364  0.0850
  660MPD2    H3 9826   1.387   3.651  12.731  0.5785  2.7136 -2.5650
  660MPD2     N 9827   0.991   3.629  12.945  0.1760 -0.1933 -0.4225
  660MPD2    H5 9828   1.036   3.563  13.008 -0.0956 -1.2206 -1.3009
  660MPD2    N1 9829   1.072   3.905  12.536 -0.6052  0.2101  0.5490
  660MPD2    H7 9830   1.142   3.928  12.467  0.2957 -0.4001  1.2591
  661TMC3    C1 9831   0.946   4.051  12.405  0.3324  0.2640 -0.1261
  661TMC3    C2 9832   1.036   4.020  12.303  0.6158 -0.8017 -0.4445
  661TMC3    C3 9833   0.997   4.041  12.176 -0.4579  0.0528  0.1252
  661TMC3    C4 9834   0.823   4.110  12.379  0.0105 -0.6147  0.0544
  661TMC3    C5 9835   0.783   4.118  12.251 -0.5058 -0.2167 -0.9636
  661TMC3    C6 9836   0.869   4.084  12.150 -0.1014 -0.5534 -0.6107
  661TMC3     C 9837   0.960   3.980  12.534 -0.2926 -0.4006 -0.7114
  661TMC3     O 9838   0.856   3.973  12.600 -0.5724 -0.0176  0.2965
  661TMC3     H 9839   1.126   3.961  12.315  0.6023 -1.0552 -1.6113
  661TMC3    H1 9840   0.749   4.126  12.457 -0.9919 -0.8148 -0.8572
  661TMC3    H2 9841   0.827   4.073  12.050  1.5449  0.1876 -1.3857
  661TMC3    C7 9842   0.644   4.103  12.230  0.0444 -0.1978  0.0178
  661TMC3    C8 9843   1.079   4.005  12.073 -0.5876 -0.0569  0.5107
  661TMC3    O1 9844   0.562   4.172  12.288 -0.3925 -0.4737  0.1403
  661TMC3    O2 9845   1.030   3.954  11.975  0.1259 -0.7923  0.4661
  662MPD2     C 9846   0.937   3.538  17.514  0.8159  0.1130 -0.0531
  662MPD2    C1 9847   1.020   3.473  17.603 -0.0437 -0.1794 -0.8767
  662MPD2    C2 9848   1.057   3.522  17.725 -0.3065 -0.3325  0.4727
  662MPD2    C3 9849   1.006   3.649   0.017 -0.0105  0.0384 -0.4487
  662MPD2    C4 9850   0.924   3.712  17.675  0.6277 -0.5969 -0.8137
  662MPD2    C5 9851   0.891   3.660  17.550  1.0711 -0.4350  0.7731
  662MPD2     H 9852   1.122   3.465   0.044  0.2157  0.5739  0.7377
  662MPD2    H1 9853   0.883   3.811  17.690 -0.6431 -1.1860 -0.4590
  662MPD2    H2 9854   0.906   3.493  17.420  1.3453 -1.4480  0.5214
  662MPD2    H3 9855   0.834   3.715  17.476 -1.0738 -0.1165  2.6740
  662MPD2     N 9856   1.011   3.709   0.149  0.5399  0.2849 -0.0424
  662MPD2    H5 9857   0.961   3.795   0.168 -3.4132 -1.2195 -3.4637
  662MPD2    N1 9858   1.074   3.346  17.576  0.3989  0.5392 -0.8157
  662MPD2    H7 9859   1.134   3.312  17.650 -0.5043  1.9661  0.5739
  663TMC3    C1 9860   1.110   3.135  17.477 -0.7082  0.4525 -0.2528
  663TMC3    C2 9861   1.078   3.075  17.597 -0.0683 -0.1066  0.1564
  663TMC3    C3 9862   1.030   2.941  17.596 -0.6403 -0.2830 -0.0570
  663TMC3    C4 9863   1.099   3.069  17.356  0.7439 -0.0656 -0.0622
  663TMC3    C5 9864   1.070   2.937  17.364 -0.4737 -0.6058 -0.0798
  663TMC3    C6 9865   1.039   2.874  17.482  0.3831 -0.0306  0.2662
  663TMC3     C 9866   1.057   3.267  17.465 -0.4350  0.3240 -0.0672
  663TMC3     O 9867   0.971   3.276  17.379  0.0053  0.5346  0.6334
  663TMC3     H 9868   1.079   3.127  17.692  0.1706 -0.3903  0.3088
  663TMC3    H1 9869   1.110   3.124  17.263 -0.2527  1.4439  0.7279
  663TMC3    H2 9870   0.981   2.783  17.478  1.9459 -0.9973 -0.1492
  663TMC3    C7 9871   1.056   2.875  17.237  0.0994 -0.0938  0.1457
  663TMC3    C8 9872   0.890   2.939  17.635 -0.3079 -0.1360 -0.1238
  663TMC3    O1 9873   1.020   2.948  17.145  0.1704  0.2533 -1.0426
  663TMC3    O2 9874   0.809   2.908  17.551  0.7397 -0.0813 -0.3178
  664MPD2     C 9875   4.202   1.513  17.628 -0.8887  0.1119  0.6993
  664MPD2    C1 9876   4.208   1.638  17.681  0.2766 -0.9848 -0.0355
  664MPD2    C2 9877   4.144   1.665   0.047 -0.0306 -0.5977  0.6095
  664MPD2    C3 9878   4.062   1.571   0.112 -1.2064  0.7706 -0.6022
  664MPD2    C4 9879   4.059   1.446   0.061  0.2470 -0.8345  0.9032
  664MPD2    C5 9880   4.127   1.414  17.690 -0.1992 -0.4190  0.3610
  664MPD2     H 9881   4.154   1.764   0.090  1.8649 -0.4161 -0.2621
  664MPD2    H1 9882   4.012   1.363   0.113  0.1339 -0.7571  0.9219
  664MPD2    H2 9883   4.255   1.491  17.536  0.7516  1.1547  1.4011
  664MPD2    H3 9884   4.124   1.319  17.638  0.8818 -0.0927 -0.2725
  664MPD2     N 9885   3.997   1.607   0.232 -0.6611  0.1089 -0.4591
  664MPD2    H5 9886   4.013   1.703   0.261 -0.5910 -0.4745  1.4587
  664MPD2    N1 9887   4.275   1.750  17.621  0.0004  0.1030 -0.3444
  664MPD2    H7 9888   4.293   1.828  17.683  0.6789  0.3938 -0.9050
  665TMC3    C1 9889   3.858   1.612   0.423 -0.5817  0.1266  0.3451
  665TMC3    C2 9890   3.857   1.559   0.548 -0.5170  0.1899 -0.0242
  665TMC3    C3 9891   3.819   1.642   0.645 -0.3658  0.7890  0.0607
  665TMC3    C4 9892   3.828   1.739   0.394 -0.7075 -0.1198 -0.7867
  665TMC3    C5 9893   3.786   1.818   0.500  0.2840  0.1346  0.6478
  665TMC3    C6 9894   3.780   1.773   0.626  0.3623  0.5923  0.5787
  665TMC3     C 9895   3.916   1.536   0.319 -0.0242 -0.3618 -0.3690
  665TMC3     O 9896   3.920   1.413   0.329 -0.1239  0.6182 -0.5911
  665TMC3     H 9897   3.897   1.460   0.564 -0.9272  0.1386  0.6531
  665TMC3    H1 9898   3.828   1.780   0.294 -0.8430  1.2773 -0.2203
  665TMC3    H2 9899   3.727   1.829   0.702 -1.9044  1.7494 -1.8748
  665TMC3    C7 9900   3.770   1.957   0.469 -0.7538 -0.2191  0.3012
  665TMC3    C8 9901   3.843   1.611   0.778 -0.2523  0.2312 -0.3589
  665TMC3    O1 9902   3.738   2.002   0.358 -0.0241  0.2174 -0.7399
  665TMC3    O2 9903   3.845   1.707   0.855 -0.2852 -0.3339  0.1310
  666TMC3    C1 9904   3.494   0.640  10.236  0.3244 -0.9480 -0.1536
  666TMC3    C2 9905   3.578   0.588  10.148 -0.2067 -0.0512 -0.1823
  666TMC3    C3 9906   3.651   0.673  10.074  0.6005 -0.0016  0.1018
  666TMC3    C4 9907   3.467   0.770  10.244 -0.1816  0.2551 -0.8676
  666TMC3    C5 9908   3.530   0.852  10.154 -0.0014 -1.0932  0.6521
  666TMC3    C6 9909   3.622   0.807  10.062 -0.1745  0.1427  0.2071
  666TMC3     C 9910   3.455   0.550  10.334  0.0344 -0.2404 -0.3170
  666TMC3     O 9911   3.440   0.596  10.443 -0.6697 -0.2663 -0.6721
  666TMC3     H 9912   3.618   0.487  10.151  1.2586  0.6337  2.6393
  666TMC3    H1 9913   3.399   0.812  10.318  0.8982 -0.0950  0.3154
  666TMC3    H2 9914   3.688   0.874  10.007  0.9536 -0.9480  0.2262
  666TMC3    C7 9915   3.520   0.995  10.179 -0.4870  0.2536  0.0436
  666TMC3    C8 9916   3.788   0.628  10.047  0.3495 -0.0845  0.0625
  666TMC3    O1 9917   3.465   1.021  10.283 -0.0739 -0.2088  0.5968
  666TMC3    O2 9918   3.805   0.516  10.003 -0.4067 -0.1767  0.0750
  667MPD2     C 9919   0.289   1.166  15.044  0.2473  0.1557 -0.0794
  667MPD2    C1 9920   0.212   1.174  15.161  0.7160 -0.4784 -0.0767
  667MPD2    C2 9921   0.154   1.061  15.211  0.3313  0.0800  0.4087
  667MPD2    C3 9922   0.184   0.934  15.158 -0.1025 -0.9011 -0.1243
  667MPD2    C4 9923   0.263   0.931  15.037 -0.4196  0.4231  0.1404
  667MPD2    C5 9924   0.313   1.046  14.983  0.1104  0.2516 -0.0530
  667MPD2     H 9925   0.084   1.068  15.294  1.0338 -1.7021  1.1432
  667MPD2    H1 9926   0.287   0.838  14.988  1.3185  2.4272 -2.8424
  667MPD2    H2 9927   0.330   1.251  14.991 -2.2266  1.9193  0.8595
  667MPD2    H3 9928   0.367   1.049  14.889 -0.2349  0.9909 -0.2213
  667MPD2     N 9929   0.124   0.817  15.214  0.1590  0.1986 -0.0944
  667MPD2    H5 9930   0.156   0.735  15.163 -2.1748 -0.2492 -0.8745
  667MPD2    N1 9931   0.169   1.290  15.217 -0.2143 -0.3101  0.2269
  667MPD2    H7 9932   0.082   1.293  15.269 -0.3217  2.1581 -0.0673
  668TMC3    C1 9933   0.157   1.524  15.235 -0.2215 -0.3102 -0.0370
  668TMC3    C2 9934   0.227   1.638  15.251 -0.4546  0.3233  0.9037
  668TMC3    C3 9935   0.159   1.753  15.279 -0.1654 -0.1559 -0.4279
  668TMC3    C4 9936   0.025   1.509  15.273  0.1545  0.8292 -0.0878
  668TMC3    C5 9937   4.702   1.626  15.311  0.6561  0.1099  0.0926
  668TMC3    C6 9938   0.026   1.745  15.306  0.2840 -0.0091  0.2336
  668TMC3     C 9939   0.235   1.412  15.196 -0.1009 -0.1738 -0.1366
  668TMC3     O 9940   0.351   1.407  15.161 -0.1585  0.7352 -0.5377
  668TMC3     H 9941   0.334   1.646  15.235 -0.7779  0.5841 -1.1115
  668TMC3    H1 9942   4.710   1.417  15.251 -1.1240  1.1068  1.7719
  668TMC3    H2 9943   4.710   1.836  15.333 -0.8388 -0.4894 -0.3819
  668TMC3    C7 9944   4.558   1.632  15.351 -0.3586  0.2632 -0.1402
  668TMC3    C8 9945   0.227   1.877  15.308  0.6377 -0.2082 -0.5003
  668TMC3    O1 9946   4.512   1.742  15.352 -0.3338  0.7751  0.2112
  668TMC3    O2 9947   0.175   1.945  15.395  0.3437  0.1709 -0.3070
  669TMC3    C1 9948   2.667   1.785  14.618  0.4727  0.3485  0.6137
  669TMC3    C2 9949   2.587   1.733  14.527 -0.5316 -0.2123 -0.6260
  669TMC3    C3 9950   2.637   1.737  14.399  0.1009  0.4141  0.9385
  669TMC3    C4 9951   2.794   1.827  14.595 -0.8350 -0.2619  0.0948
  669TMC3    C5 9952   2.846   1.809  14.468  0.1459 -0.2154  0.6013
  669TMC3    C6 9953   2.766   1.770  14.359  0.2020  0.6532  0.0712
  669TMC3     C 9954   2.620   1.765  14.753 -0.1195 -0.2783 -0.0074
  669TMC3     O 9955   2.502   1.745  14.780  0.3696  0.1530  0.3398
  669TMC3     H 9956   2.490   1.694  14.554  0.2585  0.2852  2.8704
  669TMC3    H1 9957   2.850   1.872  14.676  1.2220 -1.2067 -0.8026
  669TMC3    H2 9958   2.806   1.766  14.258 -1.2502 -0.1241 -0.4751
  669TMC3    C7 9959   2.981   1.843  14.446 -0.7956  0.4836  0.0267
  669TMC3    C8 9960   2.594   1.621  14.328 -0.2845  0.4766 -0.0811
  669TMC3    O1 9961   3.032   1.909  14.538 -0.6967 -0.6143  0.7225
  669TMC3    O2 9962   2.670   1.571  14.250  0.6206 -0.3057 -0.5093
  670MPD2     C 9963   1.173   3.959  13.507  0.4907  0.3038  0.7737
  670MPD2    C1 9964   1.303   3.951  13.554  0.7274 -0.4857 -0.4751
  670MPD2    C2 9965   1.322   3.924  13.690  0.1132 -0.2469 -0.4229
  670MPD2    C3 9966   1.217   3.895  13.773 -0.4844  0.7500 -0.2085
  670MPD2    C4 9967   1.090   3.913  13.725  0.0188 -0.3691  0.0052
  670MPD2    C5 9968   1.067   3.958  13.594 -0.0986 -0.5322  0.1661
  670MPD2     H 9969   1.423   3.936  13.727  0.0679  2.9400 -1.3623
  670MPD2    H1 9970   0.998   3.900  13.782 -0.6587 -1.2457 -1.2929
  670MPD2    H2 9971   1.144   3.995  13.409 -0.0637  0.6892  1.0792
  670MPD2    H3 9972   0.970   3.982  13.552 -0.3067 -0.4852  0.6711
  670MPD2     N 9973   1.248   3.858  13.909  0.7138  0.5912 -0.0852
  670MPD2    H5 9974   1.345   3.866  13.939 -0.1208 -2.0287  3.2239
  670MPD2    N1 9975   1.420   3.955  13.473  0.3502 -0.4914 -0.3288
  670MPD2    H7 9976   1.504   3.933  13.525 -0.5806 -1.1799  0.8832
  671TMC3    C1 9977   1.210   3.788  14.136  0.2528  0.3824  0.9689
  671TMC3    C2 9978   1.342   3.802  14.153 -0.1105 -0.3226  0.4216
  671TMC3    C3 9979   1.385   3.745  14.268  0.7807 -0.6221 -0.6355
  671TMC3    C4 9980   1.129   3.696  14.206 -0.1152  0.0331  0.5964
  671TMC3    C5 9981   1.185   3.629  14.314  0.1255  0.0051 -1.0186
  671TMC3    C6 9982   1.312   3.661  14.350  0.5718 -0.1929 -0.1449
  671TMC3     C 9983   1.153   3.832  14.005 -0.2270 -0.3746  0.0841
  671TMC3     O 9984   1.029   3.828  13.999  0.0327  0.1023 -0.0038
  671TMC3     H 9985   1.390   3.888  14.108  1.7616 -1.0319  1.0742
  671TMC3    H1 9986   1.021   3.699  14.194 -0.2966 -0.8877  2.0330
  671TMC3    H2 9987   1.365   3.619  14.434 -1.9419 -1.3471  0.8588
  671TMC3    C7 9988   1.113   3.555  14.415 -0.1892 -0.2800  0.5728
  671TMC3    C8 9989   1.524   3.721  14.250  0.4675  0.7675 -0.3195
  671TMC3    O1 9990   1.151   3.592  14.524  0.2412  0.1411  0.8550
  671TMC3    O2 9991   1.571   3.730  14.137 -0.1130  0.0520 -0.0080
  672MPD2     C 9992   1.305   0.041   1.076 -0.5346  0.1495 -0.2663
  672MPD2    C1 9993   1.418   4.715   1.116  0.5432 -0.5343 -0.3416
  672MPD2    C2 9994   1.533   0.049   1.141 -0.1801 -0.4070 -0.2804
  672MPD2    C3 9995   1.529   0.191   1.121  0.4080 -0.4016 -0.4384
  672MPD2    C4 9996   1.407   0.249   1.083  0.1218 -0.9178 -0.3544
  672MPD2    C5 9997   1.294   0.177   1.070 -0.1517 -0.2713 -1.0147
  672MPD2     H 9998   1.625   0.006   1.178  0.4097  1.2182  0.1815
  672MPD2    H1 9999   1.413   0.356   1.062 -2.5101 -0.6689  0.2088
  672MPD2    H210000   1.214   4.725   1.051 -1.5183  2.2779 -1.1931
  672MPD2    H310001   1.206   0.221   1.025 -0.6962  1.0109  1.3521
  672MPD2     N10002   1.643   0.272   1.117  0.1390 -0.1356 -0.9764
  672MPD2    H510003   1.634   0.373   1.107  1.1085 -0.0491 -0.9953
  672MPD2    N110004   1.433   4.574   1.120 -0.8778 -0.3295  0.2129
  672MPD2    H710005   1.529   4.540   1.119 -0.5508  0.5845 -1.6734
  673TMC3    C110006   1.362   4.347   1.089 -0.3568  0.3268 -0.6322
  673TMC3    C210007   1.481   4.323   1.029 -0.8945  0.5026 -0.3632
  673TMC3    C310008   1.487   4.222   0.941 -1.0679 -0.7074 -0.4384
  673TMC3    C410009   1.244   4.271   1.065  0.1926 -0.6236  0.3611
  673TMC3    C510010   1.261   4.171   0.973  0.0820 -0.0627  0.4254
  673TMC3    C610011   1.377   4.140   0.921  0.2547 -0.2112  0.1614
  673TMC3     C10012   1.329   4.487   1.109 -1.4761 -0.7449  0.0862
  673TMC3     O10013   1.207   4.504   1.116  0.1386  0.2136 -0.2385
  673TMC3     H10014   1.563   4.393   1.037  1.0137 -1.7375 -0.3254
  673TMC3    H110015   1.153   4.286   1.122  0.2923 -1.1336  0.6562
  673TMC3    H210016   1.377   4.069   0.839  1.4112 -1.0679  0.9055
  673TMC3    C710017   1.153   4.173   0.872 -0.3767  0.0164  0.2541
  673TMC3    C810018   1.610   4.180   0.883 -0.1634 -0.2788  0.8849
  673TMC3    O110019   1.142   4.089   0.786 -0.1574  0.0983  0.6906
  673TMC3    O210020   1.600   4.108   0.782 -0.4068  0.1119  0.0600
  674MPD2     C10021   0.897   0.002   0.179  0.1173  0.1155  0.4874
  674MPD2    C110022   0.869   4.598   0.199 -0.4140 -0.1612  0.2905
  674MPD2    C210023   0.738   4.564   0.229  0.4047 -0.1252  0.1105
  674MPD2    C310024   0.633   4.659   0.247 -0.3794 -0.0266  0.0560
  674MPD2    C410025   0.662   0.051   0.210  0.2401 -0.2785  0.8316
  674MPD2    C510026   0.789   0.088   0.174  0.6805 -0.3567  0.5829
  674MPD2     H10027   0.716   4.467   0.272  2.5838 -1.0583 -0.8779
  674MPD2    H110028   0.582   0.123   0.195  0.2734 -0.5173 -0.5294
  674MPD2    H210029   0.997   0.036   0.153  0.5376 -0.4583  1.3256
  674MPD2    H310030   0.808   0.192   0.151 -0.9300  0.1531  1.5848
  674MPD2     N10031   0.504   4.617   0.289 -0.2331  0.3757 -0.7635
  674MPD2    H510032   0.491   4.524   0.327  3.2946 -0.0402 -0.5697
  674MPD2    N110033   0.982   4.513   0.216 -0.1653 -0.0537 -0.1123
  674MPD2    H710034   1.073   4.556   0.208  0.6674 -1.6159  0.7409
  675TMC3    C110035   1.105   4.344   0.301  0.0980  0.4174 -0.5059
  675TMC3    C210036   1.123   4.208   0.313 -0.6571  0.3382  0.0074
  675TMC3    C310037   1.197   4.162   0.417  0.1861  0.8507  0.5273
  675TMC3    C410038   1.170   4.429   0.396 -0.2999 -0.2994  0.5939
  675TMC3    C510039   1.243   4.368   0.499 -0.2821 -0.2893  0.0520
  675TMC3    C610040   1.255   4.236   0.514  0.1868  0.2870  0.2949
  675TMC3     C10041   0.970   4.385   0.252 -0.4746 -0.4570 -0.5725
  675TMC3     O10042   0.873   4.311   0.248  0.1126  0.0414  0.2591
  675TMC3     H10043   1.056   4.151   0.250  1.6898 -1.3881 -0.9567
  675TMC3    H110044   1.139   4.532   0.410 -2.8261 -0.5124 -3.4772
  675TMC3    H210045   1.304   4.189   0.598 -0.5773  0.7539  0.9962
  675TMC3    C710046   1.313   4.448   0.599  0.0925  0.0420  0.4376
  675TMC3    C810047   1.202   4.015   0.420 -0.8597  0.2507  0.3912
  675TMC3    O110048   1.367   4.386   0.689 -0.5430  0.4573 -0.1058
  675TMC3    O210049   1.179   3.958   0.313  0.0941  0.0219 -0.6424
  676MPD2     C10050   4.315   2.368  11.216 -0.6929 -0.1624 -0.2093
  676MPD2    C110051   4.217   2.293  11.296  0.1249 -0.5101 -0.0094
  676MPD2    C210052   4.231   2.156  11.308  1.3986 -0.5803  0.3147
  676MPD2    C310053   4.330   2.091  11.241 -0.5609  0.3122  0.2277
  676MPD2    C410054   4.417   2.162  11.166 -0.2451  0.1957  0.6597
  676MPD2    C510055   4.416   2.299  11.152  0.4575 -0.1301 -0.1211
  676MPD2     H10056   4.156   2.105  11.367 -0.0726  0.8430 -0.3615
  676MPD2    H110057   4.494   2.113  11.106 -0.9624  0.5221 -0.5336
  676MPD2    H210058   4.316   2.475  11.204  1.1319 -0.3971 -2.3045
  676MPD2    H310059   4.499   2.353  11.108 -1.7274  3.1824 -0.1737
  676MPD2     N10060   4.348   1.954  11.248 -0.1507  0.6941 -0.2149
  676MPD2    H510061   4.445   1.931  11.227 -0.1870  1.0397 -0.7819
  676MPD2    N110062   4.103   2.355  11.352  0.5178 -0.4070  0.0104
  676MPD2    H710063   4.034   2.298  11.400  1.9749  0.8186  3.5356
  677TMC3    C110064   3.953   2.532  11.433 -0.4189 -0.0521 -0.3622
  677TMC3    C210065   3.850   2.453  11.440 -0.4796  0.5210 -0.3182
  677TMC3    C310066   3.743   2.505  11.506  0.7594  0.2923 -0.2524
  677TMC3    C410067   3.959   2.657  11.485 -0.7683  0.3441 -0.6791
  677TMC3    C510068   3.853   2.696  11.569 -0.6108 -0.1978 -0.1530
  677TMC3    C610069   3.734   2.623  11.563  0.2537  0.2664 -0.0906
  677TMC3     C10070   4.078   2.492  11.357  0.2252  0.4908  0.2040
  677TMC3     O10071   4.158   2.577  11.321  0.1815 -0.0940  0.0947
  677TMC3     H10072   3.841   2.366  11.376 -0.1606  0.9467 -0.9404
  677TMC3    H110073   4.055   2.707  11.495 -0.1121 -1.2134  0.8414
  677TMC3    H210074   3.639   2.644  11.610  0.5725  0.6064  0.4003
  677TMC3    C710075   3.873   2.769  11.694  0.4776  0.0597  0.4138
  677TMC3    C810076   3.624   2.417  11.504 -0.2406  0.0782 -0.4990
  677TMC3    O110077   3.786   2.773  11.779 -0.6898 -0.0354  0.0387
  677TMC3    O210078   3.595   2.366  11.394 -0.0676  0.1932  0.3242
  678MPD2     C10079   0.057   2.454   1.812  0.4228  0.2130  1.2454
  678MPD2    C110080   0.093   2.458   1.678  0.0213  0.6558 -0.3450
  678MPD2    C210081   4.730   2.493   1.592  0.0419  0.0933  0.6986
  678MPD2    C310082   4.604   2.526   1.633 -0.3860 -0.9638  0.5158
  678MPD2    C410083   4.577   2.534   1.775  0.1169  0.6700 -0.9887
  678MPD2    C510084   4.672   2.499   1.861  0.0813 -0.5596 -0.0245
  678MPD2     H10085   0.013   2.509   1.487 -2.1565 -1.7356  0.0117
  678MPD2    H110086   4.479   2.556   1.815  0.0386 -0.1237 -0.7266
  678MPD2    H210087   0.127   2.436   1.893 -0.4728 -0.0442  1.9573
  678MPD2    H310088   4.647   2.499   1.967  0.4961 -0.6755  0.0727
  678MPD2     N10089   4.511   2.567   1.537 -0.1389  0.0950 -0.0760
  678MPD2    H510090   4.545   2.583   1.442 -1.6055 -1.1344 -0.8122
  678MPD2    N110091   0.225   2.441   1.635  0.2484 -0.0088 -0.2731
  678MPD2    H710092   0.233   2.448   1.534 -3.1977 -0.9356 -0.5942
  679TMC3    C110093   0.648   2.278   1.540 -0.3560  0.0391  0.6770
  679TMC3    C210094   0.537   2.278   1.625  0.8787  0.8423  0.3834
  679TMC3    C310095   0.456   2.391   1.620 -0.8621  0.2720 -0.3293
  679TMC3    C410096   0.687   2.396   1.472  0.2175  0.2425  0.0451
  679TMC3    C510097   0.600   2.503   1.477  0.0044  0.4852 -0.1907
  679TMC3    C610098   0.489   2.498   1.548  0.0253  0.0511  0.3315
  679TMC3     C10099   0.704   2.162   1.484  0.5743  0.1296  0.3631
  679TMC3     O10100   0.811   2.171   1.426  1.1847  0.2450 -0.1630
  679TMC3     H10101   0.497   2.191   1.676  2.4091  0.6654  1.3078
  679TMC3    H110102   0.748   2.384   1.383  0.8774 -0.7764  0.6274
  679TMC3    H210103   0.434   2.591   1.546 -1.4710 -0.8359  0.3703
  679TMC3    C710104   0.614   2.609   1.387 -0.7722 -0.3893 -0.0030
  679TMC3    C810105   0.332   2.387   1.699 -0.0443 -0.6129 -0.3194
  679TMC3    O110106   0.523   2.686   1.369  0.3599 -0.4475 -0.1135
  679TMC3    O210107   0.324   2.343   1.817 -0.0527  0.2151  0.4764
  680MPD2     C10108   1.249   1.569  13.682 -0.1152  0.1031 -0.6401
  680MPD2    C110109   1.260   1.526  13.815  0.5702  0.0848  0.3788
  680MPD2    C210110   1.311   1.611  13.909  0.5251 -0.4570  0.3563
  680MPD2    C310111   1.361   1.733  13.863  0.7684  0.4359  0.1430
  680MPD2    C410112   1.362   1.764  13.732  0.2596 -0.3863 -0.3263
  680MPD2    C510113   1.308   1.683  13.639  0.1720  0.2552 -0.4517
  680MPD2     H10114   1.290   1.592  14.013  3.0641  0.9253  1.1305
  680MPD2    H110115   1.382   1.863  13.691  0.8976 -0.0853  0.7062
  680MPD2    H210116   1.197   1.517  13.602  0.8449 -0.2679 -1.0239
  680MPD2    H310117   1.298   1.715  13.536 -0.9276 -2.5326 -1.2070
  680MPD2     N10118   1.429   1.826  13.948  0.4285  0.6372  0.3972
  680MPD2    H510119   1.486   1.887  13.891  1.6982  0.1696  1.1674
  680MPD2    N110120   1.202   1.404  13.858 -0.1110 -0.2614 -0.3996
  680MPD2    H710121   1.228   1.372  13.951  1.0962  2.9024  0.3433
  681TMC3    C110122   1.095   1.192  13.846  0.3468  0.3035  0.7027
  681TMC3    C210123   1.086   1.180  13.983  0.0529 -0.2094 -0.8282
  681TMC3    C310124   1.063   1.058  14.035  0.8688 -0.5395  0.0574
  681TMC3    C410125   1.105   1.086  13.766 -0.3324  0.2913  0.3264
  681TMC3    C510126   1.097   0.959  13.828 -0.1045  0.1399 -0.3983
  681TMC3    C610127   1.073   0.945  13.959  0.0675  0.0988  0.2608
  681TMC3     C10128   1.130   1.312  13.781  0.8345  0.1297 -0.0272
  681TMC3     O10129   1.081   1.342  13.676  0.0300  0.2295  0.1036
  681TMC3     H10130   1.079   1.267  14.047 -1.6168 -0.4560 -0.6817
  681TMC3    H110131   1.105   1.112  13.660 -1.4377 -1.7661 -0.1772
  681TMC3    H210132   1.090   0.848  14.006 -2.0355 -0.6706 -0.5673
  681TMC3    C710133   1.132   0.839  13.757 -0.7036  0.3612 -0.1564
  681TMC3    C810134   1.024   1.036  14.172 -0.2096  0.7308  0.3927
  681TMC3    O110135   1.070   0.734  13.770  0.2139 -0.0312 -0.0047
  681TMC3    O210136   0.998   0.920  14.204 -0.4233 -0.6169 -0.4177
  682MPD2     C10137   3.068   2.110  10.820 -0.1679  0.2534 -0.2728
  682MPD2    C110138   3.142   2.006  10.880 -0.2546  0.4608  0.2963
  682MPD2    C210139   3.131   1.989  11.017  0.0149  1.3128  0.5294
  682MPD2    C310140   3.045   2.066  11.097  0.2898 -0.1945  0.4934
  682MPD2    C410141   2.969   2.162  11.036  0.4034 -1.1456  0.2455
  682MPD2    C510142   2.974   2.175  10.897  0.0276 -0.1189 -0.3363
  682MPD2     H10143   3.194   1.910  11.055 -0.0688  1.0045  0.0329
  682MPD2    H110144   2.889   2.220  11.082 -0.8593 -1.4476 -1.5275
  682MPD2    H210145   3.074   2.136  10.715 -1.9278  0.9175 -0.2089
  682MPD2    H310146   2.894   2.232  10.851  0.2250  0.3162 -0.1389
  682MPD2     N10147   3.020   2.042  11.229  0.5974  0.6569  0.0230
  682MPD2    H510148   2.960   2.111  11.273 -2.2038 -2.7421  1.5007
  682MPD2    N110149   3.223   1.918  10.818  0.4548 -0.2233 -1.1025
  682MPD2    H710150   3.282   1.862  10.879  0.1529  0.0585 -0.5467
  683TMC3    C110151   2.915   2.049  11.597  0.1233  1.0269 -0.0927
  683TMC3    C210152   2.849   1.942  11.643 -0.8324 -0.0110  0.8975
  683TMC3    C310153   2.871   1.822  11.577  0.0432  0.9073  0.3934
  683TMC3    C410154   3.005   2.050  11.497  0.2030 -0.2051  0.0995
  683TMC3    C510155   3.018   1.927  11.434 -0.4467  0.1830  0.7103
  683TMC3    C610156   2.946   1.815  11.467 -0.9569 -0.1525 -0.1977
  683TMC3     C10157   2.888   2.175  11.672 -0.0401 -0.1747  0.0490
  683TMC3     O10158   2.792   2.175  11.744  0.1082  0.2917  0.9090
  683TMC3     H10159   2.788   1.940  11.733 -0.8851  0.6709  0.8700
  683TMC3    H110160   3.073   2.131  11.471 -0.9747  0.9398  0.5913
  683TMC3    H210161   2.939   1.731  11.399  3.8119  1.0799 -2.2172
  683TMC3    C710162   3.068   1.934  11.297  0.3670 -0.6483 -0.1988
  683TMC3    C810163   2.803   1.709  11.627 -0.7499 -0.4458  0.2083
  683TMC3    O110164   3.125   1.831  11.259  0.7801 -0.5958  0.4486
  683TMC3    O210165   2.704   1.717  11.697  0.5389 -0.4629 -0.2452
  684MPD2     C10166   0.686   2.482  16.180 -0.0736 -0.9296  0.0909
  684MPD2    C110167   0.821   2.499  16.203 -0.3277 -0.0254  0.0792
  684MPD2    C210168   0.863   2.622  16.243 -0.0639 -0.2608  0.1211
  684MPD2    C310169   0.774   2.717  16.284 -1.0209  0.0594  0.0013
  684MPD2    C410170   0.643   2.700  16.272  0.0523 -0.0803 -0.1741
  684MPD2    C510171   0.598   2.585  16.210  0.4614 -0.2517 -0.0471
  684MPD2     H10172   0.971   2.631  16.240 -0.2283  1.3895 -0.7872
  684MPD2    H110173   0.572   2.776  16.300  0.5960  0.7949 -1.1380
  684MPD2    H210174   0.640   2.399  16.127 -0.6213 -0.5419 -0.0495
  684MPD2    H310175   0.493   2.566  16.190  0.2810  0.6291  0.0620
  684MPD2     N10176   0.820   2.844  16.334  0.0010 -0.1978 -0.3009
  684MPD2    H510177   0.755   2.922  16.325 -0.3548 -0.4784 -0.1507
  684MPD2    N110178   0.914   2.401  16.178  0.4237 -0.5397  0.0626
  684MPD2    H710179   1.009   2.421  16.208  0.0021  1.0222  0.3539
  685TMC3    C110180   1.003   2.203  16.081  0.4086 -0.2964 -0.6947
  685TMC3    C210181   0.951   2.102  16.000  0.0581  0.2565 -0.1163
  685TMC3    C310182   1.019   2.073  15.886 -0.4094  0.3725 -0.1535
  685TMC3    C410183   1.115   2.272  16.055 -0.2777  0.1890 -0.1102
  685TMC3    C510184   1.191   2.220  15.950  0.0207  0.2032  0.2012
  685TMC3    C610185   1.142   2.133  15.859  0.5998 -0.2099 -0.2965
  685TMC3     C10186   0.885   2.280  16.110  0.6324 -1.1629  0.1929
  685TMC3     O10187   0.786   2.243  16.056 -0.1941 -0.0278 -0.1863
  685TMC3     H10188   0.865   2.048  16.037  0.2985 -1.6298 -2.3718
  685TMC3    H110189   1.142   2.369  16.094 -0.8577  0.3155 -0.0194
  685TMC3    H210190   1.204   2.100  15.776  1.7044  1.4712 -0.1459
  685TMC3    C710191   1.330   2.249  15.948  0.1892 -0.6497  0.4693
  685TMC3    C810192   0.931   2.036  15.781 -0.2026  0.7495  0.7440
  685TMC3    O110193   1.385   2.265  15.834  0.6469 -0.1980 -0.2942
  685TMC3    O210194   0.975   1.982  15.682  0.1988  0.2824  0.0480
  686MPD2     C10195   2.718   2.000  16.392 -0.3813  0.2839 -0.1172
  686MPD2    C110196   2.647   1.904  16.323 -0.2965 -0.7561 -0.3305
  686MPD2    C210197   2.708   1.844  16.213 -0.5835 -0.1281  0.7134
  686MPD2    C310198   2.844   1.867  16.193  0.0317 -0.9908  0.4892
  686MPD2    C410199   2.910   1.965  16.261  0.1102  0.0166  0.2965
  686MPD2    C510200   2.842   2.040  16.352  0.0856 -0.1538 -0.0719
  686MPD2     H10201   2.673   1.748  16.175 -0.1548  0.0437 -0.1177
  686MPD2    H110202   3.014   1.988  16.239  0.3957 -1.6207 -0.1295
  686MPD2    H210203   2.684   2.038  16.488  1.6880 -2.1045  1.5836
  686MPD2    H310204   2.896   2.112  16.412 -0.1022  0.7115 -0.9365
  686MPD2     N10205   2.923   1.785  16.106 -0.3242  0.1893  0.1913
  686MPD2    H510206   3.016   1.821  16.085 -0.8021  1.3628  0.1058
  686MPD2    N110207   2.527   1.854  16.375  0.2315 -0.8040 -0.2903
  686MPD2    H710208   2.495   1.876  16.468 -1.2673  0.3351 -1.0808
  687TMC3    C110209   2.845   1.572  16.161  0.4933  0.4772 -0.8373
  687TMC3    C210210   2.746   1.497  16.114  0.0240 -0.0536  0.0597
  687TMC3    C310211   2.679   1.419  16.205 -0.8925  0.8143  0.4323
  687TMC3    C410212   2.902   1.566  16.279 -0.1245  0.9142  0.3419
  687TMC3    C510213   2.833   1.487  16.368  0.9820 -0.0505 -0.7109
  687TMC3    C610214   2.719   1.416  16.340  0.4340 -0.5450  0.4360
  687TMC3     C10215   2.901   1.656  16.062 -0.2351  0.2182  0.1281
  687TMC3     O10216   2.965   1.598  15.974  0.0360  0.4813  0.0839
  687TMC3     H10217   2.718   1.498  16.009  0.8466  0.7253 -0.1527
  687TMC3    H110218   2.984   1.633  16.304 -0.2051  1.3836 -0.6378
  687TMC3    H210219   2.665   1.361  16.416  1.2198 -1.0309  0.6388
  687TMC3    C710220   2.871   1.502  16.510  0.3413 -0.3834  0.5093
  687TMC3    C810221   2.536   1.409  16.185 -0.1595 -0.2604 -0.1555
  687TMC3    O110222   2.781   1.488  16.592  0.2970 -0.3255 -0.3936
  687TMC3    O210223   2.471   1.344  16.270 -0.1806  0.4896 -0.3029
  688MPD2     C10224   1.742   0.698  17.590 -0.2018 -0.5354 -0.8644
  688MPD2    C110225   1.704   0.562  17.568  0.0511  0.2620  0.7752
  688MPD2    C210226   1.791   0.477  17.494 -0.5137 -0.5221  1.3289
  688MPD2    C310227   1.913   0.520  17.437  0.8004 -0.2318  0.0308
  688MPD2    C410228   1.945   0.652  17.463  0.2447  0.6665  0.0537
  688MPD2    C510229   1.868   0.734  17.541  0.7497 -0.4425  0.0771
  688MPD2     H10230   1.768   0.371  17.488 -1.8770 -0.2791  2.3596
  688MPD2    H110231   2.038   0.694  17.426 -1.2615  2.0319 -2.1594
  688MPD2    H210232   1.691   0.769  17.653 -1.1681 -1.8886 -0.1095
  688MPD2    H310233   1.907   0.833  17.557  0.0674 -0.2302  0.4551
  688MPD2     N10234   2.001   0.451  17.358 -0.4753 -0.0401 -0.0155
  688MPD2    H510235   2.071   0.506  17.309  0.1580 -1.1469 -0.3368
  688MPD2    N110236   1.589   0.511  17.637  0.7096 -0.5523  0.3663
  688MPD2    H710237   1.581   0.410  17.637  2.5206 -0.6948 -0.1547
  689TMC3    C110238   1.424   0.510   0.074  0.0576 -0.0573 -0.1997
  689TMC3    C210239   1.340   0.586   0.152  0.4518  0.3423 -0.4717
  689TMC3    C310240   1.283   0.531   0.263 -0.3655  0.8207  0.9728
  689TMC3    C410241   1.424   0.376   0.088  0.5067  0.0517  0.3317
  689TMC3    C510242   1.359   0.324   0.191 -0.1151  1.3376 -0.3261
  689TMC3    C610243   1.291   0.398   0.282 -0.1337 -0.7735 -0.0170
  689TMC3     C10244   1.500   0.578  17.715 -0.0788 -0.0244  0.1854
  689TMC3     O10245   1.459   0.692  17.694 -0.2251 -0.3409 -0.0060
  689TMC3     H10246   1.340   0.694   0.146 -0.8277  0.2966 -1.3695
  689TMC3    H110247   1.489   0.311   0.031  1.7499  2.8139 -1.3999
  689TMC3    H210248   1.266   0.362   0.381 -1.4424 -1.7507 -0.6995
  689TMC3    C710249   1.365   0.186   0.209  0.4065  0.3314  0.4902
  689TMC3    C810250   1.216   0.610   0.363 -0.7500 -0.1718 -0.7208
  689TMC3    O110251   1.386   0.153   0.329 -0.5624  0.5389 -0.4541
  689TMC3    O210252   1.221   0.565   0.477  0.1223  0.0434  0.0999
  690MPD2     C10253   3.591   2.561  15.606  0.0034 -0.4966 -0.2226
  690MPD2    C110254   3.680   2.466  15.655  0.9197 -0.2219 -0.0226
  690MPD2    C210255   3.808   2.485  15.605  0.2476  0.1193 -0.4965
  690MPD2    C310256   3.842   2.587  15.514  0.5001  0.6033  0.7471
  690MPD2    C410257   3.746   2.680  15.470 -0.4761 -0.0821  0.2447
  690MPD2    C510258   3.625   2.665  15.524  0.0595  0.1150 -0.5105
  690MPD2     H10259   3.887   2.430  15.654 -0.5962 -1.4541 -0.9116
  690MPD2    H110260   3.769   2.757  15.397 -0.3595 -0.0976  0.2647
  690MPD2    H210261   3.494   2.581  15.651 -0.2864 -0.0667 -1.0384
  690MPD2    H310262   3.548   2.738  15.507 -1.3511 -1.2157  0.1114
  690MPD2     N10263   3.975   2.581  15.457 -0.1709  0.6623 -0.4389
  690MPD2    H510264   4.032   2.504  15.490 -1.4948  0.7387  1.9840
  690MPD2    N110265   3.662   2.380  15.769  0.3526  0.4332  0.6128
  690MPD2    H710266   3.737   2.315  15.791  1.5035  1.0182 -1.6555
  691TMC3    C110267   3.540   2.290  15.957 -0.0921  0.7543  0.5855
  691TMC3    C210268   3.447   2.326  16.049  0.0283 -0.6950  0.2373
  691TMC3    C310269   3.399   2.218  16.123 -0.1029  0.7066  0.1992
  691TMC3    C410270   3.575   2.158  15.924  0.1491  0.0334 -0.4639
  691TMC3    C510271   3.518   2.064  15.999  0.3123  1.3413  0.2841
  691TMC3    C610272   3.431   2.091  16.101 -0.5844  0.1616 -0.0367
  691TMC3     C10273   3.543   2.378  15.844  0.3128 -0.0639  0.3330
  691TMC3     O10274   3.442   2.451  15.838  0.0338 -0.4665  0.1554
  691TMC3     H10275   3.410   2.428  16.052  1.7228 -0.0746 -0.1155
  691TMC3    H110276   3.651   2.127  15.853  0.3918  1.3033 -0.7558
  691TMC3    H210277   3.401   2.013  16.170 -1.3475 -0.5799 -1.2185
  691TMC3    C710278   3.543   1.926  15.963  0.2789 -0.0485 -0.0821
  691TMC3    C810279   3.295   2.249  16.215 -0.0298  0.3282 -0.5371
  691TMC3    O110280   3.647   1.900  15.896  0.0584  0.2439  0.6702
  691TMC3    O210281   3.235   2.152  16.260 -0.3121  0.2387 -0.0263
  692TMC3    C110282   0.586   3.837  15.815  0.0219 -0.5244 -0.2233
  692TMC3    C210283   0.655   3.938  15.753  0.6703  0.1008 -1.0499
  692TMC3    C310284   0.724   3.907  15.641 -0.0736 -0.4968  0.2014
  692TMC3    C410285   0.617   3.704  15.796 -0.3612 -0.7002  0.2163
  692TMC3    C510286   0.692   3.679  15.687 -0.0675  0.2700 -0.4784
  692TMC3    C610287   0.735   3.776  15.602 -0.0720 -0.0435  0.8521
  692TMC3     C10288   0.509   3.856  15.942 -0.7951  0.0349 -0.6626
  692TMC3     O10289   0.440   3.760  15.970 -0.4149 -0.0784 -0.6907
  692TMC3     H10290   0.632   4.041  15.779 -0.3257 -0.1511 -0.9319
  692TMC3    H110291   0.569   3.619  15.843 -0.5544  0.6923  2.5530
  692TMC3    H210292   0.803   3.750  15.522 -0.5403  0.7937  0.1835
  692TMC3    C710293   0.763   3.550  15.678 -0.1431 -0.2560 -0.3223
  692TMC3    C810294   0.854   3.974  15.632  0.7741  0.2161 -0.7072
  692TMC3    O110295   0.819   3.534  15.573 -0.3600 -0.1249  0.1716
  692TMC3    O210296   0.933   3.930  15.551 -0.3987 -0.2690  0.1989
  693MPD2     C10297   0.752   1.021  11.541  0.4838  0.3153  0.3010
  693MPD2    C110298   0.713   0.934  11.438 -0.5053 -0.4084 -0.0139
  693MPD2    C210299   0.817   0.847  11.396  0.7837  0.0738  0.6129
  693MPD2    C310300   0.942   0.851  11.457 -0.5185  0.3566 -0.3602
  693MPD2    C410301   0.971   0.941  11.559  0.6773  0.0987  0.2400
  693MPD2    C510302   0.876   1.024  11.596 -0.1269 -0.4400  0.6042
  693MPD2     H10303   0.791   0.785  11.311  1.4905 -0.1451  0.5600
  693MPD2    H110304   1.068   0.943  11.608  1.2760  0.9160 -0.9725
  693MPD2    H210305   0.677   1.096  11.563  1.1241  1.3341 -0.9892
  693MPD2    H310306   0.899   1.113  11.654  2.3068  0.3855 -1.6322
  693MPD2     N10307   1.046   0.766  11.427 -0.4351  0.1035 -1.2630
  693MPD2    H510308   1.131   0.786  11.478 -0.3633 -1.0387 -0.9316
  693MPD2    N110309   0.582   0.943  11.405 -0.2637 -0.1231  0.5505
  693MPD2    H710310   0.526   1.007  11.461 -3.2653 -0.8056 -1.6728
  694TMC3    C110311   0.383   0.917  11.297 -0.3332 -0.8512  0.3668
  694TMC3    C210312   0.305   0.863  11.203 -0.2320 -0.4250  0.1292
  694TMC3    C310313   0.171   0.854  11.226 -0.5533 -0.2214  0.3680
  694TMC3    C410314   0.327   0.965  11.410 -0.7531 -0.4065 -0.0052
  694TMC3    C510315   0.196   0.929  11.437 -0.4824  0.4495  0.2935
  694TMC3    C610316   0.108   0.888  11.347 -0.4936  0.4638  0.4612
  694TMC3     C10317   0.526   0.888  11.295  0.0963 -0.1282  0.3832
  694TMC3     O10318   0.583   0.849  11.195  0.3985 -0.0011  0.0273
  694TMC3     H10319   0.358   0.828  11.115  0.3421 -0.5922  0.5369
  694TMC3    H110320   0.380   1.023  11.484 -0.0446  2.4259 -2.6989
  694TMC3    H210321   0.001   0.890  11.362 -0.4179 -0.0269  1.0826
  694TMC3    C710322   0.148   0.912  11.570 -0.2553 -0.5272  1.3100
  694TMC3    C810323   0.091   0.820  11.110  0.4433 -0.4874  0.2343
  694TMC3    O110324   0.237   0.920  11.658 -0.0453 -1.0798  0.4107
  694TMC3    O210325   4.722   0.760  11.132 -0.3101  0.3133  0.1679
  695MPD2     C10326   1.936   3.430  13.477  0.4568  0.1328 -0.1776
  695MPD2    C110327   1.898   3.449  13.608 -0.0550 -0.0795  0.0191
  695MPD2    C210328   1.765   3.465  13.637 -0.1630  0.5078 -0.0748
  695MPD2    C310329   1.668   3.475  13.546 -0.2811  0.0765  0.2018
  695MPD2    C410330   1.706   3.457  13.418 -0.0160 -0.4571 -0.4157
  695MPD2    C510331   1.834   3.427  13.381 -0.7878  0.2227 -0.5374
  695MPD2     H10332   1.738   3.494  13.738 -1.5285  0.6747 -0.4855
  695MPD2    H110333   1.638   3.454  13.334 -1.9587 -0.4754  1.1712
  695MPD2    H210334   2.037   3.411  13.443 -0.4314 -0.5161 -2.5011
  695MPD2    H310335   1.849   3.409  13.275 -0.3974  0.2330 -0.4841
  695MPD2     N10336   1.534   3.503  13.592 -0.9506  0.1268  0.4325
  695MPD2    H510337   1.525   3.519  13.692 -2.0231  0.5732  0.2627
  695MPD2    N110338   1.991   3.468  13.720 -0.2728  0.2234 -0.1441
  695MPD2    H710339   1.955   3.490  13.812  2.7977 -1.2942  1.4290
  696TMC3    C110340   1.293   3.528  13.566 -0.6058 -0.1987  0.4364
  696TMC3    C210341   1.270   3.461  13.682 -0.3388 -0.0193 -0.1531
  696TMC3    C310342   1.150   3.452  13.725 -0.6639 -0.3454 -0.0695
  696TMC3    C410343   1.190   3.576  13.492 -0.6662 -0.4879 -0.0971
  696TMC3    C510344   1.061   3.565  13.539 -0.5170 -0.8009  0.5858
  696TMC3    C610345   1.039   3.500  13.656 -0.4566 -0.0311 -0.2889
  696TMC3     C10346   1.430   3.524  13.506 -0.1469 -0.0938 -0.5652
  696TMC3     O10347   1.426   3.528  13.386 -0.2507  0.3046 -0.2114
  696TMC3     H10348   1.349   3.418  13.742  0.5698  2.0686  0.1324
  696TMC3    H110349   1.210   3.641  13.408  2.8076  1.4804  2.2564
  696TMC3    H210350   0.942   3.489  13.702 -0.5458  2.2356  0.0535
  696TMC3    C710351   0.963   3.661  13.489  0.4554 -0.5355 -0.1705
  696TMC3    C810352   1.143   3.418  13.869  0.5874 -0.4733  0.0799
  696TMC3    O110353   0.970   3.698  13.372 -0.0899  0.5112 -0.1365
  696TMC3    O210354   1.235   3.457  13.940 -0.1330  0.5570  0.4517
  697MPD2     C10355   0.544   0.515  15.749  0.5973 -0.0209 -0.1393
  697MPD2    C110356   0.574   0.462  15.625  0.1111  0.4206 -0.2454
  697MPD2    C210357   0.635   0.540  15.526 -0.5066  0.0448 -0.2497
  697MPD2    C310358   0.663   0.674  15.556 -0.2511  0.4689 -0.1595
  697MPD2    C410359   0.643   0.724  15.683 -0.0904 -0.1003  0.1482
  697MPD2    C510360   0.580   0.642  15.773  0.4812 -0.0526 -0.3436
  697MPD2     H10361   0.651   0.499  15.427  0.9815  1.2712 -0.5151
  697MPD2    H110362   0.652   0.830  15.703  1.9680 -0.0545 -1.0240
  697MPD2    H210363   0.487   0.459  15.822 -0.0416  1.1152  0.2370
  697MPD2    H310364   0.555   0.690  15.867 -1.4970  1.2579 -1.5449
  697MPD2     N10365   0.721   0.747  15.448 -0.2366  0.3595 -0.8349
  697MPD2    H510366   0.746   0.693  15.366  1.2073  2.2258 -1.6265
  697MPD2    N110367   0.563   0.325  15.589  0.8316  0.4807  0.1188
  697MPD2    H710368   0.589   0.306  15.493  0.0593  0.8593 -0.1639
  698TMC3    C110369   0.834   0.920  15.336 -0.4069  0.4623 -0.1033
  698TMC3    C210370   0.853   1.056  15.321 -0.0760 -0.7012 -0.5750
  698TMC3    C310371   0.963   1.099  15.250  0.0863 -0.1889 -0.4490
  698TMC3    C410372   0.915   0.831  15.267  0.2397 -0.3384 -0.7137
  698TMC3    C510373   1.006   0.878  15.174  0.4709 -0.4633 -0.2828
  698TMC3    C610374   1.028   1.012  15.166  0.5486 -0.2824  0.3910
  698TMC3     C10375   0.755   0.881  15.447  0.4312 -0.4777  0.3926
  698TMC3     O10376   0.755   0.960  15.544 -0.4675 -0.1052  0.1104
  698TMC3     H10377   0.801   1.126  15.385  1.6627 -1.1694  1.3528
  698TMC3    H110378   0.905   0.723  15.272 -1.1384 -0.1548  0.4383
  698TMC3    H210379   1.093   1.048  15.087 -1.9748  2.4415 -0.4259
  698TMC3    C710380   0.991   0.789  15.060  0.5657  0.3647 -0.6974
  698TMC3    C810381   0.971   1.243  15.230  0.2765  0.0079 -1.1626
  698TMC3    O110382   0.891   0.715  15.063 -0.0840 -0.2857  0.3720
  698TMC3    O210383   0.859   1.293  15.219  0.4102  0.0539 -0.0664
  699TMC3    C110384   0.789   3.560  13.062 -1.0418 -1.1268  0.2559
  699TMC3    C210385   0.860   3.465  13.131 -0.4173  0.2463 -0.1200
  699TMC3    C310386   0.812   3.412  13.250  0.5330  0.2531  0.2879
  699TMC3    C410387   0.665   3.588  13.109  0.3669 -0.6687 -0.1047
  699TMC3    C510388   0.618   3.531  13.221  0.2105  0.5833 -0.0721
  699TMC3    C610389   0.694   3.450  13.301  0.3283 -0.6447 -0.1403
  699TMC3     C10390   0.851   3.640  12.956 -0.3625 -0.3195 -0.2256
  699TMC3     O10391   0.777   3.705  12.881 -0.3458  0.4038 -0.6195
  699TMC3     H10392   0.958   3.436  13.094 -0.2652  1.6237 -0.7993
  699TMC3    H110393   0.615   3.678  13.076  0.4887 -0.9636 -1.1088
  699TMC3    H210394   0.653   3.411  13.393 -0.0023 -0.8045 -0.3544
  699TMC3    C710395   0.509   3.591  13.283 -0.1858  0.3583  0.4203
  699TMC3    C810396   0.884   3.311  13.332 -0.5638  0.1368 -0.0287
  699TMC3    O110397   0.508   3.596  13.406  1.4867  0.7914 -0.1779
  699TMC3    O210398   0.815   3.265  13.418  0.0966 -0.4700  0.0311
  700TMC3    C110399   4.527   0.722  17.391 -0.2143 -0.5552 -0.1313
  700TMC3    C210400   4.631   0.632  17.390  0.0382 -0.3538  0.6457
  700TMC3    C310401   0.003   0.651  17.468 -0.0994 -0.8121  0.1815
  700TMC3    C410402   4.523   0.825  17.481  0.0849  0.7695  0.0060
  700TMC3    C510403   4.635   0.843  17.561 -0.2577 -0.2082  0.1517
  700TMC3    C610404   0.004   0.758  17.552 -0.3466 -0.3073 -0.2137
  700TMC3     C10405   4.495   0.765  17.252 -0.3291 -0.1234 -0.8148
  700TMC3     O10406   4.445   0.696  17.163 -0.1877 -0.5089 -0.7285
  700TMC3     H10407   4.631   0.568  17.303  1.8055 -1.3016  1.3681
  700TMC3    H110408   4.439   0.893  17.486 -1.1565 -0.9044  2.2020
  700TMC3    H210409   0.092   0.770  17.615 -0.5975 -1.1289  0.2882
  700TMC3    C710410   4.665   0.972  17.601 -0.2050 -0.5441 -0.6358
  700TMC3    C810411   0.130   0.601  17.407 -0.7993  0.0506  0.7866
  700TMC3    O110412   0.044   1.006  17.608 -0.0271  0.7910  0.2540
  700TMC3    O210413   0.118   0.496  17.347 -0.2287  0.0749 -0.0596
  701TMC3    C110414   0.104   4.612  15.449 -0.1820 -0.4772  0.1454
  701TMC3    C210415   0.129   4.584  15.323 -0.6564 -0.3456  0.8385
  701TMC3    C310416   0.165   4.692  15.250 -0.5931  0.4008  0.4415
  701TMC3    C410417   0.112   4.733  15.512 -0.0850 -0.1381 -0.0428
  701TMC3    C510418   0.157   0.100  15.434  0.1515 -0.5192 -0.5049
  701TMC3    C610419   0.176   0.083  15.300  0.0819 -0.8500  0.2226
  701TMC3     C10420   0.016   4.520  15.511  0.0269  0.5844  0.5070
  701TMC3     O10421   4.677   4.567  15.594 -0.1967  0.5489 -0.7185
  701TMC3     H10422   0.109   4.490  15.273 -0.4010  0.0686 -0.0340
  701TMC3    H110423   0.113   0.009  15.619 -0.0652 -0.3094 -0.0215
  701TMC3    H210424   0.214   0.161  15.236  0.9329 -0.6879  0.9204
  701TMC3    C710425   0.185   0.235  15.490  0.5722 -0.3578  0.2760
  701TMC3    C810426   0.144   4.685  15.110 -0.7240  0.6628  0.0521
  701TMC3    O110427   0.211   0.324  15.414 -0.0665  0.4153 -0.1554
  701TMC3    O210428   0.250   4.704  15.048  0.2414  0.0133  0.0351
  702MPD2     C10429   4.563   1.436  10.784  0.5320 -0.5039 -0.3287
  702MPD2    C110430   4.481   1.533  10.825 -0.1488  0.0616  0.3839
  702MPD2    C210431   4.427   1.620  10.729  0.1745  0.6558  0.0276
  702MPD2    C310432   4.461   1.610  10.597 -0.1424  0.5620  0.8247
  702MPD2    C410433   4.543   1.508  10.560 -0.5320 -0.2744 -0.2341
  702MPD2    C510434   4.595   1.421  10.653  0.2518 -0.7271  0.1840
  702MPD2     H10435   4.371   1.705  10.767 -0.3768  0.7983 -1.1132
  702MPD2    H110436   4.574   1.484  10.459  1.3565  0.9588  0.0622
  702MPD2    H210437   4.617   1.367  10.847  1.1628 -0.9042 -1.3193
  702MPD2    H310438   4.672   1.348  10.631 -0.7229 -1.9380  0.8114
  702MPD2     N10439   4.437   1.709  10.505 -0.4510  1.1853  1.0808
  702MPD2    H510440   4.482   1.702  10.414 -0.3698  0.8066  1.1501
  702MPD2    N110441   4.440   1.554  10.962 -0.0647 -0.1196  0.3525
  702MPD2    H710442   4.372   1.629  10.973  0.5002  0.3785  0.4032
  703TMC3    C110443   4.359   1.928  10.422 -0.5117 -0.1356  0.0996
  703TMC3    C210444   4.273   2.028  10.447 -0.3224  0.5165  0.1724
  703TMC3    C310445   4.294   2.154  10.399  0.0159 -0.3079  0.5279
  703TMC3    C410446   4.477   1.945  10.354 -0.2683  0.8482 -0.0017
  703TMC3    C510447   4.503   2.075  10.315  0.0465 -0.5201 -0.2006
  703TMC3    C610448   4.417   2.183  10.344  0.3957 -0.7265 -0.4604
  703TMC3     C10449   4.359   1.827  10.530 -0.2195  0.2944 -0.2689
  703TMC3     O10450   4.309   1.868  10.637 -0.1009 -0.1105  0.7636
  703TMC3     H10451   4.180   2.007  10.500 -0.6416 -1.0347 -1.0144
  703TMC3    H110452   4.540   1.858  10.338 -2.6965 -0.8926 -0.0213
  703TMC3    H210453   4.442   2.280  10.302  2.6477 -1.0317  0.2048
  703TMC3    C710454   4.621   2.105  10.241  0.2930 -0.3513 -0.2263
  703TMC3    C810455   4.223   2.269  10.451 -0.4720  0.3367  0.0563
  703TMC3    O110456   4.634   2.223  10.201  0.5595 -0.3034 -0.4077
  703TMC3    O210457   4.273   2.379  10.449 -0.3298  0.0444  0.0587
  704TMC3    C110458   2.559   0.157  12.634 -0.4436 -0.8647  0.0255
  704TMC3    C210459   2.600   0.187  12.507  0.4468  0.5016  0.0750
  704TMC3    C310460   2.668   0.093  12.439  0.1831 -0.4185  0.2011
  704TMC3    C410461   2.606   0.047  12.701  0.9671 -0.2438 -0.0297
  704TMC3    C510462   2.699   4.705  12.630  0.6717  0.3407  0.0618
  704TMC3    C610463   2.716   4.720  12.498 -0.0452  0.2779 -0.0939
  704TMC3     C10464   2.428   0.207  12.671 -0.2298  0.4206  0.0146
  704TMC3     O10465   2.401   0.202  12.791 -0.1462 -0.6340 -0.3535
  704TMC3     H10466   2.559   0.273  12.454  1.7677  0.5453 -0.8486
  704TMC3    H110467   2.568   0.016  12.797 -1.0719  2.2234 -0.0464
  704TMC3    H210468   2.774   4.651  12.438 -1.2285 -0.3835 -0.4897
  704TMC3    C710469   2.705   4.565  12.671 -0.1358  0.4010 -0.3197
  704TMC3    C810470   2.658   0.098  12.291  0.7870 -0.0185  0.3693
  704TMC3    O110471   2.713   4.485  12.588 -0.0380  0.3296  0.6128
  704TMC3    O210472   2.574   0.171  12.239  0.0331  0.2375  0.1046
  705MPD2     C10473   1.483   3.054  16.879 -0.3337 -0.8682  1.1391
  705MPD2    C110474   1.424   3.156  16.801 -0.2688  0.0486 -1.0854
  705MPD2    C210475   1.295   3.191  16.824  0.6079 -0.0037  0.4428
  705MPD2    C310476   1.212   3.111  16.912  0.0274 -0.1437 -0.3081
  705MPD2    C410477   1.270   3.006  16.978 -0.0479  0.0134 -0.3253
  705MPD2    C510478   1.399   2.977  16.958 -0.1344 -0.3934  0.6953
  705MPD2     H10479   1.259   3.270  16.760  1.2500 -1.1473 -1.3133
  705MPD2    H110480   1.212   2.932  17.033  2.2408 -0.8923  0.8907
  705MPD2    H210481   1.587   3.023  16.876 -0.2533 -0.3276 -2.0320
  705MPD2    H310482   1.452   2.892  17.001  2.5867  0.5348 -0.7962
  705MPD2     N10483   1.074   3.137  16.946 -0.2433  0.5206  0.7558
  705MPD2    H510484   1.035   3.075  17.017 -0.3127 -1.4918 -1.0585
  705MPD2    N110485   1.498   3.234  16.710 -0.4802 -0.3989 -0.0003
  705MPD2    H710486   1.457   3.322  16.680  1.3248  1.3716  2.7011
  706TMC3    C110487   1.848   3.384  16.437  0.1874  0.6212 -0.9642
  706TMC3    C210488   1.767   3.468  16.366  0.3065  0.4102 -0.3511
  706TMC3    C310489   1.639   3.479  16.415  0.2942  0.1092  0.0718
  706TMC3    C410490   1.809   3.320  16.550 -0.4452  0.2701  0.5331
  706TMC3    C510491   1.678   3.322  16.580 -0.4732 -0.5222 -0.8197
  706TMC3    C610492   1.589   3.398  16.512 -0.1065  0.3243  0.1959
  706TMC3     C10493   1.971   3.336  16.375 -0.1402  0.0040 -0.0887
  706TMC3     O10494   2.052   3.269  16.437  0.2785  0.0244  0.1912
  706TMC3     H10495   1.796   3.529  16.281  1.9555 -0.6381 -0.5442
  706TMC3    H110496   1.887   3.266  16.602  0.0079  0.0196 -0.4128
  706TMC3    H210497   1.482   3.401  16.528  0.0343 -1.4417  1.4656
  706TMC3    C710498   1.633   3.222  16.677  0.2225 -0.2064  0.4331
  706TMC3    C810499   1.562   3.597  16.383 -0.0245 -0.5006 -0.2142
  706TMC3    O110500   1.715   3.142  16.719  0.2905  0.2959  0.8167
  706TMC3    O210501   1.569   3.636  16.269  0.4959  1.0010  0.0875
  707TMC3    C110502   3.084   2.610   1.180 -0.1370  0.3373 -0.0550
  707TMC3    C210503   3.166   2.556   1.283  0.3015 -0.5643  0.4905
  707TMC3    C310504   3.095   2.491   1.380  0.3928 -0.4338 -0.3718
  707TMC3    C410505   2.946   2.617   1.182 -0.1968 -0.1431 -0.2432
  707TMC3    C510506   2.882   2.559   1.285 -0.3889 -0.2489  0.2222
  707TMC3    C610507   2.957   2.494   1.383  0.0800 -0.3869  1.0803
  707TMC3     C10508   3.163   2.640   1.063 -0.0887  0.3834  0.0414
  707TMC3     O10509   3.279   2.631   1.086 -0.2821  0.1994 -0.3514
  707TMC3     H10510   3.274   2.551   1.290  0.4294  0.7822 -0.6677
  707TMC3    H110511   2.882   2.646   1.099  2.8050 -1.7525 -3.1297
  707TMC3    H210512   2.898   2.463   1.468 -2.3695 -1.6107 -1.0562
  707TMC3    C710513   2.737   2.526   1.278 -0.6346  0.2056  0.8656
  707TMC3    C810514   3.154   2.469   1.499  0.0998  0.3869  0.4097
  707TMC3    O110515   2.677   2.615   1.224  0.3617  0.4316 -0.1539
  707TMC3    O210516   3.088   2.482   1.602  0.1028 -0.1919 -0.2317
  708MPD2     C10517   4.695   1.291  14.057 -1.1222 -0.3386 -0.3440
  708MPD2    C110518   4.574   1.252  14.109 -0.2609 -0.7872  0.6105
  708MPD2    C210519   4.572   1.222  14.240 -0.1549  0.2721  0.3450
  708MPD2    C310520   4.673   1.247  14.329  0.1510 -0.0216  1.1127
  708MPD2    C410521   0.059   1.282  14.277 -0.5203  0.5410 -0.4383
  708MPD2    C510522   0.061   1.310  14.145 -0.0720  0.3259  0.0873
  708MPD2     H10523   4.471   1.216  14.279 -0.6831 -3.5249 -1.5756
  708MPD2    H110524   0.150   1.292  14.335 -0.5003  0.7496 -0.5026
  708MPD2    H210525   4.715   1.303  13.951 -1.3590  1.7554 -0.1525
  708MPD2    H310526   0.157   1.341  14.105  0.8307  0.3635  2.3403
  708MPD2     N10527   4.675   1.223  14.469 -0.0285 -0.3365  0.1339
  708MPD2    H510528   0.026   1.240  14.517  1.1244  0.0993 -2.1310
  708MPD2    N110529   4.453   1.262  14.040  0.1296  0.0471  0.2032
  708MPD2    H710530   4.366   1.253  14.092  0.3611 -0.2399  0.5358
  709TMC3    C110531   4.295   1.325  13.885 -0.4549 -0.1959 -0.1717
  709TMC3    C210532   4.267   1.446  13.826  0.5179 -0.0159  0.2376
  709TMC3    C310533   4.161   1.511  13.874 -0.5320 -0.1442  0.2554
  709TMC3    C410534   4.218   1.272  13.986 -0.0379 -0.2061  0.2522
  709TMC3    C510535   4.114   1.347  14.045 -0.1845 -0.2987 -0.4092
  709TMC3    C610536   4.090   1.475  13.989 -0.1463 -0.3305  0.0778
  709TMC3     C10537   4.437   1.305  13.911  0.0943  0.4887 -0.3733
  709TMC3     O10538   4.515   1.339  13.821  1.2163 -0.0658  0.2709
  709TMC3     H10539   4.340   1.498  13.766 -0.6004  0.8544 -0.3754
  709TMC3    H110540   4.223   1.167  14.013  0.0452 -1.0990 -3.1518
  709TMC3    H210541   4.026   1.550  14.032 -0.0227  0.6793 -1.5137
  709TMC3    C710542   4.124   1.331  14.188 -0.0447 -0.2100  0.1040
  709TMC3    C810543   4.178   1.651  13.866  0.7211 -0.5664 -0.0216
  709TMC3    O110544   4.234   1.287  14.216  0.2602  1.0457  0.4174
  709TMC3    O210545   4.183   1.709  13.974  0.4746  0.5394 -0.2724
  710TMC3    C110546   0.414   3.194   0.744 -0.0401  0.5604 -0.4775
  710TMC3    C210547   0.499   3.188   0.629 -0.2457  0.3503  0.0458
  710TMC3    C310548   0.615   3.117   0.636  0.1212  0.4939 -0.9606
  710TMC3    C410549   0.463   3.151   0.866 -1.2887 -0.0847 -0.6069
  710TMC3    C510550   0.576   3.077   0.867  0.6314 -0.4373 -0.3602
  710TMC3    C610551   0.654   3.061   0.753 -0.0926 -0.0420 -0.6738
  710TMC3     C10552   0.318   3.297   0.735 -0.7864  0.0222  0.1405
  710TMC3     O10553   0.293   3.337   0.623 -0.1862  0.5193  0.1143
  710TMC3     H10554   0.471   3.247   0.542 -0.5439 -1.3217 -0.9859
  710TMC3    H110555   0.409   3.170   0.958  0.4101  1.0032  0.1537
  710TMC3    H210556   0.729   2.983   0.748  0.0928  0.0401  0.8741
  710TMC3    C710557   0.595   2.978   0.972  0.5874  0.1297  0.2057
  710TMC3    C810558   0.676   3.066   0.515 -0.3939  0.7249  0.7269
  710TMC3    O110559   0.503   2.959   1.050  0.0339  0.4724  0.7788
  710TMC3    O210560   0.797   3.043   0.510  0.1407 -0.2125 -0.2443
  711TMC3    C110561   0.648   4.193  15.023 -0.4729 -0.1156  0.6565
  711TMC3    C210562   0.625   4.211  15.158 -0.4073 -1.2996 -0.0695
  711TMC3    C310563   0.730   4.190  15.243 -0.3300 -0.3433  0.7586
  711TMC3    C410564   0.768   4.133  14.982  0.3228 -0.5934  0.5284
  711TMC3    C510565   0.859   4.092  15.074  0.2411  0.0194 -0.3456
  711TMC3    C610566   0.848   4.132  15.204  0.6907 -0.3363 -0.1694
  711TMC3     C10567   0.530   4.156  14.948  0.8265  0.6537  0.4120
  711TMC3     O10568   0.559   4.076  14.860  0.1820 -0.7652  0.5553
  711TMC3     H10569   0.529   4.244  15.197 -0.1858 -1.6021  0.7202
  711TMC3    H110570   0.779   4.110  14.876 -1.3495  1.7966 -0.1791
  711TMC3    H210571   0.915   4.104  15.284  0.8194  0.1791 -0.0958
  711TMC3    C710572   0.903   3.953  15.069  0.2745 -0.7482  0.1295
  711TMC3    C810573   0.713   4.245  15.375  1.0516  0.1329  0.3591
  711TMC3    O110574   0.994   3.924  15.146 -0.3107 -0.0960 -0.5153
  711TMC3    O210575   0.600   4.276  15.419  0.6643  0.2501 -0.5864
  712MPD2     C10576   1.594   0.325  13.963  0.2514  0.3254  0.1322
  712MPD2    C110577   1.691   0.281  13.876  0.1126 -0.9531  0.9061
  712MPD2    C210578   1.781   0.368  13.818  0.3190 -0.1601 -0.9330
  712MPD2    C310579   1.767   0.504  13.842 -0.9088  0.2192  0.3753
  712MPD2    C410580   1.673   0.544  13.928  0.8181 -0.2070  0.5330
  712MPD2    C510581   1.583   0.459  13.992  0.2386 -0.1014  0.9265
  712MPD2     H10582   1.859   0.344  13.747  1.7647 -0.4745  0.7724
  712MPD2    H110583   1.664   0.651  13.944  2.2815  0.1011 -0.7258
  712MPD2    H210584   1.532   0.252  14.014  1.8850 -0.4148  1.0866
  712MPD2    H310585   1.496   0.497  14.045 -0.4847  0.8242 -0.9334
  712MPD2     N10586   1.846   0.609  13.787 -0.6945 -0.3975  0.4177
  712MPD2    H510587   1.825   0.704  13.816  1.9107  0.3997 -0.2791
  712MPD2    N110588   1.712   0.141  13.837  0.1267  0.7865 -0.3324
  712MPD2    H710589   1.768   0.126  13.754 -0.1902  1.1276 -0.6025
  713TMC3    C110590   2.026   0.728  13.709 -0.0080  0.7772  0.3358
  713TMC3    C210591   2.165   0.734  13.700 -0.4087 -0.8388 -0.4847
  713TMC3    C310592   2.220   0.851  13.672  1.3166  0.1487  0.2567
  713TMC3    C410593   1.947   0.839  13.701  0.0976 -0.6610  0.3618
  713TMC3    C510594   2.011   0.954  13.658 -0.3598 -0.4794  0.3597
  713TMC3    C610595   2.148   0.966  13.645  0.1438 -0.1609  0.6379
  713TMC3     C10596   1.969   0.592  13.739 -0.4529 -0.0778 -0.1155
  713TMC3     O10597   2.038   0.493  13.722  0.3520  0.1024  0.6692
  713TMC3     H10598   2.230   0.650  13.721 -0.9466 -1.1074  0.1227
  713TMC3    H110599   1.840   0.825  13.693  0.2311 -0.9405 -0.9221
  713TMC3    H210600   2.192   1.047  13.590 -1.3577  0.1849 -0.0521
  713TMC3    C710601   1.919   1.056  13.598 -0.1284 -0.0953 -0.6701
  713TMC3    C810602   2.368   0.865  13.663  0.6714 -0.1290 -0.2245
  713TMC3    O110603   1.809   1.015  13.558  0.1828  0.1824  0.0892
  713TMC3    O210604   2.410   0.955  13.592  0.3764  0.4130  0.2746
  714MPD2     C10605   3.578   4.490   1.911 -1.2270 -0.4129  1.0471
  714MPD2    C110606   3.596   4.425   1.789  0.6300 -0.1219 -0.9521
  714MPD2    C210607   3.525   4.464   1.682 -0.7731  0.3834 -0.4080
  714MPD2    C310608   3.446   4.573   1.691  0.1611  0.8733  0.0622
  714MPD2    C410609   3.425   4.649   1.812 -0.1456 -0.2302 -0.0079
  714MPD2    C510610   3.493   4.598   1.924 -0.5634 -0.1286 -0.1019
  714MPD2     H10611   3.514   4.400   1.596 -1.0964  0.1158 -0.1673
  714MPD2    H110612   3.341   4.715   1.831  0.1094 -0.2738  1.2774
  714MPD2    H210613   3.617   4.444   2.000 -0.6917 -2.0499 -0.0358
  714MPD2    H310614   3.469   4.631   2.025 -1.6988  1.2712 -0.8272
  714MPD2     N10615   3.364   4.585   1.581  0.5032 -0.2108 -0.2359
  714MPD2    H510616   3.399   4.528   1.505 -0.1780 -1.3955  0.3498
  714MPD2    N110617   3.690   4.314   1.792 -0.4441  0.0687  0.5890
  714MPD2    H710618   3.718   4.287   1.886  0.6521 -0.3452  0.1403
  715TMC3    C110619   3.842   4.159   1.706  0.4006  0.4273 -0.1809
  715TMC3    C210620   3.868   4.064   1.612 -0.1340  0.5533 -0.2591
  715TMC3    C310621   3.993   4.004   1.625  0.3726 -0.6511  0.3122
  715TMC3    C410622   3.931   4.189   1.808  0.3296  0.0777 -0.2037
  715TMC3    C510623   4.052   4.123   1.821  0.2887 -0.4625  0.2854
  715TMC3    C610624   4.080   4.022   1.732  0.2057  0.0678  0.0461
  715TMC3     C10625   3.724   4.243   1.684 -0.1443  0.4253  0.3286
  715TMC3     O10626   3.682   4.249   1.568  0.2510 -0.1924  0.0525
  715TMC3     H10627   3.804   4.049   1.526  3.0369  0.5139 -2.5934
  715TMC3    H110628   3.920   4.284   1.859  1.6607  0.5025 -0.7040
  715TMC3    H210629   4.180   3.979   1.733  0.3404  0.4367  1.8134
  715TMC3    C710630   4.149   4.152   1.927 -0.7266 -0.1751  0.2898
  715TMC3    C810631   4.042   3.942   1.505  0.7789  0.2791 -0.4358
  715TMC3    O110632   4.265   4.127   1.912  0.4411 -0.6064  0.4617
  715TMC3    O210633   3.978   3.962   1.396  0.3209 -0.2511 -0.5348
  716MPD2     C10634   4.199   1.400  10.265 -0.1696 -0.3202  0.2734
  716MPD2    C110635   4.184   1.354  10.132  0.3253  0.4434 -0.2997
  716MPD2    C210636   4.260   1.243  10.091 -0.3049 -0.2261  0.6809
  716MPD2    C310637   4.344   1.172  10.178  0.1158 -1.0782  0.0139
  716MPD2    C410638   4.352   1.222  10.310  0.6934 -0.9843  0.0974
  716MPD2    C510639   4.282   1.335  10.350  0.2432 -0.6050  0.8031
  716MPD2     H10640   4.249   1.207   9.989  0.5549 -0.3661  0.6333
  716MPD2    H110641   4.413   1.173  10.385  0.5519  1.0769  1.5534
  716MPD2    H210642   4.143   1.482  10.309 -2.4863 -0.5796 -2.1851
  716MPD2    H310643   4.288   1.363  10.454 -0.7121  1.4084  0.3242
  716MPD2     N10644   4.415   1.063  10.126 -0.1945 -0.2722  0.1384
  716MPD2    H510645   4.412   1.042  10.027  0.9572  2.1106 -0.3971
  716MPD2    N110646   4.105   1.434  10.041  0.4632  0.0821 -0.0907
  716MPD2    H710647   4.049   1.508  10.083  0.9350 -0.1287  0.9118
  717TMC3    C110648   4.535   0.868  10.108 -0.5451  0.2005  0.4846
  717TMC3    C210649   4.459   0.845  10.001  0.3782 -0.4967 -0.8480
  717TMC3    C310650   4.519   0.781   9.900  0.2784 -0.7543 -0.4138
  717TMC3    C410651   4.668   0.837  10.116 -0.1652  0.5698 -0.1422
  717TMC3    C510652   4.727   0.776  10.007  0.6028 -1.0170 -0.1508
  717TMC3    C610653   4.650   0.754   9.892  0.4038 -0.4799  0.0903
  717TMC3     C10654   4.493   0.973  10.195  0.4794  0.1293  0.4964
  717TMC3     O10655   4.527   0.972  10.311  0.2179  0.4797  0.2878
  717TMC3     H10656   4.356   0.879  10.000  0.7243  0.5487 -0.3308
  717TMC3    H110657   4.718   0.858  10.210  0.3284 -0.4859 -0.1657
  717TMC3    H210658   4.701   0.709   9.808  1.0340  0.5389 -0.0714
  717TMC3    C710659   0.135   0.766  10.001 -0.3617 -0.0255  0.1409
  717TMC3    C810660   4.432   0.784   9.776 -0.2054 -0.3742  0.2781
  717TMC3    O110661   0.181   0.688   9.917  0.0402  0.0421 -0.1220
  717TMC3    O210662   4.318   0.826   9.787  0.4794  0.0957  0.3450
  718MPD2     C10663   3.547   0.669  13.353 -0.0302  0.1508 -0.6968
  718MPD2    C110664   3.542   0.600  13.231  0.2337  0.1529 -0.6149
  718MPD2    C210665   3.530   0.464  13.232  0.5864 -0.0525 -0.2682
  718MPD2    C310666   3.531   0.392  13.351 -0.1568 -0.6756 -0.5321
  718MPD2    C410667   3.538   0.454  13.473  0.3503  0.0559  0.2798
  718MPD2    C510668   3.541   0.594  13.471 -0.9295  0.7413 -0.1764
  718MPD2     H10669   3.534   0.403  13.142  1.9740  0.4808 -0.5706
  718MPD2    H110670   3.528   0.401  13.567 -1.0938 -1.3567 -0.6616
  718MPD2    H210671   3.574   0.774  13.353  0.1715  0.1053 -3.3166
  718MPD2    H310672   3.559   0.652  13.561 -1.0991  0.9430 -0.2730
  718MPD2     N10673   3.554   0.253  13.337  0.1324  0.4038  0.6038
  718MPD2    H510674   3.540   0.216  13.244  2.9779  1.3714 -0.2063
  718MPD2    N110675   3.543   0.675  13.114  0.4789  0.7377  1.0236
  718MPD2    H710676   3.574   0.771  13.124 -0.7626  1.2239  0.2682
  719TMC3    C110677   3.504   0.723  12.886 -0.1327  0.2254  0.0619
  719TMC3    C210678   3.461   0.663  12.771  0.4250  0.0910 -0.4034
  719TMC3    C310679   3.546   0.667  12.659  0.1767 -0.4057 -0.0050
  719TMC3    C410680   3.612   0.810  12.886 -0.3920  0.3787 -0.0850
  719TMC3    C510681   3.683   0.824  12.767 -1.1295 -0.0856  0.1154
  719TMC3    C610682   3.660   0.747  12.662  0.0258  0.7007 -0.6434
  719TMC3     C10683   3.493   0.630  12.994  0.2068  0.6676  1.0984
  719TMC3     O10684   3.448   0.518  12.966  1.1640  0.3640 -0.2716
  719TMC3     H10685   3.367   0.609  12.763  0.1223  0.3064  1.7528
  719TMC3    H110686   3.634   0.864  12.977 -0.3642 -1.1831  0.8330
  719TMC3    H210687   3.732   0.748  12.580  3.0219  0.5663  1.9831
  719TMC3    C710688   3.803   0.909  12.757  0.1583  0.0764  0.0544
  719TMC3    C810689   3.578   0.538  12.597  0.3834 -0.4193 -0.3813
  719TMC3    O110690   3.880   0.881  12.669 -0.0268  0.7491  0.7956
  719TMC3    O210691   3.655   0.548  12.503  0.0643  0.4970  0.3822
  720MPD2     C10692   2.186   2.659  14.429  0.2940  0.2631  0.4901
  720MPD2    C110693   2.238   2.576  14.329  0.5446 -0.3586  0.7837
  720MPD2    C210694   2.340   2.488  14.350 -0.5285 -0.1800  0.2378
  720MPD2    C310695   2.392   2.479  14.478 -0.6378  0.5021 -0.1011
  720MPD2    C410696   2.343   2.559  14.576 -0.3870 -0.1261 -0.2591
  720MPD2    C510697   2.246   2.643  14.549  0.7298 -0.5533  0.4774
  720MPD2     H10698   2.365   2.419  14.271 -0.1380  0.3359 -0.0832
  720MPD2    H110699   2.377   2.556  14.679  1.1104  0.5508 -0.7328
  720MPD2    H210700   2.108   2.731  14.412 -0.3963 -1.6164 -4.3770
  720MPD2    H310701   2.196   2.688  14.634 -0.3697 -0.6991 -0.0999
  720MPD2     N10702   2.496   2.384  14.508 -0.0238 -0.1045 -0.2885
  720MPD2    H510703   2.521   2.315  14.438 -0.3046 -0.5837  0.0830
  720MPD2    N110704   2.183   2.590  14.201  0.1144 -1.3045  0.1603
  720MPD2    H710705   2.244   2.547  14.132  0.8754 -0.9090  0.5819
  721TMC3    C110706   2.686   2.288  14.634  0.2003 -1.5079  0.0970
  721TMC3    C210707   2.721   2.249  14.764 -0.4660 -0.2463  0.1372
  721TMC3    C310708   2.847   2.210  14.788 -0.6662  0.3349  0.6652
  721TMC3    C410709   2.776   2.281  14.529  0.2704  0.0881 -0.6330
  721TMC3    C510710   2.900   2.237  14.562  0.4306  0.0502  0.8508
  721TMC3    C610711   2.937   2.189  14.685  0.0402 -0.4145  0.2657
  721TMC3     C10712   2.568   2.380  14.622  0.0341  0.2256  0.2804
  721TMC3     O10713   2.559   2.448  14.724 -0.0918 -0.3200 -0.4774
  721TMC3     H10714   2.652   2.281  14.842 -0.1172  0.2387  0.2468
  721TMC3    H110715   2.755   2.328  14.433  0.6335  0.8689 -0.3274
  721TMC3    H210716   3.038   2.153  14.696 -0.0022 -0.0166  1.9443
  721TMC3    C710717   2.992   2.258  14.457  0.0982  0.0155 -0.2647
  721TMC3    C810718   2.881   2.147  14.918 -0.4774 -0.1133 -0.2231
  721TMC3    O110719   3.103   2.298  14.482  0.0219 -0.2244 -0.2164
  721TMC3    O210720   2.989   2.094  14.926  0.0533  0.2169  0.4627
  722MPD2     C10721   1.042   0.877  13.183 -0.5823 -0.2750 -0.4677
  722MPD2    C110722   0.998   0.967  13.275  0.4754 -0.2865 -0.1421
  722MPD2    C210723   0.877   0.941  13.344 -0.0912  0.2708 -0.4215
  722MPD2    C310724   0.796   0.839  13.308  0.2807 -0.5620 -0.5573
  722MPD2    C410725   0.839   0.745  13.219  0.5887  0.2433  0.9234
  722MPD2    C510726   0.960   0.762  13.161 -0.4184 -0.0640  0.0997
  722MPD2     H10727   0.837   1.009  13.417 -0.0150 -0.0728 -0.0581
  722MPD2    H110728   0.778   0.659  13.193 -0.3705  1.4352 -0.8162
  722MPD2    H210729   1.141   0.888  13.140 -0.0996  1.2219  1.0312
  722MPD2    H310730   0.989   0.686  13.089  1.3735 -1.1571  1.9772
  722MPD2     N10731   0.666   0.830  13.371 -0.0568  0.4328  0.5148
  722MPD2    H510732   0.644   0.909  13.431  0.2661  0.7689  0.1964
  722MPD2    N110733   1.054   1.085  13.301 -0.1309  0.0475  0.3815
  722MPD2    H710734   1.011   1.155  13.361  0.5053 -1.1213  2.1991
  723TMC3    C110735   0.459   0.738  13.445 -0.6123 -0.4545 -0.2650
  723TMC3    C210736   0.357   0.650  13.407 -0.3747  0.4599  0.7156
  723TMC3    C310737   0.289   0.587  13.506 -0.6146  0.7415  0.0323
  723TMC3    C410738   0.464   0.784  13.577  0.2961 -0.2813  0.9436
  723TMC3    C510739   0.375   0.723  13.667  0.2281  0.0169 -0.5442
  723TMC3    C610740   0.291   0.624  13.636  0.1331 -0.1726 -0.1591
  723TMC3     C10741   0.577   0.729  13.360 -0.2436 -0.6878 -0.5982
  723TMC3     O10742   0.584   0.637  13.279  0.1967 -0.0156 -0.4183
  723TMC3     H10743   0.337   0.617  13.306 -0.3495  0.0685  0.8353
  723TMC3    H110744   0.542   0.849  13.614  0.4741  0.1775 -0.2494
  723TMC3    H210745   0.220   0.589  13.709 -0.1095 -2.7710 -1.6091
  723TMC3    C710746   0.368   0.780  13.801  0.2092  0.0932 -0.6000
  723TMC3    C810747   0.192   0.484  13.471  0.3833 -0.2491  0.4991
  723TMC3    O110748   0.329   0.702  13.884 -0.1896 -0.8206  0.1353
  723TMC3    O210749   0.099   0.463  13.549 -0.5594  0.7145  0.3020
  724TMC3    C110750   1.472   3.428  10.309 -0.0892 -0.8189  0.0138
  724TMC3    C210751   1.428   3.489  10.193 -0.1442  0.6040  0.2006
  724TMC3    C310752   1.508   3.588  10.140 -0.2218  0.9516  0.5644
  724TMC3    C410753   1.594   3.462  10.364 -0.7221 -0.0713  0.3382
  724TMC3    C510754   1.672   3.544  10.302 -0.0678  0.7512  0.1803
  724TMC3    C610755   1.635   3.609  10.182  0.2671 -0.2638 -0.4000
  724TMC3     C10756   1.407   3.319  10.366 -0.3761 -0.2182 -0.6477
  724TMC3     O10757   1.445   3.293  10.478 -0.2424  0.0013 -0.3246
  724TMC3     H10758   1.323   3.486  10.165  0.3060  2.6659 -1.7440
  724TMC3    H110759   1.621   3.408  10.454  0.4677 -1.2296 -0.6951
  724TMC3    H210760   1.705   3.674  10.131 -0.8959 -1.8707 -4.0600
  724TMC3    C710761   1.796   3.592  10.363  0.5719 -0.3531  0.6135
  724TMC3    C810762   1.434   3.700  10.072 -0.4918  0.0392  0.1729
  724TMC3    O110763   1.879   3.640  10.284  0.4516  0.1883  0.7642
  724TMC3    O210764   1.332   3.680  10.010  0.3531 -0.5335  0.4941
  725TMC3    C110765   2.662   2.342  12.914  0.1824 -0.7867 -0.7837
  725TMC3    C210766   2.541   2.366  12.974  0.0131  0.2932 -0.7511
  725TMC3    C310767   2.478   2.272  13.053  0.1972 -0.3053 -0.2025
  725TMC3    C410768   2.719   2.216  12.918  0.1494  0.1083 -0.3978
  725TMC3    C510769   2.653   2.122  12.996 -0.3424  0.0258 -1.2988
  725TMC3    C610770   2.540   2.146  13.064  0.0317  0.4893 -1.0806
  725TMC3     C10771   2.718   2.465  12.856  0.0470  0.0778 -0.4688
  725TMC3     O10772   2.654   2.567  12.865  0.3605 -1.0265 -0.6613
  725TMC3     H10773   2.495   2.464  12.965  0.3123  0.7913  3.4231
  725TMC3    H110774   2.819   2.198  12.879  0.5675  1.0714  0.2540
  725TMC3    H210775   2.485   2.064  13.108 -1.9219  1.5422 -1.5606
  725TMC3    C710776   2.699   1.987  12.968 -0.5282  0.1803 -0.0642
  725TMC3    C810777   2.336   2.257  13.037  0.6528 -1.2054  0.0998
  725TMC3    O110778   2.758   1.964  12.863  0.0059 -0.1379  0.3179
  725TMC3    O210779   2.267   2.223  13.128  0.5775 -0.4798 -0.3113
  726MPD2     C10780   1.000   3.578  10.702 -0.1752  0.0121  0.4820
  726MPD2    C110781   0.893   3.581  10.616  0.7918  0.7119 -0.7665
  726MPD2    C210782   0.787   3.497  10.645  1.3222  0.1179  0.0863
  726MPD2    C310783   0.785   3.424  10.767 -0.3343  0.4088  1.0073
  726MPD2    C410784   0.896   3.423  10.845 -0.5270  0.0936 -0.2402
  726MPD2    C510785   1.000   3.502  10.815  0.5041  0.0880  0.3868
  726MPD2     H10786   0.698   3.516  10.586 -0.4739  1.8190  3.3150
  726MPD2    H110787   0.903   3.376  10.942 -1.1745  0.1537 -0.1596
  726MPD2    H210788   1.093   3.632  10.693  1.1230 -2.1394  0.9648
  726MPD2    H310789   1.093   3.496  10.871  2.2221 -0.1609 -2.4474
  726MPD2     N10790   0.672   3.364  10.821 -0.4883 -0.2502  0.2196
  726MPD2    H510791   0.682   3.317  10.910 -0.6262 -1.2082 -0.2674
  726MPD2    N110792   0.872   3.684  10.527 -0.4655 -0.5246 -0.1220
  726MPD2    H710793   0.792   3.671  10.466 -1.4297 -1.0009  1.2369
  727TMC3    C110794   0.900   3.905  10.440 -0.9113 -0.2527  0.0352
  727TMC3    C210795   0.915   4.027  10.502  0.2200 -0.1065  0.1041
  727TMC3    C310796   0.858   4.138  10.450 -0.1102  0.3243  1.0989
  727TMC3    C410797   0.820   3.887  10.331  0.2392 -1.1793  0.3748
  727TMC3    C510798   0.754   4.000  10.290 -0.2833  0.3930 -0.4811
  727TMC3    C610799   0.779   4.127  10.338 -0.3028 -0.4662 -0.0039
  727TMC3     C10800   0.957   3.793  10.514 -1.1080  1.0039 -0.4061
  727TMC3     O10801   1.057   3.822  10.575 -0.2045 -0.6231 -0.1713
  727TMC3     H10802   0.960   4.031  10.601  0.4497  1.1145 -0.0535
  727TMC3    H110803   0.820   3.787  10.288  1.8400 -0.6320 -0.8922
  727TMC3    H210804   0.716   4.207  10.299 -0.9932 -0.9975  0.0175
  727TMC3    C710805   0.691   3.993  10.166  0.6010 -0.1913 -0.4635
  727TMC3    C810806   0.840   4.250  10.538 -0.1614  0.0939  0.3143
  727TMC3    O110807   0.724   4.080  10.086  0.2882  0.2646  0.3970
  727TMC3    O210808   0.860   4.229  10.657 -0.3979 -0.3692 -0.5602
  728TMC3    C110809   4.153   2.630  15.316  0.2528 -1.0521  0.4647
  728TMC3    C210810   4.246   2.664  15.412  0.5006  0.4183  0.3224
  728TMC3    C310811   4.373   2.688  15.361  0.5816  0.0652  0.5235
  728TMC3    C410812   4.188   2.643  15.181  0.4354 -0.0224 -0.7690
  728TMC3    C510813   4.303   2.688  15.137 -0.1562  0.4459 -0.3488
  728TMC3    C610814   4.402   2.707  15.232 -0.2680 -0.0826 -0.0241
  728TMC3     C10815   4.018   2.655  15.350  0.3765  0.4103  0.5102
  728TMC3     O10816   3.962   2.725  15.270  0.0926 -0.0442  0.0232
  728TMC3     H10817   4.229   2.664  15.519 -1.9284 -0.2306 -0.0543
  728TMC3    H110818   4.112   2.627  15.105  0.2191 -0.4277 -0.4718
  728TMC3    H210819   4.500   2.729  15.191  0.8615 -1.0413  2.1762
  728TMC3    C710820   4.317   2.725  14.995 -0.5146  0.0147 -0.6823
  728TMC3    C810821   4.476   2.683  15.464 -0.5580  0.7340  0.3575
  728TMC3    O110822   4.255   2.657  14.916  0.5463  0.1415  0.3979
  728TMC3    O210823   4.440   2.646  15.576 -0.3813 -0.2100  0.0757
  729MPD2     C10824   1.620   3.923  17.015 -0.0324 -0.3297 -0.5286
  729MPD2    C110825   1.748   3.904  17.062  0.2045  0.3808 -0.0290
  729MPD2    C210826   1.768   3.879  17.195  0.4999 -0.1895  1.0450
  729MPD2    C310827   1.661   3.888  17.280 -0.6911 -0.0023  0.2440
  729MPD2    C410828   1.534   3.883  17.225  0.5948 -0.0346 -0.5693
  729MPD2    C510829   1.513   3.893  17.089 -0.3595 -0.1629  0.0770
  729MPD2     H10830   1.865   3.882  17.244 -0.2014 -0.6704  2.4754
  729MPD2    H110831   1.447   3.877  17.290 -0.8281 -0.9897 -2.5559
  729MPD2    H210832   1.602   3.946  16.911  0.2008 -0.0801 -0.5153
  729MPD2    H310833   1.418   3.902  17.039 -0.0945 -0.7147 -0.5289
  729MPD2     N10834   1.658   3.909  17.419 -0.1061 -0.0167  0.2981
  729MPD2    H510835   1.572   3.944  17.461 -0.1981  2.9408 -2.4111
  729MPD2    N110836   1.865   3.921  16.976  0.0368 -0.0786  0.1488
  729MPD2    H710837   1.847   3.977  16.894 -1.4365  0.7033  1.0045
  730TMC3    C110838   1.763   3.962  17.632 -0.8422 -0.2622 -0.0445
  730TMC3    C210839   1.886   3.987  17.691 -0.7010  0.1046 -0.0330
  730TMC3    C310840   1.913   4.109  17.742 -0.1491 -0.5366  0.3443
  730TMC3    C410841   1.662   4.048  17.643  0.4051  0.4405 -0.2409
  730TMC3    C510842   1.691   4.165  17.707 -0.6610 -0.0851 -0.5329
  730TMC3    C610843   1.810   4.194   0.021  0.0158  0.2743  0.2891
  730TMC3     C10844   1.770   3.894  17.502  0.4807 -0.3582 -0.2769
  730TMC3     O10845   1.885   3.867  17.469  0.2405 -0.0884 -0.4280
  730TMC3     H10846   1.972   3.923  17.669 -0.4148 -0.1279  1.7203
  730TMC3    H110847   1.563   4.035  17.602  0.1791  1.9228 -0.1616
  730TMC3    H210848   1.824   4.269   0.097 -0.1750 -0.6493  1.2473
  730TMC3    C710849   1.657   4.282  17.630  0.5840  0.7394 -0.7020
  730TMC3    C810850   2.021   4.182  17.672  0.3176 -0.2972  0.3714
  730TMC3    O110851   1.666   4.267  17.507  0.4124 -0.3971  0.3472
  730TMC3    O210852   2.108   4.126  17.608 -0.4031  0.4105  0.1680
  731MPD2     C10853   2.095   2.043  12.364  0.2929 -0.1152  0.5360
  731MPD2    C110854   1.965   2.001  12.383  0.4989  0.2286  0.0803
  731MPD2    C210855   1.915   1.999  12.512 -0.1107 -0.2919 -0.3232
  731MPD2    C310856   1.994   2.027  12.621  0.0898  0.3682 -0.2045
  731MPD2    C410857   2.124   2.060  12.600  0.4759  0.3233  0.0709
  731MPD2    C510858   2.179   2.064  12.472 -0.0736  0.1084 -0.2241
  731MPD2     H10859   1.813   1.968  12.532 -0.6509  0.5179 -1.7986
  731MPD2    H110860   2.194   2.073  12.681  0.6150  0.8569 -0.1364
  731MPD2    H210861   2.143   2.050  12.267 -2.9900  0.4966 -1.0350
  731MPD2    H310862   2.283   2.087  12.457 -0.2976 -0.9902 -3.4033
  731MPD2     N10863   1.951   1.997  12.752 -0.3631 -0.3098  0.5395
  731MPD2    H510864   1.853   1.984  12.778 -0.6858  0.4124 -0.3616
  731MPD2    N110865   1.907   1.955  12.260 -0.3103 -0.5448  0.4496
  731MPD2    H710866   1.958   1.974  12.175 -0.7866  0.3531  0.3708
  732TMC3    C110867   1.776   1.813  12.134 -0.4166  0.1687  0.5769
  732TMC3    C210868   1.651   1.775  12.095  0.0785 -0.2483  0.0569
  732TMC3    C310869   1.646   1.688  11.991  0.6248 -0.2934  0.6174
  732TMC3    C410870   1.892   1.773  12.067 -0.1550  0.4263 -0.3839
  732TMC3    C510871   1.877   1.701  11.952 -0.4164 -0.0609  0.3363
  732TMC3    C610872   1.753   1.659  11.912 -0.3332  0.6495  0.6802
  732TMC3     C10873   1.790   1.890  12.259 -0.1419  0.4789 -0.0369
  732TMC3     O10874   1.724   1.863  12.356 -0.0594  0.3313  0.5549
  732TMC3     H10875   1.568   1.819  12.150  0.6924  0.9955 -0.0160
  732TMC3    H110876   1.987   1.806  12.108  0.0125 -2.7881  1.7566
  732TMC3    H210877   1.740   1.587  11.831  1.7042 -0.4696  1.3324
  732TMC3    C710878   1.985   1.630  11.896  0.5530 -0.7715  0.2989
  732TMC3    C810879   1.510   1.635  11.956 -0.6823  0.5307 -0.0054
  732TMC3    O110880   1.984   1.592  11.781  0.8764  0.1720  0.4705
  732TMC3    O210881   1.502   1.576  11.848 -0.5149  0.7052 -0.4829
  733TMC3    C110882   3.508   4.568  13.306  0.3110  0.8065 -0.4700
  733TMC3    C210883   3.531   4.658  13.405  0.0126 -0.1087 -1.6975
  733TMC3    C310884   3.592   0.031  13.365 -0.1217  0.0972 -0.3342
  733TMC3    C410885   3.568   4.564  13.184  0.3296  0.6288  0.5969
  733TMC3    C510886   3.650   4.668  13.158  0.1353  0.0524  0.2195
  733TMC3    C610887   3.659   0.033  13.249 -0.1037  0.3614  0.2366
  733TMC3     C10888   3.369   4.519  13.313  0.3249 -0.4026  0.6405
  733TMC3     O10889   3.320   4.511  13.422 -0.0451  0.1997  0.4466
  733TMC3     H10890   3.463   4.669  13.488  0.6290 -2.4747 -0.8867
  733TMC3    H110891   3.557   4.488  13.107  0.4548  0.1395  1.0613
  733TMC3    H210892   3.729   0.109  13.217 -2.1576  2.3709  0.6026
  733TMC3    C710893   3.692   4.697  13.027  1.3927 -0.3535 -0.5405
  733TMC3    C810894   3.572   0.156  13.433 -0.5659  0.2503 -0.1460
  733TMC3    O110895   3.745   4.606  12.966  0.1572  0.2493 -0.2260
  733TMC3    O210896   3.554   0.156  13.554 -0.0399 -0.2984 -0.1759
  734MPD2     C10897   0.586   3.461  12.177  0.4297  0.0080  0.4874
  734MPD2    C110898   0.514   3.364  12.117 -0.0668 -0.1498  0.2447
  734MPD2    C210899   0.576   3.286  12.023  0.4973 -0.9849  0.3350
  734MPD2    C310900   0.701   3.304  11.980  0.5444  0.0643 -0.3244
  734MPD2    C410901   0.774   3.403  12.037 -0.0293  0.5335 -0.1838
  734MPD2    C510902   0.717   3.476  12.144  0.7855  0.5403  0.9174
  734MPD2     H10903   0.513   3.205  11.989  0.8564 -1.6638  1.2709
  734MPD2    H110904   0.872   3.430  12.001 -1.3428  4.9666 -0.5265
  734MPD2    H210905   0.543   3.529  12.251  1.6268 -0.9449  2.0445
  734MPD2    H310906   0.775   3.544  12.205  2.2645  0.3721 -0.2977
  734MPD2     N10907   0.752   3.214  11.883 -0.0495  0.4319  0.4890
  734MPD2    H510908   0.700   3.133  11.851  1.5546 -0.0208 -1.0232
  734MPD2    N110909   0.387   3.334  12.171 -0.7712 -0.0082 -0.0675
  734MPD2    H710910   0.354   3.394  12.246  3.2868 -1.2722  2.7376
  735TMC3    C110911   0.183   3.216  12.220  0.0566 -0.6929  0.1137
  735TMC3    C210912   0.083   3.135  12.161  0.6537 -0.4299  0.1858
  735TMC3    C310913   0.044   3.009  12.216  0.1393  0.8145 -0.6539
  735TMC3    C410914   0.246   3.175  12.336  0.0795 -0.1974 -0.3053
  735TMC3    C510915   0.210   3.053  12.382 -0.6448  0.1706  0.1204
  735TMC3    C610916   0.106   2.980  12.335  0.6911 -1.0214  0.0276
  735TMC3     C10917   0.286   3.247  12.124 -0.6452 -0.2521 -0.0981
  735TMC3     O10918   0.292   3.168  12.036  0.5161 -0.4476 -0.1049
  735TMC3     H10919   0.032   3.163  12.070  2.1901  0.5449 -0.3742
  735TMC3    H110920   0.325   3.234  12.382 -0.0390 -2.3612  2.6902
  735TMC3    H210921   0.077   2.886  12.380  1.2614  0.5521  3.7016
  735TMC3    C710922   0.323   2.980  12.428 -0.7705  0.3475 -0.1082
  735TMC3    C810923   0.056   2.904  12.123  0.3577 -0.0790  0.1364
  735TMC3    O110924   0.429   3.006  12.372  0.7399 -0.0322 -0.8843
  735TMC3    O210925   4.718   2.810  12.127  0.1568  0.1334  0.1065
  736MPD2     C10926   0.371   2.675  12.626  0.1451 -0.0099  0.5516
  736MPD2    C110927   0.395   2.756  12.518 -0.2985 -0.1150 -0.1443
  736MPD2    C210928   0.501   2.726  12.432  0.4152  0.4356  0.7784
  736MPD2    C310929   0.580   2.617  12.459  0.0296 -0.0566 -0.2200
  736MPD2    C410930   0.561   2.545  12.582  0.1505 -0.0187  0.1092
  736MPD2    C510931   0.454   2.570  12.661 -0.6143  0.1285 -0.6202
  736MPD2     H10932   0.503   2.782  12.339 -0.1003 -1.0800 -0.1665
  736MPD2    H110933   0.632   2.470  12.617 -0.5298 -1.4081 -1.4960
  736MPD2    H210934   0.293   2.705  12.695  0.3254 -0.4810  0.9603
  736MPD2    H310935   0.435   2.523  12.757  2.7129 -0.0200 -0.0385
  736MPD2     N10936   0.684   2.578  12.380 -0.2557  0.4912 -0.6400
  736MPD2    H510937   0.745   2.510  12.424  1.2048  1.6230 -0.9239
  736MPD2    N110938   0.300   2.868  12.503 -0.0057 -0.7825  0.2729
  736MPD2    H710939   0.205   2.860  12.537 -0.2720 -0.6144 -0.4480
  737TMC3    C110940   0.827   2.581  12.186 -0.4139 -0.2610 -0.0598
  737TMC3    C210941   0.867   2.654  12.078  0.3711 -0.6273 -1.3666
  737TMC3    C310942   0.932   2.594  11.967 -0.6113 -0.7101 -0.3443
  737TMC3    C410943   0.855   2.448  12.189 -0.7812 -0.0579  0.4632
  737TMC3    C510944   0.915   2.392  12.080  0.0902  0.4370 -0.5876
  737TMC3    C610945   0.951   2.455  11.963 -0.2806 -0.5354  0.4052
  737TMC3     C10946   0.706   2.629  12.254  0.4478  0.3831  0.2180
  737TMC3     O10947   0.638   2.705  12.193  0.0189 -0.8903 -0.4311
  737TMC3     H10948   0.837   2.758  12.079  0.5392 -0.5945  1.0495
  737TMC3    H110949   0.839   2.384  12.275  1.7827 -0.8043  0.3933
  737TMC3    H210950   0.980   2.414  11.867 -0.4372  2.9303 -1.1170
  737TMC3    C710951   0.932   2.247  12.089  0.1186  0.1165 -0.1117
  737TMC3    C810952   0.942   2.680  11.853 -0.7899 -0.4784  0.2502
  737TMC3    O110953   0.894   2.189  12.189  0.3795 -0.1341  0.3379
  737TMC3    O210954   0.924   2.801  11.861 -0.2355  0.0807 -0.2671
  738MPD2     C10955   1.045   1.529  15.178 -0.3712  0.4295 -0.1709
  738MPD2    C110956   1.137   1.430  15.197  0.2982  0.4116  0.9530
  738MPD2    C210957   1.272   1.466  15.197  0.4538 -0.0520  0.7810
  738MPD2    C310958   1.308   1.596  15.164  0.0465  0.5852  0.2970
  738MPD2    C410959   1.214   1.689  15.149  0.1052 -0.0646  0.3312
  738MPD2    C510960   1.079   1.659  15.167 -0.6306 -0.6866  0.8190
  738MPD2     H10961   1.344   1.385  15.207  1.7707  0.9816 -0.2451
  738MPD2    H110962   1.243   1.792  15.128 -1.7548  0.5988  0.9937
  738MPD2    H210963   0.938   1.511  15.187 -0.6247  0.9520 -1.9674
  738MPD2    H310964   1.014   1.746  15.163  0.2502 -0.0090  1.4352
  738MPD2     N10965   1.439   1.639  15.142 -0.3216  0.6728 -0.1125
  738MPD2    H510966   1.447   1.722  15.085 -2.2825  1.3372  0.5825
  738MPD2    N110967   1.096   1.297  15.209  0.1557 -0.0353 -0.4280
  738MPD2    H710968   1.172   1.230  15.210  0.6568  0.5499  1.2830
  739TMC3    C110969   1.680   1.659  15.177  0.7635  0.9908  0.3668
  739TMC3    C210970   1.700   1.722  15.058 -0.0915 -0.7826  0.6575
  739TMC3    C310971   1.827   1.767  15.038  0.5192  0.3991  0.0064
  739TMC3    C410972   1.778   1.652  15.274 -0.0200  0.6931 -0.0907
  739TMC3    C510973   1.897   1.712  15.251  0.1023  0.2874 -0.0847
  739TMC3    C610974   1.929   1.765  15.129  0.5688 -0.2584  0.5512
  739TMC3     C10975   1.552   1.587  15.206 -0.0091 -0.1388  0.9090
  739TMC3     O10976   1.549   1.497  15.290 -0.6315  0.0792 -0.1613
  739TMC3     H10977   1.618   1.744  14.990  1.4731 -0.3522 -1.0891
  739TMC3    H110978   1.755   1.587  15.358 -0.7598  1.1303  0.0449
  739TMC3    H210979   2.033   1.778  15.101  0.5487  0.7831  0.9671
  739TMC3    C710980   1.995   1.686  15.357 -0.3305 -0.7050 -0.2353
  739TMC3    C810981   1.850   1.832  14.905  0.2115  0.3661  0.2331
  739TMC3    O110982   1.963   1.600  15.438 -0.7821 -0.1030 -0.0681
  739TMC3    O210983   1.779   1.778  14.821 -0.1569 -0.1204  0.3543
  740TMC3    C110984   1.471   2.808  14.459  0.7026 -0.4953 -0.1149
  740TMC3    C210985   1.551   2.809  14.566 -0.1236 -0.2889 -0.3869
  740TMC3    C310986   1.683   2.838  14.552 -0.2460  0.2791 -0.9314
  740TMC3    C410987   1.517   2.861  14.344 -0.6090 -0.0795  0.1220
  740TMC3    C510988   1.647   2.884  14.324  0.2932 -0.2875 -0.1918
  740TMC3    C610989   1.732   2.875  14.427  0.5283  0.1062 -0.2571
  740TMC3     C10990   1.327   2.824  14.481  0.0396  0.4277 -0.0753
  740TMC3     O10991   1.258   2.899  14.415  0.4704  0.4866 -0.1785
  740TMC3     H10992   1.512   2.814  14.667 -0.3078 -4.1409 -0.2611
  740TMC3    H110993   1.446   2.864  14.262 -0.6893 -3.6772  0.0686
  740TMC3    H210994   1.838   2.871  14.404  0.7082  0.7500  0.4510
  740TMC3    C710995   1.703   2.952  14.205 -0.5459  0.1390 -0.4286
  740TMC3    C810996   1.772   2.819  14.658  0.0714  0.1846 -0.1526
  740TMC3    O110997   1.825   2.962  14.192 -0.1839 -0.0099  0.0136
  740TMC3    O210998   1.886   2.865  14.638 -0.0505  0.3219 -0.0034
  741TMC3    C110999   1.175   2.120  14.054  0.4797  0.2100 -0.0856
  741TMC3    C211000   1.098   2.008  14.089 -0.6281 -0.3998 -0.7361
  741TMC3    C311001   1.107   1.972  14.216 -0.1787 -0.1486 -0.5308
  741TMC3    C411002   1.254   2.188  14.140  0.3720  0.8001  0.2483
  741TMC3    C511003   1.270   2.131  14.269  0.2150  0.3735 -0.2642
  741TMC3    C611004   1.188   2.030  14.313  0.1697 -0.0048 -0.2233
  741TMC3     C11005   1.226   2.129  13.918 -0.0855 -0.6847  0.6795
  741TMC3     O11006   1.338   2.179  13.901 -0.4465  0.1114 -0.6456
  741TMC3     H11007   1.034   1.956  14.019 -2.3346  1.6264 -0.6845
  741TMC3    H111008   1.311   2.274  14.106 -0.3436  1.3879  0.5464
  741TMC3    H211009   1.204   1.987  14.411  3.2337  0.3774 -0.5600
  741TMC3    C711010   1.378   2.177  14.348  0.4615  0.3482  1.1447
  741TMC3    C811011   1.024   1.857  14.263 -0.1681  0.0614  0.3121
  741TMC3    O111012   1.426   2.093  14.423  0.5085  0.4880  0.0790
  741TMC3    O211013   1.011   1.858  14.383 -0.2911 -0.3085 -0.5236
  742TMC3    C111014   1.011   0.383  15.351 -0.6341 -0.3189  0.2861
  742TMC3    C211015   0.933   0.389  15.237 -0.2501  0.8465  0.1187
  742TMC3    C311016   1.008   0.395  15.123 -0.3495  0.3582 -0.3456
  742TMC3    C411017   1.141   0.418  15.350 -0.3134  0.2591 -0.0498
  742TMC3    C511018   1.211   0.436  15.235  0.4531  0.4724  0.4536
  742TMC3    C611019   1.143   0.421  15.115 -0.5849  0.2244 -0.5149
  742TMC3     C11020   0.952   0.308  15.467 -0.0484 -0.6353  0.1946
  742TMC3     O11021   0.833   0.286  15.463  0.2570 -0.6009 -0.4340
  742TMC3     H11022   0.840   0.333  15.241 -0.1067  0.6058  0.0877
  742TMC3    H111023   1.208   0.421  15.435 -0.6561  0.6052  0.2055
  742TMC3    H211024   1.186   0.428  15.016 -1.9766 -1.8406 -1.2792
  742TMC3    C711025   1.350   0.458  15.229 -0.1862  0.6700  0.3326
  742TMC3    C811026   0.957   0.348  14.994  0.0043 -0.5180  0.4249
  742TMC3    O111027   1.405   0.415  15.123 -0.2353  0.4455 -0.6048
  742TMC3    O211028   1.035   0.311  14.906  0.2363 -0.1515  0.0125
  743MPD2     C11029   4.207   1.703   1.951  0.1567 -0.2962 -0.3647
  743MPD2    C111030   4.196   1.722   1.815 -0.1484 -0.2336  0.1355
  743MPD2    C211031   4.313   1.749   1.746 -0.4653 -0.3546 -0.1729
  743MPD2    C311032   4.441   1.753   1.808  0.9134  0.2207  0.2973
  743MPD2    C411033   4.449   1.715   1.934 -0.2618  0.1662 -0.4759
  743MPD2    C511034   4.329   1.690   2.006 -0.1756 -0.4884  0.3815
  743MPD2     H11035   4.309   1.761   1.639 -0.2886 -0.7315 -0.2226
  743MPD2    H111036   4.543   1.716   1.989 -0.0326 -1.6473 -0.8398
  743MPD2    H211037   4.114   1.685   2.004  0.6747  1.2431  1.0381
  743MPD2    H311038   4.332   1.672   2.113  0.6659  0.6661  0.5453
  743MPD2     N11039   4.546   1.780   1.718  0.5925  0.2962  0.2930
  743MPD2    H511040   4.519   1.809   1.625  0.7319 -0.2803  0.0773
  743MPD2    N111041   4.072   1.720   1.738  0.1418  0.6573 -0.5911
  743MPD2    H711042   4.081   1.729   1.638 -1.7225 -1.5326 -0.9548
  744TMC3    C111043   3.863   1.779   1.670 -0.7894 -0.2313 -0.5651
  744TMC3    C211044   3.778   1.881   1.678 -0.5016  0.1587  0.0549
  744TMC3    C311045   3.688   1.896   1.576 -0.0308 -0.0967  0.3905
  744TMC3    C411046   3.876   1.690   1.565  0.4122 -0.5241  0.6388
  744TMC3    C511047   3.787   1.706   1.465  0.1898 -0.1007  0.0482
  744TMC3    C611048   3.705   1.816   1.473  0.2148  0.7462 -0.1985
  744TMC3     C11049   3.945   1.757   1.787 -0.0868 -0.0551  0.2510
  744TMC3     O11050   3.914   1.783   1.902  0.4670  0.0874  0.6261
  744TMC3     H11051   3.773   1.941   1.768 -0.3875 -0.9516  0.8018
  744TMC3    H111052   3.956   1.617   1.567 -0.2793 -1.2745  1.0518
  744TMC3    H211053   3.633   1.830   1.393 -2.0378  0.0517  1.6842
  744TMC3    C711054   3.817   1.655   1.330  0.1003 -0.4292 -0.0035
  744TMC3    C811055   3.598   2.008   1.570  0.6857 -0.6799 -1.2752
  744TMC3    O111056   3.746   1.710   1.246 -0.2717  0.5125 -0.1943
  744TMC3    O211057   3.506   1.993   1.487 -0.0785 -0.2702  0.7617
  745TMC3    C111058   1.660   4.652  13.804  0.1595 -0.1808  0.5128
  745TMC3    C211059   1.532   4.620  13.781  0.4982  0.4543  0.2796
  745TMC3    C311060   1.480   4.609  13.655  0.2318 -0.0391 -0.4329
  745TMC3    C411061   1.747   4.673  13.701  0.3802 -0.1164  0.3826
  745TMC3    C511062   1.699   4.650  13.576 -0.0917  1.0973 -0.0949
  745TMC3    C611063   1.568   4.618  13.550 -0.5545  0.8404  0.4752
  745TMC3     C11064   1.659   0.029  13.899 -0.0714  0.8363  0.1244
  745TMC3     O11065   1.569   0.030  13.983 -0.1307 -0.5887 -0.3132
  745TMC3     H11066   1.470   4.596  13.867  0.4967  2.7646  0.9103
  745TMC3    H111067   1.849   4.695  13.731  0.8352  0.7521 -1.7876
  745TMC3    H211068   1.541   4.584  13.451 -1.3508 -0.3550  1.1064
  745TMC3    C711069   1.789   4.626  13.463  0.1356 -0.7383 -0.1419
  745TMC3    C811070   1.355   4.687  13.640 -0.8792  0.6159 -0.9022
  745TMC3    O111071   1.751   4.534  13.394  0.3444  0.1661  0.0381
  745TMC3    O211072   1.319   4.703  13.524 -0.2349  0.0060 -0.3976
  746TMC3    C111073   4.337   1.728  11.312  0.4183 -0.3103 -0.3948
  746TMC3    C211074   4.412   1.692  11.200 -0.3668 -0.5772  0.3166
  746TMC3    C311075   4.460   1.565  11.196  0.9007  0.3068 -0.5470
  746TMC3    C411076   4.296   1.639  11.415  0.1295  0.3492  0.5281
  746TMC3    C511077   4.344   1.509  11.403 -0.2183 -0.6492 -0.5389
  746TMC3    C611078   4.428   1.478  11.297 -0.1058 -1.0101 -0.3326
  746TMC3     C11079   4.267   1.860  11.304  0.1847  0.0528  0.1901
  746TMC3     O11080   4.163   1.871  11.366  0.4726 -0.0622  0.2258
  746TMC3     H11081   4.427   1.755  11.113  3.3820  1.6025  2.5134
  746TMC3    H111082   4.211   1.658  11.480 -0.9077  0.3918 -0.8230
  746TMC3    H211083   4.456   1.375  11.279  3.4339 -0.0774 -0.3196
  746TMC3    C711084   4.268   1.396  11.447  0.2462 -0.4693  0.3315
  746TMC3    C811085   4.491   1.491  11.073 -0.0499 -0.3303 -0.0759
  746TMC3    O111086   4.279   1.294  11.377  0.1917  0.3479  0.0182
  746TMC3    O211087   4.584   1.406  11.073 -0.3636  0.2241 -0.4786
  747TMC3    C111088   1.280   1.733  11.256  0.3629  0.3701  0.8256
  747TMC3    C211089   1.193   1.706  11.355  0.1268  0.4282  0.4140
  747TMC3    C311090   1.212   1.781  11.465 -0.6135  0.4794 -0.2219
  747TMC3    C411091   1.366   1.837  11.248 -0.1513  0.3073  0.2797
  747TMC3    C511092   1.382   1.900  11.374  0.4119  0.3171  0.1112
  747TMC3    C611093   1.308   1.877  11.482  0.2856  0.3704 -0.5430
  747TMC3     C11094   1.250   1.660  11.134 -0.6409 -1.3787  0.3054
  747TMC3     O11095   1.133   1.634  11.103  0.0081  0.1017 -0.6482
  747TMC3     H11096   1.117   1.630  11.338 -1.8971  2.9140 -1.5814
  747TMC3    H111097   1.403   1.876  11.154 -0.9171  1.9001  0.6299
  747TMC3    H211098   1.322   1.927  11.578  0.3619  1.3022 -1.0431
  747TMC3    C711099   1.478   2.010  11.392  0.2391 -0.7573  0.1311
  747TMC3    C811100   1.141   1.750  11.583  0.3403 -0.0679 -0.1418
  747TMC3    O111101   1.483   2.060  11.502  0.4812 -0.5804 -0.0773
  747TMC3    O211102   1.139   1.637  11.622 -0.0288 -0.2751  0.5597
  748MPD2     C11103   3.061   3.028   0.798  0.0181 -0.3651  0.1262
  748MPD2    C111104   3.064   3.080   0.929 -0.1383  0.0115 -0.1673
  748MPD2    C211105   3.181   3.137   0.966  0.5045 -0.5172 -0.6997
  748MPD2    C311106   3.286   3.164   0.882  0.3448  0.1970 -0.1270
  748MPD2    C411107   3.276   3.116   0.751  0.8892  0.0647 -0.3247
  748MPD2    C511108   3.161   3.051   0.713  0.0722 -0.0033  0.1102
  748MPD2     H11109   3.209   3.168   1.066 -0.6473 -2.7072  0.2836
  748MPD2    H111110   3.354   3.116   0.675  2.0652  1.2211  0.8682
  748MPD2    H211111   2.982   2.961   0.766 -2.2575  1.4591  1.9014
  748MPD2    H311112   3.155   3.012   0.612  1.6448  2.5785 -0.9740
  748MPD2     N11113   3.392   3.242   0.929 -0.1165 -0.1768  0.2497
  748MPD2    H511114   3.393   3.278   1.024  1.0517  0.0574  0.1502
  748MPD2    N111115   2.956   3.056   1.022 -0.0621  0.4967  0.2009
  748MPD2    H711116   2.885   2.998   0.979 -0.5203 -0.1046  1.7778
  749TMC3    C111117   3.584   3.381   0.933 -0.1037  0.3633  0.3626
  749TMC3    C211118   3.623   3.321   1.049 -0.4190  0.6996 -0.3451
  749TMC3    C311119   3.708   3.386   1.127 -0.0914 -0.2659  0.3881
  749TMC3    C411120   3.641   3.499   0.890  0.0624  0.1827 -0.1137
  749TMC3    C511121   3.724   3.574   0.973 -0.3614 -0.8371  0.3761
  749TMC3    C611122   3.752   3.513   1.095 -0.4991 -0.2270 -0.7807
  749TMC3     C11123   3.484   3.316   0.851  0.1731 -0.0839 -0.0215
  749TMC3     O11124   3.480   3.321   0.731  0.4417 -0.2712  0.2181
  749TMC3     H11125   3.577   3.225   1.074  1.5891 -0.9458 -3.0070
  749TMC3    H111126   3.600   3.534   0.796 -0.1243 -3.3792 -1.3506
  749TMC3    H211127   3.808   3.565   1.171 -0.5643 -1.6894  0.2631
  749TMC3    C711128   3.718   3.716   0.972 -0.0064 -0.1065  0.7183
  749TMC3    C811129   3.752   3.333   1.251 -0.8133  0.7640 -0.3520
  749TMC3    O111130   3.735   3.773   1.080 -0.2551  0.4689  0.2652
  749TMC3    O211131   3.768   3.405   1.353  0.2662  0.2159  0.3675
  750MPD2     C11132   4.420   3.450  11.295 -0.2774  0.8224  0.1489
  750MPD2    C111133   4.285   3.424  11.286 -0.3112  0.3498 -0.2420
  750MPD2    C211134   4.243   3.303  11.226 -0.7097 -0.1055  0.0816
  750MPD2    C311135   4.328   3.206  11.174 -0.8005  0.3042 -0.1680
  750MPD2    C411136   4.464   3.236  11.182  0.4266 -0.1189 -0.0442
  750MPD2    C511137   4.504   3.353  11.244 -0.3705  0.2749 -0.0410
  750MPD2     H11138   4.137   3.280  11.226 -0.5293 -0.9617 -3.3900
  750MPD2    H111139   4.535   3.163  11.145  1.6779  0.6546  0.8223
  750MPD2    H211140   4.471   3.530  11.348 -1.1267  1.1841  0.4240
  750MPD2    H311141   4.610   3.376  11.256 -0.4788  0.7553  0.0113
  750MPD2     N11142   4.293   3.080  11.126  0.0479  0.1504  0.6568
  750MPD2    H511143   4.365   3.008  11.121 -0.0548  0.1105 -0.3386
  750MPD2    N111144   4.189   3.518  11.329  0.1693  0.6839 -0.3849
  750MPD2    H711145   4.218   3.602  11.379 -2.7384  1.9245 -0.7810
  751TMC3    C111146   4.143   2.895  11.073  0.2914  0.7561 -0.0079
  751TMC3    C211147   4.010   2.859  11.082  0.4036 -0.1724  0.6276
  751TMC3    C311148   3.981   2.727  11.053  0.1530  0.5384  0.2538
  751TMC3    C411149   4.242   2.810  11.028  0.4833 -1.1054 -0.0350
  751TMC3    C511150   4.203   2.683  10.998  0.1616 -0.0887  0.3141
  751TMC3    C611151   4.076   2.635  11.012  0.0306  0.3298 -1.0917
  751TMC3     C11152   4.166   3.044  11.086 -0.1072  0.6533 -0.0091
  751TMC3     O11153   4.066   3.115  11.078  0.5301 -0.1191 -0.0530
  751TMC3     H11154   3.933   2.933  11.100 -1.2650 -1.8975  0.5956
  751TMC3    H111155   4.337   2.857  11.007 -0.3613  0.2498 -0.8288
  751TMC3    H211156   4.052   2.530  11.001  2.0091 -0.1871 -0.4334
  751TMC3    C711157   4.301   2.598  10.926 -0.2106 -0.5612 -0.1646
  751TMC3    C811158   3.842   2.680  11.074  0.2600  0.6645 -0.1209
  751TMC3    O111159   4.396   2.655  10.879 -0.5885 -0.2537 -0.2115
  751TMC3    O211160   3.833   2.563  11.038 -0.1315 -0.4527  0.2702
  752TMC3    C111161   2.428   4.403  17.714  0.0036  0.2826 -0.6574
  752TMC3    C211162   2.412   4.272   0.006 -0.6342  0.1587  0.4695
  752TMC3    C311163   2.348   4.252   0.126 -0.6949 -0.1903  1.2299
  752TMC3    C411164   2.382   4.510   0.035 -0.2540 -1.2977  0.7636
  752TMC3    C511165   2.313   4.485   0.150  0.6858  0.4659 -0.5052
  752TMC3    C611166   2.290   4.354   0.197  0.4015 -0.0491 -0.4995
  752TMC3     C11167   2.494   4.433  17.590  0.0935 -0.3473 -0.5745
  752TMC3     O11168   2.550   4.541  17.565 -0.5868  0.0107  0.3094
  752TMC3     H11169   2.467   4.194  17.702  2.6700  0.5685  3.4528
  752TMC3    H111170   2.393   4.608  17.737  1.0386 -1.6520  0.2890
  752TMC3    H211171   2.234   4.327   0.286 -0.1664 -2.1974 -1.5060
  752TMC3    C711172   2.228   4.600   0.186  0.2180  0.2594  0.0572
  752TMC3    C811173   2.348   4.118   0.192 -0.1593 -0.2490  0.0289
  752TMC3    O111174   2.121   4.566   0.239 -0.0518 -0.1575 -0.1573
  752TMC3    O211175   2.283   4.099   0.295  0.0743 -0.0426 -0.1239
  753TMC3    C111176   0.394   0.132  13.513  0.8864 -0.0303 -0.3229
  753TMC3    C211177   0.368   0.072  13.634  0.8377  0.1214 -0.0882
  753TMC3    C311178   0.348   4.674  13.626 -0.4073 -0.6762 -0.4470
  753TMC3    C411179   0.399   0.065  13.393  0.1830 -0.0412  0.3730
  753TMC3    C511180   0.357   4.674  13.397  0.0593 -0.7574  0.9285
  753TMC3    C611181   0.330   4.607  13.511 -0.5930  0.3906 -0.4791
  753TMC3     C11182   0.465   0.262  13.528  0.2607  0.0470 -0.0921
  753TMC3     O11183   0.439   0.323  13.630  0.2592  0.3846 -0.1352
  753TMC3     H11184   0.368   0.128  13.727 -1.4742  1.4809 -0.8858
  753TMC3    H111185   0.419   0.109  13.296  3.5663 -0.2810  0.9699
  753TMC3    H211186   0.304   4.502  13.516 -2.2125  0.8651  1.0557
  753TMC3    C711187   0.351   4.602  13.272 -0.9085  0.3657  0.1061
  753TMC3    C811188   0.302   4.617  13.747 -0.2476 -0.1287  0.4049
  753TMC3    O111189   0.444   4.620  13.197  0.0797  0.0205 -0.1256
  753TMC3    O211190   0.222   4.525  13.743  0.2106 -0.3289 -0.8753
  754MPD2     C11191   3.492   3.677  13.050 -0.2020  0.4660  0.7657
  754MPD2    C111192   3.489   3.544  13.017  0.0744 -0.4731 -0.0998
  754MPD2    C211193   3.375   3.490  12.963  0.0037 -0.3089  0.3594
  754MPD2    C311194   3.268   3.574  12.926  0.3898  0.5060  0.0602
  754MPD2    C411195   3.272   3.707  12.964  0.1266 -0.8813  0.6068
  754MPD2    C511196   3.385   3.761  13.025  0.1848 -0.3266  0.0968
  754MPD2     H11197   3.368   3.385  12.940 -1.5535 -0.6392  2.3692
  754MPD2    H111198   3.197   3.782  12.941  1.9728  1.7390  3.1018
  754MPD2    H211199   3.581   3.721  13.094  1.7341 -1.1394 -1.5780
  754MPD2    H311200   3.382   3.865  13.056 -0.2027 -0.0378 -0.9100
  754MPD2     N11201   3.150   3.524  12.878 -0.2011 -0.0794 -0.4536
  754MPD2    H511202   3.070   3.586  12.884  0.1802  0.5299 -1.7561
  754MPD2    N111203   3.608   3.475  13.042 -0.7333  0.4247  0.3542
  754MPD2    H711204   3.677   3.527  13.096 -0.8716 -0.9277  1.8287
  755MPD2     C11205   2.317   3.706  12.722  0.3101  0.1880  0.2798
  755MPD2    C111206   2.304   3.634  12.837 -1.0147  0.1979  0.9380
  755MPD2    C211207   2.418   3.556  12.875 -0.3399 -0.2194  0.1760
  755MPD2    C311208   2.541   3.575  12.808  0.6062 -0.3728  0.5052
  755MPD2    C411209   2.543   3.657  12.701  0.4157 -0.5502  0.3685
  755MPD2    C511210   2.438   3.715  12.652 -0.8912  0.6593  0.3763
  755MPD2     H11211   2.408   3.474  12.945  1.5930 -2.2530 -1.9125
  755MPD2    H111212   2.630   3.673  12.638  1.3418  0.4983  1.9023
  755MPD2    H211213   2.234   3.760  12.677 -0.0605 -0.3211  0.3553
  755MPD2    H311214   2.452   3.767  12.558  0.5833 -0.4300 -0.0092
  755MPD2     N11215   2.649   3.495  12.833 -0.1927  0.3386 -0.5809
  755MPD2    H511216   2.723   3.503  12.764  0.0340  0.7833 -0.2873
  755MPD2    N111217   2.181   3.629  12.913  0.0903  0.1237  0.1674
  755MPD2    H711218   2.195   3.601  13.010  2.5087 -0.7257 -0.4363
  756MPD2     C11219   3.522   4.298   9.472 -0.8891  0.0013 -0.7511
  756MPD2    C111220   3.479   4.225   9.580  0.1803 -0.2116 -0.0397
  756MPD2    C211221   3.372   4.134   9.554  0.0955  0.4891  0.1824
  756MPD2    C311222   3.311   4.129   9.428  0.0271 -0.4708  0.5825
  756MPD2    C411223   3.352   4.206   9.318  0.7806 -0.5079  0.6311
  756MPD2    C511224   3.465   4.278   9.345 -0.2071  0.6664 -0.3704
  756MPD2     H11225   3.326   4.072   9.630  0.4723 -1.2709 -1.0178
  756MPD2    H111226   3.304   4.217   9.222 -0.3887  1.4492  1.4146
  756MPD2    H211227   3.606   4.365   9.485 -1.1759 -0.0302  1.1896
  756MPD2    H311228   3.510   4.321   9.256  1.5776 -2.0804 -0.8057
  756MPD2     N11229   3.198   4.044   9.425  0.3896 -0.4262 -0.1965
  756MPD2    H511230   3.170   3.994   9.508 -1.6346  1.9011  0.5361
  756MPD2    N111231   3.542   4.220   9.707  0.0927 -0.0132  0.1583
  756MPD2    H711232   3.500   4.152   9.770 -1.1359 -0.0788 -0.7351
  757MPD2     C11233   2.982   3.175   9.780 -0.4067 -0.2713  0.7374
  757MPD2    C111234   2.977   3.146   9.648  0.0303  0.7152 -0.5420
  757MPD2    C211235   2.962   3.256   9.566 -0.0887  0.3830  0.2540
  757MPD2    C311236   2.965   3.386   9.605 -0.0234  0.0392 -0.0793
  757MPD2    C411237   2.965   3.412   9.741  0.0176 -0.4278 -0.9321
  757MPD2    C511238   2.976   3.308   9.822  0.3151 -0.5001 -0.4302
  757MPD2     H11239   2.952   3.242   9.459  1.7613  0.7460  0.0267
  757MPD2    H111240   2.962   3.516   9.771 -0.6883 -0.0628 -2.2445
  757MPD2    H211241   2.979   3.099   9.857  0.0586  0.6199  1.6526
  757MPD2    H311242   2.974   3.326   9.929 -1.9082  2.1363 -0.9124
  757MPD2     N11243   2.949   3.488   9.508  1.5109  0.1567  0.1521
  757MPD2    H511244   2.919   3.458   9.416 -0.1695  1.3162  0.3271
  757MPD2    N111245   3.010   3.014   9.617  0.5632 -0.2032 -0.9600
  757MPD2    H711246   3.066   2.969   9.689 -1.3331  1.8477  1.7932
  758MPD2     C11247   3.563   3.443  16.076  0.4438 -0.3574 -0.5931
  758MPD2    C111248   3.632   3.348  16.151 -1.0867  0.4578  0.3422
  758MPD2    C211249   3.614   3.337  16.283  0.8107 -0.8637 -0.3252
  758MPD2    C311250   3.522   3.419  16.347  0.2536 -0.1966  0.6988
  758MPD2    C411251   3.445   3.508  16.275 -0.2952  0.3818 -0.6254
  758MPD2    C511252   3.472   3.524  16.145 -0.7943 -0.2262  0.4494
  758MPD2     H11253   3.667   3.262  16.340  1.0748 -1.2868 -1.1155
  758MPD2    H111254   3.366   3.561  16.328 -0.6883 -0.9662  0.1235
  758MPD2    H211255   3.580   3.448  15.969 -1.3712  1.9316 -0.7771
  758MPD2    H311256   3.421   3.599  16.087 -0.8232 -0.0881  0.6554
  758MPD2     N11257   3.500   3.404  16.488 -0.7163 -0.3287 -0.0085
  758MPD2    H511258   3.422   3.454  16.528  0.1739 -0.8374  2.3576
  758MPD2    N111259   3.734   3.271  16.094 -0.5757  0.1864 -0.2198
  758MPD2    H711260   3.781   3.203  16.153  0.1010  0.1164 -0.8423
  759MPD2     C11261   3.119   0.703  10.232 -0.3970 -0.5692  0.7481
  759MPD2    C111262   3.102   0.798  10.331 -0.2928  0.6189  0.0254
  759MPD2    C211263   3.111   0.926  10.287  0.1132  0.2436  0.2738
  759MPD2    C311264   3.135   0.964  10.161  0.5265 -0.8668 -0.7188
  759MPD2    C411265   3.152   0.863  10.063 -0.0043 -0.1461  0.7544
  759MPD2    C511266   3.137   0.733  10.099  0.3282  0.3174  0.3960
  759MPD2     H11267   3.105   1.004  10.362 -0.1883  0.0507  0.4481
  759MPD2    H111268   3.167   0.881   9.957 -1.9935  2.5283  0.9214
  759MPD2    H211269   3.133   0.598  10.251  0.6007 -0.4072  0.9025
  759MPD2    H311270   3.161   0.653  10.030 -0.8807  0.2229  0.0844
  759MPD2     N11271   3.134   1.097  10.138  0.2096 -0.0335  0.7871
  759MPD2    H511272   3.120   1.160  10.217  0.6444  0.6572  0.3131
  759MPD2    N111273   3.089   0.765  10.467 -0.2996 -0.4201  0.8052
  759MPD2    H711274   3.070   0.838  10.535  2.3310 -0.5575  1.6616
  760MPD2     C11275   1.801   3.323  12.114  0.2648  0.0217  0.9171
  760MPD2    C111276   1.910   3.255  12.063  1.2534 -0.8969 -0.1874
  760MPD2    C211277   1.928   3.121  12.093  0.0383 -0.4443  0.9406
  760MPD2    C311278   1.835   3.054  12.173  0.0615  0.1241  0.2701
  760MPD2    C411279   1.735   3.124  12.237 -0.0088 -0.5499  0.6160
  760MPD2    C511280   1.721   3.256  12.209 -0.1116 -0.1537  0.2466
  760MPD2     H11281   2.015   3.064  12.063  1.6567  2.9640 -0.9057
  760MPD2    H111282   1.663   3.080  12.305  0.2372 -1.4545  0.2815
  760MPD2    H211283   1.778   3.428  12.101  1.2395  0.0648 -0.4739
  760MPD2    H311284   1.646   3.317  12.258 -1.2797 -2.0772  0.8712
  760MPD2     N11285   1.847   2.913  12.190  0.1611 -0.4941  0.5742
  760MPD2    H511286   1.787   2.862  12.255 -1.6876  1.8916  0.7215
  760MPD2    N111287   2.004   3.310  11.974  0.1640 -0.1055  0.1132
  760MPD2    H711288   2.051   3.247  11.910  2.4228  0.6438  1.0343
  761MPD2     C11289   3.397   2.621  11.285  0.0001 -0.0863  0.0695
  761MPD2    C111290   3.451   2.563  11.178 -0.3586  0.2059 -0.0532
  761MPD2    C211291   3.575   2.607  11.133  0.9207 -0.3238  0.3017
  761MPD2    C311292   3.640   2.709  11.199 -0.5707  0.0721  0.0521
  761MPD2    C411293   3.581   2.769  11.308  0.5106 -0.2890 -0.5070
  761MPD2    C511294   3.461   2.724  11.349  0.5223 -0.0300  0.2303
  761MPD2     H11295   3.609   2.570  11.037  0.1750  0.1678 -0.1558
  761MPD2    H111296   3.617   2.862  11.351 -1.4396  0.6168 -0.8077
  761MPD2    H211297   3.298   2.586  11.311 -0.0114  0.3633  0.6118
  761MPD2    H311298   3.405   2.765  11.432  1.5869 -0.1167  0.9863
  761MPD2     N11299   3.765   2.760  11.154  0.0085  0.3453 -0.2850
  761MPD2    H511300   3.810   2.828  11.215 -0.5855 -0.4028  0.9909
  761MPD2    N111301   3.380   2.464  11.104  0.1617 -0.3723  0.6973
  761MPD2    H711302   3.293   2.429  11.143  0.5538 -1.6144  0.4815
  762MPD2     C11303   3.844   2.450  10.751 -0.6796  1.2406 -0.8297
  762MPD2    C111304   3.796   2.323  10.708  0.6277  0.3151 -0.0307
  762MPD2    C211305   3.888   2.266  10.623 -0.2172 -0.3043  0.5750
  762MPD2    C311306   4.017   2.318  10.588 -0.4983  0.3771  1.0775
  762MPD2    C411307   4.055   2.444  10.637 -0.1886 -0.3695 -0.5082
  762MPD2    C511308   3.962   2.508  10.719 -0.1629 -0.1405 -0.1381
  762MPD2     H11309   3.854   2.168  10.594 -3.9574  1.3106 -0.5516
  762MPD2    H111310   4.150   2.492  10.616 -0.1321  0.7332  2.2910
  762MPD2    H211311   3.777   2.509  10.812  0.7482  1.7198  0.2738
  762MPD2    H311312   3.984   2.607  10.758  0.0636  1.1514 -3.5793
  762MPD2     N11313   4.100   2.238  10.506 -0.2669  0.4295  0.1332
  762MPD2    H511314   4.053   2.152  10.479 -1.0162  1.3633 -1.5892
  762MPD2    N111315   3.663   2.277  10.739 -0.2860 -1.1328 -0.0963
  762MPD2    H711316   3.609   2.350  10.784  1.4768 -0.3348  0.7441
  763MPD2     C11317   0.659   3.242  16.485  0.0478  0.3209 -0.1693
  763MPD2    C111318   0.671   3.318  16.369 -0.0549  0.2502  0.5652
  763MPD2    C211319   0.713   3.448  16.388  0.5304  0.1453 -0.4378
  763MPD2    C311320   0.764   3.500  16.506  0.9653 -0.4697  0.3970
  763MPD2    C411321   0.762   3.410  16.617  0.5104 -0.1683 -0.0884
  763MPD2    C511322   0.708   3.279  16.606  0.1403  0.6379  0.0288
  763MPD2     H11323   0.699   3.515  16.305 -1.7143 -0.7054 -0.7405
  763MPD2    H111324   0.800   3.453  16.709 -0.0311  0.0860  0.0143
  763MPD2    H211325   0.613   3.144  16.478 -1.9444  1.3323 -1.3397
  763MPD2    H311326   0.685   3.225  16.697  1.6925  0.8735  0.5676
  763MPD2     N11327   0.808   3.635  16.520 -0.8262 -0.1179  0.0425
  763MPD2    H511328   0.822   3.661  16.617  1.1856  1.2496 -0.6006
  763MPD2    N111329   0.623   3.273  16.240  0.3066 -0.1286 -0.1725
  763MPD2    H711330   0.625   3.345  16.169 -3.1127 -1.3011 -1.4626
  764MPD2     C11331   3.162   4.687  17.471  0.0663  0.0392  0.0740
  764MPD2    C111332   3.058   0.042  17.470  0.8137  0.2647  0.9523
  764MPD2    C211333   3.036   0.128  17.575  0.4560  0.0102  0.3569
  764MPD2    C311334   3.133   0.139  17.672 -0.3169 -0.0157 -0.3909
  764MPD2    C411335   3.239   0.046  17.674  0.9153 -0.2599  0.1153
  764MPD2    C511336   3.251   4.694  17.576 -0.3685  0.2264 -0.1548
  764MPD2     H11337   2.950   0.194  17.578 -0.1536 -0.7642  0.0030
  764MPD2    H111338   3.307   0.035   0.011  1.1628  0.4192  0.0025
  764MPD2    H211339   3.184   4.609  17.399  1.6780 -1.2157  1.9365
  764MPD2    H311340   3.317   4.609  17.588  0.4086  0.6530 -1.4025
  764MPD2     N11341   3.115   0.233   0.034 -0.1811 -0.3203 -0.9700
  764MPD2    H511342   3.043   0.304   0.031  2.7696  2.7992  1.7116
  764MPD2    N111343   2.954   0.032  17.368  0.1256 -0.0561  0.2701
  764MPD2    H711344   2.876   0.093  17.390 -0.4000 -1.3695  1.9338
  765MPD2     C11345   2.901   2.539  16.379  0.0422 -0.1935  0.5989
  765MPD2    C111346   2.991   2.619  16.317 -0.3899 -0.5642 -0.2323
  765MPD2    C211347   3.119   2.574  16.275  0.3501 -0.8971 -0.8001
  765MPD2    C311348   3.144   2.432  16.284 -0.2099 -0.0205 -0.0450
  765MPD2    C411349   3.049   2.351  16.348  0.3684  0.6010  0.0583
  765MPD2    C511350   2.929   2.406  16.392  0.3481  0.1333 -0.0949
  765MPD2     H11351   3.193   2.631  16.221 -0.2954 -0.9137 -1.7193
  765MPD2    H111352   3.060   2.244  16.358 -1.7692  0.3351 -0.6019
  765MPD2    H211353   2.798   2.563  16.401 -0.1296 -0.9354  0.6107
  765MPD2    H311354   2.856   2.327  16.409 -1.2856  1.5579 -0.4445
  765MPD2     N11355   3.263   2.383  16.224 -0.6082  0.0513 -0.7807
  765MPD2    H511356   3.326   2.446  16.176 -1.0135  1.1143  0.0588
  765MPD2    N111357   2.947   2.748  16.299 -0.0658  0.2800  0.0616
  765MPD2    H711358   2.850   2.769  16.318 -0.5639 -0.5797 -1.5209
  766MPD2     C11359   2.548   2.787  15.740 -0.8550 -0.2753 -0.2286
  766MPD2    C111360   2.676   2.796  15.773  0.6724 -0.0288 -1.0582
  766MPD2    C211361   2.776   2.760  15.684  0.5840  0.0742 -0.8723
  766MPD2    C311362   2.740   2.729  15.556  0.4576 -0.3896 -0.8863
  766MPD2    C411363   2.611   2.700  15.522 -0.5687 -0.6745 -0.1795
  766MPD2    C511364   2.510   2.733  15.619  0.1362  0.7498 -0.2792
  766MPD2     H11365   2.877   2.785  15.715  0.9618 -1.5120 -0.8108
  766MPD2    H111366   2.583   2.679  15.419  0.4238  1.5821 -0.8989
  766MPD2    H211367   2.473   2.827  15.807  0.8868 -1.7425  2.5928
  766MPD2    H311368   2.405   2.736  15.589  0.6931  0.5147 -2.2543
  766MPD2     N11369   2.830   2.715  15.460  0.2596 -0.0805  0.1022
  766MPD2    H511370   2.803   2.688  15.366  0.9776  0.7739 -0.3497
  766MPD2    N111371   2.712   2.856  15.900  0.4046  0.0076 -0.1567
  766MPD2    H711372   2.809   2.844  15.927  0.1417 -2.1630 -0.2287
  767MPD2     C11373   2.421   2.934  15.367 -0.3930  0.3318 -0.0422
  767MPD2    C111374   2.551   2.969  15.337 -0.1882  0.3692 -0.1539
  767MPD2    C211375   2.608   2.925  15.219 -0.3415 -0.1670 -0.7453
  767MPD2    C311376   2.539   2.836  15.133  0.6983  0.1903  0.0960
  767MPD2    C411377   2.411   2.790  15.177  0.1066  0.1465 -0.1721
  767MPD2    C511378   2.352   2.839  15.296 -0.4168 -0.1234  0.6808
  767MPD2     H11379   2.694   2.975  15.177  0.5302  1.1561  2.6249
  767MPD2    H111380   2.349   2.724  15.117 -1.1655  1.0280  0.1941
  767MPD2    H211381   2.381   2.978  15.458  0.7219 -0.0935  0.6554
  767MPD2    H311382   2.257   2.796  15.325 -0.8250  1.6551  1.9781
  767MPD2     N11383   2.596   2.805  15.003 -0.5246  0.0524  0.7800
  767MPD2    H511384   2.695   2.821  14.991 -0.5851 -1.3013 -1.5894
  767MPD2    N111385   2.616   3.052  15.423 -0.5329 -0.3281 -0.0781
  767MPD2    H711386   2.568   3.088  15.505 -1.8486 -0.2158 -0.9043
  768MPD2     C11387   4.242   1.033  10.933  0.6349 -0.1185 -0.6575
  768MPD2    C111388   4.220   0.981  11.060  0.0864  0.0619  0.0189
  768MPD2    C211389   4.323   0.996  11.155  0.1182 -0.2032 -0.0291
  768MPD2    C311390   4.432   1.076  11.120  0.1721 -0.3875 -0.3667
  768MPD2    C411391   4.440   1.136  10.998 -0.3867 -0.0200  0.0298
  768MPD2    C511392   4.358   1.104  10.893  0.2641 -0.4839 -0.8311
  768MPD2     H11393   4.313   0.947  11.251  2.1352  0.7056  0.6406
  768MPD2    H111394   4.525   1.200  10.975 -0.9759  0.2393 -1.4210
  768MPD2    H211395   4.171   0.996  10.859  0.1061  0.3413 -0.3860
  768MPD2    H311396   4.372   1.136  10.791  1.0080  2.4821  0.1923
  768MPD2     N11397   4.528   1.120  11.214  0.2262  0.0146  0.2354
  768MPD2    H511398   4.590   1.195  11.185  0.9508 -0.2113  1.1955
  768MPD2    N111399   4.103   0.919  11.104 -0.3717  0.2813  0.6285
  768MPD2    H711400   4.100   0.883  11.199 -3.4815 -0.2609  0.3372
  769MPD2     C11401   4.710   4.379  14.739 -0.1725  0.4891  0.3790
  769MPD2    C111402   4.608   4.394  14.833  0.4337 -0.0923 -0.4157
  769MPD2    C211403   4.632   4.472  14.946  0.1117 -0.6605  0.1422
  769MPD2    C311404   0.017   4.536  14.962 -0.0546  0.1757  0.3971
  769MPD2    C411405   0.120   4.520  14.867  0.6041 -0.2139 -0.1020
  769MPD2    C511406   0.090   4.451  14.749 -0.3239 -0.5479  0.5148
  769MPD2     H11407   4.562   4.469  15.028  1.2208 -2.4069  1.0178
  769MPD2    H111408   0.223   4.554  14.874 -0.3399  1.9403  3.2132
  769MPD2    H211409   4.706   4.323  14.647  0.6639  1.8624 -0.4862
  769MPD2    H311410   0.166   4.440  14.674 -1.9024  3.8290 -1.7429
  769MPD2     N11411   0.037   4.610  15.078 -0.4129 -0.0020  0.1176
  769MPD2    H511412   4.698   4.611  15.145  0.3911  3.7615  1.0142
  769MPD2    N111413   4.485   4.333  14.794 -0.1606  0.1564  0.1083
  769MPD2    H711414   4.492   4.277  14.710 -1.7809  1.3592 -0.8135
  770MPD2     C11415   3.678   3.803  15.094  0.0517  0.6897 -0.0640
  770MPD2    C111416   3.788   3.758  15.023 -0.8295 -0.1368 -0.5522
  770MPD2    C211417   3.874   3.844  14.958 -0.0021 -0.1815 -0.8622
  770MPD2    C311418   3.857   3.980  14.978 -1.2130 -0.8759 -0.0011
  770MPD2    C411419   3.753   4.024  15.061  0.2923  0.3252  0.0714
  770MPD2    C511420   3.662   3.935  15.116 -0.0580  0.0122 -0.6463
  770MPD2     H11421   3.956   3.811  14.895  1.4576  2.7978 -0.5130
  770MPD2    H111422   3.757   4.128  15.091  1.8925 -0.3650  2.2152
  770MPD2    H211423   3.619   3.746  15.164 -1.6092  1.8068 -0.5681
  770MPD2    H311424   3.576   3.974  15.168  0.1252  1.3238 -1.3242
  770MPD2     N11425   3.945   4.066  14.908  0.6116  0.2019 -0.3502
  770MPD2    H511426   4.026   4.027  14.861  0.8905  0.9429 -0.4831
  770MPD2    N111427   3.815   3.621  15.026  0.2648 -0.0490 -0.1376
  770MPD2    H711428   3.734   3.565  15.049  1.4878 -1.6993  0.1913
  771MPD2     C11429   0.872   2.289  14.200  1.2635 -0.6557  0.4191
  771MPD2    C111430   0.772   2.326  14.113  0.5317  0.5794  0.4260
  771MPD2    C211431   0.655   2.243  14.101  0.6815 -1.2093 -0.2120
  771MPD2    C311432   0.658   2.121  14.168 -0.0401  0.6198 -0.2793
  771MPD2    C411433   0.751   2.097  14.262 -0.4193 -0.3755  1.0286
  771MPD2    C511434   0.857   2.177  14.275  0.1053 -0.5798 -0.1727
  771MPD2     H11435   0.574   2.276  14.038  0.8360  0.9346  0.7242
  771MPD2    H111436   0.741   2.014  14.331  0.5536 -0.0328  1.5774
  771MPD2    H211437   0.962   2.346  14.218  0.3015  0.9134  0.2814
  771MPD2    H311438   0.936   2.154  14.345  0.3306  0.2616 -0.1455
  771MPD2     N11439   0.557   2.031  14.135  0.1372 -0.2630 -0.6144
  771MPD2    H511440   0.499   2.059  14.057  0.6701 -1.2701 -1.3713
  771MPD2    N111441   0.780   2.440  14.027 -0.3932  0.0221  0.2495
  771MPD2    H711442   0.699   2.447  13.967  1.5979 -0.1829 -2.4733
  772MPD2     C11443   0.378   3.060  14.051 -0.5939 -0.4854 -0.6645
  772MPD2    C111444   0.394   2.921  14.037  0.0653  0.0791  0.0454
  772MPD2    C211445   0.296   2.835  14.084  0.0407 -0.5676 -0.2452
  772MPD2    C311446   0.180   2.889  14.141 -0.4946  0.3110 -0.3169
  772MPD2    C411447   0.170   3.027  14.160  0.1599 -0.2734  0.4119
  772MPD2    C511448   0.268   3.118  14.115 -0.0983  0.0136  0.4557
  772MPD2     H11449   0.316   2.729  14.072 -0.0262 -0.4370 -1.4478
  772MPD2    H111450   0.092   3.081  14.212  0.0910  0.1861 -0.1635
  772MPD2    H211451   0.456   3.126  14.016 -0.7770  0.7657  1.2950
  772MPD2    H311452   0.274   3.223  14.141 -0.2707 -0.1620  1.2045
  772MPD2     N11453   0.071   2.804  14.178  0.1200 -0.1800 -0.2247
  772MPD2    H511454   0.006   2.848  14.243  1.3089  0.6651  0.3978
  772MPD2    N111455   0.506   2.854  13.985  0.4099 -0.3116 -0.4193
  772MPD2    H711456   0.495   2.755  13.964 -0.2711 -0.1750 -0.6810
  773MPD2     C11457   4.077   3.579  17.691  0.4755 -0.2075  0.4830
  773MPD2    C111458   3.972   3.494  17.704  0.1908  0.6461  0.2004
  773MPD2    C211459   3.949   3.429   0.084  0.3781 -0.0951 -0.4508
  773MPD2    C311460   4.039   3.446   0.186 -0.2055 -0.4038 -0.0392
  773MPD2    C411461   4.145   3.533   0.169 -0.1552 -0.2771  1.1539
  773MPD2    C511462   4.164   3.595   0.051 -0.2559 -0.1407  0.0037
  773MPD2     H11463   3.859   3.372   0.100 -0.0306  1.0462  1.2721
  773MPD2    H111464   4.216   3.557   0.247  0.7447 -0.3337  0.3652
  773MPD2    H211465   4.106   3.632  17.601 -0.9831  0.6547  0.5227
  773MPD2    H311466   4.249   3.655   0.024  2.1811 -2.6975  1.9838
  773MPD2     N11467   4.014   3.382   0.308 -0.3621 -0.1425 -0.2259
  773MPD2    H511468   3.925   3.333   0.313 -1.3150  1.5432 -0.5583
  773MPD2    N111469   3.872   3.481  17.602  0.3825  0.1773  0.6775
  773MPD2    H711470   3.786   3.440  17.639  0.1814  1.9197  2.1290
  774MPD2     C11471   3.693   2.512  13.385  0.3430 -0.6651 -0.1817
  774MPD2    C111472   3.688   2.618  13.480  0.0521 -0.0379  0.9593
  774MPD2    C211473   3.725   2.743  13.431  0.4014 -0.0366  0.6832
  774MPD2    C311474   3.766   2.765  13.298  0.4648 -0.0888 -0.4686
  774MPD2    C411475   3.775   2.658  13.211  0.4230  0.4181  0.5529
  774MPD2    C511476   3.733   2.537  13.255  0.0080 -0.1684 -0.2127
  774MPD2     H11477   3.728   2.827  13.498  1.5313  1.2628 -1.0029
  774MPD2    H111478   3.811   2.657  13.109 -1.0217  2.2344  0.0202
  774MPD2    H211479   3.663   2.411  13.411  2.2137 -0.8932  1.0902
  774MPD2    H311480   3.725   2.455  13.185 -0.1420  0.8121 -1.3271
  774MPD2     N11481   3.793   2.899  13.266  0.0977  0.2136 -0.6215
  774MPD2    H511482   3.771   2.970  13.334 -0.9267  1.5367 -2.3204
  774MPD2    N111483   3.644   2.589  13.612  0.3225 -0.3505  0.1286
  774MPD2    H711484   3.614   2.492  13.620  0.2201 -0.3547 -0.2808
  775MPD2     C11485   0.268   4.019  15.794  0.1708  0.6253  0.1612
  775MPD2    C111486   0.258   4.133  15.879 -0.4273 -0.5827  0.4300
  775MPD2    C211487   0.290   4.257  15.824 -0.6029 -0.4416 -0.4145
  775MPD2    C311488   0.366   4.262  15.705 -0.1423 -0.5280  0.0989
  775MPD2    C411489   0.380   4.147  15.630  0.1923 -0.8480 -0.0448
  775MPD2    C511490   0.336   4.026  15.675  0.3067  0.8877  0.2436
  775MPD2     H11491   0.283   4.348  15.882  1.9151  0.9727 -2.3363
  775MPD2    H111492   0.436   4.142  15.538  1.2026  0.8685  0.4876
  775MPD2    H211493   0.239   3.920  15.826  2.3877 -0.4687 -1.1558
  775MPD2    H311494   0.355   3.939  15.612  0.8275  0.5197  0.9103
  775MPD2     N11495   0.412   4.377  15.638 -0.0775  0.5946 -0.1104
  775MPD2    H511496   0.450   4.361  15.546  1.3275  1.4164  0.3416
  775MPD2    N111497   0.207   4.116  16.008 -0.5851 -0.5201  0.2033
  775MPD2    H711498   0.165   4.024  16.015  0.0584 -0.8573 -0.3855
  776MPD2     C11499   4.294   4.095  11.574  0.2196  0.1790 -0.0043
  776MPD2    C111500   4.182   4.115  11.493  0.2050  1.1412  0.0895
  776MPD2    C211501   4.132   4.243  11.480  0.3575 -0.1989 -0.0510
  776MPD2    C311502   4.199   4.357  11.525 -0.4119 -0.5937  0.6788
  776MPD2    C411503   4.315   4.339  11.598  0.4066 -0.1793  0.2443
  776MPD2    C511504   4.350   4.206  11.641 -0.6884  0.8359 -0.2603
  776MPD2     H11505   4.048   4.264  11.415 -1.9110  1.1005  3.3247
  776MPD2    H111506   4.367   4.419  11.650 -0.5015  1.7155 -1.7383
  776MPD2    H211507   4.339   4.001  11.604  0.4617  0.6472  1.0657
  776MPD2    H311508   4.433   4.188  11.708 -0.3916  2.5181 -0.1567
  776MPD2     N11509   4.143   4.488  11.527 -0.1336 -0.0235 -0.3027
  776MPD2    H511510   4.201   4.562  11.567 -3.2621  2.8330 -1.0113
  776MPD2    N111511   4.122   3.999  11.438 -0.1527  0.5397  0.9929
  776MPD2    H711512   4.178   3.915  11.451  1.7954  1.8438  1.0154
  777MPD2     C11513   3.958   2.418   0.621 -0.4345 -0.9395  0.2730
  777MPD2    C111514   3.952   2.329   0.731 -0.0251  0.0493  0.1108
  777MPD2    C211515   3.913   2.197   0.711  0.5965  0.3504 -0.4078
  777MPD2    C311516   3.865   2.160   0.580 -0.3300 -0.8906 -0.3676
  777MPD2    C411517   3.866   2.246   0.472 -0.2905  0.0081 -0.4523
  777MPD2    C511518   3.919   2.370   0.489 -0.2277  1.1438 -0.4030
  777MPD2     H11519   3.906   2.125   0.791  2.1268  0.5450 -0.1013
  777MPD2    H111520   3.843   2.208   0.373  1.5237 -1.6343 -0.2317
  777MPD2    H211521   3.991   2.521   0.626 -1.9624 -0.5096  1.3133
  777MPD2    H311522   3.924   2.435   0.402 -1.5746 -1.3223 -2.3400
  777MPD2     N11523   3.826   2.019   0.571 -0.5727  0.2421  0.1951
  777MPD2    H511524   3.856   1.963   0.651 -0.9106 -0.2705 -0.0394
  777MPD2    N111525   4.003   2.374   0.848 -0.0938  0.1680 -0.2378
  777MPD2    H711526   4.015   2.474   0.852 -0.6749  0.2597 -0.7872
  778MPD2     C11527   0.353   2.137  15.294  0.3988 -0.0851  0.1748
  778MPD2    C111528   0.388   2.035  15.209 -0.6648  0.4252  1.0869
  778MPD2    C211529   0.469   2.065  15.104 -0.6338  0.1112 -0.0342
  778MPD2    C311530   0.508   2.197  15.071  0.0715 -0.3173 -0.2427
  778MPD2    C411531   0.485   2.294  15.164  0.1188  0.5580 -0.4748
  778MPD2    C511532   0.408   2.259  15.271 -0.7567  0.5849 -0.0175
  778MPD2     H11533   0.504   1.984  15.041 -1.0472 -0.6596  0.7162
  778MPD2    H111534   0.530   2.393  15.161  1.2918  0.0853  1.5669
  778MPD2    H211535   0.295   2.140  15.386 -0.6673 -2.2947 -0.4353
  778MPD2    H311536   0.377   2.339  15.338  2.0487  1.1116  0.6603
  778MPD2     N11537   0.567   2.218  14.947 -0.3666  0.0417  0.2916
  778MPD2    H511538   0.587   2.134  14.894  1.6511  0.0061  1.1317
  778MPD2    N111539   0.327   1.908  15.216 -0.2006  0.2441  0.6595
  778MPD2    H711540   0.349   1.841  15.143 -1.5019  2.4216 -1.7470
  779MPD2     C11541   0.240   0.765  14.660 -0.3275 -0.3351  0.5118
  779MPD2    C111542   0.355   0.796  14.593 -0.2283  0.1006  0.1824
  779MPD2    C211543   0.401   0.929  14.568 -0.2117 -0.1609 -0.4870
  779MPD2    C311544   0.317   1.034  14.608 -0.4045  0.1909  0.2368
  779MPD2    C411545   0.200   1.000  14.669  0.9172  0.0330 -0.5311
  779MPD2    C511546   0.163   0.869  14.703 -0.3237 -0.8845 -0.9922
  779MPD2     H11547   0.480   0.945  14.496 -1.7603  1.9671 -1.7135
  779MPD2    H111548   0.135   1.080  14.701  0.8202  0.1687 -1.0611
  779MPD2    H211549   0.210   0.674  14.711 -1.3533 -0.4190 -0.2231
  779MPD2    H311550   0.073   0.859  14.763 -0.2190  0.4950 -0.5977
  779MPD2     N11551   0.349   1.168  14.561 -0.1365  0.3708  0.0864
  779MPD2    H511552   0.425   1.190  14.498  0.0164  0.5829  0.3425
  779MPD2    N111553   0.444   0.689  14.560 -0.1195 -0.0955 -0.3090
  779MPD2    H711554   0.527   0.728  14.516 -0.7193  0.0275 -1.3469
  780MPD2     C11555   0.224   0.884   1.171  0.3579  0.6208  0.0328
  780MPD2    C111556   0.100   0.861   1.129  0.4915 -0.0593 -0.3108
  780MPD2    C211557   0.062   0.916   1.013 -0.4939  0.3070  0.6367
  780MPD2    C311558   0.150   0.983   0.933  0.1627  0.2725  0.6268
  780MPD2    C411559   0.280   0.996   0.967  0.2982  0.4970 -0.3739
  780MPD2    C511560   0.312   0.960   1.096  0.2983  0.1275  0.1295
  780MPD2     H11561   4.695   0.905   0.983 -0.1687 -0.1623 -0.3361
  780MPD2    H111562   0.357   1.050   0.914 -1.1600  1.4351 -1.5251
  780MPD2    H211563   0.268   0.850   1.264 -1.0201 -3.1437 -0.6942
  780MPD2    H311564   0.414   0.983   1.127  1.1252  0.4150 -2.7867
  780MPD2     N11565   0.097   1.029   0.812  0.4872 -0.5373 -0.0313
  780MPD2    H511566   4.736   1.008   0.793  0.0511  0.3170  1.2832
  780MPD2    N111567   0.019   0.783   1.225  0.3052  0.3335  0.1623
  780MPD2    H711568   0.067   0.756   1.310  2.4023 -1.3359 -1.5401
  781MPD2     C11569   1.655   2.281  12.220 -0.2598  0.4362  0.7152
  781MPD2    C111570   1.608   2.408  12.246 -0.6861 -0.2263 -0.0146
  781MPD2    C211571   1.626   2.502  12.146 -0.2066 -0.2674 -0.1561
  781MPD2    C311572   1.685   2.462  12.027  0.6922 -0.1939 -0.2168
  781MPD2    C411573   1.724   2.334  12.002 -0.0176  0.8625 -0.3889
  781MPD2    C511574   1.711   2.236  12.105  0.2612  0.4969 -0.5833
  781MPD2     H11575   1.606   2.606  12.172  3.7010  0.3992  0.2588
  781MPD2    H111576   1.769   2.317  11.905 -0.1694 -2.3040  0.0975
  781MPD2    H211577   1.645   2.207  12.299  0.8025 -0.6550 -0.1803
  781MPD2    H311578   1.744   2.134  12.092 -1.5185 -0.1432 -0.1580
  781MPD2     N11579   1.713   2.551  11.918 -0.0366  0.2600  0.0990
  781MPD2    H511580   1.769   2.511  11.843 -0.5940 -0.1011 -0.1317
  781MPD2    N111581   1.545   2.443  12.359 -0.1953  0.5454  0.4399
  781MPD2    H711582   1.550   2.541  12.385 -1.2650  1.1559 -1.7141
  782MPD2     C11583   4.619   2.889  10.422  0.7767  0.2035  0.2854
  782MPD2    C111584   4.736   2.834  10.455 -1.0520 -0.0382  0.5625
  782MPD2    C211585   0.078   2.906  10.539  0.3972 -1.0137 -0.5233
  782MPD2    C311586   0.049   3.033  10.583 -0.5268 -0.4679  0.4636
  782MPD2    C411587   4.665   3.085  10.537 -0.0829  0.4250 -0.3977
  782MPD2    C511588   4.577   3.013  10.463 -0.2573  0.7015 -0.4694
  782MPD2     H11589   0.169   2.869  10.586 -0.2346 -0.0653  1.4506
  782MPD2    H111590   4.619   3.182  10.549 -0.7401 -0.0173  0.6776
  782MPD2    H211591   4.550   2.844  10.352  0.5352  0.8106  0.1286
  782MPD2    H311592   4.477   3.047  10.437 -0.5540  0.0669 -0.1490
  782MPD2     N11593   0.140   3.100  10.665 -0.2866 -0.2751 -0.0577
  782MPD2    H511594   0.223   3.053  10.698  0.3073  1.4567  0.8951
  782MPD2    N111595   0.009   2.703  10.417 -0.1749 -0.3707 -0.2653
  782MPD2    H711596   4.672   2.650  10.372  0.3749 -0.7789 -0.6832
  783MPD2     C11597   4.301   2.237  10.856 -0.4876 -0.0534  0.2850
  783MPD2    C111598   4.344   2.368  10.832  0.2761  0.4068  0.0303
  783MPD2    C211599   4.455   2.390  10.763 -0.5386 -0.1565  0.2427
  783MPD2    C311600   4.529   2.290  10.714  0.2121 -0.7144 -0.8283
  783MPD2    C411601   4.484   2.162  10.736 -0.1899  0.7536  1.1311
  783MPD2    C511602   4.382   2.138  10.821 -0.3146 -0.4324 -0.3268
  783MPD2     H11603   4.494   2.491  10.758  4.1721 -1.8867  1.8821
  783MPD2    H111604   4.546   2.077  10.712 -1.4239 -0.2367  1.3972
  783MPD2    H211605   4.211   2.215  10.912 -1.9134 -0.0183 -2.0006
  783MPD2    H311606   4.359   2.036  10.850 -3.4711  1.1977  2.9419
  783MPD2     N11607   4.645   2.317  10.644 -0.1752  0.1145 -0.1252
  783MPD2    H511608   4.672   2.412  10.618  2.4699 -0.3087  1.0878
  783MPD2    N111609   4.271   2.465  10.908 -0.1008  0.5908  0.5080
  783MPD2    H711610   4.186   2.430  10.951 -0.4123 -0.4615 -0.9556
  784MPD2     C11611   2.107   4.053   0.956  0.3224  0.4168  0.3271
  784MPD2    C111612   2.069   4.128   1.059  0.0894 -0.5737 -0.8796
  784MPD2    C211613   1.934   4.170   1.068  0.5069  0.1353  0.6271
  784MPD2    C311614   1.847   4.137   0.962 -0.7568  0.5409  0.1904
  784MPD2    C411615   1.897   4.080   0.849 -0.0111 -0.5136 -0.1490
  784MPD2    C511616   2.023   4.029   0.854 -0.5179  0.1845  0.3930
  784MPD2     H11617   1.903   4.223   1.157  1.9552  0.1118  1.1403
  784MPD2    H111618   1.840   4.067   0.757  0.0602 -3.3610  0.2176
  784MPD2    H211619   2.209   4.017   0.956  0.2210  0.1185 -0.5983
  784MPD2    H311620   2.056   3.969   0.769  1.4657 -1.1748  2.1276
  784MPD2     N11621   1.713   4.178   0.973 -0.0647 -0.7236 -0.1317
  784MPD2    H511622   1.686   4.212   1.064  2.5494  2.5103 -0.5443
  784MPD2    N111623   2.156   4.164   1.168 -0.5767  0.2305 -0.1221
  784MPD2    H711624   2.132   4.230   1.241 -2.2969  0.2726 -0.7226
  785MPD2     C11625   2.845   1.349  10.686 -0.0723  0.0221 -0.1593
  785MPD2    C111626   2.766   1.435  10.756  0.3983 -0.2761  0.0638
  785MPD2    C211627   2.631   1.412  10.752  0.0281 -0.2919 -0.3258
  785MPD2    C311628   2.576   1.304  10.688 -0.8406 -0.4620 -0.3394
  785MPD2    C411629   2.660   1.209  10.634  0.1308  0.7176 -0.0801
  785MPD2    C511630   2.799   1.233  10.640  0.3468 -0.6296 -0.2033
  785MPD2     H11631   2.567   1.491  10.791 -3.8637 -1.9554 -3.3391
  785MPD2    H111632   2.627   1.110  10.604 -0.9880  1.0014  0.2341
  785MPD2    H211633   2.950   1.361  10.661  0.5917 -2.2694  1.4885
  785MPD2    H311634   2.866   1.158  10.598 -0.3701 -1.9698  1.0222
  785MPD2     N11635   2.435   1.302  10.671  0.3506  0.5258 -0.2406
  785MPD2    H511636   2.395   1.387  10.710  0.4558 -0.0232  1.0783
  785MPD2    N111637   2.803   1.561  10.799  0.3291 -0.1895 -0.1866
  785MPD2    H711638   2.734   1.625  10.838  0.3920 -0.8017  0.9440
  786MPD2     C11639   0.585   0.186  14.690  0.4384  0.6729 -0.3252
  786MPD2    C111640   0.715   0.148  14.701  0.5610 -0.7852  0.5932
  786MPD2    C211641   0.787   0.211  14.801  0.3230 -0.1136 -0.6679
  786MPD2    C311642   0.736   0.307  14.888 -0.0807  0.8198 -0.1455
  786MPD2    C411643   0.604   0.343  14.877  0.2105 -0.8535  0.0992
  786MPD2    C511644   0.530   0.282  14.776  0.0457  0.1000  0.7065
  786MPD2     H11645   0.886   0.170  14.815  0.6619  2.0550  3.2231
  786MPD2    H111646   0.554   0.418  14.937  0.7998  0.0520 -0.5312
  786MPD2    H211647   0.511   0.154  14.617  0.5120  1.2586 -0.6602
  786MPD2    H311648   0.424   0.296  14.764 -0.0064 -0.6880  0.3109
  786MPD2     N11649   0.819   0.352  14.993 -0.3060  0.6730 -0.5648
  786MPD2    H511650   0.763   0.396  15.065  0.0884 -0.0570  0.1780
  786MPD2    N111651   0.789   0.057  14.623  0.0917 -0.0531 -0.0389
  786MPD2    H711652   0.889   0.058  14.637  0.3288  1.7838 -2.0226
  787MPD2     C11653   1.288   4.483  14.838  0.0370 -0.0855  0.0894
  787MPD2    C111654   1.279   4.434  14.709 -0.0090  0.5087  1.0020
  787MPD2    C211655   1.372   4.343  14.663 -0.0957 -0.5524  0.1523
  787MPD2    C311656   1.475   4.298  14.744  0.8045  0.0919 -0.2144
  787MPD2    C411657   1.474   4.339  14.880 -0.0627 -0.3394  0.1981
  787MPD2    C511658   1.378   4.423  14.929  0.4592  0.5098  0.0824
  787MPD2     H11659   1.360   4.320  14.558 -2.2469  3.3590 -0.4829
  787MPD2    H111660   1.531   4.280  14.950 -1.3952 -0.9036  0.8082
  787MPD2    H211661   1.224   4.560  14.881 -0.3994 -0.2275 -0.3003
  787MPD2    H311662   1.370   4.438  15.036 -2.1152 -2.5934  0.3229
  787MPD2     N11663   1.571   4.212  14.692 -0.2680 -0.5652  0.2095
  787MPD2    H511664   1.573   4.186  14.594 -1.7333  0.7738 -0.1766
  787MPD2    N111665   1.172   4.483  14.633 -0.2439 -0.7896  0.6281
  787MPD2    H711666   1.120   4.553  14.686 -0.7215 -1.3932  0.9581
  788MPD2     C11667   2.814   4.230   1.259  0.0618 -0.5093 -0.2925
  788MPD2    C111668   2.750   4.140   1.175  0.1994 -0.4254 -0.5805
  788MPD2    C211669   2.659   4.193   1.082 -0.2312 -0.1424 -0.4180
  788MPD2    C311670   2.631   4.330   1.077 -0.5745 -0.5511  0.0866
  788MPD2    C411671   2.705   4.414   1.150  0.2841 -0.4228  0.0771
  788MPD2    C511672   2.805   4.364   1.236 -0.4286 -0.1008 -0.1835
  788MPD2     H11673   2.610   4.126   1.012  0.0742 -0.7293 -0.0760
  788MPD2    H111674   2.684   4.521   1.151 -2.2016 -0.9156  1.6618
  788MPD2    H211675   2.878   4.192   1.337  1.0444  0.3635 -0.6738
  788MPD2    H311676   2.860   4.426   1.306  0.8848 -0.7669 -0.6428
  788MPD2     N11677   2.544   4.382   0.977  0.4926  0.1655  0.0274
  788MPD2    H511678   2.539   4.483   0.982 -0.7512  0.1015 -0.0769
  788MPD2    N111679   2.774   4.002   1.170  0.9416  0.0197 -0.3007
  788MPD2    H711680   2.716   3.943   1.111 -1.3777  1.0792  0.9264
  789MPD2     C11681   2.759   3.450  16.326 -0.9800 -0.5329  0.0329
  789MPD2    C111682   2.808   3.418  16.450 -0.2597 -0.2036  0.7259
  789MPD2    C211683   2.718   3.408  16.552  0.0442 -0.1572  0.0315
  789MPD2    C311684   2.585   3.415  16.538 -0.0964 -0.3139  0.0165
  789MPD2    C411685   2.534   3.440  16.418 -0.3994  0.5332  0.1589
  789MPD2    C511686   2.621   3.454  16.315 -0.5672 -0.6406 -0.1089
  789MPD2     H11687   2.748   3.369  16.649  1.0492  1.0820  0.2229
  789MPD2    H111688   2.426   3.445  16.409 -0.3728 -2.3203 -1.5709
  789MPD2    H211689   2.821   3.453  16.237  0.1717 -1.2719  0.8002
  789MPD2    H311690   2.581   3.468  16.215 -0.2229  0.2774 -0.1201
  789MPD2     N11691   2.495   3.410  16.642  0.2232 -0.0557 -0.7537
  789MPD2    H511692   2.397   3.431  16.620  0.0921 -0.7824 -0.8634
  789MPD2    N111693   2.934   3.350  16.474  0.0098 -0.0452 -0.3593
  789MPD2    H711694   2.952   3.317  16.568 -1.2206  2.5709  0.7797
  790MPD2     C11695   4.422   4.297  13.615  0.4247 -0.3444 -0.1123
  790MPD2    C111696   4.456   4.230  13.504  0.7308  0.0510 -0.2474
  790MPD2    C211697   4.366   4.242  13.394 -0.0498  0.2920 -0.5255
  790MPD2    C311698   4.243   4.309  13.411 -0.2295  0.3567 -0.6791
  790MPD2    C411699   4.211   4.375  13.527  0.8178 -0.3709 -0.1500
  790MPD2    C511700   4.306   4.370  13.627 -0.6040 -0.1741 -0.1304
  790MPD2     H11701   4.387   4.205  13.294 -0.7758  0.9001 -0.9059
  790MPD2    H111702   4.115   4.420  13.546 -0.6225 -2.9821 -1.2266
  790MPD2    H211703   4.486   4.295  13.702  0.5994  0.2064 -0.2276
  790MPD2    H311704   4.293   4.426  13.719  0.4703 -2.2983  1.3056
  790MPD2     N11705   4.167   4.318  13.291  0.1893  0.6730 -0.5094
  790MPD2    H511706   4.198   4.261  13.212  0.1530  0.5836 -0.4590
  790MPD2    N111707   4.580   4.162  13.507 -0.8074 -0.1815 -0.2455
  790MPD2    H711708   4.640   4.165  13.589 -0.5054  1.4556 -0.5268
  791MPD2     C11709   3.403   4.171  13.192 -0.6253 -0.9104 -0.2240
  791MPD2    C111710   3.476   4.177  13.075  0.3961 -0.3463 -0.2858
  791MPD2    C211711   3.417   4.121  12.958  0.6696  0.2491 -0.3305
  791MPD2    C311712   3.282   4.090  12.953 -0.0289 -0.7252 -0.1000
  791MPD2    C411713   3.211   4.096  13.071 -0.6774 -0.0628  1.1773
  791MPD2    C511714   3.271   4.137  13.189 -0.5828 -0.9307 -0.8979
  791MPD2     H11715   3.464   4.106  12.861 -1.9057 -1.7029 -1.2681
  791MPD2    H111716   3.110   4.056  13.077 -0.3855 -1.1849 -1.2899
  791MPD2    H211717   3.441   4.205  13.287  0.9467 -0.7600 -0.9013
  791MPD2    H311718   3.215   4.148  13.282 -0.4941 -0.5916 -0.8840
  791MPD2     N11719   3.227   4.043  12.831  0.3570  0.0496 -0.1989
  791MPD2    H511720   3.293   4.028  12.756  0.2049 -1.4318 -0.0406
  791MPD2    N111721   3.612   4.220  13.080 -0.2494 -0.3350 -0.8005
  791MPD2    H711722   3.656   4.229  13.171 -1.4529 -0.4232 -0.2103
  792MPD2     C11723   4.464   3.798  11.059  0.0472 -0.2912 -0.1769
  792MPD2    C111724   4.375   3.899  11.060 -0.0578 -0.3052  0.2229
  792MPD2    C211725   4.249   3.877  11.023 -0.2060  0.5626 -1.1213
  792MPD2    C311726   4.207   3.755  10.977  0.2366 -0.1036  0.3260
  792MPD2    C411727   4.298   3.656  10.970 -0.0291 -0.8033 -0.2277
  792MPD2    C511728   4.427   3.679  11.006 -0.9985  0.2691 -0.3981
  792MPD2     H11729   4.175   3.956  11.031  0.6105  1.1209  0.9082
  792MPD2    H111730   4.268   3.555  10.945  3.5272 -1.8097 -0.3992
  792MPD2    H211731   4.569   3.814  11.081  0.1525  0.7762 -1.4538
  792MPD2    H311732   4.498   3.597  11.003  0.2019  1.3073 -0.1034
  792MPD2     N11733   4.069   3.714  10.946 -0.1688  0.3519  0.2016
  792MPD2    H511734   4.064   3.616  10.924  2.1139  0.8549 -2.4666
  792MPD2    N111735   4.435   4.021  11.103 -0.0519  0.0456  0.4942
  792MPD2    H711736   4.530   4.010  11.137 -0.6426 -3.2272  1.0327
  793MPD2     C11737   3.446   4.167  10.469  0.1387 -0.4561 -0.3929
  793MPD2    C111738   3.568   4.111  10.441  0.5087 -0.4617  0.6258
  793MPD2    C211739   3.620   4.016  10.527 -0.0518 -0.1721  0.2107
  793MPD2    C311740   3.535   3.964  10.627 -0.3590 -0.4593 -0.5542
  793MPD2    C411741   3.407   4.009  10.639  0.4922  0.7415 -0.2411
  793MPD2    C511742   3.367   4.110  10.560  0.7820  0.3723  0.0896
  793MPD2     H11743   3.723   3.986  10.511  0.3222  0.5009  1.3344
  793MPD2    H111744   3.330   3.961  10.699  2.4151 -0.3363  1.3393
  793MPD2    H211745   3.405   4.250  10.412  1.2654  0.0272 -0.4874
  793MPD2    H311746   3.268   4.153  10.574  0.9980  0.7128  0.5845
  793MPD2     N11747   3.579   3.868  10.713 -0.4177  0.1448  0.1775
  793MPD2    H511748   3.678   3.846  10.707 -0.4649  0.5922 -2.1757
  793MPD2    N111749   3.642   4.144  10.330 -0.6419  0.2266 -0.1879
  793MPD2    H711750   3.734   4.104  10.316 -0.2490  1.5800 -1.5093
  794MPD2     C11751   3.726   3.656  16.772  0.3529  1.0111 -0.5314
  794MPD2    C111752   3.606   3.678  16.828 -0.4801  0.9797 -0.5611
  794MPD2    C211753   3.488   3.715  16.761 -0.2575  0.2302  0.0734
  794MPD2    C311754   3.513   3.760  16.633  0.0176 -0.8142 -1.1890
  794MPD2    C411755   3.634   3.749  16.573  1.0118  0.1577  0.4110
  794MPD2    C511756   3.743   3.695  16.641 -0.0181 -0.1839  1.1360
  794MPD2     H11757   3.394   3.727  16.813 -0.5431 -1.1758 -0.1135
  794MPD2    H111758   3.652   3.778  16.470 -0.5839 -0.5196 -0.0503
  794MPD2    H211759   3.817   3.633  16.826 -0.2682  0.3846  0.2513
  794MPD2    H311760   3.841   3.690  16.594 -0.7946  3.3693 -0.8845
  794MPD2     N11761   3.417   3.827  16.552 -0.0491  0.1141  0.3356
  794MPD2    H511762   3.446   3.855  16.459 -0.5047 -0.1481  0.1172
  794MPD2    N111763   3.593   3.650  16.973  0.2991  0.4303 -0.2203
  794MPD2    H711764   3.498   3.646  17.007  0.3425 -3.2568 -0.4903
  795MPD2     C11765   1.762   1.523  13.463  0.3061 -0.0895  0.2318
  795MPD2    C111766   1.692   1.402  13.455 -0.3737 -0.0073  0.3868
  795MPD2    C211767   1.762   1.290  13.491  0.3473 -0.1501 -0.3089
  795MPD2    C311768   1.893   1.294  13.541  0.2234  0.3811 -0.0288
  795MPD2    C411769   1.948   1.416  13.556 -0.1434  0.6940  0.1778
  795MPD2    C511770   1.888   1.532  13.518 -0.0113 -0.2675 -1.1047
  795MPD2     H11771   1.710   1.196  13.473  0.0248  0.1865 -1.1164
  795MPD2    H111772   2.045   1.426  13.602  0.2527 -0.3191 -0.4464
  795MPD2    H211773   1.715   1.614  13.428  1.3429  0.1697 -0.4969
  795MPD2    H311774   1.920   1.634  13.530 -1.8581  0.1830 -0.0604
  795MPD2     N11775   1.965   1.190  13.585 -0.7542 -0.0791 -0.2254
  795MPD2    H511776   2.059   1.216  13.612 -0.5795 -1.5832  0.6437
  795MPD2    N111777   1.563   1.388  13.395 -0.3583  0.0154  0.2599
  795MPD2    H711778   1.532   1.292  13.382  1.2597 -0.9959  3.8241
  796MPD2     C11779   0.953   3.130  15.887  0.0764 -0.1994  0.1328
  796MPD2    C111780   0.922   3.216  15.986 -0.3723  1.0355 -0.2621
  796MPD2    C211781   0.875   3.347  15.954 -0.3079 -0.2748 -0.6833
  796MPD2    C311782   0.845   3.374  15.829 -0.6201 -0.4118 -0.1014
  796MPD2    C411783   0.873   3.282  15.724  0.5161  0.3860 -0.4992
  796MPD2    C511784   0.927   3.161  15.758 -0.6289  0.1063  0.7662
  796MPD2     H11785   0.867   3.423  16.031  0.0457 -1.6747  0.7458
  796MPD2    H111786   0.852   3.297  15.619 -2.5172  0.9589  0.2026
  796MPD2    H211787   0.988   3.031  15.917 -2.4094 -1.0288  0.3077
  796MPD2    H311788   0.945   3.091  15.677 -2.4214 -1.0227  1.3259
  796MPD2     N11789   0.774   3.491  15.801 -0.5025 -0.2697 -0.0590
  796MPD2    H511790   0.752   3.557  15.875 -0.5484  1.5852 -1.7388
  796MPD2    N111791   0.956   3.177  16.124  0.3058  0.7348 -0.1783
  796MPD2    H711792   0.977   3.078  16.132  0.7705  0.7008 -1.8025
  797MPD2     C11793   2.593   3.130  17.015 -0.0699 -0.4659  0.3550
  797MPD2    C111794   2.492   3.074  17.080  0.3185  0.8029  1.4954
  797MPD2    C211795   2.426   2.971  17.021  0.6237 -0.3376 -0.7536
  797MPD2    C311796   2.455   2.916  16.894 -0.0575 -0.2888  0.1247
  797MPD2    C411797   2.566   2.968  16.837 -0.3875 -0.0602  0.3175
  797MPD2    C511798   2.625   3.081  16.890 -0.0761 -0.0403  0.0235
  797MPD2     H11799   2.339   2.928  17.070  0.7413  2.0832  1.5252
  797MPD2    H111800   2.599   2.928  16.742  1.8851 -0.7911  1.3969
  797MPD2    H211801   2.647   3.215  17.057 -3.5113  1.8248  0.1669
  797MPD2    H311802   2.713   3.127  16.846 -1.8318  2.7020 -0.6366
  797MPD2     N11803   2.368   2.825  16.832  0.6209  0.6692 -0.3755
  797MPD2    H511804   2.289   2.807  16.893  0.6383 -0.5526 -0.7138
  797MPD2    N111805   2.439   3.132  17.195 -0.0996  1.0209 -0.0989
  797MPD2    H711806   2.351   3.089  17.219  0.4323 -0.0804 -0.1108
  798MPD2     C11807   1.759   2.960  17.176 -0.0522  0.1187 -0.2471
  798MPD2    C111808   1.883   2.915  17.144  0.0680  0.2561  0.6742
  798MPD2    C211809   1.985   2.935  17.238 -0.4277  0.2079  0.0506
  798MPD2    C311810   1.965   3.024  17.344  0.7083  0.3634  0.6506
  798MPD2    C411811   1.838   3.073  17.368  0.7577 -0.2539  0.2572
  798MPD2    C511812   1.737   3.031  17.286 -0.0857  0.0060  0.1115
  798MPD2     H11813   2.087   2.908  17.216  0.2195  0.1567  3.0416
  798MPD2    H111814   1.813   3.134  17.454 -1.8703  0.7922 -1.2579
  798MPD2    H211815   1.670   2.952  17.116 -0.2731 -0.2508  0.1291
  798MPD2    H311816   1.644   3.079  17.314  1.0786  2.3938 -0.0392
  798MPD2     N11817   2.080   3.054  17.425 -0.3850 -0.5493  0.5906
  798MPD2    H511818   2.172   3.025  17.393 -0.2246  1.1094 -0.4185
  798MPD2    N111819   1.900   2.851  17.018 -0.0331  0.1585 -0.4043
  798MPD2    H711820   1.821   2.833  16.957 -0.7818  0.7509  0.3987
  799MPD2     C11821   1.146   3.956  14.819  0.1338  0.5157  0.1319
  799MPD2    C111822   1.090   3.859  14.741 -0.3963 -0.2133  0.1226
  799MPD2    C211823   1.041   3.897  14.611 -1.3238 -0.0143  0.3888
  799MPD2    C311824   1.042   4.037  14.571  0.6698  0.4329  0.3794
  799MPD2    C411825   1.099   4.123  14.655  0.9873  0.2602 -0.5930
  799MPD2    C511826   1.156   4.084  14.769  0.0049 -0.0471  0.1757
  799MPD2     H11827   1.008   3.818  14.545  1.1851  0.0882 -0.9758
  799MPD2    H111828   1.107   4.228  14.632 -0.9995 -0.0512 -2.6757
  799MPD2    H211829   1.192   3.935  14.915  0.7270 -0.2530 -0.3211
  799MPD2    H311830   1.206   4.159  14.829 -1.4440 -0.2864  1.7006
  799MPD2     N11831   0.992   4.084  14.453 -0.1463  0.0042  0.0808
  799MPD2    H511832   1.018   4.179  14.427  0.7987  0.2892  2.1218
  799MPD2    N111833   1.088   3.722  14.770 -0.0525 -0.7417  0.4648
  799MPD2    H711834   1.040   3.666  14.701 -0.7234  1.5867 -0.9781
  800MPD2     C11835   1.059   0.346  13.802 -0.6895 -0.1922 -0.3837
  800MPD2    C111836   1.156   0.317  13.899  0.0862  0.7483 -0.7307
  800MPD2    C211837   1.232   0.203  13.880  0.1333  0.3985  0.4051
  800MPD2    C311838   1.229   0.128  13.764 -0.1114 -0.1728  0.2315
  800MPD2    C411839   1.142   0.171  13.663  0.2172  0.0523 -0.0305
  800MPD2    C511840   1.053   0.274  13.681 -0.7732 -0.4783 -0.1748
  800MPD2     H11841   1.311   0.176  13.949  1.3708 -0.9834 -1.5334
  800MPD2    H111842   1.139   0.120  13.568  2.1386 -1.5080  0.7437
  800MPD2    H211843   1.000   0.437  13.809 -0.2479  0.0253  0.6046
  800MPD2    H311844   0.992   0.305  13.597  0.3356 -0.3181 -0.9134
  800MPD2     N11845   1.326   0.029  13.749 -0.5843 -0.2309  0.1669
  800MPD2    H511846   1.383   0.024  13.833 -1.2932  1.4050  0.7468
  800MPD2    N111847   1.172   0.400  14.010 -0.5851 -0.2952  0.0857
  800MPD2    H711848   1.102   0.472  14.023  0.9962  1.0425  1.0147
  801MPD2     C11849   1.403   1.135  14.133  0.1049 -0.0160  0.2347
  801MPD2    C111850   1.384   1.067  14.248  0.2125  0.7822  1.1686
  801MPD2    C211851   1.409   1.134  14.368  0.3191  0.3090  0.2648
  801MPD2    C311852   1.445   1.268  14.368  0.0330  0.2459  0.0133
  801MPD2    C411853   1.444   1.339  14.250  0.0811  0.2115  0.1968
  801MPD2    C511854   1.419   1.271  14.137  0.1025 -0.1185  0.0535
  801MPD2     H11855   1.381   1.076  14.456 -0.7442 -0.7133 -0.7604
  801MPD2    H111856   1.472   1.443  14.243 -0.4490  0.3942  0.7680
  801MPD2    H211857   1.396   1.085  14.037  0.5286 -1.0097  0.7302
  801MPD2    H311858   1.427   1.328  14.045 -0.4151  0.0850  0.1353
  801MPD2     N11859   1.496   1.338  14.478 -0.6485  0.2400 -0.2449
  801MPD2    H511860   1.494   1.438  14.465 -1.1271  0.1709 -0.7036
  801MPD2    N111861   1.344   0.928  14.262  0.0432  0.2968 -0.5945
  801MPD2    H711862   1.327   0.896  14.357 -3.5824  0.0945 -1.3077
  802MPD2     C11863   1.191   1.321   0.377 -0.1470 -0.3722 -0.3847
  802MPD2    C111864   1.107   1.372   0.279 -0.1471  0.3160 -0.0436
  802MPD2    C211865   1.092   1.306   0.158 -0.3864  0.4621  0.5255
  802MPD2    C311866   1.160   1.186   0.124 -0.0283 -0.5983 -0.0069
  802MPD2    C411867   1.241   1.139   0.222  0.1780 -0.2114 -0.1363
  802MPD2    C511868   1.248   1.198   0.349 -0.0133 -0.1106  0.5423
  802MPD2     H11869   1.020   1.344   0.087  1.6851  1.1377 -1.2092
  802MPD2    H111870   1.301   1.050   0.203  1.0414  0.3085  0.1717
  802MPD2    H211871   1.185   1.362   0.477  1.5021  0.3433 -0.5818
  802MPD2    H311872   1.305   1.141   0.421 -0.6120  0.3359  1.3642
  802MPD2     N11873   1.147   1.130  17.743 -0.3996  0.0473  1.1154
  802MPD2    H511874   1.101   1.190  17.675 -1.5436 -0.1152  1.7392
  802MPD2    N111875   1.027   1.484   0.312 -0.0800 -0.1433 -0.6175
  802MPD2    H711876   0.953   1.509   0.248  0.3293  0.2686 -0.9293
  803MPD2     C11877   1.900   0.098  12.026  0.0703 -0.0479  0.5886
  803MPD2    C111878   2.015   0.025  12.015 -0.3858  0.6159 -0.0063
  803MPD2    C211879   2.049   4.661  12.104 -1.2067 -1.1533  0.0997
  803MPD2    C311880   1.970   4.641  12.217 -0.3558 -0.6271 -0.5129
  803MPD2    C411881   1.859   4.723  12.232 -0.4522  0.7087 -0.2031
  803MPD2    C511882   1.822   0.080  12.138  0.6228 -0.3277  0.3147
  803MPD2     H11883   2.140   4.602  12.095  0.7636  2.0287 -0.9380
  803MPD2    H111884   1.798   4.719  12.321  0.6137 -0.1604  0.4802
  803MPD2    H211885   1.873   0.180  11.960 -3.3532 -3.2092 -1.9441
  803MPD2    H311886   1.735   0.144  12.140  0.3968 -0.6033 -0.9892
  803MPD2     N11887   1.992   4.535  12.311  0.0246  0.5992 -0.1565
  803MPD2    H511888   1.935   4.526  12.395 -0.1381  2.4783 -0.0764
  803MPD2    N111889   2.092   0.032  11.896 -0.3773  0.4506  0.4884
  803MPD2    H711890   2.175   4.711  11.899  0.0706  1.0884  0.3490
  804MPD2     C11891   1.416   0.892  17.231  0.6108  0.0169 -0.5911
  804MPD2    C111892   1.437   0.839  17.359  1.0060  0.2791 -0.3087
  804MPD2    C211893   1.476   0.914  17.464  0.0409  0.0928 -0.1446
  804MPD2    C311894   1.506   1.048  17.440  0.0206 -0.1928  0.1825
  804MPD2    C411895   1.483   1.102  17.310 -0.5309 -0.5001 -0.3412
  804MPD2    C511896   1.440   1.027  17.203  0.8870  0.1188 -0.0088
  804MPD2     H11897   1.481   0.874  17.565 -1.2588 -0.1313 -0.1681
  804MPD2    H111898   1.504   1.207  17.292  0.6887 -0.7444 -0.3637
  804MPD2    H211899   1.394   0.833  17.143 -2.1065  1.2175 -0.7204
  804MPD2    H311900   1.421   1.059  17.101 -1.9447  0.0248  0.4987
  804MPD2     N11901   1.538   1.122  17.552  0.6362  0.0336  0.1388
  804MPD2    H511902   1.576   1.069  17.630  0.8641 -2.4914 -1.7067
  804MPD2    N111903   1.394   0.705  17.388  0.3289  0.1567  0.7975
  804MPD2    H711904   1.391   0.691  17.489  0.8968 -0.2526  0.7570
  805MPD2     C11905   0.761   4.419  15.616 -0.7202 -0.1022  0.1570
  805MPD2    C111906   0.858   4.338  15.559 -0.4984 -0.3909 -0.1120
  805MPD2    C211907   0.976   4.332  15.630 -0.1102 -0.1694  0.5241
  805MPD2    C311908   0.993   4.389  15.757  0.4929  0.2970  0.1190
  805MPD2    C411909   0.890   4.471  15.815  0.4939  0.4482  0.1620
  805MPD2    C511910   0.780   4.488  15.732  0.5937 -0.1353 -0.2828
  805MPD2     H11911   1.052   4.266  15.590  0.1932  0.3992  0.1453
  805MPD2    H111912   0.895   4.537  15.901 -0.4704  1.0351 -0.2287
  805MPD2    H211913   0.687   4.449  15.543  0.6469  1.9108 -0.3867
  805MPD2    H311914   0.698   4.548  15.770  0.0377  0.1902 -1.9973
  805MPD2     N11915   1.117   4.372  15.816  0.6590  0.1380 -0.3738
  805MPD2    H511916   1.187   4.324  15.760 -0.9073 -1.5170 -0.8658
  805MPD2    N111917   0.835   4.271  15.437  0.0939 -0.4659 -0.6921
  805MPD2    H711918   0.925   4.243  15.399 -0.4206 -1.8662 -0.8529
  806MPD2     C11919   1.196   3.557   0.640 -0.8709  0.0312 -0.7746
  806MPD2    C111920   1.114   3.643   0.707  0.3238  0.5259  0.3749
  806MPD2    C211921   1.127   3.781   0.683  0.3371  0.4845 -0.2790
  806MPD2    C311922   1.200   3.832   0.581  0.2088 -0.1718 -0.2286
  806MPD2    C411923   1.273   3.742   0.504 -0.3346  0.4392 -0.6155
  806MPD2    C511924   1.280   3.611   0.544 -0.6114 -0.1898 -0.3706
  806MPD2     H11925   1.074   3.853   0.744  0.3564 -0.0087  0.3205
  806MPD2    H111926   1.341   3.777   0.427  0.3233  0.3872 -0.0541
  806MPD2    H211927   1.193   3.451   0.663  1.9335  0.0165 -0.5691
  806MPD2    H311928   1.353   3.551   0.490 -1.2633  0.3245 -1.8126
  806MPD2     N11929   1.190   3.968   0.552  0.1465  0.1419 -0.2448
  806MPD2    H511930   1.172   4.027   0.633 -0.4803 -0.9075  0.3762
  806MPD2    N111931   1.030   3.595   0.812 -0.4414  0.6558  0.2705
  806MPD2    H711932   1.049   3.500   0.843  0.5363  0.9038  0.4517
  807MPD2     C11933   0.996   3.103   1.372 -0.1719  0.7980  0.5987
  807MPD2    C111934   0.879   3.183   1.397  0.9038  0.0827  0.2633
  807MPD2    C211935   0.783   3.139   1.482 -0.1215 -0.3681  0.2606
  807MPD2    C311936   0.795   3.016   1.541 -0.5481  0.3383  0.3626
  807MPD2    C411937   0.904   2.933   1.519  0.1518 -0.5016 -0.3043
  807MPD2    C511938   1.005   2.979   1.435 -0.4912 -0.3419 -0.0972
  807MPD2     H11939   0.684   3.182   1.493 -0.8192 -2.0668  0.6534
  807MPD2    H111940   0.923   2.836   1.563 -1.3021 -0.8549 -0.4752
  807MPD2    H211941   1.076   3.131   1.305  0.7521 -0.6630  1.0806
  807MPD2    H311942   1.094   2.921   1.412 -0.5672 -0.7398  0.6190
  807MPD2     N11943   0.693   2.972   1.620  0.3108  0.5819  0.2092
  807MPD2    H511944   0.603   3.019   1.616  0.3850  0.6481 -0.6091
  807MPD2    N111945   0.852   3.305   1.328  0.5614 -0.5786  0.5818
  807MPD2    H711946   0.781   3.365   1.368  0.9795  0.4167 -0.1639
  808MPD2     C11947   2.206   4.708  10.452  0.0245  0.1089 -0.5266
  808MPD2    C111948   2.098   0.051  10.470  0.0441  0.3446 -0.0513
  808MPD2    C211949   2.128   0.182  10.504  0.3463  0.1712 -0.5299
  808MPD2    C311950   2.260   0.234  10.513 -0.0392  0.4018 -0.7586
  808MPD2    C411951   2.364   0.150  10.496  0.8494  0.3562 -0.5166
  808MPD2    C511952   2.337   0.017  10.462  0.4043  1.0960  0.3594
  808MPD2     H11953   2.045   0.252  10.502  0.8408  0.7716  0.4297
  808MPD2    H111954   2.467   0.176  10.515  0.9851  0.4907 -1.4333
  808MPD2    H211955   2.190   4.603  10.430 -2.8621  0.2882  0.7487
  808MPD2    H311956   2.417   4.682  10.451 -0.6495 -0.4263  2.7677
  808MPD2     N11957   2.296   0.369  10.542 -0.3904 -0.5824  0.4407
  808MPD2    H511958   2.394   0.395  10.534 -0.7198  0.6414  0.3545
  808MPD2    N111959   1.964   0.012  10.446  0.3219  0.2834  0.1636
  808MPD2    H711960   1.884   0.072  10.465  1.0664  1.7768 -1.3662
  809MPD2     C11961   2.772   1.105  10.103 -0.4680 -0.0567  0.3503
  809MPD2    C111962   2.747   0.970  10.093  0.0855  0.6820  0.0500
  809MPD2    C211963   2.665   0.907  10.187  0.3749 -0.1128 -0.7630
  809MPD2    C311964   2.609   0.976  10.294  0.1974 -0.5180  1.0753
  809MPD2    C411965   2.629   1.114  10.297  1.0518 -0.1279 -0.0592
  809MPD2    C511966   2.715   1.174  10.208  0.3438  0.2790 -0.0576
  809MPD2     H11967   2.654   0.799  10.183  2.1038 -0.2260 -2.1436
  809MPD2    H111968   2.575   1.174  10.370  0.4699 -0.2160 -0.4186
  809MPD2    H211969   2.848   1.155  10.044  0.6688 -1.1306  0.9209
  809MPD2    H311970   2.751   1.276  10.212  1.6054 -0.2456  2.4152
  809MPD2     N11971   2.533   0.917  10.396 -0.3257  0.1671  0.3772
  809MPD2    H511972   2.477   0.978  10.454 -1.0578 -0.9809  0.8933
  809MPD2    N111973   2.805   0.885   9.998  0.5797  0.3761  0.0501
  809MPD2    H711974   2.790   0.785  10.012 -0.3419  0.4608 -0.3471
  810MPD2     C11975   1.426   4.035  11.008 -0.2974  0.0417 -0.5119
  810MPD2    C111976   1.465   4.139  10.932  0.7647 -0.5181  0.4923
  810MPD2    C211977   1.436   4.271  10.972 -0.4275 -0.2751 -0.9220
  810MPD2    C311978   1.369   4.292  11.093  0.1649  0.2405 -0.6144
  810MPD2    C411979   1.333   4.193  11.177 -0.6319 -0.5099  0.0138
  810MPD2    C511980   1.354   4.066  11.128 -0.3706 -0.6680  0.1766
  810MPD2     H11981   1.468   4.347  10.901  1.3433 -0.3784 -0.2234
  810MPD2    H111982   1.272   4.218  11.263 -1.4431 -0.8057 -0.4817
  810MPD2    H211983   1.442   3.932  10.979  1.0957  0.3166 -0.7108
  810MPD2    H311984   1.304   3.987  11.183  0.8707 -0.4458  1.6204
  810MPD2     N11985   1.320   4.420  11.114 -0.1407  0.2771  0.2746
  810MPD2    H511986   1.236   4.439  11.167 -0.7171 -1.3293 -0.0720
  810MPD2    N111987   1.532   4.123  10.805 -0.3587 -0.3881 -0.4304
  810MPD2    H711988   1.538   4.208  10.749 -0.7248 -0.2561 -0.2700
  811MPD2     C11989   1.041   4.314  10.215  0.8696 -0.2023  0.1616
  811MPD2    C111990   1.130   4.338  10.321 -0.6144 -0.8442  0.5139
  811MPD2    C211991   1.122   4.470  10.378  0.2168 -0.1265 -0.2719
  811MPD2    C311992   1.031   4.561  10.329  0.4940 -0.4163 -0.0353
  811MPD2    C411993   0.944   4.532  10.230  1.0761  0.3527 -0.2532
  811MPD2    C511994   0.959   4.412  10.163  0.0584 -0.0029  0.2540
  811MPD2     H11995   1.184   4.499  10.462  1.3361 -1.0554 -0.7730
  811MPD2    H111996   0.872   4.603  10.190  0.4580  0.1080  0.4341
  811MPD2    H211997   1.030   4.213  10.178  3.0789 -0.4543  0.2082
  811MPD2    H311998   0.903   4.386  10.074  1.0018  0.4577 -0.4660
  811MPD2     N11999   1.024   4.689  10.389  0.3535 -0.2592 -0.3738
  811MPD2    H512000   1.092   4.713  10.460 -1.4593  2.0444  0.5443
  811MPD2    N112001   1.211   4.225  10.362  0.4967  0.3230 -0.4762
  811MPD2    H712002   1.203   4.138  10.311  4.4900 -0.1428 -0.3315
  812MPD2     C12003   4.692   4.404  11.996 -0.0520 -0.6812  0.4399
  812MPD2    C112004   0.003   4.484  12.103  0.2058 -0.4175  0.8153
  812MPD2    C212005   0.052   4.422  12.212  0.1325 -0.4080 -0.1167
  812MPD2    C312006   0.038   4.285  12.224  0.2806 -0.0833 -0.0499
  812MPD2    C412007   4.724   4.213  12.121 -0.2305  0.1269 -0.1950
  812MPD2    C512008   4.685   4.270  12.005  0.2364 -0.2417  0.2915
  812MPD2     H12009   0.105   4.483  12.285 -0.5054  0.4196 -0.3515
  812MPD2    H112010   4.711   4.108  12.140 -0.2089  0.1358 -0.1316
  812MPD2    H212011   4.640   4.441  11.908  0.9879 -0.8776 -0.2613
  812MPD2    H312012   4.641   4.203  11.932  0.7121  0.2174 -0.4183
  812MPD2     N12013   0.082   4.226  12.347 -0.1100  0.2569 -0.3503
  812MPD2    H512014   0.114   4.292  12.417  0.4103 -2.9345  2.3857
  812MPD2    N112015   0.010   4.618  12.071  0.3449 -0.1685 -0.0269
  812MPD2    H712016   4.732   4.651  11.976 -0.8578 -0.7325 -0.0308
  813MPD2     C12017   4.009   1.573  12.898 -0.0966 -0.2604 -0.8241
  813MPD2    C112018   3.990   1.697  12.946 -0.9417  0.4069 -0.0464
  813MPD2    C212019   3.860   1.729  12.983 -0.4034 -0.6816 -0.2535
  813MPD2    C312020   3.756   1.644  12.965  0.1679 -0.1704 -0.1170
  813MPD2    C412021   3.782   1.527  12.905  0.4089  0.2148  0.2673
  813MPD2    C512022   3.902   1.485  12.878  0.0621  0.2015 -0.0199
  813MPD2     H12023   3.844   1.825  13.032  0.1955 -1.3250  1.2237
  813MPD2    H112024   3.712   1.450  12.875  0.8437  0.5125 -1.5132
  813MPD2    H212025   4.106   1.551  12.853  0.9441 -0.1669  1.3867
  813MPD2    H312026   3.916   1.389  12.830  0.1495  0.2215 -0.0333
  813MPD2     N12027   3.630   1.690  13.013  0.0787  0.6184 -0.7604
  813MPD2    H512028   3.617   1.785  13.047 -0.2672  0.1697  0.3764
  813MPD2    N112029   4.097   1.792  12.965 -0.1308 -0.8921 -0.4887
  813MPD2    H712030   4.078   1.881  13.011 -1.3323 -1.2657 -0.2792
  814MPD2     C12031   4.335   2.917  12.401 -0.2688 -0.3212 -0.0497
  814MPD2    C112032   4.346   2.959  12.267 -0.4176  0.1803 -0.5575
  814MPD2    C212033   4.402   3.086  12.233  0.2818  0.1909 -0.4418
  814MPD2    C312034   4.454   3.164  12.336 -0.1655 -0.1074 -0.4143
  814MPD2    C412035   4.441   3.119  12.468 -0.1319  0.5605  0.3661
  814MPD2    C512036   4.382   3.004  12.500  0.0127  0.9451 -0.3765
  814MPD2     H12037   4.415   3.123  12.133  0.1997 -0.2060 -0.5992
  814MPD2    H112038   4.469   3.189  12.545 -2.2796  1.6763  0.1435
  814MPD2    H212039   4.300   2.817  12.425 -0.6109 -0.4450 -1.0866
  814MPD2    H312040   4.376   2.971  12.603  1.8854 -0.0955 -0.6009
  814MPD2     N12041   4.523   3.287  12.320  0.1462  0.3595  0.0932
  814MPD2    H512042   4.551   3.335  12.405 -0.5018  1.0226 -0.0784
  814MPD2    N112043   4.315   2.866  12.163  0.4529  0.3370 -0.1738
  814MPD2    H712044   4.335   2.903  12.071  0.3981 -0.2448 -0.4185
  815MPD2     C12045   0.440   0.583  12.496 -0.6174  0.3631  0.1099
  815MPD2    C112046   0.341   0.592  12.398  0.0989  0.0368  0.0009
  815MPD2    C212047   0.232   0.676  12.431 -0.6265  0.7574 -0.4012
  815MPD2    C312048   0.224   0.749  12.546  0.1424  0.9954  0.3042
  815MPD2    C412049   0.318   0.739  12.647 -0.4598  0.5508 -0.5010
  815MPD2    C512050   0.419   0.644  12.621  0.3114  0.1107 -0.4582
  815MPD2     H12051   0.150   0.698  12.364 -1.2530  1.8415  0.7138
  815MPD2    H112052   0.311   0.791  12.742  1.4112  0.8212 -0.5067
  815MPD2    H212053   0.526   0.518  12.484 -0.3092  0.5509  1.3539
  815MPD2    H312054   0.475   0.634  12.713 -0.7529  0.5405  0.2358
  815MPD2     N12055   0.103   0.819  12.566 -0.6972 -0.1039  0.1042
  815MPD2    H512056   0.037   0.819  12.489 -0.3258  1.8161 -0.2096
  815MPD2    N112057   0.359   0.525  12.276  0.0055  0.2088  0.1426
  815MPD2    H712058   0.439   0.466  12.258  0.7246  0.6457  1.9107
  816MPD2     C12059   0.484   0.679  17.479 -0.2651  0.7771  0.1215
  816MPD2    C112060   0.374   0.635  17.402 -0.1699 -0.4670  0.0191
  816MPD2    C212061   0.397   0.590  17.271  0.3330 -0.2852  0.3819
  816MPD2    C312062   0.519   0.579  17.216  0.2829  0.9272 -0.2692
  816MPD2    C412063   0.628   0.607  17.300 -0.1502 -0.6747  0.0530
  816MPD2    C512064   0.608   0.646  17.426 -1.1697  1.0162  0.6820
  816MPD2     H12065   0.314   0.567  17.205  1.5507  1.4121 -1.7398
  816MPD2    H112066   0.727   0.593  17.257 -0.9322  1.3077 -2.3912
  816MPD2    H212067   0.478   0.729  17.575  0.0485  0.5334  0.2673
  816MPD2    H312068   0.697   0.647  17.487 -0.4297 -1.4474 -0.3821
  816MPD2     N12069   0.533   0.544  17.078 -0.4542  0.3032 -0.1540
  816MPD2    H512070   0.457   0.495  17.032  1.2266 -2.9759  0.5785
  816MPD2    N112071   0.245   0.658  17.456  0.2579  0.1284  0.5824
  816MPD2    H712072   0.240   0.736  17.521  0.4965 -0.9085  1.8416
  817MPD2     C12073   4.237   1.759  10.163  0.6428 -0.1379 -0.0446
  817MPD2    C112074   4.277   1.737  10.034  0.0099 -0.0146 -0.3336
  817MPD2    C212075   4.212   1.801   9.932  0.1390  0.6315  0.2415
  817MPD2    C312076   4.121   1.902   9.959 -0.1176 -0.7883  0.3907
  817MPD2    C412077   4.084   1.922  10.093 -0.2201  0.0655  0.1987
  817MPD2    C512078   4.125   1.833  10.187 -0.2207 -0.7397  0.4247
  817MPD2     H12079   4.246   1.785   9.830 -0.3879 -1.3949  0.3690
  817MPD2    H112080   4.018   1.999  10.132 -0.9808 -1.2411  1.4862
  817MPD2    H212081   4.270   1.693  10.243  1.0618  0.3539  0.1856
  817MPD2    H312082   4.080   1.828  10.285  0.4678  0.0645  0.7828
  817MPD2     N12083   4.089   1.984   9.854 -0.0228  0.6627 -0.1192
  817MPD2    H512084   4.122   1.958   9.761  0.7282  0.5751  0.1744
  817MPD2    N112085   4.378   1.642  10.006 -0.0519 -0.0499  0.2632
  817MPD2    H712086   4.399   1.623   9.909 -1.0013  0.3740 -0.0314
  818MPD2     C12087   3.543   1.503  10.107 -0.3223 -0.4882 -0.7546
  818MPD2    C112088   3.491   1.425  10.204  1.0535  0.1562  0.1254
  818MPD2    C212089   3.503   1.288  10.198 -0.0592  0.4850 -0.2291
  818MPD2    C312090   3.548   1.220  10.092  0.8148  0.5780 -0.5682
  818MPD2    C412091   3.596   1.299   9.987 -0.3394  0.6361 -0.6392
  818MPD2    C512092   3.591   1.434  10.000  0.6907 -0.2985 -0.4535
  818MPD2     H12093   3.475   1.237  10.290 -1.4097  1.7540  0.0463
  818MPD2    H112094   3.623   1.260   9.889 -0.6434  1.3958 -1.0280
  818MPD2    H212095   3.550   1.611  10.111 -0.4848 -0.4934 -0.3588
  818MPD2    H312096   3.624   1.492   9.915 -1.3420  0.3198 -0.8223
  818MPD2     N12097   3.564   1.084  10.079 -0.4290  0.2342 -0.2028
  818MPD2    H512098   3.600   1.045   9.992 -2.6105  1.8523 -1.8363
  818MPD2    N112099   3.464   1.481  10.334 -0.1024 -0.3171  0.3956
  818MPD2    H712100   3.472   1.425  10.418 -0.9534  0.0980  0.7441
  819MPD2     C12101   1.148   3.609  15.949 -0.0040  0.1928  0.3483
  819MPD2    C112102   1.225   3.572  15.844 -0.0886  0.1971 -0.3807
  819MPD2    C212103   1.357   3.612  15.841 -0.4322 -0.4814  0.1295
  819MPD2    C312104   1.406   3.702  15.934  0.2198 -0.2894 -0.1685
  819MPD2    C412105   1.329   3.733  16.041 -0.2709 -0.2419 -0.2080
  819MPD2    C512106   1.199   3.690  16.048  0.2877  0.0643 -0.2291
  819MPD2     H12107   1.423   3.588  15.759  0.8099  0.1625  0.9542
  819MPD2    H112108   1.358   3.798  16.123 -3.4913 -0.7272  1.3073
  819MPD2    H212109   1.044   3.583  15.937 -0.7177  3.0548  0.2618
  819MPD2    H312110   1.133   3.729  16.126 -0.1224 -0.4682 -0.3106
  819MPD2     N12111   1.538   3.745  15.911 -0.4837 -0.3161 -0.4337
  819MPD2    H512112   1.593   3.684  15.851  1.4733 -0.9538  1.9975
  819MPD2    N112113   1.168   3.489  15.744 -0.4316  0.2262 -0.3566
  819MPD2    H712114   1.068   3.481  15.727 -0.6358 -0.6797  1.3361
  820MPD2     C12115   0.711   3.664  14.921 -0.1950 -0.4911  0.2433
  820MPD2    C112116   0.801   3.730  14.998  0.1711  0.0617  0.4329
  820MPD2    C212117   0.882   3.650  15.077 -0.1038 -0.5730  0.0569
  820MPD2    C312118   0.853   3.512  15.092  0.1219 -0.2641  0.0991
  820MPD2    C412119   0.760   3.450  15.009 -0.2584 -0.6072  0.2505
  820MPD2    C512120   0.688   3.532  14.926  0.0263 -0.0326  0.1090
  820MPD2     H12121   0.958   3.695  15.140 -0.0453 -0.0747 -0.3804
  820MPD2    H112122   0.737   3.344  15.019 -3.7982  0.2240  1.1643
  820MPD2    H212123   0.654   3.724  14.850  2.0602 -1.1808 -2.1260
  820MPD2    H312124   0.601   3.495  14.873  0.5311  0.9158 -1.3771
  820MPD2     N12125   0.910   3.420  15.182 -0.3236 -0.5637 -0.8347
  820MPD2    H512126   0.873   3.326  15.171 -0.4145 -0.7863  1.5042
  820MPD2    N112127   0.812   3.872  15.003 -0.6323 -0.1174 -0.4097
  820MPD2    H712128   0.740   3.921  14.950 -0.8462  1.7314  1.5861
  821MPD2     C12129   2.023   4.569  13.289 -0.1433 -0.2832 -0.2013
  821MPD2    C112130   2.028   4.651  13.398  0.3374  0.5219 -0.1068
  821MPD2    C212131   2.150   4.697  13.439  0.4091 -0.0236  0.2639
  821MPD2    C312132   2.267   4.662  13.372  0.2270  0.2112  0.0305
  821MPD2    C412133   2.256   4.587  13.257  0.1260  0.6867 -0.2547
  821MPD2    C512134   2.137   4.532  13.225  0.1007 -0.0196 -0.0961
  821MPD2     H12135   2.149   0.018  13.531  1.8203  1.3428 -0.5950
  821MPD2    H112136   2.340   4.552  13.199  0.3538 -1.1862  1.1873
  821MPD2    H212137   1.929   4.536  13.246  0.7562 -0.7879 -1.8101
  821MPD2    H312138   2.121   4.463  13.142  1.7597 -0.3772 -0.1156
  821MPD2     N12139   2.400   4.700  13.404 -0.0186 -0.4181  0.1613
  821MPD2    H512140   2.482   4.659  13.360 -0.0453  1.2305 -1.4338
  821MPD2    N112141   1.917   4.684  13.481  0.3312 -0.0386 -0.1919
  821MPD2    H712142   1.930   0.017  13.553  0.8683 -1.4989  1.1321
  822MPD2     C12143   2.087   0.284  15.794  0.7738  0.2445 -0.8818
  822MPD2    C112144   2.070   0.249  15.924  0.3430  0.6406 -0.8407
  822MPD2    C212145   1.984   0.322  16.011  0.5980 -0.0314  0.1715
  822MPD2    C312146   1.923   0.432  15.970 -0.4325 -0.7080  0.3606
  822MPD2    C412147   1.928   0.465  15.838  0.0956  0.1293 -0.5459
  822MPD2    C512148   2.003   0.385  15.755  0.3145 -0.3555 -1.0039
  822MPD2     H12149   1.982   0.294  16.115 -1.6529  0.8491  0.3536
  822MPD2    H112150   1.873   0.543  15.785  0.5955  0.9808  0.2037
  822MPD2    H212151   2.146   0.223  15.726  0.4678  0.3948 -1.2778
  822MPD2    H312152   2.002   0.403  15.649 -0.9552 -1.7268 -1.2311
  822MPD2     N12153   1.848   0.496  16.074 -0.6208 -0.0019 -0.2272
  822MPD2    H512154   1.827   0.435  16.152 -1.4690  1.7352  0.9080
  822MPD2    N112155   2.147   0.149  15.990 -0.3187 -0.3675  0.3080
  822MPD2    H712156   2.122   0.110  16.080  1.9322  1.2252  1.6335
  823MPD2     C12157   1.438   0.829  16.741 -0.6064 -0.1593  0.0166
  823MPD2    C112158   1.450   0.713  16.666  0.3328  0.4431 -0.3473
  823MPD2    C212159   1.481   0.590  16.729  0.3291 -0.5963  0.3401
  823MPD2    C312160   1.521   0.587  16.858  0.2821 -0.7631  0.1808
  823MPD2    C412161   1.505   0.705  16.929 -0.9267 -0.0541  0.1119
  823MPD2    C512162   1.468   0.827  16.875 -0.1233 -0.0495 -0.0621
  823MPD2     H12163   1.485   0.497  16.674  0.9508 -1.1018  1.2578
  823MPD2    H112164   1.518   0.706  17.036 -2.0830  2.1829  0.2362
  823MPD2    H212165   1.419   0.924  16.693 -0.2719  0.2934  0.7764
  823MPD2    H312166   1.445   0.909  16.941  1.4674 -0.4656  1.0164
  823MPD2     N12167   1.589   0.478  16.926  0.4254 -0.2958  0.3365
  823MPD2    H512168   1.609   0.494  17.024 -1.4365 -0.7481  0.8043
  823MPD2    N112169   1.459   0.726  16.525  0.1402  0.3268 -0.0823
  823MPD2    H712170   1.454   0.819  16.485  0.6593 -0.5446 -2.1618
  824MPD2     C12171   2.378   4.199  15.740  0.2155 -0.6414  0.2059
  824MPD2    C112172   2.471   4.255  15.830 -1.0421  0.4825  0.3518
  824MPD2    C212173   2.604   4.214  15.819 -0.5485 -0.3089  0.0482
  824MPD2    C312174   2.632   4.094  15.758  0.1406 -0.1794  0.3207
  824MPD2    C412175   2.527   4.014  15.716 -0.2846  0.1107 -0.6159
  824MPD2    C512176   2.401   4.066  15.701 -0.4572  0.7234  0.2347
  824MPD2     H12177   2.689   4.274  15.849 -0.6876  0.2337 -0.6648
  824MPD2    H112178   2.528   3.910  15.685  2.8295 -0.1688  0.3785
  824MPD2    H212179   2.281   4.244  15.726  0.4838 -0.4083 -0.9018
  824MPD2    H312180   2.318   4.005  15.669  0.9071 -1.5491  1.0126
  824MPD2     N12181   2.767   4.064  15.725  0.6378 -0.5683  0.0988
  824MPD2    H512182   2.836   4.123  15.770 -0.6911  1.5705 -0.6605
  824MPD2    N112183   2.433   4.369  15.905  0.1677  0.2922 -0.3751
  824MPD2    H712184   2.338   4.396  15.884 -0.8263 -2.4071  0.5768
  825MPD2     C12185   3.489   4.222  15.318 -0.2772  0.0842  0.2488
  825MPD2    C112186   3.369   4.264  15.358  0.5410  0.7657 -0.0916
  825MPD2    C212187   3.327   4.394  15.334  0.0779  0.1296  0.2431
  825MPD2    C312188   3.403   4.475  15.260 -0.6617 -0.2439 -1.3283
  825MPD2    C412189   3.527   4.434  15.215 -0.1839 -0.5969  0.6286
  825MPD2    C512190   3.570   4.309  15.249 -0.4298  0.0209  0.4476
  825MPD2     H12191   3.228   4.419  15.371  0.0293  1.9889 -1.1492
  825MPD2    H112192   3.587   4.497  15.150 -0.1802 -0.9093  0.3253
  825MPD2    H212193   3.516   4.117  15.332 -0.8156 -0.1230 -0.2668
  825MPD2    H312194   3.668   4.275  15.216 -0.5428 -0.9742  1.1291
  825MPD2     N12195   3.357   4.602  15.212  0.4975  0.0299  0.3233
  825MPD2    H512196   3.420   4.638  15.140 -1.3431  2.3155 -0.1274
  825MPD2    N112197   3.299   4.174  15.437 -0.0301  0.5321 -0.1819
  825MPD2    H712198   3.342   4.082  15.439 -3.4690 -1.1479 -2.5729
  826MPD2     C12199   2.499   3.877  13.493  0.3714 -0.3629  0.6245
  826MPD2    C112200   2.628   3.831  13.483  0.0576 -0.8034 -0.1578
  826MPD2    C212201   2.720   3.911  13.558  0.2295 -0.2183  0.1421
  826MPD2    C312202   2.684   4.023  13.627  0.1982 -0.5959 -0.1629
  826MPD2    C412203   2.557   4.068  13.622  0.0285  0.1896 -0.6444
  826MPD2    C512204   2.465   4.000  13.552  0.0226 -0.0329 -0.7822
  826MPD2     H12205   2.818   3.869  13.578 -0.8514 -1.3238  3.1283
  826MPD2    H112206   2.529   4.160  13.673  0.9237  0.2216 -0.2102
  826MPD2    H212207   2.424   3.831  13.430  0.9039  0.5117 -0.6268
  826MPD2    H312208   2.362   4.034  13.549  0.5865  1.8185  0.9648
  826MPD2     N12209   2.775   4.089  13.715  0.9681  0.1125 -0.5327
  826MPD2    H512210   2.733   4.165  13.767  2.1243  0.4360 -0.0860
  826MPD2    N112211   2.651   3.716  13.411  0.5573  0.2614 -0.0290
  826MPD2    H712212   2.584   3.658  13.361 -0.4716  2.6124 -1.4009
  827MPD2     C12213   4.390   0.536  10.201  0.1643 -0.1160 -0.6556
  827MPD2    C112214   4.257   0.552  10.235 -1.0098  0.6742  0.0318
  827MPD2    C212215   4.157   0.513  10.149 -0.0298  0.6952 -0.3219
  827MPD2    C312216   4.189   0.452  10.029 -0.4707 -0.0092  0.2963
  827MPD2    C412217   4.325   0.431   9.995 -0.2631  1.2995  0.3972
  827MPD2    C512218   4.423   0.487  10.080 -0.0088 -0.2961 -0.4417
  827MPD2     H12219   4.052   0.534  10.169 -0.0135  0.4952 -0.0135
  827MPD2    H112220   4.366   0.382   9.907 -0.4112  2.9921 -0.6150
  827MPD2    H212221   4.472   0.564  10.267  0.2517 -2.2951  0.1547
  827MPD2    H312222   4.528   0.481  10.054  0.2424  2.9996 -0.1932
  827MPD2     N12223   4.085   0.410   9.943 -0.0472  1.4517 -0.2310
  827MPD2    H512224   3.995   0.453   9.958 -0.3732  0.9699 -0.8264
  827MPD2    N112225   4.227   0.614  10.355 -0.2589 -0.3456  0.3568
  827MPD2    H712226   4.302   0.657  10.407 -0.5761  0.9383 -0.2569
  828MPD2     C12227   2.906   0.368  12.359  0.4075 -0.4351  0.1790
  828MPD2    C112228   2.805   0.433  12.296  0.4977  0.0990  0.5226
  828MPD2    C212229   2.793   0.418  12.154 -0.0009  0.3230  0.4040
  828MPD2    C312230   2.887   0.338  12.083  0.3524  0.3706 -0.5909
  828MPD2    C412231   2.994   0.284  12.155 -0.0465 -0.3617 -0.2761
  828MPD2    C512232   2.998   0.285  12.290 -0.2415  0.4519  0.0468
  828MPD2     H12233   2.707   0.459  12.103 -0.4849  0.6617  1.4950
  828MPD2    H112234   3.059   0.209  12.110  2.7309  1.1036  1.3169
  828MPD2    H212235   2.909   0.358  12.467  0.9498  1.1684  0.3069
  828MPD2    H312236   3.072   0.227  12.344 -0.4264  1.3899  1.2934
  828MPD2     N12237   2.897   0.318  11.952 -0.8499 -0.2475 -0.4573
  828MPD2    H512238   2.973   0.258  11.922  0.5122  1.6946 -0.9372
  828MPD2    N112239   2.706   0.520  12.356  0.2043  0.2601 -0.0614
  828MPD2    H712240   2.636   0.559  12.294 -1.0329  1.5315  2.1691
  829MPD2     C12241   2.027   0.815  11.970 -0.4012  0.3039  0.0828
  829MPD2    C112242   1.998   0.861  12.095 -0.9957  0.2970  0.6005
  829MPD2    C212243   2.083   0.834  12.202  0.2364 -0.1082  0.1874
  829MPD2    C312244   2.196   0.750  12.180  0.4725  0.2426 -0.4431
  829MPD2    C412245   2.231   0.714  12.052 -0.2613  0.0619 -0.2240
  829MPD2    C512246   2.147   0.756  11.948 -0.4041 -0.5183 -0.2705
  829MPD2     H12247   2.061   0.878  12.298  0.6470 -1.9060  1.0928
  829MPD2    H112248   2.317   0.655  12.021 -0.3471 -0.8685  1.3044
  829MPD2    H212249   1.956   0.826  11.889 -0.6572 -0.0460  0.2610
  829MPD2    H312250   2.166   0.726  11.846 -0.1139 -2.6028  0.3909
  829MPD2     N12251   2.276   0.706  12.289 -1.0408 -0.2667 -0.6333
  829MPD2    H512252   2.351   0.641  12.266  0.4964  0.4615  2.3798
  829MPD2    N112253   1.878   0.928  12.110 -0.1632  0.0454 -0.2576
  829MPD2    H712254   1.814   0.929  12.031  0.8289 -4.9345 -1.1514
  830MPD2     C12255   2.376   3.569  15.895  0.7848 -0.2926  0.6544
  830MPD2    C112256   2.274   3.626  15.820 -0.5077  0.0294 -0.7359
  830MPD2    C212257   2.301   3.670  15.693  0.4162 -0.4409  0.6026
  830MPD2    C312258   2.428   3.663  15.640 -0.3397  0.6181  0.8514
  830MPD2    C412259   2.523   3.598  15.715 -0.2531 -0.2613  0.0365
  830MPD2    C512260   2.499   3.549  15.840  0.0524 -0.3578  0.4856
  830MPD2     H12261   2.221   3.706  15.630  0.5747  0.4034  0.8933
  830MPD2    H112262   2.629   3.601  15.690  0.4066 -0.4081  2.7300
  830MPD2    H212263   2.359   3.547  16.000 -1.0102  0.8168  0.6009
  830MPD2    H312264   2.584   3.515  15.898  1.2289 -2.7741 -2.7098
  830MPD2     N12265   2.467   3.706  15.511  0.1274 -0.4642  0.4667
  830MPD2    H512266   2.568   3.706  15.501  0.2002  1.6941  1.3091
  830MPD2    N112267   2.149   3.645  15.885  0.5871  0.5301 -0.1127
  830MPD2    H712268   2.129   3.608  15.978  0.4461 -1.2349 -0.8543
  831MPD2     C12269   2.011   0.639  16.502  0.3661 -0.0176  0.6307
  831MPD2    C112270   2.041   0.537  16.413 -0.0573 -0.3805 -0.8735
  831MPD2    C212271   1.958   0.420  16.406  0.6162 -0.0547 -0.5205
  831MPD2    C312272   1.837   0.413  16.475 -0.6769  0.2352  0.1236
  831MPD2    C412273   1.817   0.514  16.565  0.5544 -0.4429  0.0169
  831MPD2    C512274   1.898   0.623  16.578  0.5079  0.0445  0.4153
  831MPD2     H12275   1.977   0.341  16.333 -0.1577 -1.6740  1.0331
  831MPD2    H112276   1.733   0.521  16.633 -0.1462 -2.4906 -0.6297
  831MPD2    H212277   2.076   0.723  16.527 -0.8647  0.8669  0.8562
  831MPD2    H312278   1.877   0.707  16.644  0.0446  0.1235  0.1701
  831MPD2     N12279   1.752   0.301  16.471 -0.9442  0.2162 -0.0726
  831MPD2    H512280   1.687   0.284  16.548  0.7923  2.0624  1.7999
  831MPD2    N112281   2.149   0.558  16.327  0.4859  0.0178 -0.2267
  831MPD2    H712282   2.180   0.654  16.315 -1.5640  1.0230  2.4302
  832MPD2     C12283   0.692   1.513  17.338 -0.6683 -0.3090  0.3373
  832MPD2    C112284   0.662   1.649  17.326  0.0273  0.6752 -0.1921
  832MPD2    C212285   0.525   1.685  17.299  0.3774  0.4111  1.0098
  832MPD2    C312286   0.431   1.590  17.269  0.8696  0.3495 -0.1164
  832MPD2    C412287   0.464   1.457  17.280 -0.0087  0.9363 -0.1555
  832MPD2    C512288   0.592   1.421  17.307  0.0960  0.8174 -0.0296
  832MPD2     H12289   0.502   1.789  17.279 -0.4849 -0.2733 -1.5058
  832MPD2    H112290   0.392   1.376  17.277  1.1576 -0.1188 -0.0114
  832MPD2    H212291   0.792   1.478  17.364 -0.0320 -0.1841 -1.9012
  832MPD2    H312292   0.611   1.315  17.322 -0.4781  0.6178 -0.6780
  832MPD2     N12293   0.296   1.616  17.232 -0.4386  0.8148 -0.4155
  832MPD2    H512294   0.245   1.530  17.219  1.2896 -0.0431 -1.4863
  832MPD2    N112295   0.763   1.736  17.360  0.6568  0.0968  0.3586
  832MPD2    H712296   0.847   1.691  17.394 -0.7473 -2.7774  0.0166
  833MPD2     C12297   2.410   3.146  12.816 -0.4844 -0.1969 -0.0168
  833MPD2    C112298   2.469   3.178  12.694  0.5032  0.5583  0.9720
  833MPD2    C212299   2.533   3.078  12.626  0.0680  0.0065  0.2486
  833MPD2    C312300   2.543   2.947  12.682 -0.0250  0.3119 -0.0543
  833MPD2    C412301   2.480   2.920  12.804  0.2860  0.0005  0.8860
  833MPD2    C512302   2.423   3.024  12.874 -0.7189 -0.0499  0.8529
  833MPD2     H12303   2.570   3.090  12.525 -0.3520 -2.7388 -0.2167
  833MPD2    H112304   2.490   2.827  12.859  1.9896 -0.6374 -0.4924
  833MPD2    H212305   2.368   3.217  12.887 -0.4774  0.1447 -0.3558
  833MPD2    H312306   2.382   3.007  12.973 -0.3635 -2.3883  0.5971
  833MPD2     N12307   2.589   2.836  12.616 -0.0583  0.0478 -0.5776
  833MPD2    H512308   2.585   2.745  12.661 -0.5188 -0.5802 -1.8928
  833MPD2    N112309   2.444   3.308  12.636  0.0322 -0.0059  0.4615
  833MPD2    H712310   2.379   3.372  12.681 -0.2809  0.8306 -1.1859
  834MPD2     C12311   3.126   2.447  11.733  0.3710  0.0012 -0.0463
  834MPD2    C112312   3.007   2.385  11.747  0.8964 -0.0397  0.7331
  834MPD2    C212313   2.910   2.436  11.831  0.2386  0.3086 -0.3186
  834MPD2    C312314   2.932   2.537  11.916  0.0455  0.2205  0.1031
  834MPD2    C412315   3.057   2.592  11.906  0.9318 -0.1817  1.0041
  834MPD2    C512316   3.156   2.548  11.821 -0.1187  0.7030  0.4318
  834MPD2     H12317   2.814   2.385  11.828 -0.0225  0.6419  2.1981
  834MPD2    H112318   3.084   2.673  11.972  2.2592 -0.2506  0.5655
  834MPD2    H212319   3.201   2.414  11.663  1.7559  0.7664  1.0636
  834MPD2    H312320   3.254   2.594  11.816 -0.5052  1.4715  0.0339
  834MPD2     N12321   2.842   2.570  12.015  0.1201 -0.3078  0.3164
  834MPD2    H512322   2.767   2.504  12.034  0.3815 -1.3996 -2.4040
  834MPD2    N112323   2.984   2.270  11.659  0.0989  0.2052  0.0285
  834MPD2    H712324   3.060   2.258  11.592  0.1554 -1.0981  0.3271
  835MPD2     C12325   3.008   0.612  11.474  0.2728 -0.0921 -0.5662
  835MPD2    C112326   2.889   0.642  11.535 -0.4293  0.1615  0.6831
  835MPD2    C212327   2.891   0.651  11.675  0.4606  0.2073 -0.0815
  835MPD2    C312328   3.012   0.646  11.750 -0.2868  0.3502 -0.0904
  835MPD2    C412329   3.125   0.609  11.681 -0.3954  0.4463 -0.4314
  835MPD2    C512330   3.123   0.591  11.543 -0.2003 -0.2498 -0.2402
  835MPD2     H12331   2.802   0.675  11.732  0.7401 -0.9826  0.8579
  835MPD2    H112332   3.218   0.586  11.731 -1.3216  0.1198  1.1693
  835MPD2    H212333   3.025   0.591  11.369  0.2682 -1.6764 -0.2494
  835MPD2    H312334   3.215   0.563  11.494  0.0037  2.7828 -1.6207
  835MPD2     N12335   3.032   0.654  11.887 -0.3604  0.6652 -0.1530
  835MPD2    H512336   3.127   0.635  11.917 -0.6391  0.2962  0.4938
  835MPD2    N112337   2.773   0.664  11.461  0.6891  0.0172 -0.1106
  835MPD2    H712338   2.694   0.708  11.508  0.8730  1.7176 -1.4286
  836MPD2     C12339   2.546   0.982  12.349 -0.3109  0.5762  0.0305
  836MPD2    C112340   2.647   0.949  12.435 -0.4671  0.0786 -0.2053
  836MPD2    C212341   2.624   0.932  12.570 -0.2804 -0.1480 -0.0883
  836MPD2    C312342   2.505   0.957  12.626  0.4473 -0.1788  0.1517
  836MPD2    C412343   2.401   1.004  12.542  0.0549  0.2718  0.2962
  836MPD2    C512344   2.422   1.012  12.408  0.2008  0.3356 -0.2166
  836MPD2     H12345   2.701   0.898  12.639 -0.9455 -1.7409 -0.1345
  836MPD2    H112346   2.301   1.018  12.583  0.3165 -1.7896  1.6032
  836MPD2    H212347   2.566   0.979  12.243 -0.0946 -2.8027  0.1617
  836MPD2    H312348   2.344   1.042  12.338 -0.2599 -0.5077 -0.0685
  836MPD2     N12349   2.463   0.928  12.759  0.8895 -0.6770  0.2964
  836MPD2    H512350   2.365   0.940  12.781  1.1332  1.5171  0.1786
  836MPD2    N112351   2.771   0.904  12.377 -0.3166 -0.0978  0.6386
  836MPD2    H712352   2.779   0.912  12.276  0.7101 -0.6331  0.6821
  837MPD2     C12353   1.356   0.511  10.844  0.3563 -0.8880 -0.4379
  837MPD2    C112354   1.222   0.500  10.843 -0.2759 -0.3276  0.2885
  837MPD2    C212355   1.150   0.586  10.922 -0.4994  0.2069  0.3208
  837MPD2    C312356   1.200   0.692  10.994  0.0374  0.1693  0.3316
  837MPD2    C412357   1.339   0.691  10.999  0.4832  0.0066 -0.1464
  837MPD2    C512358   1.415   0.601  10.933 -0.1362  0.0752 -0.3815
  837MPD2     H12359   1.044   0.568  10.909 -0.0291 -0.8627 -2.0517
  837MPD2    H112360   1.384   0.772  11.056 -1.7239  0.2759  1.2389
  837MPD2    H212361   1.420   0.438  10.795  0.1825 -0.9493 -0.5728
  837MPD2    H312362   1.522   0.614  10.947 -0.0724 -0.7408 -0.0853
  837MPD2     N12363   1.110   0.783  11.056  0.1484 -0.4847 -0.1322
  837MPD2    H512364   1.011   0.776  11.035  0.0529 -2.0706  0.8229
  837MPD2    N112365   1.147   0.411  10.764 -0.4233 -0.1674  0.1279
  837MPD2    H712366   1.045   0.412  10.764 -0.4128  0.1017  1.6884
  838MPD2     C12367   4.218   3.938  11.864 -0.8422 -0.3589 -0.0621
  838MPD2    C112368   4.190   3.811  11.907 -0.4036 -0.1910 -0.6667
  838MPD2    C212369   4.070   3.788  11.984 -0.1383 -0.5011  0.2714
  838MPD2    C312370   3.983   3.889  12.012 -0.4043  0.0976  0.1900
  838MPD2    C412371   4.015   4.020  11.970 -0.2989  0.0525  0.2081
  838MPD2    C512372   4.129   4.036  11.892 -0.0691  0.4622  0.1335
  838MPD2     H12373   4.052   3.685  12.014  1.6695 -1.0207 -0.4192
  838MPD2    H112374   3.948   4.103  11.990 -0.9743 -0.2712 -0.6804
  838MPD2    H212375   4.307   3.967  11.810 -2.4309  1.1003 -1.8933
  838MPD2    H312376   4.139   4.139  11.859 -0.6656  0.7795  0.9645
  838MPD2     N12377   3.869   3.856  12.090 -0.4142  0.1409 -0.5356
  838MPD2    H512378   3.857   3.756  12.106 -0.2731  0.4575  1.5663
  838MPD2    N112379   4.269   3.700  11.886  0.0228 -0.4573  0.4081
  838MPD2    H712380   4.236   3.607  11.912 -2.8457 -0.0122 -1.7722
  839MPD2     C12381   3.977   2.917  11.937  0.9333 -0.3733 -0.0896
  839MPD2    C112382   4.041   2.906  11.818  0.6363  0.2560 -0.2063
  839MPD2    C212383   4.147   2.994  11.796 -0.8716 -0.1283 -0.1838
  839MPD2    C312384   4.164   3.103  11.878 -0.5623 -0.5692  0.2058
  839MPD2    C412385   4.087   3.120  11.979  0.1394  0.6375 -0.2489
  839MPD2    C512386   4.000   3.022  12.018  0.3643  0.2099 -0.0144
  839MPD2     H12387   4.193   3.002  11.699 -0.2935 -0.3842  0.0714
  839MPD2    H112388   4.101   3.199  12.051  1.0108  0.0598  0.2165
  839MPD2    H212389   3.903   2.844  11.969  0.7495 -0.1570 -0.0183
  839MPD2    H312390   3.954   3.032  12.116 -0.3737  3.9577 -0.7228
  839MPD2     N12391   4.250   3.217  11.844  0.2136 -0.0589  0.2242
  839MPD2    H512392   4.235   3.305  11.892  1.3450 -0.1435  0.7339
  839MPD2    N112393   4.000   2.813  11.717  0.3490 -0.2181 -0.2042
  839MPD2    H712394   4.055   2.801  11.633  1.2887 -3.2069  0.8452
  840MPD2     C12395   4.622   0.955  10.660  0.2948  0.2301 -0.1643
  840MPD2    C112396   4.584   0.861  10.747  0.5097  0.1395  0.0177
  840MPD2    C212397   4.657   0.851  10.868 -0.4569 -0.3348  0.0651
  840MPD2    C312398   0.036   0.921  10.883  0.0886  0.1543  0.9528
  840MPD2    C412399   0.080   1.018  10.792 -0.2766 -0.6679 -0.1278
  840MPD2    C512400   0.001   1.025  10.679 -0.2709  0.8511  0.1783
  840MPD2     H12401   4.620   0.775  10.936 -0.4228  0.2384  0.7291
  840MPD2    H112402   0.179   1.059  10.806 -0.1508  0.0130 -3.0345
  840MPD2    H212403   4.571   0.986  10.570 -1.1529  1.1353  0.9672
  840MPD2    H312404   0.024   1.103  10.606 -1.2382  2.3496  1.4847
  840MPD2     N12405   0.119   0.901  10.999  0.5803 -0.1384 -0.0989
  840MPD2    H512406   0.206   0.952  11.008 -0.9906  2.4944  0.1619
  840MPD2    N112407   4.460   0.788  10.719  0.0663  0.1724 -0.4527
  840MPD2    H712408   4.413   0.813  10.633 -0.7764  2.2272  0.6138
  841MPD2     C12409   4.708   0.143  14.770  0.6472  0.2524  0.6183
  841MPD2    C112410   4.607   0.125  14.858 -0.3584  0.3966 -0.3420
  841MPD2    C212411   4.609   0.191  14.982  0.6052 -0.1657 -0.4106
  841MPD2    C312412   4.725   0.262  15.012 -0.2957 -0.1330 -0.1426
  841MPD2    C412413   0.091   0.271  14.923 -0.2308 -0.1129 -0.0711
  841MPD2    C512414   0.087   0.208  14.808 -0.1828  0.4746 -0.1404
  841MPD2     H12415   4.530   0.189  15.056  0.1524  1.6183 -0.8540
  841MPD2    H112416   0.185   0.316  14.953  0.4883 -0.2367 -2.1737
  841MPD2    H212417   4.717   0.102  14.670 -0.3796  0.1531  0.5685
  841MPD2    H312418   0.170   0.198  14.739 -1.0053 -0.4286 -1.0050
  841MPD2     N12419   0.002   0.344  15.132  0.8924  0.5081 -0.4796
  841MPD2    H512420   0.085   0.403  15.143  1.7096 -1.0654  1.7258
  841MPD2    N112421   4.496   0.044  14.841  0.4652 -0.4559  0.8314
  841MPD2    H712422   4.420   0.046  14.909 -2.5862  0.2958 -2.5760
  842MPD2     C12423   4.519   2.350  16.830  0.5002 -0.5451 -0.7640
  842MPD2    C112424   4.439   2.244  16.860  0.4281  0.0953 -0.1643
  842MPD2    C212425   4.466   2.165  16.961 -0.0967 -0.3738 -0.5908
  842MPD2    C312426   4.579   2.190  17.039 -0.2690 -0.1175  0.4271
  842MPD2    C412427   4.658   2.298  17.012  0.4902 -0.1423 -0.3083
  842MPD2    C512428   4.633   2.369  16.899  0.0705 -0.2234  0.1908
  842MPD2     H12429   4.405   2.077  16.975 -1.1065  0.4294 -0.0102
  842MPD2    H112430   0.003   2.330  17.076 -0.6208  1.6308  0.2439
  842MPD2    H212431   4.494   2.415  16.746  0.0434  2.3905  1.6604
  842MPD2    H312432   4.702   2.448  16.871 -2.0639  2.1061  1.5537
  842MPD2     N12433   4.615   2.114  17.149 -0.3972  0.6060 -0.3263
  842MPD2    H512434   4.692   2.147  17.206  0.5952 -0.3301 -1.1172
  842MPD2    N112435   4.315   2.229  16.786 -0.0746  0.2655 -0.0773
  842MPD2    H712436   4.290   2.295  16.714 -1.5984 -0.6261 -0.3459
  843MPD2     C12437   1.557   2.819   0.445 -0.2448 -0.3807  0.1666
  843MPD2    C112438   1.684   2.783   0.475 -0.0221  0.3085  0.0509
  843MPD2    C212439   1.779   2.874   0.498 -0.3278 -0.3837  0.3805
  843MPD2    C312440   1.746   3.013   0.479 -0.0305 -0.3358  0.2808
  843MPD2    C412441   1.622   3.048   0.436 -0.1226 -0.0928 -0.4487
  843MPD2    C512442   1.526   2.950   0.427 -0.3109  0.0686 -0.3989
  843MPD2     H12443   1.867   2.836   0.548  0.1144 -0.3232 -0.3488
  843MPD2    H112444   1.597   3.151   0.412 -2.5993 -0.7328 -0.5746
  843MPD2    H212445   1.480   2.744   0.431  0.4578 -0.7871 -1.5074
  843MPD2    H312446   1.427   2.976   0.393 -0.5880 -0.3548  0.0871
  843MPD2     N12447   1.840   3.117   0.499  0.1556 -0.1698 -0.8017
  843MPD2    H512448   1.809   3.212   0.482  1.8496  0.7109  1.1381
  843MPD2    N112449   1.705   2.643   0.476 -0.1019  0.1135 -0.2208
  843MPD2    H712450   1.634   2.571   0.464  1.2258 -1.3842  0.8009
  844MPD2     C12451   0.014   1.369  16.752  0.0748  0.2272  0.0452
  844MPD2    C112452   0.129   1.322  16.690  0.2098 -0.3910  0.2668
  844MPD2    C212453   0.252   1.381  16.710  0.5598 -0.2427 -0.3171
  844MPD2    C312454   0.267   1.490  16.788 -0.8575  0.4775 -0.5074
  844MPD2    C412455   0.148   1.555  16.823 -0.4126 -0.7568 -0.0464
  844MPD2    C512456   0.029   1.495  16.799  0.2718  0.0704 -0.4832
  844MPD2     H12457   0.341   1.348  16.658  1.0049 -1.0182  0.9161
  844MPD2    H112458   0.138   1.652  16.870 -0.9847 -0.8664  0.0544
  844MPD2    H212459   4.655   1.319  16.743  0.7276 -1.0310  0.0108
  844MPD2    H312460   4.676   1.540  16.839  0.8660  0.3759  0.5053
  844MPD2     N12461   0.395   1.549  16.809  0.4829 -0.4472  0.1201
  844MPD2    H512462   0.479   1.503  16.775  0.5172 -1.0370  0.9952
  844MPD2    N112463   0.121   1.223  16.590  0.3480 -0.4936 -0.3997
  844MPD2    H712464   0.199   1.220  16.525  1.5441 -0.4967  1.0304
  845MPD2     C12465   0.578   2.541  16.879  0.4030  0.4770 -0.0394
  845MPD2    C112466   0.639   2.476  16.982 -0.2862  0.3319  0.1826
  845MPD2    C212467   0.657   2.341  16.977  0.4801  0.3222  0.3608
  845MPD2    C312468   0.603   2.261  16.877 -0.0612 -0.0486  0.1457
  845MPD2    C412469   0.532   2.330  16.780  0.3389 -0.0224  0.3338
  845MPD2    C512470   0.517   2.466  16.777 -0.9071  0.5016  0.2263
  845MPD2     H12471   0.714   2.295  17.057  1.1217 -0.0498 -0.3079
  845MPD2    H112472   0.481   2.281  16.698  0.5452  0.9220 -0.3673
  845MPD2    H212473   0.563   2.648  16.885  0.7736  0.4636  1.0617
  845MPD2    H312474   0.454   2.514  16.703 -1.0847 -0.7581 -0.4436
  845MPD2     N12475   0.623   2.128  16.865 -0.7905 -0.6656 -0.1253
  845MPD2    H512476   0.557   2.087  16.799 -0.6525 -0.0798 -0.6287
  845MPD2    N112477   0.669   2.558  17.093  0.0695  0.4066 -0.3233
  845MPD2    H712478   0.671   2.658  17.076  3.9398  0.2652 -0.5621
  846MPD2     C12479   1.622   3.146  13.731 -0.2048  0.4292  0.7290
  846MPD2    C112480   1.734   3.088  13.787 -0.1370 -0.2867  0.1608
  846MPD2    C212481   1.728   3.040  13.916  0.0017  0.2178  0.1779
  846MPD2    C312482   1.615   3.060  13.995 -0.8788  1.1238 -0.1521
  846MPD2    C412483   1.507   3.125  13.939 -0.0573 -0.9287  0.1721
  846MPD2    C512484   1.512   3.164  13.812  0.6503  0.0647 -0.2329
  846MPD2     H12485   1.825   3.007  13.950  0.9457 -0.4918 -3.2336
  846MPD2    H112486   1.420   3.154  13.996 -0.1257 -2.0122  0.6190
  846MPD2    H212487   1.618   3.178  13.628  1.4166  1.1361  0.8801
  846MPD2    H312488   1.427   3.216  13.767  2.0899  2.7254  0.1177
  846MPD2     N12489   1.601   3.017  14.131  1.2039  0.2070  0.3807
  846MPD2    H512490   1.508   3.019  14.171  0.3946 -1.4429 -1.3685
  846MPD2    N112491   1.840   3.061  13.701  0.4181 -0.4398 -0.0802
  846MPD2    H712492   1.916   3.017  13.752  0.5419  0.7786  0.7762
  847MPD2     C12493   2.528   3.880  13.925 -0.5217  0.3297  0.3791
  847MPD2    C112494   2.582   3.914  14.047  0.1385  0.7019 -0.1560
  847MPD2    C212495   2.602   3.820  14.144 -0.2447 -0.2783 -0.1037
  847MPD2    C312496   2.579   3.691  14.112  0.0545  0.6482  0.9642
  847MPD2    C412497   2.533   3.652  13.989  0.3948 -0.6128 -0.2146
  847MPD2    C512498   2.513   3.747  13.900 -0.4323 -0.5337  0.2234
  847MPD2     H12499   2.637   3.842  14.244  0.7472  4.5182 -1.4901
  847MPD2    H112500   2.523   3.546  13.965  1.2664 -0.9082  0.7024
  847MPD2    H212501   2.505   3.954  13.849 -1.9062 -1.1620 -0.6669
  847MPD2    H312502   2.486   3.707  13.803  1.7654  1.8880 -1.4199
  847MPD2     N12503   2.614   3.602  14.219 -0.1644 -0.4805  0.6612
  847MPD2    H512504   2.640   3.652  14.303  1.5876 -2.0833  1.0890
  847MPD2    N112505   2.603   4.046  14.093 -0.2306 -0.0457 -0.2314
  847MPD2    H712506   2.644   4.053  14.186 -0.8348 -0.6379  0.0818
  848MPD2     C12507   4.536   1.945  16.657  1.1511  0.3337 -0.1273
  848MPD2    C112508   4.640   1.979  16.739 -0.1522 -0.8246 -0.3844
  848MPD2    C212509   4.729   2.080  16.711 -0.7829 -0.2301  0.3308
  848MPD2    C312510   4.700   2.161  16.604 -0.6009 -0.9604  0.3926
  848MPD2    C412511   4.596   2.130  16.517  0.3889 -0.7584  0.7826
  848MPD2    C512512   4.524   2.016  16.541 -0.9361  0.5581  0.4780
  848MPD2     H12513   0.078   2.100  16.774 -0.6982 -0.2175  0.2110
  848MPD2    H112514   4.584   2.197  16.433  1.5152  0.5681  1.6711
  848MPD2    H212515   4.463   1.866  16.675  0.7742  0.4757 -1.0301
  848MPD2    H312516   4.446   1.999  16.468  0.6449  1.7141 -1.4709
  848MPD2     N12517   0.029   2.278  16.572  0.2150 -0.3178  0.4136
  848MPD2    H512518   4.728   2.339  16.501  1.1078  0.3481  0.5099
  848MPD2    N112519   4.668   1.906  16.861 -0.3166 -0.7084 -0.1336
  848MPD2    H712520   0.013   1.931  16.916 -0.8161 -0.8384  0.6668
  849MPD2     C12521   3.918   1.446  14.469  0.6248  0.5458 -0.3518
  849MPD2    C112522   4.026   1.393  14.404 -0.2252 -0.1034  0.1835
  849MPD2    C212523   4.129   1.343  14.484  0.1620  0.2212 -0.3342
  849MPD2    C312524   4.120   1.358  14.620  0.3957 -0.0263  1.1664
  849MPD2    C412525   4.013   1.413  14.678 -0.4585  0.2804 -0.8378
  849MPD2    C512526   3.907   1.456  14.599 -0.1143  0.2548  0.0142
  849MPD2     H12527   4.206   1.282  14.439  1.5192  1.7122 -0.0290
  849MPD2    H112528   4.016   1.441  14.783  0.1986  1.1378 -1.0910
  849MPD2    H212529   3.832   1.489  14.420 -0.0876  0.3105  0.6806
  849MPD2    H312530   3.822   1.518  14.627 -1.3793 -1.6564  0.4285
  849MPD2     N12531   4.231   1.315  14.694 -0.1792 -0.3311  0.2321
  849MPD2    H512532   4.298   1.272  14.630  1.4670  0.3434  1.4941
  849MPD2    N112533   4.025   1.383  14.263 -0.1723 -0.3849  0.3303
  849MPD2    H712534   3.951   1.413  14.201  0.0052  0.5123  0.5630
  850MPD2     C12535   2.152   4.648  14.661  0.1969 -0.3046 -1.0747
  850MPD2    C112536   2.138   4.722  14.772  0.6498  0.4162  0.2105
  850MPD2    C212537   2.254   0.010  14.838 -0.1558  0.0347  0.6007
  850MPD2    C312538   2.375   4.681  14.815 -0.2363 -0.1699  0.8855
  850MPD2    C412539   2.380   4.618  14.696 -0.7760  0.6023  0.1343
  850MPD2    C512540   2.273   4.595  14.618 -0.0512 -0.9447 -0.3982
  850MPD2     H12541   2.262   0.089  14.912 -0.3348 -1.8377  2.6075
  850MPD2    H112542   2.471   4.587  14.645 -1.5758 -1.7863  0.1546
  850MPD2    H212543   2.058   4.629  14.610 -0.6827  0.6064  0.1968
  850MPD2    H312544   2.287   4.558  14.517 -0.0323 -2.3087  0.1097
  850MPD2     N12545   2.495   4.696  14.895  0.3458  0.0115 -0.5897
  850MPD2    H512546   2.574   4.641  14.865  1.0917  0.2742  0.8717
  850MPD2    N112547   2.005   0.043  14.786  0.1600  0.2137  0.2104
  850MPD2    H712548   1.946   0.034  14.703  2.1393 -0.2931 -1.1313
  851MPD2     C12549   2.392   4.583  15.523  0.4269  0.6582  0.1377
  851MPD2    C112550   2.337   4.565  15.392 -0.2132 -0.7487  0.3309
  851MPD2    C212551   2.378   4.461  15.312  0.3032  1.1346  0.1314
  851MPD2    C312552   2.472   4.372  15.368 -0.1497  0.4897 -0.5089
  851MPD2    C412553   2.520   4.389  15.495 -0.1056  0.3612  0.1738
  851MPD2    C512554   2.483   4.494  15.571 -0.1432 -0.9248  0.3815
  851MPD2     H12555   2.334   4.428  15.219 -1.5611 -0.4279  1.5597
  851MPD2    H112556   2.586   4.316  15.542 -1.4119 -0.7293  0.3234
  851MPD2    H212557   2.366   4.665  15.589 -0.9125 -0.5821  1.1436
  851MPD2    H312558   2.522   4.506  15.671  2.3764 -2.8430 -0.3764
  851MPD2     N12559   2.508   4.260  15.288  0.3388  0.1405 -0.0071
  851MPD2    H512560   2.444   4.244  15.210  1.3605 -1.4197 -0.5156
  851MPD2    N112561   2.250   4.659  15.349  0.4870  0.5067 -0.0892
  851MPD2    H712562   2.265   0.011  15.394  1.5042 -0.4097  1.3809
  852MPD2     C12563   1.925   1.559  10.164 -0.2788 -0.0373  0.0836
  852MPD2    C112564   2.051   1.554  10.212 -0.1210 -1.2195  0.3122
  852MPD2    C212565   2.153   1.620  10.144 -0.4656  0.2350  0.2201
  852MPD2    C312566   2.138   1.684  10.025 -0.3060  0.3284 -0.3013
  852MPD2    C412567   2.010   1.677   9.970 -0.0833  0.8974  0.2976
  852MPD2    C512568   1.911   1.617  10.043  0.0999  0.5472  0.3477
  852MPD2     H12569   2.253   1.612  10.187 -0.0303 -0.5421 -0.9364
  852MPD2    H112570   1.984   1.737   9.883  0.9870  0.0414 -0.6081
  852MPD2    H212571   1.836   1.521  10.212 -0.3703 -2.3862 -1.9571
  852MPD2    H312572   1.818   1.599   9.989 -0.4407  0.7206  1.2351
  852MPD2     N12573   2.248   1.752   9.962  0.2381  0.6818  0.0798
  852MPD2    H512574   2.339   1.733  10.003  0.2027  0.7704  0.1984
  852MPD2    N112575   2.077   1.483  10.330 -0.0567  0.3261  0.0921
  852MPD2    H712576   2.172   1.451  10.345  0.6073  0.7295 -3.2129
  853MPD2     C12577   4.248   2.440  12.442 -0.1005 -0.1351 -0.4282
  853MPD2    C112578   4.110   2.412  12.397 -0.6141  0.6883 -0.7648
  853MPD2    C212579   4.089   2.346  12.282 -0.5187 -0.4774 -0.4203
  853MPD2    C312580   4.196   2.287  12.216  0.5705 -0.1731  0.0625
  853MPD2    C412581   4.327   2.327  12.252  0.6571 -1.5953 -0.6253
  853MPD2    C512582   4.353   2.392  12.369 -0.1173  0.6301  0.3925
  853MPD2     H12583   3.984   2.327  12.259 -1.4686 -1.0261  4.4320
  853MPD2    H112584   4.407   2.289  12.189  1.7418 -0.1045 -0.1418
  853MPD2    H212585   4.275   2.503  12.526  0.2922  0.1120 -0.7378
  853MPD2    H312586   4.449   2.427  12.407  0.8646  0.2522 -1.7074
  853MPD2     N12587   4.179   2.198  12.109  0.0895  0.8688  0.0181
  853MPD2    H512588   4.262   2.160  12.065 -0.8693  0.6168 -1.5595
  853MPD2    N112589   3.995   2.462  12.471 -0.4924 -0.4215 -0.1487
  853MPD2    H712590   3.912   2.456  12.412  0.0507 -0.1518 -0.9414
  854MPD2     C12591   0.486   2.638  13.066 -0.6545  0.7355  0.1227
  854MPD2    C112592   0.600   2.696  13.009 -0.4720 -0.5767  0.1275
  854MPD2    C212593   0.723   2.658  13.057 -0.2001 -1.3329 -0.3885
  854MPD2    C312594   0.735   2.564  13.165 -0.1305  0.4909 -0.4408
  854MPD2    C412595   0.618   2.505  13.216 -0.1620 -0.3543  0.2389
  854MPD2    C512596   0.495   2.542  13.162  0.0578  0.3220  0.1176
  854MPD2     H12597   0.819   2.690  13.016  0.5093 -1.6063  1.0646
  854MPD2    H112598   0.618   2.425  13.289  1.1729 -0.8859 -0.3397
  854MPD2    H212599   0.393   2.651  13.011  0.1310  0.3356 -1.3162
  854MPD2    H312600   0.407   2.505  13.213  0.0945 -0.1665 -0.1750
  854MPD2     N12601   0.867   2.526  13.198 -0.2403  0.3927  0.9286
  854MPD2    H512602   0.944   2.567  13.146 -0.0695  1.1240  1.7393
  854MPD2    N112603   0.589   2.789  12.898  0.4111 -0.0608 -1.0600
  854MPD2    H712604   0.501   2.826  12.864  0.5125  1.9791  0.8723
  855MPD2     C12605   1.784   2.338  13.724 -0.6851  0.0620  0.1249
  855MPD2    C112606   1.656   2.321  13.768 -0.0741 -0.9039  0.0304
  855MPD2    C212607   1.556   2.345  13.679  0.4996 -0.5873  0.0949
  855MPD2    C312608   1.575   2.386  13.551  0.2890  0.0970 -0.0509
  855MPD2    C412609   1.699   2.409  13.508 -0.0338  0.3191  0.0297
  855MPD2    C512610   1.802   2.385  13.596  0.4400  0.3838 -0.1158
  855MPD2     H12611   1.458   2.323  13.720  0.1969 -0.0210 -0.3253
  855MPD2    H112612   1.724   2.439  13.407 -1.3594  1.1176 -0.0532
  855MPD2    H212613   1.873   2.337  13.785 -1.8370  1.6946  1.8263
  855MPD2    H312614   1.905   2.410  13.572  1.3822 -3.5728 -0.2280
  855MPD2     N12615   1.472   2.419  13.463 -0.1035 -0.1365  0.1859
  855MPD2    H512616   1.494   2.444  13.367 -0.5126 -1.5444 -0.2735
  855MPD2    N112617   1.617   2.256  13.887  0.2490 -0.0468 -0.3781
  855MPD2    H712618   1.522   2.225  13.902  0.6573 -0.9217  0.4248
  856MPD2     C12619   3.624   2.760  14.388 -0.4846 -0.0866  0.8479
  856MPD2    C112620   3.523   2.768  14.483 -0.5735  0.6838 -0.0414
  856MPD2    C212621   3.397   2.793  14.440  0.1909  0.1091  0.5559
  856MPD2    C312622   3.370   2.823  14.305  1.0637 -0.0849 -0.1173
  856MPD2    C412623   3.473   2.809  14.209 -0.6137  0.0304 -0.3492
  856MPD2    C512624   3.601   2.774  14.254 -0.0133 -0.3396  0.4400
  856MPD2     H12625   3.328   2.789  14.523  1.6458 -1.2495  1.7025
  856MPD2    H112626   3.446   2.822  14.105  0.2542  1.7518 -0.3572
  856MPD2    H212627   3.729   2.753  14.415 -0.8825 -0.8254  2.2189
  856MPD2    H312628   3.688   2.776  14.190 -0.2271  2.2248  0.2333
  856MPD2     N12629   3.239   2.866  14.261  0.4913 -0.4370  1.0958
  856MPD2    H512630   3.207   2.851  14.166  2.2794 -0.5980  0.5243
  856MPD2    N112631   3.549   2.775  14.625  0.1008  0.4690  0.2492
  856MPD2    H712632   3.471   2.791  14.689 -1.0816 -0.7543 -0.8852
  857MPD2     C12633   0.017   0.055  13.224  0.2042  0.4535 -0.4722
  857MPD2    C112634   0.128   0.101  13.163  0.1586  0.0351 -0.3454
  857MPD2    C212635   0.183   0.219  13.215 -0.2530  0.1779 -0.2163
  857MPD2    C312636   0.137   0.286  13.325  0.0607 -0.7229 -0.2217
  857MPD2    C412637   0.024   0.235  13.387  0.0761 -0.4426 -0.3037
  857MPD2    C512638   4.703   0.122  13.334 -0.5310 -0.3971  0.6096
  857MPD2     H12639   0.276   0.256  13.174 -0.3766 -0.5708 -1.1640
  857MPD2    H112640   4.710   0.273  13.475 -0.0291  2.5891 -1.6522
  857MPD2    H212641   4.715   4.698  13.190 -0.2486  0.8759 -1.1156
  857MPD2    H312642   4.611   0.088  13.380 -1.4255 -0.3024 -1.1226
  857MPD2     N12643   0.220   0.395  13.364  0.1263  0.1425 -0.5836
  857MPD2    H512644   0.301   0.412  13.306  1.2768  1.3299  1.3630
  857MPD2    N112645   0.168   0.030  13.052 -0.2813 -0.1874 -0.0970
  857MPD2    H712646   0.120   4.678  13.041  0.2291 -0.5485  0.5870
  858MPD2     C12647   0.728   4.477  16.738 -0.5273 -0.1187  0.8904
  858MPD2    C112648   0.749   4.348  16.770 -0.7743  0.3187  1.3461
  858MPD2    C212649   0.756   4.317  16.909 -0.8484  0.3694 -0.0510
  858MPD2    C312650   0.738   4.410  17.005 -0.2958 -0.0510  0.3355
  858MPD2    C412651   0.703   4.533  16.971 -0.3012  0.2783 -0.4239
  858MPD2    C512652   0.714   4.570  16.840 -0.0885 -0.0074  0.8229
  858MPD2     H12653   0.774   4.214  16.939  0.4389  0.5156 -0.3501
  858MPD2    H112654   0.687   4.610  17.046 -0.0281  1.3043 -1.4170
  858MPD2    H212655   0.737   4.505  16.633  2.7365  0.1517  1.2502
  858MPD2    H312656   0.703   4.677  16.827 -0.2741  0.0875  1.7438
  858MPD2     N12657   0.755   4.388  17.151 -0.2366 -0.1295  0.0611
  858MPD2    H512658   0.733   4.469  17.208  0.6367  1.6767 -2.1958
  858MPD2    N112659   0.777   4.259  16.665  0.5414  0.5678  0.2357
  858MPD2    H712660   0.786   4.291  16.569 -1.5685 -1.1640 -0.5579
  859MPD2     C12661   3.993   1.621  16.043 -0.1543 -0.6954  0.1234
  859MPD2    C112662   4.048   1.542  15.946  0.6210  0.9339  0.4027
  859MPD2    C212663   4.017   1.401  15.952 -0.3449 -0.0693  0.4177
  859MPD2    C312664   3.944   1.350  16.060  0.3847  0.4433  0.4647
  859MPD2    C412665   3.893   1.430  16.151  0.7182 -0.3590  0.4700
  859MPD2    C512666   3.914   1.563  16.140 -0.3630 -0.1446  0.1290
  859MPD2     H12667   4.064   1.334  15.881  1.5580  1.7946 -0.0754
  859MPD2    H112668   3.844   1.393  16.240 -1.4426  0.0478 -0.5229
  859MPD2    H212669   4.004   1.729  16.043 -1.1156 -0.5955 -0.7218
  859MPD2    H312670   3.882   1.632  16.217  0.8133  0.3245  0.2057
  859MPD2     N12671   3.941   1.207  16.094 -0.2837 -0.6079  0.0414
  859MPD2    H512672   3.875   1.174  16.163  0.9380  0.5187  1.7636
  859MPD2    N112673   4.118   1.594  15.834  0.5370 -1.0667  0.0438
  859MPD2    H712674   4.121   1.530  15.755  0.6802  0.9853 -1.6459
  860MPD2     C12675   1.230   1.520  11.950  0.3763  0.2616  1.0667
  860MPD2    C112676   1.285   1.582  12.060  0.1579  0.3399  0.0472
  860MPD2    C212677   1.218   1.582  12.183  0.3525  0.3506  0.4515
  860MPD2    C312678   1.088   1.543  12.197 -0.3751 -0.6495  0.0538
  860MPD2    C412679   1.035   1.470  12.085  0.5515 -0.0985 -0.8088
  860MPD2    C512680   1.102   1.469  11.963 -0.0680 -0.1341 -0.7174
  860MPD2     H12681   1.261   1.643  12.262  0.3109 -0.9224  1.4465
  860MPD2    H112682   0.933   1.434  12.078  0.6460 -0.5500  0.1629
  860MPD2    H212683   1.282   1.522  11.855 -0.0226 -0.4063  0.8322
  860MPD2    H312684   1.060   1.417  11.878 -1.1309 -1.9192  0.8830
  860MPD2     N12685   1.007   1.593  12.308  0.2024 -0.6138 -0.0471
  860MPD2    H512686   1.045   1.674  12.355 -2.5583  0.1391  0.8848
  860MPD2    N112687   1.422   1.639  12.062  1.0285  0.7127  0.2505
  860MPD2    H712688   1.448   1.690  12.146  0.4014  0.2903  0.6986
  861MPD2     C12689   0.991   4.230  11.204 -0.2960  0.3370  0.1013
  861MPD2    C112690   0.885   4.257  11.289  0.0530  0.2523 -0.5026
  861MPD2    C212691   0.768   4.309  11.233  0.4716  0.0121  0.0901
  861MPD2    C312692   0.754   4.343  11.104 -0.2402 -0.0608  0.0196
  861MPD2    C412693   0.858   4.312  11.014 -0.0391 -0.0159 -0.8384
  861MPD2    C512694   0.974   4.254  11.066  0.1291  0.7887 -0.1061
  861MPD2     H12695   0.690   4.329  11.305  1.0592  0.6796  0.5387
  861MPD2    H112696   0.852   4.329  10.907  0.8065 -0.3437 -0.9308
  861MPD2    H212697   1.086   4.183  11.227 -0.7102 -0.6388 -0.1915
  861MPD2    H312698   1.061   4.239  11.003 -1.2192 -1.6040 -1.4178
  861MPD2     N12699   0.639   4.408  11.045  0.5241  0.2304 -0.3600
  861MPD2    H512700   0.644   4.423  10.945  0.0420 -0.7859 -0.5390
  861MPD2    N112701   0.898   4.218  11.427 -0.1921 -0.8175  0.0164
  861MPD2    H712702   0.817   4.233  11.486 -0.0781 -1.6650  0.4000
  862MPD2     C12703   0.374   0.039  10.471  0.5117 -0.3443 -0.6904
  862MPD2    C112704   0.375   4.664  10.552 -0.6180 -0.5224 -0.4130
  862MPD2    C212705   0.335   4.542  10.500  0.4410  0.3844 -0.8057
  862MPD2    C312706   0.287   4.534  10.367 -0.1195 -0.1261 -0.0302
  862MPD2    C412707   0.276   4.653  10.294  0.0589 -0.1760  0.4256
  862MPD2    C512708   0.323   0.033  10.345  0.3069 -0.3460  0.4369
  862MPD2     H12709   0.336   4.456  10.566  0.8983  1.3715  0.4741
  862MPD2    H112710   0.233   4.669  10.196 -0.6766  1.4415  1.0178
  862MPD2    H212711   0.418   0.135  10.493 -0.8340  0.3516 -1.0669
  862MPD2    H312712   0.326   0.132  10.300  0.4289 -0.4285  0.2618
  862MPD2     N12713   0.226   4.416  10.330  0.3859 -0.2592 -0.2191
  862MPD2    H512714   0.246   4.332  10.385  0.0368  0.2624  0.7029
  862MPD2    N112715   0.410   4.666  10.688 -0.0016 -0.3762 -0.8518
  862MPD2    H712716   0.394   4.575  10.730 -1.8370  0.4719  0.2884
  863MPD2     C12717   4.092   3.364  16.981  0.5860 -0.5497  0.1928
  863MPD2    C112718   3.989   3.304  17.047  0.0466 -0.7673 -1.2866
  863MPD2    C212719   4.012   3.266  17.180  0.3868  0.6883 -0.3815
  863MPD2    C312720   4.134   3.275  17.248  0.3318 -0.4801  1.0064
  863MPD2    C412721   4.235   3.341  17.182 -0.2069  0.1784  0.5553
  863MPD2    C512722   4.203   3.389  17.057  0.2662 -0.6360 -0.1365
  863MPD2     H12723   3.925   3.226  17.231  1.0510 -1.0272 -0.5979
  863MPD2    H112724   4.319   3.371  17.244  0.1870 -0.5266  0.3540
  863MPD2    H212725   4.090   3.387  16.875  1.0706 -0.8325  0.1222
  863MPD2    H312726   4.267   3.459  17.004 -1.1712 -0.0238 -1.0709
  863MPD2     N12727   4.166   3.221  17.372 -0.4459 -0.5900 -0.2111
  863MPD2    H512728   4.263   3.241  17.394 -0.2433 -2.0017  0.1631
  863MPD2    N112729   3.866   3.295  16.971  0.0549  0.2445 -0.4612
  863MPD2    H712730   3.864   3.330  16.876  0.8261 -1.4282 -1.0920
  864MPD2     C12731   3.878   3.917  17.360 -0.3943 -0.3305 -0.5171
  864MPD2    C112732   3.944   3.982  17.260 -0.7825 -0.0912 -0.2609
  864MPD2    C212733   4.066   4.051  17.280 -0.0610  0.4376 -0.3218
  864MPD2    C312734   4.138   4.020  17.393  0.1502  0.1527  0.1308
  864MPD2    C412735   4.072   3.947  17.494 -0.3049 -0.2251 -0.4232
  864MPD2    C512736   3.943   3.901  17.483  0.5515  0.3415 -0.4761
  864MPD2     H12737   4.110   4.115  17.204  1.1594 -0.0484 -0.0270
  864MPD2    H112738   4.139   3.915  17.573  0.7532 -0.5891 -1.4659
  864MPD2    H212739   3.780   3.872  17.346 -1.1850  1.9067 -2.0781
  864MPD2    H312740   3.904   3.834  17.559 -0.3948  2.2734  0.7621
  864MPD2     N12741   4.273   4.061  17.408 -1.1751  0.3075 -0.3074
  864MPD2    H512742   4.334   4.029  17.482 -1.5058  1.6926  0.5702
  864MPD2    N112743   3.875   3.981  17.142 -0.2874  0.0012  0.0991
  864MPD2    H712744   3.780   3.946  17.143 -1.2650  2.5779 -0.8398
  865MPD2     C12745   0.355   4.251  16.748 -0.0387 -0.7983 -0.1339
  865MPD2    C112746   0.229   4.286  16.731  0.1594  0.0791  0.6488
  865MPD2    C212747   0.151   4.308  16.841  0.2363 -0.1083  1.0941
  865MPD2    C312748   0.197   4.291  16.968 -0.2358  0.6321 -0.2449
  865MPD2    C412749   0.332   4.270  16.987 -0.6423  0.8245  0.1705
  865MPD2    C512750   0.406   4.249  16.872  0.1880 -0.7783 -0.4855
  865MPD2     H12751   0.050   4.343  16.822  0.3670  0.1862  0.9387
  865MPD2    H112752   0.365   4.252  17.089 -1.1273 -0.3624  0.1277
  865MPD2    H212753   0.423   4.231  16.666 -2.5008  1.3238 -2.6966
  865MPD2    H312754   0.512   4.229  16.888  0.1623 -0.8719 -0.4340
  865MPD2     N12755   0.113   4.295  17.079 -0.0740  0.1718  0.0090
  865MPD2    H512756   0.162   4.291  17.168 -0.4589  0.7467  0.2457
  865MPD2    N112757   0.175   4.273  16.602  0.2804 -0.1577 -0.7211
  865MPD2    H712758   0.244   4.254  16.530  0.2094 -0.8979 -0.5892
  866MPD2     C12759   1.524   4.682  11.549  0.1290 -0.0191 -0.2945
  866MPD2    C112760   1.475   4.575  11.473 -0.1166 -0.0041 -0.1775
  866MPD2    C212761   1.343   4.548  11.470 -0.4651 -0.2831  0.2693
  866MPD2    C312762   1.255   4.638  11.525 -0.4762 -0.1890 -0.2744
  866MPD2    C412763   1.300   4.734  11.615  0.2234  0.1088  0.1262
  866MPD2    C512764   1.435   0.019  11.620  0.6265 -0.0073 -0.0722
  866MPD2     H12765   1.302   4.467  11.410 -1.0550  0.1944  0.0332
  866MPD2    H112766   1.230   0.061  11.667 -1.2339 -1.7555  0.4753
  866MPD2    H212767   1.624   4.714  11.522  0.5650 -1.2193 -0.1049
  866MPD2    H312768   1.486   0.105  11.662 -0.1459 -0.0822  1.0165
  866MPD2     N12769   1.112   4.639  11.495  0.1491  0.2901 -0.0476
  866MPD2    H512770   1.073   4.728  11.525 -1.8779 -0.4879 -0.3425
  866MPD2    N112771   1.568   4.499  11.399 -0.4286 -0.1154  0.2839
  866MPD2    H712772   1.662   4.533  11.385 -0.1568 -0.8711  0.2906
  867MPD2     C12773   2.794   4.516  16.318 -0.4920 -0.3411 -0.4141
  867MPD2    C112774   2.843   4.436  16.423 -0.4741 -0.6957 -0.6369
  867MPD2    C212775   2.830   4.483  16.553 -0.1630  0.3986 -0.5655
  867MPD2    C312776   2.766   4.602  16.584 -0.0488 -0.0623  0.3732
  867MPD2    C412777   2.724   4.679  16.474  0.2282 -0.2721  0.0974
  867MPD2    C512778   2.733   4.636  16.346  0.0140 -0.1811  0.0627
  867MPD2     H12779   2.877   4.436  16.639  0.4460 -0.2893 -1.2803
  867MPD2    H112780   2.674   0.037  16.490  0.5737 -0.4627  2.3022
  867MPD2    H212781   2.808   4.479  16.217  1.8581 -0.7035  0.0524
  867MPD2    H312782   2.696   4.702  16.268 -3.1314 -1.4876  0.4354
  867MPD2     N12783   2.744   4.658  16.707 -0.0454  0.1232 -0.2593
  867MPD2    H512784   2.713   0.018  16.711 -2.0910 -0.6143  1.4221
  867MPD2    N112785   2.910   4.312  16.394 -0.4075  0.9041  0.2437
  867MPD2    H712786   2.907   4.283  16.297  1.0562 -1.8555  1.0422
  868MPD2     C12787   0.176   3.675  13.135 -0.0309 -0.1628 -0.0975
  868MPD2    C112788   0.274   3.663  13.233  0.5983 -0.0165  0.4734
  868MPD2    C212789   0.232   3.685  13.370  0.4723  0.4635 -0.4108
  868MPD2    C312790   0.093   3.709  13.399 -0.2774  0.2941  0.6586
  868MPD2    C412791   0.001   3.705  13.294 -0.3963 -0.5780  0.5886
  868MPD2    C512792   0.046   3.699  13.165  0.1145 -0.0895  0.0648
  868MPD2     H12793   0.314   3.693  13.440 -1.4604  0.3725  1.8468
  868MPD2    H112794   4.631   3.712  13.309 -0.1429  2.0422  1.2545
  868MPD2    H212795   0.192   3.655  13.030 -0.7690  0.4975 -0.3366
  868MPD2    H312796   4.707   3.703  13.088  0.2340 -1.2799 -0.1200
  868MPD2     N12797   0.054   3.709  13.536 -0.0516 -0.7146  0.4801
  868MPD2    H512798   0.128   3.680  13.600  0.9162  0.2878 -0.1748
  868MPD2    N112799   0.405   3.609  13.195  0.2624 -0.1840  0.1275
  868MPD2    H712800   0.417   3.591  13.095  0.4493 -0.1542  0.1446
  869MPD2     C12801   0.582   2.140   0.433 -0.8064  0.3741  0.6460
  869MPD2    C112802   0.533   2.022   0.490  0.5014 -0.4012 -0.1791
  869MPD2    C212803   0.616   1.925   0.549 -0.1945  0.0738 -0.1429
  869MPD2    C312804   0.742   1.960   0.572 -0.0635  0.3409 -0.0302
  869MPD2    C412805   0.793   2.066   0.506 -1.0053  1.0983  0.0186
  869MPD2    C512806   0.717   2.153   0.435  0.2908 -0.4587 -0.0357
  869MPD2     H12807   0.574   1.844   0.607 -0.9174  0.0400 -0.7256
  869MPD2    H112808   0.896   2.097   0.515 -0.9468  1.0771 -0.5573
  869MPD2    H212809   0.516   2.202   0.373  1.0466  1.3274 -0.4283
  869MPD2    H312810   0.773   2.236   0.394 -0.6939 -0.1366 -0.7347
  869MPD2     N12811   0.835   1.893   0.657  0.4474 -0.1348 -0.4128
  869MPD2    H512812   0.926   1.937   0.657  0.8264 -0.9063  0.9430
  869MPD2    N112813   0.390   2.018   0.492  0.9209  0.1066 -0.7508
  869MPD2    H712814   0.333   2.085   0.441  1.1610  0.5881 -0.3936
  870MPD2     C12815   1.641   0.485   1.736 -0.4436 -0.5105  0.1125
  870MPD2    C112816   1.547   0.426   1.659  0.1087  0.0317  0.3511
  870MPD2    C212817   1.438   0.506   1.631  1.1600  0.2292 -0.4400
  870MPD2    C312818   1.433   0.641   1.671 -0.4166 -0.2700  0.1756
  870MPD2    C412819   1.533   0.699   1.750  0.8099 -0.1104  0.3388
  870MPD2    C512820   1.637   0.615   1.786  0.6320  0.1849  0.1476
  870MPD2     H12821   1.369   0.467   1.558 -0.4645  0.8253  0.7851
  870MPD2    H112822   1.531   0.803   1.780  1.0523  0.4816 -1.6793
  870MPD2    H212823   1.724   0.420   1.761 -0.5729 -0.6425  0.2038
  870MPD2    H312824   1.724   0.658   1.836  0.8300 -0.8165  0.6704
  870MPD2     N12825   1.318   0.715   1.632  0.4923  0.0500 -0.3670
  870MPD2    H512826   1.245   0.659   1.590  1.9088 -0.7583 -1.7555
  870MPD2    N112827   1.563   0.291   1.605  1.0055 -0.2724 -0.1458
  870MPD2    H712828   1.654   0.250   1.626  1.6394  0.4140 -1.5344
  871MPD2     C12829   1.969   4.627  16.551  0.9636  0.0267 -0.3462
  871MPD2    C112830   1.953   4.590  16.688  0.0139  0.3983 -0.4255
  871MPD2    C212831   1.977   4.464  16.730  0.1483 -0.1800  0.5051
  871MPD2    C312832   2.011   4.362  16.634 -0.2866  0.2804  0.4022
  871MPD2    C412833   2.027   4.396  16.504 -0.8687 -0.0067 -0.3059
  871MPD2    C512834   2.014   4.528  16.468 -0.3601 -0.4028 -0.4431
  871MPD2     H12835   1.958   4.435  16.833 -0.3645  0.7772  0.6823
  871MPD2    H112836   2.033   4.318  16.429 -1.9671 -1.2993  0.9334
  871MPD2    H212837   1.961   4.728  16.514  0.1024  0.1734  0.2469
  871MPD2    H312838   2.022   4.543  16.361 -1.9933 -1.4034 -0.6987
  871MPD2     N12839   2.050   4.235  16.690 -0.2279  0.6944  0.1511
  871MPD2    H512840   2.039   4.216  16.789  0.5416 -0.6842 -0.0375
  871MPD2    N112841   1.915   4.696  16.777  0.2071  0.2659 -0.2355
  871MPD2    H712842   1.925   0.052  16.737  1.2099  0.2292 -0.0551
  872MPD2     C12843   3.138   2.200  13.962 -0.4975  0.7662  0.2379
  872MPD2    C112844   3.209   2.266  14.067 -0.3682 -0.1130  1.1206
  872MPD2    C212845   3.148   2.270  14.192 -0.0906 -1.1674 -0.2191
  872MPD2    C312846   3.016   2.231  14.210  0.3095  0.1974 -0.1439
  872MPD2    C412847   2.958   2.178  14.100 -0.7093 -0.2099  0.3066
  872MPD2    C512848   3.006   2.175  13.975  0.7396  0.6765  0.2692
  872MPD2     H12849   3.201   2.321  14.273  0.8171  0.3548 -1.7721
  872MPD2    H112850   2.859   2.136  14.112 -1.5222  1.6525  0.1362
  872MPD2    H212851   3.180   2.191  13.863 -0.4039  2.9595  0.0789
  872MPD2    H312852   2.950   2.138  13.890  0.2769  0.9309  0.4599
  872MPD2     N12853   2.946   2.220  14.335 -0.2761  0.5557  0.9221
  872MPD2    H512854   2.859   2.169  14.341  0.3933 -0.5207  1.4574
  872MPD2    N112855   3.332   2.329  14.046  0.3657 -0.1966 -0.0259
  872MPD2    H712856   3.372   2.386  14.121  0.2587  1.1104 -0.9530
  873MPD2     C12857   4.395   2.728   0.752 -0.4708 -0.4199  0.0564
  873MPD2    C112858   4.366   2.632   0.846  0.4210 -0.0917 -0.4880
  873MPD2    C212859   4.353   2.498   0.805  0.8698 -0.6734  0.4020
  873MPD2    C312860   4.386   2.466   0.674  0.2439 -0.2059  0.1514
  873MPD2    C412861   4.418   2.561   0.588 -0.0090  0.0780 -0.5780
  873MPD2    C512862   4.434   2.687   0.630 -0.4631  0.2190 -0.1984
  873MPD2     H12863   4.310   2.429   0.877  1.6517 -1.4951  0.0871
  873MPD2    H112864   4.443   2.532   0.487 -0.0977 -3.1219  0.3174
  873MPD2    H212865   4.401   2.833   0.778 -1.9644 -0.6004  1.1384
  873MPD2    H312866   4.464   2.762   0.558  0.5237  0.5102  0.5189
  873MPD2     N12867   4.360   2.339   0.626  0.5095  0.1717  0.6330
  873MPD2    H512868   4.355   2.329   0.525  2.0885 -0.3827  0.6008
  873MPD2    N112869   4.345   2.687   0.978  0.0037 -0.1853 -0.6047
  873MPD2    H712870   4.334   2.788   0.975 -0.0493 -0.1457  0.8996
  874MPD2     C12871   4.186   2.631  16.196  0.1706 -0.1146 -1.1964
  874MPD2    C112872   4.236   2.536  16.285  0.3060  0.3768 -0.2121
  874MPD2    C212873   4.374   2.532  16.312 -0.2733 -0.0230 -0.3138
  874MPD2    C312874   4.462   2.617  16.248  0.3477  0.7772  0.0266
  874MPD2    C412875   4.409   2.717  16.157 -0.7949  0.5173  0.3662
  874MPD2    C512876   4.270   2.722  16.138  0.4289  0.1766  0.0001
  874MPD2     H12877   4.412   2.472  16.394  1.4216 -0.0232 -1.1092
  874MPD2    H112878   4.476   2.784  16.105 -0.1950 -1.5876 -1.5969
  874MPD2    H212879   4.081   2.637  16.171 -0.1808  0.1744  0.3496
  874MPD2    H312880   4.225   2.795  16.071 -1.3121 -1.0286 -0.1467
  874MPD2     N12881   4.598   2.628  16.286  0.2282 -0.0192  0.8666
  874MPD2    H512882   4.653   2.705  16.249 -0.2406  0.1557  0.5355
  874MPD2    N112883   4.142   2.451  16.349  0.6940  0.1755  0.3940
  874MPD2    H712884   4.046   2.447  16.317  0.9342  0.3771 -0.3491
  875MPD2     C12885   1.138   0.523  14.651  0.0803 -0.2295 -0.2366
  875MPD2    C112886   1.012   0.554  14.695 -1.0147  0.0213  0.0519
  875MPD2    C212887   1.007   0.629  14.815  0.2246  0.0941  0.6433
  875MPD2    C312888   1.116   0.694  14.868 -0.7251  0.4501  0.1889
  875MPD2    C412889   1.241   0.674  14.811  0.1753  0.7628 -0.1942
  875MPD2    C512890   1.249   0.571  14.723  0.5407  0.2790 -0.5633
  875MPD2     H12891   0.915   0.671  14.853 -0.8911 -2.1782  0.4433
  875MPD2    H112892   1.332   0.707  14.860  0.8497 -0.8103 -0.4010
  875MPD2    H212893   1.143   0.469  14.557  0.4895  1.6502 -1.2912
  875MPD2    H312894   1.347   0.549  14.682  0.3453 -1.6156 -0.0002
  875MPD2     N12895   1.108   0.771  14.988  0.3042 -0.4151 -0.9262
  875MPD2    H512896   1.198   0.815  15.005 -0.5350  0.7587  0.4596
  875MPD2    N112897   0.895   0.509  14.635 -0.4871 -1.1509  0.7065
  875MPD2    H712898   0.806   0.522  14.682 -0.5185 -0.4549  0.4481
  876MPD2     C12899   4.047   2.047  16.301 -0.2243 -0.3404  0.5614
  876MPD2    C112900   4.181   2.033  16.271 -0.9817 -0.3618  0.4483
  876MPD2    C212901   4.247   1.913  16.284  0.0752  0.1147 -0.5339
  876MPD2    C312902   4.176   1.808  16.346  0.3981 -0.3653 -0.4427
  876MPD2    C412903   4.053   1.836  16.396  0.0500 -0.7604  0.0733
  876MPD2    C512904   3.990   1.953  16.371  0.1376 -0.9449 -0.2667
  876MPD2     H12905   4.350   1.897  16.254 -0.2781  0.3333 -1.8551
  876MPD2    H112906   3.991   1.765  16.450 -0.1397 -0.1664  0.6267
  876MPD2    H212907   3.989   2.137  16.286 -0.9076 -0.6405  1.4340
  876MPD2    H312908   3.892   1.977  16.411  0.3688 -0.3363 -0.0622
  876MPD2     N12909   4.229   1.675  16.348  0.4038 -0.0197  0.0430
  876MPD2    H512910   4.316   1.661  16.298  0.0488 -2.1616  0.0042
  876MPD2    N112911   4.246   2.147  16.202  0.2893  0.2659  0.0019
  876MPD2    H712912   4.187   2.227  16.182 -1.4700 -0.9072  0.4735
  877MPD2     C12913   4.141   2.287  15.521  0.0649 -0.1185  0.2640
  877MPD2    C112914   4.268   2.336  15.533 -0.3236  0.4648 -0.1504
  877MPD2    C212915   4.343   2.335  15.412 -0.1430  0.1501 -0.5551
  877MPD2    C312916   4.287   2.290  15.292 -0.1068 -0.7614 -0.0848
  877MPD2    C412917   4.156   2.256  15.283  0.4339  0.0227 -0.6320
  877MPD2    C512918   4.085   2.263  15.401  0.5583 -0.0131 -0.4708
  877MPD2     H12919   4.443   2.377  15.421 -0.8644  1.2905  2.1287
  877MPD2    H112920   4.098   2.241  15.193 -1.5883  0.9064  0.5169
  877MPD2    H212921   4.071   2.262  15.600 -0.1231  0.0061  0.1389
  877MPD2    H312922   3.979   2.243  15.407 -0.3926  3.8678 -4.1071
  877MPD2     N12923   4.367   2.281  15.170 -0.2194 -0.4545 -0.9088
  877MPD2    H512924   4.335   2.217  15.097 -0.1337 -1.0183 -0.4542
  877MPD2    N112925   4.315   2.381  15.655 -0.1926 -0.0695  0.5942
  877MPD2    H712926   4.414   2.404  15.653 -0.4443  0.9064 -0.7498
  878MPD2     C12927   4.442   2.018  13.637  0.0245 -0.5268 -0.3351
  878MPD2    C112928   4.386   1.938  13.535 -0.8598  0.1621  0.0864
  878MPD2    C212929   4.321   1.821  13.576 -0.4122  0.6361 -0.0070
  878MPD2    C312930   4.302   1.796  13.707 -0.7855  0.0230 -0.1027
  878MPD2    C412931   4.358   1.878  13.803  0.2782  0.0575  0.2990
  878MPD2    C512932   4.423   1.993  13.768 -0.2225 -0.1627  0.2660
  878MPD2     H12933   4.275   1.760  13.499  0.1221  0.0274  0.1582
  878MPD2    H112934   4.335   1.866  13.909  0.9480  0.1018  0.4509
  878MPD2    H212935   4.501   2.104  13.607 -0.6379 -0.6080 -1.8716
  878MPD2    H312936   4.461   2.060  13.844  2.5452 -1.5274  0.0837
  878MPD2     N12937   4.219   1.685  13.737 -0.1950 -0.1217 -0.0846
  878MPD2    H512938   4.196   1.618  13.664  2.5373 -1.2684  0.1244
  878MPD2    N112939   4.408   1.966  13.399  0.4296 -0.6153 -0.2280
  878MPD2    H712940   4.458   2.053  13.385 -1.4196 -0.3407 -5.2396
  879MPD2     C12941   4.606   3.372  17.239 -0.4294 -0.1102  1.4654
  879MPD2    C112942   4.614   3.247  17.300 -0.4488  0.1165  0.2345
  879MPD2    C212943   4.586   3.131  17.230  0.1835 -0.2143 -0.5372
  879MPD2    C312944   4.546   3.144  17.098  0.4330  0.3096 -0.1129
  879MPD2    C412945   4.535   3.269  17.045 -0.0059  0.5626  0.6179
  879MPD2    C512946   4.575   3.387  17.110  0.3714  0.4799  0.0930
  879MPD2     H12947   4.602   3.035  17.277  0.1080  0.8739  1.7049
  879MPD2    H112948   4.496   3.272  16.944  1.2324 -2.6934  0.0563
  879MPD2    H212949   4.625   3.467  17.288  0.5718  0.1530  0.5843
  879MPD2    H312950   4.560   3.489  17.076 -0.5474  0.4769  0.4877
  879MPD2     N12951   4.512   3.034  17.012  0.4888  0.1069  0.4617
  879MPD2    H512952   4.472   3.065  16.924  1.8536 -0.6077 -0.4262
  879MPD2    N112953   4.650   3.249  17.435  0.1743  0.2919  0.5421
  879MPD2    H712954   4.680   3.339  17.472 -0.5029  0.5681  0.4292
  880MPD2     C12955   0.831   4.481   0.607  0.3381 -0.2528 -0.2599
  880MPD2    C112956   0.913   4.550   0.688 -0.2063 -0.5777  0.5178
  880MPD2    C212957   0.994   4.487   0.775 -0.1492  0.0701 -0.0700
  880MPD2    C312958   1.009   4.350   0.774  0.4424 -0.1388  0.4754
  880MPD2    C412959   0.932   4.277   0.693 -0.0737  0.0474 -0.0348
  880MPD2    C512960   0.854   4.349   0.605 -0.5644 -0.0886 -0.0234
  880MPD2     H12961   1.063   4.544   0.837 -0.3491  1.3752 -1.0524
  880MPD2    H112962   0.932   4.168   0.688 -0.5348  0.0606 -0.4318
  880MPD2    H212963   0.760   4.528   0.541 -1.0894 -2.7920 -0.5149
  880MPD2    H312964   0.798   4.295   0.530 -1.0905  1.2415 -0.5814
  880MPD2     N12965   1.096   4.299   0.874 -0.3077  0.0084 -0.0567
  880MPD2    H512966   1.138   4.365   0.939  0.7400 -0.5389 -0.1741
  880MPD2    N112967   0.915   4.691   0.687  0.1687  0.0464 -0.4048
  880MPD2    H712968   0.866   4.736   0.611 -0.5970 -1.2527 -0.6709
  881MPD2     C12969   0.847   0.627   0.001 -0.0436  0.2530 -0.2182
  881MPD2    C112970   0.936   0.521   0.010  0.3706 -0.1507  0.7787
  881MPD2    C212971   0.953   0.467   0.139 -0.4963 -0.8536  0.7294
  881MPD2    C312972   0.878   0.501   0.242  0.5410 -0.3766 -0.2910
  881MPD2    C412973   0.770   0.585   0.220  0.3043  0.0708  0.5216
  881MPD2    C512974   0.755   0.647   0.099 -0.0051  0.0527 -0.4372
  881MPD2     H12975   1.034   0.396   0.149 -1.0346 -1.4438  0.9298
  881MPD2    H112976   0.701   0.613   0.299 -0.1069  0.3288  0.0685
  881MPD2    H212977   0.835   0.693  17.662  0.9667  3.1317  1.8539
  881MPD2    H312978   0.679   0.722   0.078 -0.6634 -0.5766 -0.3190
  881MPD2     N12979   0.905   0.455   0.375  0.7060 -0.0774  0.0271
  881MPD2    H512980   0.847   0.496   0.448  2.9112  0.2758  1.5570
  881MPD2    N112981   1.028   0.501  17.656 -0.2572 -0.0791  0.2415
  881MPD2    H712982   1.015   0.557  17.572 -0.8797  0.8948  0.9869
  882MPD2     C12983   4.327   1.881  14.547 -0.0811  0.5085  0.1803
  882MPD2    C112984   4.330   2.015  14.578  0.3869 -0.2160 -0.7087
  882MPD2    C212985   4.229   2.098  14.529 -0.1654  0.2051  0.2353
  882MPD2    C312986   4.122   2.037  14.466 -0.2048 -0.4338 -0.1461
  882MPD2    C412987   4.117   1.898  14.450  0.2380 -0.4921 -0.2128
  882MPD2    C512988   4.217   1.818  14.498  0.7166 -0.2972  0.3462
  882MPD2     H12989   4.233   2.204  14.550 -0.3671  0.4468 -0.9970
  882MPD2    H112990   4.034   1.847  14.403 -0.3052  1.2840 -1.2000
  882MPD2    H212991   4.416   1.821  14.558  1.3696  2.6324  0.0841
  882MPD2    H312992   4.225   1.711  14.483 -1.7322 -0.5271  0.7956
  882MPD2     N12993   4.007   2.116  14.421 -0.3570 -0.3691  0.4717
  882MPD2    H512994   3.929   2.063  14.384  0.1061 -0.1481 -0.8240
  882MPD2    N112995   4.436   2.066  14.655 -0.2633  0.3008  0.0955
  882MPD2    H712996   4.513   2.001  14.670  0.1602  0.5912 -0.8349
  883MPD2     C12997   1.705   2.521  16.628 -0.2193  0.4154  0.4516
  883MPD2    C112998   1.779   2.551  16.510  0.4502  0.0542 -0.2507
  883MPD2    C212999   1.914   2.549  16.515  0.6207 -0.8496 -0.1178
  883MPD2    C313000   1.977   2.487  16.626 -0.4080  0.1289  0.0647
  883MPD2    C413001   1.897   2.450  16.729  1.0499 -0.0057 -0.6687
  883MPD2    C513002   1.762   2.463  16.735 -0.1245  0.7032  0.6169
  883MPD2     H13003   1.972   2.578  16.428 -2.2847  1.7770 -1.1358
  883MPD2    H113004   1.941   2.396  16.812 -1.3553 -0.0239  0.5944
  883MPD2    H213005   1.597   2.533  16.630 -0.4449 -1.9353  1.9362
  883MPD2    H313006   1.706   2.441  16.825 -1.1139  0.1732 -0.1225
  883MPD2     N13007   2.116   2.452  16.619 -0.0638 -0.1215 -0.2196
  883MPD2    H513008   2.157   2.463  16.527 -1.9248  1.1848 -0.8919
  883MPD2    N113009   1.723   2.598  16.389 -0.6733  0.2564 -0.0817
  883MPD2    H713010   1.790   2.634  16.322 -0.7346  0.7357  0.1127
  884MPD2     C13011   3.655   3.080  15.455 -0.0484  0.7279  0.0790
  884MPD2    C113012   3.601   3.161  15.360  0.7386  0.6119  0.4211
  884MPD2    C213013   3.465   3.185  15.370 -0.5162  0.5484 -0.1474
  884MPD2    C313014   3.389   3.160  15.481  0.0633 -0.8178  0.1131
  884MPD2    C413015   3.442   3.076  15.577  0.9852  0.5214  0.8749
  884MPD2    C513016   3.574   3.039  15.565 -0.1778  0.1529 -0.3332
  884MPD2     H13017   3.423   3.245  15.291 -1.9136 -1.0358 -0.5978
  884MPD2    H113018   3.382   3.033  15.657 -0.2033  0.2198 -0.1689
  884MPD2    H213019   3.756   3.039  15.453 -0.7245 -1.2054  3.8605
  884MPD2    H313020   3.616   2.964  15.630 -1.8930  0.0181  0.5913
  884MPD2     N13021   3.255   3.207  15.488 -0.9583  0.0115 -0.0254
  884MPD2    H513022   3.221   3.270  15.416  1.7572  0.1498 -1.2021
  884MPD2    N113023   3.663   3.205  15.241 -0.7370  0.3237  0.2357
  884MPD2    H713024   3.616   3.277  15.187  2.2307  2.5761  0.6085
  885MPD2     C13025   1.581   4.001   0.435 -0.0505  0.0679  0.5376
  885MPD2    C113026   1.624   3.870   0.459  0.9951 -0.6005 -0.0840
  885MPD2    C213027   1.605   3.776   0.360  0.3939  0.1994 -0.0289
  885MPD2    C313028   1.546   3.808   0.238  0.3484 -0.5666  0.5733
  885MPD2    C413029   1.519   3.941   0.211  0.6279 -0.4075 -0.0678
  885MPD2    C513030   1.535   4.038   0.311 -0.0100  0.7914 -0.0854
  885MPD2     H13031   1.615   3.670   0.381 -0.0832  0.0659 -0.4503
  885MPD2    H113032   1.491   3.982   0.115  2.3238 -0.5653 -0.6340
  885MPD2    H213033   1.594   4.082   0.506 -1.1066 -1.0696  2.0297
  885MPD2    H313034   1.506   4.140   0.288 -2.1407  0.0340 -0.8259
  885MPD2     N13035   1.520   3.708   0.141  0.1691  0.2016  0.2486
  885MPD2    H513036   1.553   3.617   0.170 -2.4029 -1.0143 -0.6264
  885MPD2    N113037   1.674   3.846   0.587 -0.3530 -0.1348  0.5478
  885MPD2    H713038   1.670   3.919   0.657 -0.6785  0.4915 -0.1263
  886MPD2     C13039   2.700   1.835  15.724  0.3196  0.0922  0.0545
  886MPD2    C113040   2.828   1.783  15.703 -0.2673 -0.0927 -0.5706
  886MPD2    C213041   2.930   1.874  15.698 -0.0154 -0.3633 -0.0399
  886MPD2    C313042   2.912   2.005  15.713 -0.5777 -0.1449 -0.3297
  886MPD2    C413043   2.791   2.054  15.736 -0.2248  0.6596  0.4493
  886MPD2    C513044   2.686   1.973  15.750 -0.2295 -0.4716  0.0731
  886MPD2     H13045   3.022   1.832  15.661 -0.3561  0.7205 -2.1052
  886MPD2    H113046   2.784   2.161  15.746  0.0605  0.9863 -2.8113
  886MPD2    H213047   2.613   1.771  15.738  0.0139  0.5208  0.1272
  886MPD2    H313048   2.591   2.015  15.778  0.0540 -0.4186  0.9515
  886MPD2     N13049   3.009   2.101  15.692  0.5527  0.3233 -0.2664
  886MPD2    H513050   2.980   2.199  15.692 -0.3133  0.0656 -0.5353
  886MPD2    N113051   2.857   1.643  15.704 -0.1824  0.2021 -0.0510
  886MPD2    H713052   2.956   1.631  15.684 -0.2776  0.8888 -0.9640
  887MPD2     C13053   3.442   1.428  15.888 -0.0312 -0.0595  0.1163
  887MPD2    C113054   3.322   1.496  15.911  0.4550  0.3661  0.7525
  887MPD2    C213055   3.324   1.627  15.938  0.5967 -0.2119 -0.2975
  887MPD2    C313056   3.438   1.704  15.957  0.5961  0.1788 -0.1603
  887MPD2    C413057   3.556   1.637  15.942 -0.1778 -0.8506  0.2134
  887MPD2    C513058   3.558   1.504  15.906 -0.0905 -0.7369  0.0382
  887MPD2     H13059   3.226   1.672  15.954 -0.2905 -2.2682  0.0017
  887MPD2    H113060   3.655   1.682  15.954  0.4911 -1.6171 -2.4595
  887MPD2    H213061   3.443   1.332  15.839  1.1470  0.5489 -1.0210
  887MPD2    H313062   3.656   1.462  15.887 -1.7332 -3.1484 -3.0830
  887MPD2     N13063   3.432   1.848  15.977 -0.2237  0.3237 -0.1881
  887MPD2    H513064   3.340   1.892  15.980 -0.3251  0.2989 -2.3333
  887MPD2    N113065   3.194   1.442  15.878 -0.4878 -0.0861  0.1689
  887MPD2    H713066   3.115   1.503  15.895 -2.6599 -2.6938 -0.4994
  888MPD2     C13067   0.683   1.573  15.212  0.2083 -0.4660 -0.4168
  888MPD2    C113068   0.745   1.626  15.324 -0.6651  0.0343  1.0133
  888MPD2    C213069   0.780   1.763  15.322 -0.1605 -0.4880  0.1139
  888MPD2    C313070   0.772   1.840  15.207 -0.2541 -0.0646  0.6548
  888MPD2    C413071   0.714   1.784  15.090 -0.2791 -0.6925  0.6643
  888MPD2    C513072   0.657   1.661  15.099 -0.2914 -0.5233 -0.2156
  888MPD2     H13073   0.815   1.808  15.414  1.5871 -1.5569 -0.0324
  888MPD2    H113074   0.712   1.835  14.994 -0.8600 -2.2457 -0.1504
  888MPD2    H213075   0.632   1.478  15.202 -2.6690  1.0883 -0.3694
  888MPD2    H313076   0.605   1.618  15.014  0.8915  0.5114 -1.4707
  888MPD2     N13077   0.826   1.968  15.217  0.9571 -0.1588  0.3313
  888MPD2    H513078   0.859   1.997  15.309  1.3076  2.0948 -0.4899
  888MPD2    N113079   0.761   1.550  15.445 -0.0717  0.1777  0.4654
  888MPD2    H713080   0.840   1.577  15.502 -0.6668  1.8308  0.5059
  889MPD2     C13081   0.361   0.946  14.041  0.7336 -0.4424  0.1190
  889MPD2    C113082   0.360   1.004  13.917  0.6771  0.7636 -0.2175
  889MPD2    C213083   0.395   1.139  13.909 -0.7140 -0.1866  0.2318
  889MPD2    C313084   0.392   1.224  14.019  0.3533  1.0846  0.3451
  889MPD2    C413085   0.370   1.164  14.143 -0.1954 -1.1708  0.1104
  889MPD2    C513086   0.364   1.026  14.150  0.8688 -0.4280 -0.0445
  889MPD2     H13087   0.406   1.179  13.809 -1.9364  1.7092  0.8438
  889MPD2    H113088   0.381   1.217  14.236 -1.7295 -0.2234 -0.2661
  889MPD2    H213089   0.332   0.843  14.056 -2.6549  0.2731 -1.6627
  889MPD2    H313090   0.365   0.975  14.246 -0.9347  0.8052  0.6336
  889MPD2     N13091   0.393   1.366  14.002  0.2529  0.1842 -0.3824
  889MPD2    H513092   0.403   1.405  13.909  0.0060 -1.7917 -1.2527
  889MPD2    N113093   0.378   0.919  13.806 -0.2435  0.0265 -0.3390
  889MPD2    H713094   0.394   0.971  13.720 -1.5715 -0.2529 -0.7677
  890MPD2     C13095   4.534   2.973  14.619 -0.5870  0.8717  0.5281
  890MPD2    C113096   4.557   3.050  14.730 -0.8026 -0.4850 -0.0242
  890MPD2    C213097   4.508   3.002  14.848  0.2886  0.3028  0.2222
  890MPD2    C313098   4.444   2.879  14.856  0.1469  0.2505 -0.3159
  890MPD2    C413099   4.419   2.808  14.742 -0.0367 -0.0917  0.1974
  890MPD2    C513100   4.473   2.852  14.628  0.7516 -0.8651  0.0375
  890MPD2     H13101   4.522   3.061  14.938  1.7862 -1.0045  0.8439
  890MPD2    H113102   4.391   2.703  14.739 -0.3418 -0.0627  2.2056
  890MPD2    H213103   4.566   3.017  14.525 -2.5013 -1.5158 -1.2299
  890MPD2    H313104   4.456   2.800  14.535 -1.3046 -1.2979  0.6520
  890MPD2     N13105   4.399   2.831  14.978 -0.4478  0.1979 -0.1069
  890MPD2    H513106   4.423   2.886  15.060  2.8148  0.7770 -1.4226
  890MPD2    N113107   4.622   3.180  14.715  0.6969  0.4703  0.0432
  890MPD2    H713108   4.660   3.212  14.627  0.1807  0.1395 -0.2983
  891MPD2     C13109   2.078   1.555  16.818  0.6452 -0.0890 -0.1741
  891MPD2    C113110   2.130   1.681  16.824 -0.5818 -0.2281 -0.3680
  891MPD2    C213111   2.234   1.711  16.911  0.7733  0.6632  0.2482
  891MPD2    C313112   2.292   1.613  16.995 -0.2260 -0.0509 -0.1076
  891MPD2    C413113   2.235   1.490  16.991 -0.5772 -0.2760 -0.1962
  891MPD2    C513114   2.138   1.458  16.901 -0.0764 -0.2394 -0.2098
  891MPD2     H13115   2.258   1.816  16.920 -0.2825  1.1654 -2.7128
  891MPD2    H113116   2.288   1.410  17.042 -0.6250 -0.3179 -0.2120
  891MPD2    H213117   2.005   1.534  16.740  0.6632 -1.4232  0.1649
  891MPD2    H313118   2.112   1.353  16.886 -0.7590 -0.3040  1.3969
  891MPD2     N13119   2.393   1.640  17.077 -0.2517  0.4234 -0.0316
  891MPD2    H513120   2.425   1.736  17.081  1.1742 -0.0653  0.3487
  891MPD2    N113121   2.060   1.782  16.758 -0.6789  0.4215 -0.3974
  891MPD2    H713122   1.993   1.746  16.691 -1.4351 -0.6535  0.9333
  892MPD2     C13123   3.620   2.509  15.163 -0.3554 -0.6145 -0.1894
  892MPD2    C113124   3.516   2.520  15.069 -0.0323  0.4463 -0.2443
  892MPD2    C213125   3.541   2.482  14.942 -0.2878 -0.5933  0.4351
  892MPD2    C313126   3.664   2.442  14.900  0.3746  0.0311 -0.0184
  892MPD2    C413127   3.765   2.430  14.988  0.8262 -0.1386  0.1112
  892MPD2    C513128   3.745   2.462  15.123 -0.5170 -0.1819 -0.1394
  892MPD2     H13129   3.464   2.487  14.866 -1.5698  0.9001  1.8203
  892MPD2    H113130   3.869   2.411  14.965  0.4197 -0.3501 -1.4900
  892MPD2    H213131   3.617   2.551  15.263 -3.7540 -1.7833  0.1786
  892MPD2    H313132   3.828   2.459  15.192 -0.6777  2.5368  0.1676
  892MPD2     N13133   3.691   2.409  14.765  0.0444  0.0794 -0.0905
  892MPD2    H513134   3.782   2.373  14.738  0.0143  1.5134 -2.1268
  892MPD2    N113135   3.392   2.582  15.102 -0.1063  0.5631  0.2582
  892MPD2    H713136   3.336   2.598  15.019  0.5955 -2.5049 -0.7845
  893MPD2     C13137   4.644   0.770   1.728  0.2407 -0.4116 -0.5579
  893MPD2    C113138   4.598   0.889   1.678 -0.4199  0.0561 -0.3949
  893MPD2    C213139   4.474   0.928   1.721  0.3781  0.4772 -0.3867
  893MPD2    C313140   4.398   0.850   1.808 -0.1805  0.1802  0.5354
  893MPD2    C413141   4.441   0.723   1.847  0.8852  0.1576  0.0893
  893MPD2    C513142   4.568   0.689   1.803  0.2742  0.2741 -0.2000
  893MPD2     H13143   4.437   1.022   1.682 -1.1271 -0.7285 -1.8600
  893MPD2    H113144   4.383   0.650   1.904  0.3832 -0.9261 -1.8244
  893MPD2    H213145   0.009   0.741   1.705  0.2879 -1.1454  0.5598
  893MPD2    H313146   4.610   0.594   1.835 -0.2065  0.9256  2.4089
  893MPD2     N13147   4.273   0.892   1.857 -0.3141 -0.3515  0.2793
  893MPD2    H513148   4.209   0.825   1.899 -0.7406 -0.3608 -0.3902
  893MPD2    N113149   4.667   0.961   1.581 -0.7172  0.4535  0.1261
  893MPD2    H713150   0.025   0.931   1.565 -0.7223  0.1580  0.6460
  894MPD2     C13151   3.383   3.957   1.038  0.0352  0.0553  0.2161
  894MPD2    C113152   3.329   3.967   1.165  0.2959 -0.3817 -0.4243
  894MPD2    C213153   3.279   4.083   1.218 -0.2966 -0.4916  0.3536
  894MPD2    C313154   3.275   4.199   1.139 -0.5674  0.0873 -0.9569
  894MPD2    C413155   3.314   4.195   1.007 -0.4367 -0.4770  0.8209
  894MPD2    C513156   3.360   4.070   0.960 -0.4431 -0.0975 -0.0008
  894MPD2     H13157   3.241   4.086   1.319 -1.4323 -3.2682  0.0130
  894MPD2    H113158   3.304   4.281   0.942  1.6227  1.3301  2.9051
  894MPD2    H213159   3.423   3.872   0.984 -3.7557 -1.9947  0.6335
  894MPD2    H313160   3.384   4.057   0.855 -0.5729 -2.9845  0.3215
  894MPD2     N13161   3.222   4.310   1.204  0.0788  0.9493  0.1516
  894MPD2    H513162   3.185   4.285   1.295  1.2790  0.4761  0.5054
  894MPD2    N113163   3.326   3.860   1.257 -0.2133 -0.7774  0.2471
  894MPD2    H713164   3.290   3.869   1.351 -0.3818 -2.7622  0.3663
  895MPD2     C13165   2.898   1.803  13.855 -0.2349  0.7217 -0.3591
  895MPD2    C113166   2.854   1.672  13.883  0.0517  0.2424 -0.4641
  895MPD2    C213167   2.930   1.567  13.837  0.4523  0.0179 -0.0567
  895MPD2    C313168   3.059   1.596  13.779  0.3230 -0.1559 -0.8364
  895MPD2    C413169   3.089   1.724  13.747 -0.9402  0.4092  0.2770
  895MPD2    C513170   3.011   1.829  13.785  1.0872 -0.2821 -0.7069
  895MPD2     H13171   2.901   1.468  13.871  0.6653 -0.1326 -0.3108
  895MPD2    H113172   3.184   1.753  13.703 -0.8855 -1.6544 -0.9482
  895MPD2    H213173   2.853   1.889  13.903  1.8539  1.1894  0.7536
  895MPD2    H313174   3.035   1.931  13.754  0.9586 -1.0146 -3.2531
  895MPD2     N13175   3.144   1.494  13.728  0.2849 -0.4536  0.2081
  895MPD2    H513176   3.207   1.524  13.655 -0.5426  0.7180 -0.0241
  895MPD2    N113177   2.741   1.638  13.948 -0.1218 -0.3767  0.0675
  895MPD2    H713178   2.724   1.540  13.968 -2.0060 -0.0252  0.2275
  896MPD2     C13179   0.341   0.123   2.153 -0.6575  0.2447  0.2029
  896MPD2    C113180   0.298   0.079   2.029  0.4464 -0.3572  0.3699
  896MPD2    C213181   0.164   0.058   2.016 -0.2018  0.5015 -0.3499
  896MPD2    C313182   0.079   0.081   2.123 -0.7329 -0.5215  0.5478
  896MPD2    C413183   0.119   0.123   2.246 -0.5638  0.2697 -1.0269
  896MPD2    C513184   0.250   0.145   2.259  0.0611  0.1772 -0.8616
  896MPD2     H13185   0.116   0.026   1.925  0.4244 -0.2371 -0.4178
  896MPD2    H113186   0.060   0.120   2.337 -0.0873 -1.6778 -0.7843
  896MPD2    H213187   0.448   0.137   2.163 -0.9748  1.6084  1.7489
  896MPD2    H313188   0.276   0.161   2.363 -1.0789 -0.9062 -0.4102
  896MPD2     N13189   4.676   0.059   2.093  0.6673  0.1489 -0.0667
  896MPD2    H513190   4.648   0.022   2.003  1.8976 -0.2426 -0.2865
  896MPD2    N113191   0.394   0.056   1.922  0.1564  0.4972 -0.0479
  896MPD2    H713192   0.490   0.072   1.949  0.8745 -1.7600 -1.2409
  897MPD2     C13193   1.914   0.623  11.040 -0.8614  0.3766  0.3599
  897MPD2    C113194   1.819   0.721  11.020 -0.3640 -0.0189 -1.1402
  897MPD2    C213195   1.700   0.713  11.090  0.1608  0.4281 -0.4855
  897MPD2    C313196   1.675   0.605  11.174  0.8973 -1.4122 -0.2353
  897MPD2    C413197   1.767   0.506  11.177 -0.0578 -0.3358 -0.5418
  897MPD2    C513198   1.891   0.518  11.122 -0.7438 -0.1216 -0.2479
  897MPD2     H13199   1.638   0.801  11.101 -2.4618 -1.7338  2.1076
  897MPD2    H113200   1.748   0.424  11.245 -2.5746  1.1129  0.4925
  897MPD2    H213201   2.012   0.617  10.995  0.1170 -0.1010  2.5714
  897MPD2    H313202   1.967   0.440  11.124  1.1621  1.7699  2.0805
  897MPD2     N13203   1.552   0.611  11.245  0.1631 -0.2794  0.7192
  897MPD2    H513204   1.491   0.689  11.226  2.1886  1.7952  2.7351
  897MPD2    N113205   1.853   0.822  10.931 -0.2238  0.2646  0.0398
  897MPD2    H713206   1.951   0.827  10.903 -0.7746  2.8305 -1.4398
  898MPD2     C13207   2.444   1.672   0.541  0.5130 -0.2809  0.8032
  898MPD2    C113208   2.578   1.652   0.511 -0.8415  0.6549 -0.2337
  898MPD2    C213209   2.638   1.752   0.438  0.7551  0.7752  0.2548
  898MPD2    C313210   2.574   1.858   0.387  0.4402  0.0048 -0.0954
  898MPD2    C413211   2.443   1.874   0.424  0.3396  0.8124 -0.8046
  898MPD2    C513212   2.385   1.781   0.497 -0.4555 -0.0517 -0.3892
  898MPD2     H13213   2.745   1.743   0.425  0.4932 -0.5125 -0.8812
  898MPD2    H113214   2.384   1.959   0.395 -1.5525 -0.3444 -0.3187
  898MPD2    H213215   2.392   1.607   0.610 -0.4506 -0.7341 -0.3547
  898MPD2    H313216   2.279   1.799   0.510 -0.5395 -0.5616 -0.3779
  898MPD2     N13217   2.650   1.956   0.317  0.0748  0.7690 -0.0151
  898MPD2    H513218   2.750   1.942   0.305  0.0907 -0.2453  1.3249
  898MPD2    N113219   2.662   1.558   0.576 -0.0980  0.5118  0.3794
  898MPD2    H713220   2.762   1.557   0.555 -0.0272  1.5262  0.6840
  899MPD2     C13221   3.863   2.604   0.092  0.2711  0.3489  0.5097
  899MPD2    C113222   3.880   2.738   0.129 -0.2142 -0.3340 -0.4141
  899MPD2    C213223   3.800   2.784   0.230 -0.3696 -0.9600  0.0011
  899MPD2    C313224   3.681   2.712   0.263 -0.0531  0.0477  0.4682
  899MPD2    C413225   3.666   2.585   0.224 -0.1442 -0.3959 -0.6989
  899MPD2    C513226   3.760   2.532   0.142 -0.3242  0.3023 -0.0619
  899MPD2     H13227   3.808   2.882   0.275  2.2100 -2.0298  1.8579
  899MPD2    H113228   3.576   2.528   0.242  0.0974 -1.0446 -1.5613
  899MPD2    H213229   3.926   2.549   0.023 -0.5634 -1.6303  1.3219
  899MPD2    H313230   3.744   2.432   0.103  2.4643 -0.0219 -0.3413
  899MPD2     N13231   3.575   2.771   0.337  0.1789 -0.2082  0.3016
  899MPD2    H513232   3.502   2.708   0.368  0.9420 -1.0818  0.3391
  899MPD2    N113233   3.984   2.820   0.076 -0.6944 -0.4485  0.1413
  899MPD2    H713234   4.030   2.791  17.738  2.4254  2.0473  0.9544
  900MPD2     C13235   3.383   4.369  12.675 -0.3412  0.3113 -0.7235
  900MPD2    C113236   3.418   4.275  12.590  0.0212 -0.3965  0.2567
  900MPD2    C213237   3.342   4.255  12.474  1.1269  1.1620 -0.2063
  900MPD2    C313238   3.231   4.333  12.450 -0.4754 -0.0691  0.4461
  900MPD2    C413239   3.198   4.432  12.536 -0.1167 -0.0643 -0.3081
  900MPD2    C513240   3.273   4.446  12.650 -0.3373  0.6959 -0.0511
  900MPD2     H13241   3.357   4.174  12.404 -1.4028 -0.3042  0.9386
  900MPD2    H113242   3.113   4.498  12.520 -1.4840 -1.5956  0.6432
  900MPD2    H213243   3.440   4.380  12.766 -2.8450 -1.5810  1.0536
  900MPD2    H313244   3.247   4.530  12.714 -1.8700  0.0192  0.2024
  900MPD2     N13245   3.155   4.302  12.337 -0.8668 -0.5236 -0.0828
  900MPD2    H513246   3.191   4.228  12.277 -0.9339 -0.2749 -0.4292
  900MPD2    N113247   3.534   4.200  12.617  0.7870  0.0944 -0.0384
  900MPD2    H713248   3.574   4.221  12.708 -1.1716 -0.8152  1.0580
  901MPD2     C13249   4.050   3.452  13.096  0.2605  0.3275 -0.0959
  901MPD2    C113250   4.047   3.434  12.962 -0.0363  0.0455 -0.0511
  901MPD2    C213251   3.987   3.527  12.878  0.0238  0.1251  0.9261
  901MPD2    C313252   3.923   3.636  12.930 -0.3036  0.4866 -0.6565
  901MPD2    C413253   3.922   3.650  13.064 -0.3025 -0.1043  0.5377
  901MPD2    C513254   3.979   3.558  13.145  0.2352 -0.1503 -0.3405
  901MPD2     H13255   3.980   3.519  12.770 -1.0994 -0.7219  1.0594
  901MPD2    H113256   3.880   3.737  13.112  0.8042  0.6577  0.1409
  901MPD2    H213257   4.097   3.380  13.162  1.8063  0.1463 -1.3996
  901MPD2    H313258   3.978   3.574  13.252  0.9348 -1.0789 -0.1962
  901MPD2     N13259   3.863   3.722  12.836  0.2853 -0.6003 -0.5735
  901MPD2    H513260   3.857   3.685  12.742  0.1074 -1.5797 -0.1790
  901MPD2    N113261   4.111   3.321  12.906 -0.1115  0.8079  0.4333
  901MPD2    H713262   4.137   3.249  12.973 -0.7133 -0.4136 -0.6468
  902MPD2     C13263   2.673   1.684  13.167 -0.0573 -0.4710 -0.1698
  902MPD2    C113264   2.665   1.768  13.057  0.6112  0.0017  0.5496
  902MPD2    C213265   2.655   1.703  12.934  0.2855  0.0150  0.4202
  902MPD2    C313266   2.657   1.569  12.926 -0.0277 -0.6379  0.0580
  902MPD2    C413267   2.657   1.485  13.039 -0.4110 -0.0043  0.3188
  902MPD2    C513268   2.662   1.551  13.160  0.1872  0.2864  0.2670
  902MPD2     H13269   2.639   1.758  12.842 -1.3159 -2.4545 -0.7763
  902MPD2    H113270   2.672   1.378  13.029 -0.4662 -0.2465  2.8600
  902MPD2    H213271   2.678   1.720  13.270 -0.0472 -0.9630  0.0012
  902MPD2    H313272   2.674   1.495  13.251 -2.6503  1.3020  1.2789
  902MPD2     N13273   2.653   1.502  12.799  0.5852 -0.6506 -0.1753
  902MPD2    H513274   2.661   1.401  12.805  1.6184 -0.5413  0.3644
  902MPD2    N113275   2.663   1.904  13.070 -0.1379  0.0395  0.0211
  902MPD2    H713276   2.652   1.944  13.162  3.3444  0.5432  0.2365
  903MPD2     C13277   2.471   1.463  11.960  0.2580 -0.7495 -0.0769
  903MPD2    C113278   2.408   1.473  12.080  0.4353  0.5510 -0.2340
  903MPD2    C213279   2.282   1.516  12.087  0.5256 -0.6600 -0.6454
  903MPD2    C313280   2.208   1.546  11.978  0.3378 -0.8600  0.7111
  903MPD2    C413281   2.267   1.547  11.860  0.6103  0.2742 -0.4082
  903MPD2    C513282   2.401   1.504  11.850  0.0559 -0.0085 -0.2443
  903MPD2     H13283   2.235   1.539  12.182 -0.8053  2.3597 -2.0423
  903MPD2    H113284   2.218   1.566  11.765  2.4223 -1.4755 -1.7070
  903MPD2    H213285   2.575   1.440  11.941 -0.4806 -2.7716 -1.5691
  903MPD2    H313286   2.443   1.502  11.750 -1.5995  0.3681 -0.9411
  903MPD2     N13287   2.078   1.599  11.994 -0.4017  0.3810  0.8048
  903MPD2    H513288   2.053   1.615  12.091  0.8061  2.6494  0.7333
  903MPD2    N113289   2.480   1.456  12.206 -0.3340 -0.6310  0.0758
  903MPD2    H713290   2.433   1.488  12.290 -1.5763  1.0151 -1.2424
  904MPD2     C13291   2.887   1.348  14.378  0.4445 -0.6063  0.4117
  904MPD2    C113292   2.946   1.325  14.251  0.2723 -0.1319  0.8587
  904MPD2    C213293   3.070   1.386  14.226 -0.3159  0.2312  0.2984
  904MPD2    C313294   3.126   1.473  14.317 -0.4723  0.8806  0.3062
  904MPD2    C413295   3.063   1.494  14.435  0.7137  0.3129  0.1166
  904MPD2    C513296   2.943   1.431  14.468 -0.5833  0.5166 -0.7902
  904MPD2     H13297   3.122   1.387  14.131  1.4256 -1.8598  1.2242
  904MPD2    H113298   3.102   1.567  14.505  0.3850  2.2572 -1.6993
  904MPD2    H213299   2.786   1.311  14.390 -0.0777  1.0233  1.0734
  904MPD2    H313300   2.889   1.444  14.561 -1.8865 -0.0572 -1.4645
  904MPD2     N13301   3.244   1.536  14.284 -0.2740  0.0434 -0.7641
  904MPD2    H513302   3.279   1.521  14.189 -0.5205 -2.2562 -0.5055
  904MPD2    N113303   2.892   1.247  14.144  0.1865  0.0254  0.1756
  904MPD2    H713304   2.932   1.245  14.051  2.1175  0.8211  0.9852
  905MPD2     C13305   2.548   1.143  13.368  0.4819 -0.9319 -0.3393
  905MPD2    C113306   2.642   1.178  13.460 -0.4683 -0.5148  0.0316
  905MPD2    C213307   2.773   1.204  13.427  0.2320 -0.1866  0.2203
  905MPD2    C313308   2.813   1.186  13.295  0.4956 -0.3240  0.8394
  905MPD2    C413309   2.717   1.150  13.199 -0.5418 -0.5075 -0.1177
  905MPD2    C513310   2.588   1.120  13.243 -0.0298 -0.0962  0.6098
  905MPD2     H13311   2.844   1.232  13.504 -0.6145 -1.6163  1.5133
  905MPD2    H113312   2.745   1.143  13.095 -1.9789  0.4604 -0.5620
  905MPD2    H213313   2.449   1.114  13.400 -0.7451  3.3588 -0.3088
  905MPD2    H313314   2.522   1.084  13.164  1.4879  0.3444 -0.8702
  905MPD2     N13315   2.947   1.188  13.245  0.3653  0.5761 -0.0271
  905MPD2    H513316   2.956   1.189  13.144 -1.0968  1.8338 -0.1467
  905MPD2    N113317   2.597   1.168  13.594 -0.7746 -0.4329  0.1624
  905MPD2    H713318   2.508   1.122  13.612  0.5123 -3.1335 -0.3523
  906MPD2     C13319   4.736   0.827  11.825 -0.2526 -0.0891  0.0508
  906MPD2    C113320   4.679   0.838  11.696  0.3689  0.3732 -0.6339
  906MPD2    C213321   4.546   0.815  11.688 -0.5476  0.0458 -0.3505
  906MPD2    C313322   4.462   0.787  11.793 -0.6194  0.9368  0.1814
  906MPD2    C413323   4.519   0.785  11.915  0.5104  0.3177 -0.7690
  906MPD2    C513324   4.654   0.794  11.929  0.5865 -0.6875  0.2019
  906MPD2     H13325   4.499   0.820  11.591  0.8804 -1.3500 -1.1004
  906MPD2    H113326   4.466   0.750  12.003  0.7781 -0.1068 -0.7745
  906MPD2    H213327   0.103   0.835  11.853 -0.6817  0.7168  1.3908
  906MPD2    H313328   4.705   0.789  12.024 -2.3634  1.3368  1.9085
  906MPD2     N13329   4.321   0.756  11.779 -0.4527 -0.2913  0.0018
  906MPD2    H513330   4.265   0.740  11.862  2.3959  0.1321  2.0155
  906MPD2    N113331   0.013   0.879  11.583  0.3997  0.0077  0.0760
  906MPD2    H713332   4.701   0.879  11.494 -0.5229  1.1292  0.5831
  907MPD2     C13333   2.912   0.568  15.334 -0.7844 -1.3017  0.8208
  907MPD2    C113334   3.042   0.535  15.375  0.4211 -0.1773 -0.0127
  907MPD2    C213335   3.103   0.614  15.473 -0.6020  0.9079  0.2746
  907MPD2    C313336   3.027   0.704  15.546 -0.2301  0.1976 -0.2048
  907MPD2    C413337   2.899   0.740  15.504 -0.1462  0.4159  0.4750
  907MPD2    C513338   2.843   0.677  15.398 -0.1423  0.2329 -0.1580
  907MPD2     H13339   3.210   0.608  15.489 -0.6646  3.1084  1.5312
  907MPD2    H113340   2.849   0.828  15.542 -5.1141 -1.0903 -2.5539
  907MPD2    H213341   2.860   0.502  15.266  0.2559 -0.5996 -0.6601
  907MPD2    H313342   2.747   0.712  15.361 -1.4806 -2.1028  1.1281
  907MPD2     N13343   3.082   0.755  15.663  0.9528 -0.2558 -0.2311
  907MPD2    H513344   3.170   0.717  15.696 -0.0129 -1.0146  1.4477
  907MPD2    N113345   3.110   0.430  15.315  0.6770  0.3136  0.0354
  907MPD2    H713346   3.207   0.411  15.339  0.8147 -0.4960 -1.1600
  908MPD2     C13347   2.268   0.732  10.150 -0.3786 -0.0547  0.3292
  908MPD2    C113348   2.189   0.640  10.207 -0.3099  0.1405 -0.8659
  908MPD2    C213349   2.100   0.691  10.302 -0.2700 -0.0621  0.2851
  908MPD2    C313350   2.088   0.822  10.334 -0.3194 -0.2811  0.3179
  908MPD2    C413351   2.176   0.907  10.272  0.1467  0.0337 -0.6460
  908MPD2    C513352   2.267   0.863  10.177  0.1320  0.4071 -0.3937
  908MPD2     H13353   2.030   0.625  10.352  0.0982  0.0492  0.9496
  908MPD2    H113354   2.180   1.015  10.285  0.5427 -0.0624  0.0534
  908MPD2    H213355   2.342   0.702  10.077 -0.4475  1.1477 -0.2342
  908MPD2    H313356   2.328   0.934  10.124 -1.0783  2.3933  0.8721
  908MPD2     N13357   1.994   0.866  10.435  0.5750 -0.1959 -0.4186
  908MPD2    H513358   1.946   0.795  10.489 -0.4464 -0.2348 -1.3740
  908MPD2    N113359   2.195   0.500  10.178  0.0472  0.2463 -0.4922
  908MPD2    H713360   2.262   0.476  10.106 -0.5106 -3.0904  0.1191
  909MPD2     C13361   1.479   3.560  12.054 -0.3050 -0.2346 -0.4504
  909MPD2    C113362   1.595   3.638  12.036 -0.0229 -0.8539 -0.6432
  909MPD2    C213363   1.617   3.746  12.123  0.4256 -0.1073  0.0437
  909MPD2    C313364   1.523   3.787  12.216 -0.2644 -0.5020 -0.5973
  909MPD2    C413365   1.400   3.711  12.222  0.6482 -0.9088 -0.0359
  909MPD2    C513366   1.379   3.596  12.145  0.3048  0.1779 -0.5658
  909MPD2     H13367   1.709   3.801  12.113  1.1087 -1.1746  0.4232
  909MPD2    H113368   1.313   3.749  12.275  0.5659  1.1445 -1.6851
  909MPD2    H213369   1.460   3.476  11.989  0.7396  0.2603 -1.3855
  909MPD2    H313370   1.289   3.537  12.133 -0.1596  0.6109  0.9045
  909MPD2     N13371   1.543   3.912  12.279  0.3516  0.8395  0.2091
  909MPD2    H513372   1.637   3.948  12.264  1.9381 -3.6892 -0.8324
  909MPD2    N113373   1.704   3.607  11.941  0.0945  0.9586 -0.1954
  909MPD2    H713374   1.779   3.674  11.927  1.5396 -0.4284  0.9194
  910MPD2     C13375   2.196   1.004  15.946 -0.5637  0.0122  0.4667
  910MPD2    C113376   2.302   0.981  15.856 -0.0455 -0.4100  0.1794
  910MPD2    C213377   2.276   1.032  15.726 -0.1355  0.1924 -0.7035
  910MPD2    C313378   2.168   1.113  15.693 -0.1360  0.6522 -0.0213
  910MPD2    C413379   2.070   1.128  15.785 -0.3145  0.1189  0.5174
  910MPD2    C513380   2.090   1.073  15.913 -0.0838  0.2050 -0.0015
  910MPD2     H13381   2.357   1.011  15.657  0.6813 -1.0255  0.6300
  910MPD2    H113382   1.976   1.170  15.751  0.1239  0.7855  0.1058
  910MPD2    H213383   2.191   0.966  16.048  0.8286 -2.5918 -0.4216
  910MPD2    H313384   2.005   1.084  15.979  0.1563  1.5580  0.0835
  910MPD2     N13385   2.154   1.168  15.561 -0.0700 -0.2759  0.1781
  910MPD2    H513386   2.063   1.206  15.537 -0.1001 -0.3333  0.2005
  910MPD2    N113387   2.431   0.920  15.883  0.7350 -0.3358 -0.2925
  910MPD2    H713388   2.500   0.926  15.808  0.2566 -0.7486 -0.7704
  911MPD2     C13389   0.329   1.587  16.447 -0.1164 -0.3437  0.2313
  911MPD2    C113390   0.399   1.704  16.461 -0.9691 -0.1414  0.0995
  911MPD2    C213391   0.332   1.831  16.444  0.3019 -0.1525  0.3697
  911MPD2    C313392   0.192   1.826  16.411  1.0569  0.3426  0.4242
  911MPD2    C413393   0.132   1.702  16.407  0.0714 -0.4730  0.1060
  911MPD2    C513394   0.195   1.589  16.432 -0.6851 -0.0366 -0.7246
  911MPD2     H13395   0.393   1.920  16.439  0.4945 -0.2006  1.9304
  911MPD2    H113396   0.025   1.689  16.398  0.2518  0.4960 -3.4858
  911MPD2    H213397   0.382   1.497  16.476 -0.5843  0.0045  2.1758
  911MPD2    H313398   0.139   1.496  16.431  1.4470 -1.3432  1.3720
  911MPD2     N13399   0.123   1.944  16.369  0.4057  0.3481  0.1147
  911MPD2    H513400   0.038   1.923  16.317 -1.1876  1.5933  2.2240
  911MPD2    N113401   0.541   1.697  16.481 -0.0230  0.6010 -0.3585
  911MPD2    H713402   0.587   1.607  16.468 -1.5700 -0.2640  0.0971
  912MPD2     C13403   0.224   1.655  15.871  0.0536 -0.0810  0.5025
  912MPD2    C113404   0.118   1.690  15.960 -0.1369 -0.2087 -0.1617
  912MPD2    C213405   0.080   1.592  16.051  0.6245 -0.4127  0.6928
  912MPD2    C313406   0.139   1.470  16.048  0.0536 -0.2906 -0.5883
  912MPD2    C413407   0.251   1.447  15.969 -0.5411 -0.0570  0.2496
  912MPD2    C513408   0.292   1.535  15.878 -0.5996  0.3781  0.7086
  912MPD2     H13409   0.001   1.607  16.124 -0.5776 -2.6437 -0.1554
  912MPD2    H113410   0.314   1.359  15.977  0.0272  0.0843 -2.5621
  912MPD2    H213411   0.258   1.723  15.793  0.1063 -1.4005 -0.6079
  912MPD2    H313412   0.385   1.508  15.829 -0.5051 -0.1175  1.1606
  912MPD2     N13413   0.085   1.370  16.130 -0.0150  0.0927 -0.2286
  912MPD2    H513414   0.024   1.389  16.209  1.0574  1.9486  0.1637
  912MPD2    N113415   0.063   1.821  15.952 -0.2604 -0.2226  0.4941
  912MPD2    H713416   0.091   1.887  15.880 -1.2759 -2.3127 -1.7717
  913MPD2     C13417   1.431   2.939  11.132 -0.6083 -0.0632  0.2196
  913MPD2    C113418   1.434   2.803  11.117  0.1539 -0.3257 -0.0656
  913MPD2    C213419   1.519   2.753  11.014  0.0202  0.3468  0.0827
  913MPD2    C313420   1.591   2.836  10.932  0.4394  1.1580  0.3839
  913MPD2    C413421   1.572   2.969  10.941  0.3785 -0.0675 -0.5438
  913MPD2    C513422   1.495   3.023  11.040 -0.0196  0.0609  0.1287
  913MPD2     H13423   1.539   2.647  11.008 -1.1059  0.1599 -0.4552
  913MPD2    H113424   1.632   3.039  10.884 -0.9699  1.3827 -0.1554
  913MPD2    H213425   1.370   2.986  11.208 -0.7945  3.3061 -2.0105
  913MPD2    H313426   1.481   3.131  11.045  0.4461  0.1553 -0.5472
  913MPD2     N13427   1.688   2.795  10.831 -0.1675  0.1109 -0.6960
  913MPD2    H513428   1.728   2.869  10.776 -0.6866  1.2718  0.4821
  913MPD2    N113429   1.368   2.705  11.205  0.1488  0.8237 -0.4138
  913MPD2    H713430   1.325   2.744  11.288 -0.5396  0.0154 -0.3955
  914MPD2     C13431   3.533   3.182  12.300 -0.3145  0.4072  0.5730
  914MPD2    C113432   3.614   3.284  12.342  0.5715  0.3172 -0.1463
  914MPD2    C213433   3.736   3.247  12.416  0.6491 -0.4403  0.4558
  914MPD2    C313434   3.763   3.115  12.440  0.7694  0.1057  0.7322
  914MPD2    C413435   3.671   3.018  12.392  0.6315  0.5391  0.2396
  914MPD2    C513436   3.558   3.049  12.323  0.3188  0.1234 -0.1123
  914MPD2     H13437   3.813   3.322  12.432  2.0126 -1.8838  0.6370
  914MPD2    H113438   3.689   2.915  12.419  1.1417  1.1711  2.3562
  914MPD2    H213439   3.442   3.193  12.242  0.2267  0.2992 -0.3024
  914MPD2    H313440   3.492   2.971  12.287  0.4293  0.2920 -0.6836
  914MPD2     N13441   3.882   3.084  12.509  0.1084 -0.4601  0.5245
  914MPD2    H513442   3.943   3.164  12.522 -0.6643  0.3082 -0.5980
  914MPD2    N113443   3.585   3.415  12.289  0.1338 -0.2062 -0.5114
  914MPD2    H713444   3.490   3.426  12.254 -0.0964 -0.9264 -0.1163
  915MPD2     C13445   2.269   3.269  15.968  0.4017 -0.2217  0.1985
  915MPD2    C113446   2.146   3.296  15.920  0.1871  0.9883 -0.0286
  915MPD2    C213447   2.050   3.334  16.008 -0.6331 -0.0696  0.7511
  915MPD2    C313448   2.074   3.338  16.147  0.1593 -0.2231 -0.0346
  915MPD2    C413449   2.199   3.321  16.190 -0.7355  0.5468  0.0476
  915MPD2    C513450   2.296   3.284  16.098 -0.4608  0.6061 -0.2294
  915MPD2     H13451   1.952   3.358  15.969  0.0349 -0.4070 -1.1362
  915MPD2    H113452   2.235   3.324  16.292  0.7246 -1.1157 -0.4288
  915MPD2    H213453   2.345   3.249  15.893  1.0569  0.4533  0.6847
  915MPD2    H313454   2.394   3.266  16.139 -0.3417  1.0076 -0.3485
  915MPD2     N13455   1.969   3.376  16.242  0.2773  0.6040  0.3439
  915MPD2    H513456   1.874   3.391  16.208 -0.0797 -3.5614 -0.5688
  915MPD2    N113457   2.124   3.285  15.779 -0.7075  0.6293  0.5022
  915MPD2    H713458   2.205   3.270  15.720 -1.4846 -2.7290  0.3116
  916MPD2     C13459   4.528   1.555  15.837  0.1606 -0.6572 -0.1922
  916MPD2    C113460   4.536   1.433  15.897  0.6500  0.0521 -0.1481
  916MPD2    C213461   4.624   1.339  15.847 -0.2039 -0.9306 -0.3067
  916MPD2    C313462   4.712   1.376  15.747  0.6664  0.1546  0.2494
  916MPD2    C413463   4.707   1.504  15.691  0.0742 -0.3950  0.1291
  916MPD2    C513464   4.602   1.591  15.729 -0.5564 -0.5679 -0.1456
  916MPD2     H13465   4.631   1.242  15.895  1.3701 -1.7646 -2.2379
  916MPD2    H113466   0.034   1.524  15.606  0.2193  1.2737  0.6281
  916MPD2    H213467   4.455   1.631  15.863  2.2142  1.0658  0.5562
  916MPD2    H313468   4.591   1.689  15.684  1.6039  0.7950  2.2876
  916MPD2     N13469   0.075   1.277  15.718 -0.7667 -0.4217  0.4684
  916MPD2    H513470   0.066   1.190  15.770  4.0356 -1.1907 -0.0195
  916MPD2    N113471   4.463   1.423  16.015  0.0177 -0.6011 -0.8320
  916MPD2    H713472   4.428   1.511  16.050  1.1393 -0.9610  1.1965
  917MPD2     C13473   0.852   3.523  11.635 -0.6746 -0.2098  0.1662
  917MPD2    C113474   0.749   3.473  11.563 -0.4340 -0.2805  0.2179
  917MPD2    C213475   0.741   3.488  11.424 -0.0403 -0.7132  0.7058
  917MPD2    C313476   0.851   3.555  11.367 -0.1320  0.2587  0.0842
  917MPD2    C413477   0.963   3.589  11.438  0.4703 -0.0944  0.6884
  917MPD2    C513478   0.963   3.574  11.570 -0.4200  0.1786  0.1391
  917MPD2     H13479   0.657   3.441  11.374  0.0657  2.1353 -2.0861
  917MPD2    H113480   1.048   3.634  11.389  1.0315 -1.8130  0.0847
  917MPD2    H213481   0.858   3.494  11.740  2.2778 -1.5073 -0.3377
  917MPD2    H313482   1.050   3.600  11.629  0.1558 -1.7390  0.1344
  917MPD2     N13483   0.841   3.603  11.231  0.7253 -0.2712  0.4872
  917MPD2    H513484   0.920   3.662  11.207  2.2291 -2.9468 -1.1050
  917MPD2    N113485   0.639   3.422  11.639 -0.6182  0.2706  0.0167
  917MPD2    H713486   0.622   3.448  11.736 -2.2161 -1.4722  0.2117
  918MPD2     C13487   0.383   4.049  12.074  1.0019  0.2691 -0.6696
  918MPD2    C113488   0.492   3.963  12.087  0.4992  0.3064 -0.0273
  918MPD2    C213489   0.472   3.838  12.041 -0.5435 -0.4100 -0.1343
  918MPD2    C313490   0.355   3.793  11.984 -0.7101  0.1303 -0.2912
  918MPD2    C413491   0.249   3.875  11.972  0.3236  0.7815 -0.6199
  918MPD2    C513492   0.269   4.000  12.019  0.4686 -0.3723  0.2084
  918MPD2     H13493   0.555   3.771  12.060 -0.2369 -0.0266 -0.0968
  918MPD2    H113494   0.149   3.849  11.941  1.1488 -0.2959 -2.3894
  918MPD2    H213495   0.380   4.148  12.118 -2.9524  0.2869 -1.0031
  918MPD2    H313496   0.182   4.065  12.022  0.5627 -0.2480  0.2739
  918MPD2     N13497   0.356   3.662  11.939 -0.1628 -0.0457  0.7715
  918MPD2    H513498   0.450   3.625  11.925 -0.2835  0.2089 -0.6503
  918MPD2    N113499   0.617   3.996  12.144  0.3385  0.5013 -0.0957
  918MPD2    H713500   0.687   3.924  12.129  1.7208  1.9188 -0.4879
  919MPD2     C13501   1.027   2.804  11.598  0.5888 -0.4435  0.5736
  919MPD2    C113502   0.963   2.681  11.611 -0.2125 -0.1579  0.0564
  919MPD2    C213503   0.937   2.604  11.499  0.4509  0.3249 -0.4327
  919MPD2    C313504   0.973   2.646  11.374 -0.3023  0.3453  1.0721
  919MPD2    C413505   1.030   2.766  11.366 -0.6069 -0.0761 -0.6379
  919MPD2    C513506   1.065   2.844  11.473 -0.4698  0.3943  0.1170
  919MPD2     H13507   0.900   2.504  11.520 -1.5758  0.7775 -1.8995
  919MPD2    H113508   1.059   2.807  11.270 -0.4788 -0.9429 -0.9710
  919MPD2    H213509   1.051   2.863  11.687 -0.0565 -0.5543  0.8208
  919MPD2    H313510   1.123   2.933  11.451  1.2793 -0.2989  1.9437
  919MPD2     N13511   0.951   2.570  11.252 -0.0476  0.2447 -0.2455
  919MPD2    H513512   0.997   2.612  11.172  1.8282 -1.8976 -0.3090
  919MPD2    N113513   0.940   2.613  11.730  0.0990  0.9717  0.5620
  919MPD2    H713514   0.917   2.514  11.722  0.6115  0.9044 -0.0863
  920MPD2     C13515   0.988   2.556  10.298 -0.8123 -0.0206 -0.8304
  920MPD2    C113516   0.865   2.513  10.335  0.5256 -0.3648  0.8683
  920MPD2    C213517   0.853   2.454  10.456 -0.4992 -0.2681  0.0562
  920MPD2    C313518   0.957   2.452  10.550 -0.3009 -0.4781  0.4592
  920MPD2    C413519   1.076   2.504  10.515  0.1315 -0.6711 -0.0924
  920MPD2    C513520   1.094   2.543  10.385  0.2004 -0.5454 -0.1143
  920MPD2     H13521   0.764   2.400  10.484 -1.4533  1.7430  0.8856
  920MPD2    H113522   1.164   2.497  10.579 -1.3260 -0.8630  1.9064
  920MPD2    H213523   1.017   2.606  10.206  1.3897  0.9063  0.3661
  920MPD2    H313524   1.186   2.594  10.361  1.9525 -2.6974  1.9543
  920MPD2     N13525   0.920   2.402  10.679 -0.0194 -0.9392  0.5056
  920MPD2    H513526   0.827   2.362  10.686 -0.1663 -0.9070 -1.3114
  920MPD2    N113527   0.755   2.537  10.258  0.3410 -0.0268  0.3719
  920MPD2    H713528   0.671   2.489  10.290  0.7636 -1.0606 -0.0789
  921MPD2     C13529   1.484   1.603  16.926 -0.5431 -0.0074 -0.2360
  921MPD2    C113530   1.461   1.711  16.837 -0.3710 -0.2759  0.5747
  921MPD2    C213531   1.330   1.729  16.790 -0.6266 -0.2797 -0.4084
  921MPD2    C313532   1.240   1.622  16.802  0.5241  0.3104  0.7929
  921MPD2    C413533   1.276   1.512  16.872  0.6875  0.0351  0.2074
  921MPD2    C513534   1.389   1.506  16.942 -0.2138 -0.6243  1.1244
  921MPD2     H13535   1.303   1.816  16.730  3.1464  0.6338 -0.7963
  921MPD2    H113536   1.203   1.432  16.875  0.2631  0.4088 -0.1093
  921MPD2    H213537   1.578   1.583  16.977 -0.2342  0.0333 -0.7880
  921MPD2    H313538   1.405   1.426  17.012 -0.7850 -1.0171  0.8083
  921MPD2     N13539   1.125   1.616  16.725  0.5065 -0.1893 -0.4482
  921MPD2    H513540   1.074   1.529  16.719  1.4745 -1.1198  4.4920
  921MPD2    N113541   1.572   1.797  16.810  0.9280 -0.6439  0.0562
  921MPD2    H713542   1.654   1.785  16.869  0.7751  1.3402  0.6800
  922MPD2     C13543   2.161   4.611  17.433 -0.3631 -0.7114 -0.6402
  922MPD2    C113544   2.091   4.642  17.553  0.2628 -0.1778 -0.1962
  922MPD2    C213545   2.033   4.543  17.627  0.6190  0.7045 -0.1261
  922MPD2    C313546   2.074   4.413  17.602  0.1867 -0.3979 -0.3179
  922MPD2    C413547   2.155   4.384  17.496  0.1811 -0.2394 -0.5593
  922MPD2    C513548   2.195   4.485  17.404  0.2955  0.1862 -0.1690
  922MPD2     H13549   1.974   4.580  17.710  1.0854 -0.9204  0.9371
  922MPD2    H113550   2.185   4.283  17.472 -1.0298 -0.6548 -0.3037
  922MPD2    H213551   2.192   4.693  17.369  1.0339 -0.6237  0.1413
  922MPD2    H313552   2.250   4.455  17.315 -0.8421  1.9160 -1.4392
  922MPD2     N13553   2.009   4.320  17.683  0.4646  0.3086  0.2807
  922MPD2    H513554   1.939   4.367  17.739 -0.5394  0.7837 -1.3882
  922MPD2    N113555   2.068   0.036  17.607  0.8605  0.3693  0.0567
  922MPD2    H713556   2.012   0.047  17.691 -1.6380 -1.5528 -1.3770
  923MPD2     C13557   4.362   0.767   9.266  0.9526 -0.2835 -0.3817
  923MPD2    C113558   4.290   0.839   9.355 -0.2677  0.0931 -0.1392
  923MPD2    C213559   4.331   0.827   9.491  0.5099  0.7460  0.8703
  923MPD2    C313560   4.436   0.740   9.533  0.3353  0.9388 -0.6072
  923MPD2    C413561   4.507   0.679   9.434  0.1333  0.1101  1.4069
  923MPD2    C513562   4.470   0.690   9.301  0.4803  1.5274 -0.7330
  923MPD2     H13563   4.257   0.869   9.558 -1.1404  1.4161 -1.3849
  923MPD2    H113564   4.583   0.605   9.456 -0.3436 -1.0557 -0.8366
  923MPD2    H213565   4.335   0.772   9.162 -0.1091  0.2273 -0.0750
  923MPD2    H313566   4.532   0.630   9.235  1.2350 -0.1557  1.5107
  923MPD2     N13567   4.482   0.723   9.663 -0.1640 -0.1729  0.4457
  923MPD2    H513568   4.573   0.676   9.666 -0.3435 -0.3486  2.6727
  923MPD2    N113569   4.176   0.906   9.311 -0.8466 -0.5537  0.1526
  923MPD2    H713570   4.154   0.906   9.212  0.1100  1.7457 -0.0537
  924MPD2     C13571   3.871   0.679  15.715  0.0851 -0.0700 -0.1969
  924MPD2    C113572   3.774   0.627  15.803  0.7735 -0.3041 -0.0454
  924MPD2    C213573   3.662   0.690  15.839 -0.3057  0.4534 -0.5303
  924MPD2    C313574   3.640   0.817  15.797  0.3883  0.2796  0.7158
  924MPD2    C413575   3.724   0.876  15.703  0.1529  0.0592  0.3487
  924MPD2    C513576   3.836   0.805  15.657  0.1934  0.6466  0.1938
  924MPD2     H13577   3.583   0.639  15.892  0.9406 -0.0166  0.8683
  924MPD2    H113578   3.714   0.979  15.672 -1.0038  0.5696  2.4713
  924MPD2    H213579   3.960   0.621  15.692 -0.2045 -0.3352 -0.6569
  924MPD2    H313580   3.908   0.846  15.587 -0.8368  1.4727 -0.3794
  924MPD2     N13581   3.526   0.888  15.841 -0.1107 -0.5965 -0.2760
  924MPD2    H513582   3.496   0.974  15.796  1.8478  1.5227  2.3952
  924MPD2    N113583   3.783   0.493  15.841 -0.0376  0.0684  0.2606
  924MPD2    H713584   3.836   0.432  15.780 -0.7364 -1.9346  1.6626
  925MPD2     C13585   2.886   2.026  15.185  0.3220 -0.0692  0.2263
  925MPD2    C113586   2.777   2.083  15.133  0.0978 -0.2168 -0.4445
  925MPD2    C213587   2.665   2.109  15.219  0.0273  0.8069  0.3791
  925MPD2    C313588   2.660   2.056  15.350  0.2997  0.2263  0.1132
  925MPD2    C413589   2.767   1.982  15.387  0.2370  0.1990 -0.0043
  925MPD2    C513590   2.877   1.961  15.308  0.0715  0.0469  0.0853
  925MPD2     H13591   2.582   2.169  15.184 -1.3031 -1.2756 -0.0528
  925MPD2    H113592   2.758   1.935  15.484 -1.5766  1.9420  0.6751
  925MPD2    H213593   2.979   2.007  15.133 -0.0434 -1.8110  0.2092
  925MPD2    H313594   2.965   1.902  15.331 -1.8018 -2.6680  0.2985
  925MPD2     N13595   2.548   2.066  15.438 -0.0732  0.3530  0.5464
  925MPD2    H513596   2.547   2.017  15.527 -0.0945 -2.0712 -0.7965
  925MPD2    N113597   2.777   2.149  15.008 -0.0025  0.4640  0.0941
  925MPD2    H713598   2.689   2.187  14.974 -0.4800 -0.6372  0.0918
  926MPD2     C13599   1.266   0.649  13.587 -0.3964 -0.7348  0.3665
  926MPD2    C113600   1.269   0.780  13.562  0.7466  0.1541  0.1442
  926MPD2    C213601   1.323   0.824  13.446  0.1555  0.2685  0.3473
  926MPD2    C313602   1.343   0.737  13.345 -0.1507  0.1433 -0.8200
  926MPD2    C413603   1.323   0.604  13.366  0.9749  0.8124  0.0445
  926MPD2    C513604   1.306   0.562  13.489 -0.0411  0.4214 -0.5115
  926MPD2     H13605   1.320   0.932  13.436 -0.1522  0.1118 -1.1707
  926MPD2    H113606   1.343   0.529  13.291  0.0628  3.0405 -2.4049
  926MPD2    H213607   1.237   0.608  13.683 -2.0192  0.1591  0.2639
  926MPD2    H313608   1.298   0.457  13.514 -0.1608  0.2282 -1.3575
  926MPD2     N13609   1.368   0.796  13.220  0.9462  0.5128 -0.4515
  926MPD2    H513610   1.357   0.897  13.216  1.2839  0.4760 -2.2241
  926MPD2    N113611   1.217   0.878  13.653 -0.0737  0.0488  0.5269
  926MPD2    H713612   1.229   0.976  13.629  0.3393 -0.5973 -1.9650
  927MPD2     C13613   0.494   2.977   0.205  0.9336  0.0728 -0.2408
  927MPD2    C113614   0.601   3.007   0.280 -0.0180 -0.0122  0.1042
  927MPD2    C213615   0.724   3.004   0.216  0.1649  0.2902 -0.4070
  927MPD2    C313616   0.734   2.957   0.081 -0.2806  0.1305  0.1943
  927MPD2    C413617   0.624   2.925   0.012 -0.3519  0.6613 -0.1606
  927MPD2    C513618   0.502   2.942   0.076 -0.0836 -0.2379  0.7066
  927MPD2     H13619   0.817   3.040   0.257 -0.3333  0.3470  0.6584
  927MPD2    H113620   0.616   2.905  17.653  1.4476 -1.7150  0.1710
  927MPD2    H213621   0.396   2.979   0.252  0.4665  1.1899 -1.2702
  927MPD2    H313622   0.414   2.914   0.019  0.5127 -1.3898  0.3603
  927MPD2     N13623   0.862   2.976   0.019 -0.2171  0.1747 -0.0528
  927MPD2    H513624   0.939   3.019   0.069 -0.9774  0.8690  0.5322
  927MPD2    N113625   0.583   3.047   0.417  0.2713  0.2968  0.3629
  927MPD2    H713626   0.489   3.062   0.451 -1.0676 -0.1117 -3.1899
  928MPD2     C13627   4.004   1.361   1.208  0.3232  0.1149 -0.5222
  928MPD2    C113628   3.929   1.478   1.195  0.0856 -0.3758 -0.1159
  928MPD2    C213629   3.887   1.522   1.070 -0.4620  0.2962  0.7917
  928MPD2    C313630   3.913   1.448   0.955 -0.7205  0.1827  0.2365
  928MPD2    C413631   3.976   1.326   0.974  0.2867 -0.1709  0.2956
  928MPD2    C513632   4.016   1.281   1.098 -0.1556  0.9513  0.1338
  928MPD2     H13633   3.838   1.618   1.059 -0.4076  0.0247 -1.9171
  928MPD2    H113634   4.001   1.258   0.893 -0.6902 -2.0097  1.5608
  928MPD2    H213635   4.036   1.320   1.303 -0.5425  1.1317  0.2163
  928MPD2    H313636   4.073   1.190   1.111  0.0597  1.3255  1.8841
  928MPD2     N13637   3.877   1.484   0.814 -0.1634  0.1771  0.5337
  928MPD2    H513638   3.894   1.414   0.742  0.7762 -0.0184  0.9472
  928MPD2    N113639   3.898   1.548   1.323  0.3090 -0.2634  0.3044
  928MPD2    H713640   3.934   1.503   1.406 -0.7938  1.3807  1.6730
  929MPD2     C13641   3.973   0.995  10.377 -0.3087  0.5580 -0.2272
  929MPD2    C113642   3.865   0.911  10.389 -0.5336 -0.5299 -0.2558
  929MPD2    C213643   3.848   0.818  10.287  0.7224 -0.2773  0.6468
  929MPD2    C313644   3.914   0.820  10.164  0.0686  0.5753  0.2924
  929MPD2    C413645   4.022   0.903  10.153 -0.2432 -0.1189  0.0262
  929MPD2    C513646   4.044   0.989  10.259 -0.3629 -0.5447 -0.1999
  929MPD2     H13647   3.757   0.761  10.301  1.0091 -0.7690  0.5279
  929MPD2    H113648   4.083   0.897  10.063 -2.5904  3.0982 -1.7702
  929MPD2    H213649   4.006   1.054  10.461 -0.5605 -0.3763  0.5315
  929MPD2    H313650   4.127   1.056  10.242 -0.8036 -0.1157 -0.6725
  929MPD2     N13651   3.889   0.731  10.056  0.0178 -0.1580 -0.0746
  929MPD2    H513652   3.971   0.725   9.996 -0.8494 -2.6301 -0.9939
  929MPD2    N113653   3.793   0.914  10.510  0.0436 -0.4258  0.3247
  929MPD2    H713654   3.797   1.005  10.554 -1.1299 -0.2350  0.0386
  930MPD2     C13655   0.827   3.378  14.261  0.4278  0.6832  0.2962
  930MPD2    C113656   0.948   3.435  14.260  0.8557 -0.5201  0.3655
  930MPD2    C213657   1.023   3.418  14.146  0.4576 -0.0569 -0.0025
  930MPD2    C313658   0.961   3.365  14.028 -0.7499 -0.2587  0.0442
  930MPD2    C413659   0.834   3.317  14.034 -0.1591 -0.0051  0.0257
  930MPD2    C513660   0.768   3.325  14.153  0.6531  0.4746  0.1791
  930MPD2     H13661   1.129   3.441  14.146 -0.0626  2.3923 -1.2759
  930MPD2    H113662   0.787   3.282  13.943  1.1164  4.4133 -2.3118
  930MPD2    H213663   0.767   3.365  14.351 -1.1198  0.3100 -0.7959
  930MPD2    H313664   0.668   3.284  14.164  1.2752 -1.8106 -2.5796
  930MPD2     N13665   1.025   3.362  13.902 -0.3885  0.2942 -0.0525
  930MPD2    H513666   0.971   3.330  13.822 -0.6256 -2.1661  1.0823
  930MPD2    N113667   1.003   3.483  14.388  0.1122  0.3242 -0.2880
  930MPD2    H713668   0.951   3.473  14.475  0.1312  1.0727 -0.1949
  931MPD2     C13669   0.924   2.852   1.060  0.4452 -0.8006  0.1329
  931MPD2    C113670   0.793   2.867   1.074 -0.2040 -0.1676 -0.6773
  931MPD2    C213671   0.727   2.787   1.171 -1.1959  0.2212 -0.8011
  931MPD2    C313672   0.801   2.712   1.260 -0.7898  1.1334 -0.4355
  931MPD2    C413673   0.935   2.709   1.243 -0.2803 -0.8315  0.1999
  931MPD2    C513674   0.998   2.778   1.142 -0.2266  0.0816 -0.2172
  931MPD2     H13675   0.620   2.798   1.183 -1.2590 -0.8668 -0.3365
  931MPD2    H113676   0.991   2.648   1.313 -2.8729 -3.0529  0.3189
  931MPD2    H213677   0.980   2.909   0.987  0.2733 -2.6178 -1.4323
  931MPD2    H313678   1.105   2.760   1.143 -0.1848  0.5241  2.6707
  931MPD2     N13679   0.747   2.626   1.359  0.3572  0.5411  0.0454
  931MPD2    H513680   0.813   2.559   1.397  0.4671 -0.0248 -1.1619
  931MPD2    N113681   0.731   2.952   0.979  0.1414 -0.3135 -0.1183
  931MPD2    H713682   0.784   2.986   0.899  1.3966  3.3267  2.2921
  932MPD2     C13683   2.700   1.441  11.679 -0.7530  0.5083  1.1292
  932MPD2    C113684   2.830   1.464  11.638  0.7253  0.5198  0.1354
  932MPD2    C213685   2.920   1.362  11.632  0.6661 -0.0884  0.6237
  932MPD2    C313686   2.885   1.229  11.662 -0.0185  0.4441 -0.5244
  932MPD2    C413687   2.755   1.199  11.703 -0.1315  0.5346  0.7332
  932MPD2    C513688   2.660   1.309  11.702  0.3890  0.0688 -0.1165
  932MPD2     H13689   3.025   1.389  11.626  0.5452 -0.1457 -1.8558
  932MPD2    H113690   2.728   1.098  11.732 -0.5659  0.3629 -0.2981
  932MPD2    H213691   2.623   1.518  11.676  0.2493  1.4671 -0.0590
  932MPD2    H313692   2.559   1.288  11.736  0.3440  1.1198  0.3862
  932MPD2     N13693   2.975   1.127  11.654 -0.3975 -0.2551 -0.2673
  932MPD2    H513694   2.950   1.040  11.700  0.7668 -1.5330 -2.0236
  932MPD2    N113695   2.878   1.597  11.616 -0.8526  0.7868  0.2312
  932MPD2    H713696   2.975   1.605  11.585 -0.3823 -1.8029  1.0097
  933MPD2     C13697   3.504   2.266   1.814 -0.0240  0.6063  0.8931
  933MPD2    C113698   3.518   2.209   1.688  0.2504 -0.1670  0.1601
  933MPD2    C213699   3.442   2.262   1.581  0.5794 -0.0829  0.3200
  933MPD2    C313700   3.354   2.364   1.607  0.1357  1.0584  0.4045
  933MPD2    C413701   3.344   2.420   1.730  0.0183 -0.1502  0.0398
  933MPD2    C513702   3.419   2.368   1.833 -0.2623  0.1957  0.2607
  933MPD2     H13703   3.442   2.217   1.483  2.6008  0.1246  0.2252
  933MPD2    H113704   3.288   2.509   1.755  0.4867  0.6552 -1.7881
  933MPD2    H213705   3.556   2.230   1.902  3.7761  0.1646 -1.5754
  933MPD2    H313706   3.423   2.418   1.930 -2.8498  1.2039 -0.1834
  933MPD2     N13707   3.273   2.398   1.494  0.1450 -0.2957  0.5861
  933MPD2    H513708   3.303   2.364   1.403  1.6477  1.8437  0.2908
  933MPD2    N113709   3.600   2.091   1.681  0.7551  0.1006 -0.0803
  933MPD2    H713710   3.682   2.096   1.741 -0.7830  0.7802  1.9752
  934MPD2     C13711   4.269   4.428   2.354  0.2937  0.2322 -0.5848
  934MPD2    C113712   4.355   4.362   2.265 -0.2178 -0.1852 -0.3996
  934MPD2    C213713   4.292   4.301   2.151 -0.0101  0.5987 -0.0010
  934MPD2    C313714   4.150   4.290   2.141  0.4609  0.5311 -0.5034
  934MPD2    C413715   4.076   4.347   2.241 -0.2476  0.4333  0.2980
  934MPD2    C513716   4.132   4.421   2.341 -0.4540 -0.4183  0.5093
  934MPD2     H13717   4.349   4.257   2.070 -1.3690  1.5627 -1.4775
  934MPD2    H113718   3.968   4.341   2.232 -0.2590 -0.2332  0.8838
  934MPD2    H213719   4.303   4.497   2.430  0.8741 -0.5494 -0.1328
  934MPD2    H313720   4.071   4.477   2.411  0.1432  2.0142 -0.8772
  934MPD2     N13721   4.082   4.226   2.033 -0.3041  0.4451 -0.0549
  934MPD2    H513722   3.981   4.218   2.039 -0.4240  1.2816 -0.8752
  934MPD2    N113723   4.500   4.372   2.271  0.2378 -0.6795  0.3620
  934MPD2    H713724   4.548   4.330   2.192 -0.5613 -1.2308  0.1722
  935MPD2     C13725   4.304   3.558   1.283  0.2847 -0.4615  0.3517
  935MPD2    C113726   4.209   3.646   1.229  0.5305  0.0162 -0.3419
  935MPD2    C213727   4.143   3.740   1.312  0.2593  0.1357 -0.3283
  935MPD2    C313728   4.180   3.750   1.445  0.3192  0.1691 -0.4367
  935MPD2    C413729   4.270   3.656   1.498  0.4408  0.1421  0.0291
  935MPD2    C513730   4.323   3.563   1.416 -1.1334 -0.1557  0.3806
  935MPD2     H13731   4.064   3.802   1.269 -0.7162  1.4368  3.3085
  935MPD2    H113732   4.293   3.656   1.604  1.5841  1.0161 -0.2168
  935MPD2    H213733   4.355   3.476   1.232  1.2856 -0.5667  1.5048
  935MPD2    H313734   4.382   3.494   1.476 -0.0433  1.0159  0.6483
  935MPD2     N13735   4.133   3.840   1.536 -0.4092 -0.4053  0.8758
  935MPD2    H513736   4.142   3.818   1.635  0.3146  1.7295  1.2868
  935MPD2    N113737   4.186   3.646   1.090  0.1835  0.2810 -0.1098
  935MPD2    H713738   4.114   3.709   1.057 -0.4292 -0.9604 -1.1245
  936MPD2     C13739   3.750   0.083  12.767  0.2797 -0.2738  0.0682
  936MPD2    C113740   3.661   0.132  12.855 -1.1156  0.0819 -0.1296
  936MPD2    C213741   3.599   0.246  12.828  0.1999 -0.4024  0.5286
  936MPD2    C313742   3.626   0.321  12.712  0.1642  0.9717 -0.2273
  936MPD2    C413743   3.722   0.267  12.625  0.2986 -0.0605 -0.0303
  936MPD2    C513744   3.782   0.150  12.655 -0.6992 -0.6659 -0.1488
  936MPD2     H13745   3.533   0.293  12.900  0.0712  0.3998 -0.1223
  936MPD2    H113746   3.729   0.321  12.530 -1.7579  1.1732  0.5036
  936MPD2    H213747   3.809   4.735  12.799  0.8008  0.6479  1.5729
  936MPD2    H313748   3.860   0.115  12.589 -2.3063 -1.1195 -1.8139
  936MPD2     N13749   3.556   0.437  12.690 -0.3530 -0.0582  0.1992
  936MPD2    H513750   3.495   0.454  12.769  1.8160  1.9333  1.4312
  936MPD2    N113751   3.634   0.080  12.983 -0.5338  0.0608 -0.0063
  936MPD2    H713752   3.580   0.132  13.050 -3.2756 -1.5112 -1.0158
  937MPD2     C13753   0.944   1.942  12.012 -0.4260 -0.4022 -0.4549
  937MPD2    C113754   0.989   2.050  11.938 -0.2977 -0.3820  0.4385
  937MPD2    C213755   1.032   2.026  11.807 -0.3049  0.9965 -0.0573
  937MPD2    C313756   1.048   1.895  11.767 -0.4775  0.0755 -0.0242
  937MPD2    C413757   1.014   1.789  11.850  0.6764 -1.2034 -0.5400
  937MPD2    C513758   0.956   1.814  11.970 -0.0877 -0.8824 -0.0030
  937MPD2     H13759   1.066   2.107  11.744  1.6833 -1.2271 -1.8532
  937MPD2    H113760   1.033   1.686  11.822  1.1108 -1.5555  1.0689
  937MPD2    H213761   0.910   1.970  12.112  2.8975  1.9619  0.0036
  937MPD2    H313762   0.939   1.733  12.040 -0.1741 -1.0050 -0.1645
  937MPD2     N13763   1.103   1.873  11.641  0.1692  0.4740  0.1517
  937MPD2    H513764   1.111   1.958  11.587  2.6644 -0.6167 -1.2159
  937MPD2    N113765   0.971   2.188  11.972 -0.6002 -0.0511  0.0082
  937MPD2    H713766   0.970   2.247  11.889 -0.7436 -1.0966 -0.7359
  938MPD2     C13767   3.699   4.173   0.733  0.5492 -0.2803  0.7123
  938MPD2    C113768   3.721   4.144   0.862  0.0983 -0.3045  0.2408
  938MPD2    C213769   3.721   4.011   0.897  0.2696 -0.0452 -0.4964
  938MPD2    C313770   3.711   3.906   0.809 -0.0474  0.3334  0.0629
  938MPD2    C413771   3.700   3.937   0.674  0.3729  0.2058 -0.5175
  938MPD2    C513772   3.690   4.069   0.648  0.0760 -0.3316 -0.1954
  938MPD2     H13773   3.717   3.989   1.003 -0.2501  1.4427 -0.2000
  938MPD2    H113774   3.673   3.869   0.594 -0.6716 -0.9171  0.7825
  938MPD2    H213775   3.687   4.272   0.690 -1.4366 -1.0880 -0.5620
  938MPD2    H313776   3.660   4.091   0.546  1.9950  3.1330 -0.0016
  938MPD2     N13777   3.704   3.774   0.848 -0.0036  0.2719 -0.4296
  938MPD2    H513778   3.709   3.716   0.765  0.5259  0.0374 -0.2336
  938MPD2    N113779   3.752   4.241   0.958  0.3735 -0.8167 -0.5329
  938MPD2    H713780   3.780   4.219   1.053  3.0655 -1.2360 -1.4148
  939MPD2     C13781   0.456   3.826   1.379 -0.1834  0.8120 -0.7243
  939MPD2    C113782   0.369   3.921   1.332  0.1635  0.0203  0.5948
  939MPD2    C213783   0.340   3.912   1.198  0.3848 -0.3421 -1.1505
  939MPD2    C313784   0.391   3.817   1.115 -0.1504 -0.5829  0.7471
  939MPD2    C413785   0.483   3.730   1.163  0.1317  0.1412  0.0356
  939MPD2    C513786   0.515   3.737   1.297  0.1077  0.5321 -0.0044
  939MPD2     H13787   0.268   3.976   1.149 -0.1157 -0.1667 -0.1829
  939MPD2    H113788   0.536   3.658   1.103 -0.6004  0.6141 -1.1658
  939MPD2    H213789   0.499   3.825   1.478 -2.0667  0.0186  0.0937
  939MPD2    H313790   0.598   3.684   1.343  0.5863  1.6608  0.4317
  939MPD2     N13791   0.344   3.822   0.980 -0.2347  0.2753 -0.1148
  939MPD2    H513792   0.268   3.886   0.958 -1.6211 -1.3596 -0.1005
  939MPD2    N113793   0.326   4.019   1.423 -0.4461 -0.1287 -0.1881
  939MPD2    H713794   0.379   4.016   1.510 -1.2296  0.0878  0.2979
  940MPD2     C13795   3.858   0.355  13.205  0.0730  0.1016 -0.4028
  940MPD2    C113796   3.935   0.262  13.263 -0.2357 -0.6074  0.7496
  940MPD2    C213797   3.996   0.167  13.181 -0.0967 -0.3181 -0.7726
  940MPD2    C313798   3.998   0.181  13.042 -0.2061 -0.2061 -0.7848
  940MPD2    C413799   3.934   0.291  12.982  0.1170 -0.2627  0.6351
  940MPD2    C513800   3.847   0.361  13.068 -0.0818 -0.7622 -0.2464
  940MPD2     H13801   4.061   0.093  13.225 -1.7741 -0.3147  1.7431
  940MPD2    H113802   3.927   0.313  12.876  1.4795  1.9568  1.0214
  940MPD2    H213803   3.794   0.425  13.258 -0.5100 -1.1801  0.5967
  940MPD2    H313804   3.780   0.434  13.023  0.0919 -0.2200  0.3756
  940MPD2     N13805   4.066   0.098  12.951 -0.0670 -0.2801  0.0733
  940MPD2    H513806   4.048   0.123  12.854  0.2370  0.6604  0.2610
  940MPD2    N113807   3.938   0.241  13.402  0.2035 -0.2615  0.3843
  940MPD2    H713808   3.992   0.160  13.430  3.5316  2.0262  0.6064
  941MPD2     C13809   2.993   4.254  10.066 -1.0108 -0.0624  0.0996
  941MPD2    C113810   3.121   4.234  10.102 -0.3311  0.5867 -0.0384
  941MPD2    C213811   3.151   4.139  10.199 -0.4346  0.6856  0.1587
  941MPD2    C313812   3.050   4.054  10.234  0.2263 -0.2768 -0.2535
  941MPD2    C413813   2.922   4.073  10.199 -1.3754  0.4709  0.2380
  941MPD2    C513814   2.888   4.176  10.107  0.2699  0.3816 -0.6426
  941MPD2     H13815   3.253   4.113  10.224 -0.6165  0.3191  0.5143
  941MPD2    H113816   2.852   3.998  10.234 -0.9463  1.2320  2.7154
  941MPD2    H213817   2.963   4.328   9.992  2.4105 -1.4356 -2.6396
  941MPD2    H313818   2.792   4.187  10.058 -0.3755 -0.1221  0.5097
  941MPD2     N13819   3.069   3.941  10.318 -0.3385 -0.1146  0.3789
  941MPD2    H513820   2.985   3.902  10.361 -0.5633  1.5405  1.4584
  941MPD2    N113821   3.232   4.313  10.057 -0.3101 -0.0142  0.1188
  941MPD2    H713822   3.317   4.304  10.111 -2.0748  0.2767  2.9674
  942MPD2     C13823   2.322   0.763   9.698 -0.7967  0.4541 -0.4332
  942MPD2    C113824   2.272   0.848   9.789 -0.0999  0.6007  0.3685
  942MPD2    C213825   2.344   0.959   9.817  0.3166  0.0383  0.5024
  942MPD2    C313826   2.463   0.996   9.747 -0.1081 -0.6979  0.0939
  942MPD2    C413827   2.500   0.918   9.640  0.3460 -0.8083 -0.1492
  942MPD2    C513828   2.433   0.796   9.619  0.4349  0.2344  0.0325
  942MPD2     H13829   2.304   1.013   9.902  0.3639 -0.7214  1.0128
  942MPD2    H113830   2.587   0.939   9.579 -1.0290 -0.0219 -1.8148
  942MPD2    H213831   2.279   0.664   9.683 -2.6108  1.1441  0.1579
  942MPD2    H313832   2.475   0.722   9.552 -1.0942  0.9395 -1.6850
  942MPD2     N13833   2.538   1.117   9.775  0.1741 -0.3843  0.7184
  942MPD2    H513834   2.612   1.129   9.707 -0.9896 -1.5941 -0.7434
  942MPD2    N113835   2.155   0.828   9.860 -0.1929 -0.0430 -0.0626
  942MPD2    H713836   2.124   0.894   9.930 -0.1703  0.2600 -0.3378
  943MPD2     C13837   2.703   3.751   9.778  0.0906  0.1267 -0.1590
  943MPD2    C113838   2.661   3.689   9.893 -0.6088  0.2020  0.3027
  943MPD2    C213839   2.629   3.768  10.005 -0.7966 -0.0502 -0.1297
  943MPD2    C313840   2.639   3.908   9.999 -0.1598 -0.5807  0.6393
  943MPD2    C413841   2.674   3.969   9.883  1.3356  0.2012  0.2745
  943MPD2    C513842   2.698   3.891   9.770 -0.2620  0.1053 -0.0732
  943MPD2     H13843   2.599   3.720  10.097  1.6064  2.1173  1.8122
  943MPD2    H113844   2.669   4.077   9.875  0.8155  0.1431 -0.1902
  943MPD2    H213845   2.722   3.701   9.683 -1.3700  1.0281 -0.9448
  943MPD2    H313846   2.742   3.943   9.686 -0.8189  0.0927 -0.3723
  943MPD2     N13847   2.595   3.988  10.109 -0.3968  0.3040 -1.3638
  943MPD2    H513848   2.595   4.090  10.105  3.7450  0.4818  2.3923
  943MPD2    N113849   2.642   3.545   9.893 -0.3915 -0.3193 -0.5365
  943MPD2    H713850   2.659   3.505   9.801  1.1020 -0.0024 -0.3835
  944MPD2     C13851   1.736   3.312  10.949 -0.4022 -0.7837 -0.2738
  944MPD2    C113852   1.775   3.226  11.054 -0.3897 -0.5246 -0.4031
  944MPD2    C213853   1.719   3.243  11.175 -0.0822 -0.4511 -0.4674
  944MPD2    C313854   1.620   3.327  11.200 -0.6172 -0.0648 -0.1905
  944MPD2    C413855   1.581   3.410  11.095  0.2242  0.3547 -0.6117
  944MPD2    C513856   1.651   3.414  10.979 -0.7104 -0.2167  0.4329
  944MPD2     H13857   1.745   3.179  11.259 -0.5731 -0.1367 -0.0736
  944MPD2    H113858   1.508   3.491  11.100  0.3946  0.5728 -1.6043
  944MPD2    H213859   1.792   3.311  10.856 -0.6017 -1.2348 -0.3882
  944MPD2    H313860   1.626   3.498  10.915 -1.1900  1.3485  2.6533
  944MPD2     N13861   1.556   3.320  11.324  0.1021 -0.3922  0.3217
  944MPD2    H513862   1.588   3.244  11.383 -3.3136 -2.2167 -0.1897
  944MPD2    N113863   1.877   3.130  11.032 -0.0844 -0.9137  0.0479
  944MPD2    H713864   1.937   3.135  10.951 -0.8436 -1.4472 -0.5506
    1TMC1    C113865   0.396   3.887  14.069 -0.3354 -0.6689  0.3301
    1TMC1    C213866   0.373   3.877  13.934  0.9595 -0.5553  1.0622
    1TMC1    C313867   0.392   3.761  13.867  0.0030 -0.0045  0.1938
    1TMC1    C413868   0.422   3.785  14.146 -0.0931 -0.1951 -0.0970
    1TMC1    C513869   0.451   3.665  14.076 -0.2501  0.2863 -0.0470
    1TMC1    C613870   0.422   3.652  13.938  0.3472  0.1374  0.1846
    1TMC1     C13871   0.374   4.008  14.138 -0.4051  0.2594  0.1820
    1TMC1     O13872   0.450   4.042  14.223  0.7687 -0.0337 -0.2664
    1TMC1     H13873   0.367   3.964  13.870  1.1766 -1.9074 -0.8258
    1TMC1    H113874   0.413   3.795  14.254  0.2204  0.9628 -0.1843
    1TMC1    H213875   0.426   3.549  13.902 -1.4467  0.3178 -0.5282
    1TMC1    C713876   0.453   3.545  14.146 -0.2627  0.1773 -0.1301
    1TMC1    C813877   0.321   3.753  13.746  0.1461 -0.3669 -0.0260
    1TMC1    O113878   0.364   3.462  14.134 -0.2853  0.7958  0.5175
    1TMC1    O213879   0.219   3.821  13.742 -0.1598  0.0821  0.3610
    1TMC1    O313880   0.507   3.569  14.267  0.4366 -0.6651  0.2943
    1TMC1    H313881   0.581   3.632  14.251  0.1126 -0.0654  1.1404
    1TMC1    O513882   0.319   3.621  13.714  0.5474  0.1005 -0.4077
    1TMC1    H513883   0.411   3.592  13.703  0.2451 -0.6984 -0.8085
    2MPD2     C13884   0.047   4.334  14.343  0.6037 -0.5106  0.4234
    2MPD2    C113885   0.010   4.321  14.213  0.6620 -0.1243 -0.5606
    2MPD2    C213886   0.083   4.238  14.132  0.3757 -0.1408  0.2018
    2MPD2    C313887   0.192   4.165  14.179 -0.9194  0.3311 -0.1958
    2MPD2    C413888   0.215   4.174  14.314  1.0044 -0.5078 -1.0266
    2MPD2    C513889   0.142   4.251  14.396 -0.5896 -0.5215  0.1381
    2MPD2     H13890   0.059   4.226  14.027  0.1351  1.0365  0.1288
    2MPD2    H113891   0.290   4.118  14.367 -1.2455  0.4368  3.1646
    2MPD2    H213892   4.731   4.402  14.410  3.0186  1.3714  0.4400
    2MPD2    H313893   0.165   4.257  14.502 -2.2500 -0.6392  0.5015
    2MPD2     N13894   0.262   4.071  14.099  0.0121  0.0803 -0.0218
    2MPD2    H513895   0.231   4.043  14.006 -1.7260 -1.1936  0.9560
    2MPD2    N113896   4.643   4.407  14.176  0.1476  0.9545  0.1247
    2MPD2    H713897   4.620   4.471  14.251  0.3031 -0.0317  1.0122
    3TMC2    C113898   4.527   4.543  14.029 -0.4022 -0.4255 -0.6457
    3TMC2    C213899   4.475   4.619  14.133 -0.3046  0.2306  0.9771
    3TMC2    C313900   4.405   0.001  14.103  0.4724  1.1178 -0.1720
    3TMC2    C413901   4.528   4.580  13.905 -0.1366 -0.4117 -0.2882
    3TMC2    C513902   4.467   4.703  13.881 -0.1432  0.1410  0.2097
    3TMC2    C613903   4.397   0.045  13.973 -0.3840  0.7349 -0.2342
    3TMC2     C13904   4.588   4.416  14.056  0.8658  0.4397  0.5277
    3TMC2     O13905   4.600   4.340  13.965 -0.0586 -0.0648  0.3581
    3TMC2     H13906   4.467   4.574  14.231  0.2300 -1.2136  0.3632
    3TMC2    H113907   4.573   4.523  13.825  0.2941  0.0183 -0.3524
    3TMC2    H213908   4.339   0.133  13.948 -0.6495 -0.0905 -2.4956
    3TMC2    C713909   4.463   0.007  13.739  0.9218 -0.1011 -0.0295
    3TMC2    C813910   4.363   0.091  14.209  0.0085  0.3287  0.2389
    3TMC2    O113911   4.504   4.667  13.651 -0.1044 -0.2963 -0.5168
    3TMC2    O213912   4.298   0.195  14.186 -0.3036  0.0476 -0.0177
    3TMC2    O513913   4.423   0.058  14.326  0.0885  0.6620  0.4520
    3TMC2    H513914   4.511   0.015  14.323 -0.9621 -1.4904  0.7275
    4TMC2    C113915   4.042   0.888  13.446 -0.4042  0.1515 -0.1789
    4TMC2    C213916   4.106   0.928  13.327  0.6429 -0.3553  0.0848
    4TMC2    C313917   4.219   0.861  13.297 -0.3660  0.1779 -0.3247
    4TMC2    C413918   4.098   0.795  13.536  0.0207 -0.3917  0.2004
    4TMC2    C513919   4.208   0.731  13.489 -0.6424  0.8628 -0.7233
    4TMC2    C613920   4.268   0.754  13.365  0.1081  0.0597 -0.2393
    4TMC2     C13921   3.906   0.932  13.479 -0.8585 -0.2123 -0.2950
    4TMC2     O13922   3.876   0.892  13.592 -0.2159 -0.3637  0.0238
    4TMC2     H13923   4.051   0.990  13.257  1.9122  1.4980  0.7060
    4TMC2    H113924   4.049   0.755  13.624 -0.0885 -0.2016  0.2262
    4TMC2    H213925   4.362   0.708  13.334 -0.3177  0.8375 -2.6522
    4TMC2    C713926   4.229   0.595  13.545  0.0968  0.0547  0.7590
    4TMC2    C813927   4.236   0.853  13.148 -0.3319  0.3400 -0.3767
    4TMC2    O113928   4.208   0.580  13.663 -0.4973  0.5659  0.1665
    4TMC2    O213929   4.141   0.832  13.071  0.5107 -0.5958 -0.1518
    4TMC2    O513930   4.363   0.822  13.111  0.7086 -0.3325 -0.5049
    4TMC2    H513931   4.425   0.859  13.176 -0.4801 -0.0636  0.4746
    5MPD2     C13932   3.452   1.128  13.383  0.1783  0.5304 -0.0537
    5MPD2    C113933   3.515   1.114  13.264  0.2731  0.1728  0.5838
    5MPD2    C213934   3.644   1.059  13.268  1.1446 -0.2624  1.0539
    5MPD2    C313935   3.706   1.029  13.383  0.4520  0.6090  0.0341
    5MPD2    C413936   3.635   1.033  13.504 -0.2959 -0.8440 -0.2387
    5MPD2    C513937   3.505   1.081  13.502  0.6129 -0.6046  0.7837
    5MPD2     H13938   3.708   1.059  13.180  1.0220 -0.2521  0.9643
    5MPD2    H113939   3.687   1.016  13.598  0.6251 -1.7454 -0.9158
    5MPD2    H213940   3.347   1.153  13.394  0.4067  0.7225  1.7216
    5MPD2    H313941   3.443   1.080  13.591 -0.3456  0.6256  0.1135
    5MPD2     N13942   3.835   0.984  13.374 -0.1831 -0.3199  0.6865
    5MPD2    H513943   3.877   0.995  13.282  0.1438 -3.0024  0.4978
    5MPD2    N113944   3.445   1.165  13.151  0.1594 -0.3218 -0.4298
    5MPD2    H713945   3.360   1.213  13.177  0.0498 -0.9820  0.4283
    6MPD1     C13946   3.335   3.015  12.907  0.9353  0.0030 -0.1869
    6MPD1    C113947   3.243   2.956  12.992 -0.1739  0.0985 -0.4590
    6MPD1    C213948   3.210   2.826  12.978 -0.3905  0.3161  0.5004
    6MPD1    C313949   3.259   2.753  12.868  0.6230 -0.4118  0.2324
    6MPD1    C413950   3.339   2.819  12.777 -0.9061  0.0829  0.4253
    6MPD1    C513951   3.388   2.941  12.810 -0.9154 -0.7359 -0.1880
    6MPD1     H13952   3.142   2.787  13.053 -0.3850  1.2770  0.9964
    6MPD1    H113953   3.392   2.776  12.692 -0.7390 -0.3083  0.7306
    6MPD1    H213954   3.377   3.113  12.926  0.8137 -0.0543  0.4028
    6MPD1    H313955   3.466   2.979  12.744 -0.9410  0.1409  0.2869
    6MPD1     N13956   3.240   2.619  12.855  0.2449 -0.2697  1.0532
    6MPD1    H513957   3.284   2.574  12.776 -2.2819  1.5698 -1.4155
    6MPD1    N113958   3.206   3.022  13.108  0.4060 -0.1839 -0.1702
    6MPD1    H613959   3.118   2.994  13.151  0.9244  1.1635  1.7532
    6MPD1    H713960   3.190   3.120  13.082  1.7298 -0.3220 -1.5303
    7MPD2     C13961   3.012   1.842  13.250 -0.3297 -0.1170  0.3957
    7MPD2    C113962   3.014   1.835  13.116  0.4927  0.5914 -0.5019
    7MPD2    C213963   3.045   1.718  13.054  0.0375 -0.0082  0.2848
    7MPD2    C313964   3.072   1.598  13.124  0.1896  0.3083 -0.7658
    7MPD2    C413965   3.053   1.603  13.263 -0.7481  0.0568  0.2784
    7MPD2    C513966   3.027   1.728  13.325 -0.2263 -1.0577 -0.4453
    7MPD2     H13967   3.057   1.728  12.947  2.3713 -1.4802  0.4260
    7MPD2    H113968   3.065   1.518  13.329  1.2846  0.4383  0.4204
    7MPD2    H213969   2.996   1.933  13.306  2.0579  1.5257 -1.5798
    7MPD2    H313970   3.028   1.738  13.433  1.9213  0.5596 -0.6018
    7MPD2     N13971   3.117   1.474  13.054 -0.2087 -0.2906  0.4326
    7MPD2    H513972   3.134   1.401  13.122  0.5257 -0.9067 -0.4111
    7MPD2    N113973   3.014   1.953  13.030 -0.4017 -0.5809 -0.4456
    7MPD2    H713974   3.027   1.937  12.931  0.2410 -0.3117 -0.4016
    8TMC3    C113975   3.208   1.344  12.873  0.0301  0.7140 -0.9281
    8TMC3    C213976   3.268   1.257  12.962 -0.0461 -0.2792 -0.5190
    8TMC3    C313977   3.396   1.218  12.925 -0.3168 -0.1170  0.8901
    8TMC3    C413978   3.261   1.375  12.749  0.1218 -0.4104  0.9398
    8TMC3    C513979   3.382   1.329  12.720 -0.4016  0.0367  0.4426
    8TMC3    C613980   3.448   1.239  12.803  0.2415  0.0835 -0.5429
    8TMC3     C13981   3.130   1.459  12.917 -0.0210  0.1071 -0.1889
    8TMC3     O13982   3.121   1.541  12.828  0.3321 -0.5977 -0.4421
    8TMC3     H13983   3.228   1.235  13.060  2.1220 -0.4043  0.3397
    8TMC3    H113984   3.202   1.397  12.660  1.4542 -1.1420 -0.1182
    8TMC3    H213985   3.546   1.196  12.782  0.6647  0.4277  0.7354
    8TMC3    C713986   3.465   1.430  12.665  0.1639  0.5725  0.2819
    8TMC3    C813987   3.496   1.164  13.022  0.2935 -0.0310  0.1200
    8TMC3    O113988   3.579   1.394  12.645  0.3028  0.0055  0.7740
    8TMC3    O213989   3.608   1.131  12.982  0.2751  0.5399  0.0947
    9TMC3    C113990   3.156   2.397  12.908 -0.0478 -0.5422 -0.2616
    9TMC3    C213991   3.244   2.338  12.818 -0.4282  0.0264  0.1181
    9TMC3    C313992   3.245   2.197  12.812 -0.1477  0.0807 -0.2106
    9TMC3    C413993   3.078   2.320  12.986  0.4217 -1.0362 -0.0592
    9TMC3    C513994   3.078   2.177  12.972 -0.1904 -0.6536  0.7984
    9TMC3    C613995   3.166   2.117  12.890  0.3321 -0.5142  0.5631
    9TMC3     C13996   3.150   2.545  12.926  0.0822  0.2607  0.4360
    9TMC3     O13997   3.078   2.585  13.017 -0.4104 -0.4151 -0.0740
    9TMC3     H13998   3.309   2.393  12.751 -3.6631 -0.2756 -3.2891
    9TMC3    H113999   3.016   2.368  13.061 -0.2983  2.7193 -3.0689
    9TMC3    H214000   3.191   2.013  12.902 -0.9427 -1.0171 -1.0098
    9TMC3    C714001   3.030   2.083  13.073 -0.6032 -0.6999 -0.1760
    9TMC3    C814002   3.348   2.141  12.730  0.0129 -0.4083 -0.8248
    9TMC3    O114003   2.997   2.132  13.184  0.3191 -0.1232  0.2157
    9TMC3    O214004   3.431   2.214  12.679 -0.3351  0.4462  0.2619
   10MPD2     C14005   3.593   1.689  12.634  1.1248  0.4396 -0.1433
   10MPD2    C114006   3.457   1.672  12.634 -1.0555  0.4790 -0.1826
   10MPD2    C214007   3.377   1.784  12.651  0.2631 -0.0064 -0.2693
   10MPD2    C314008   3.430   1.914  12.659 -0.2413  0.8079  0.0566
   10MPD2    C414009   3.562   1.936  12.657 -0.0032  0.6790 -0.8580
   10MPD2    C514010   3.644   1.821  12.657 -0.9486  0.4885 -0.2210
   10MPD2     H14011   3.270   1.775  12.660  0.2189 -0.7357 -1.5638
   10MPD2    H114012   3.607   2.032  12.681  1.4342 -0.1196 -0.3086
   10MPD2    H214013   3.667   1.610  12.651  0.6349  0.1591  0.7049
   10MPD2    H314014   3.750   1.843  12.656 -0.4505 -1.9057 -2.4507
   10MPD2     N14015   3.336   2.001  12.714 -0.1310 -0.3907 -0.3794
   10MPD2    H514016   3.245   1.958  12.723 -0.6559  0.6785 -0.6040
   10MPD2    N114017   3.400   1.544  12.660  0.4881  0.1324 -0.3415
   10MPD2    H714018   3.304   1.544  12.692  0.7575 -1.3355  0.4170
   11MPD2     C14019   4.341   0.105  13.484 -0.6437 -0.5308  0.1678
   11MPD2    C114020   4.366   0.188  13.594  0.0880 -0.4979  0.5539
   11MPD2    C214021   4.334   0.319  13.582  0.1877  1.0483  0.0130
   11MPD2    C314022   4.298   0.371  13.459  0.0909 -0.2108 -0.2856
   11MPD2    C414023   4.292   0.291  13.350  0.1171  0.7272  0.5978
   11MPD2    C514024   4.306   0.154  13.358 -0.3125  0.2505  0.3074
   11MPD2     H14025   4.330   0.387  13.666 -1.2895 -0.1478  0.9201
   11MPD2    H114026   4.261   0.332  13.255  1.3434  1.0692  0.3504
   11MPD2    H214027   4.346   4.734  13.490 -0.1430 -0.4423  1.3463
   11MPD2    H314028   4.303   0.085  13.274 -1.6145  0.0673  0.5071
   11MPD2     N14029   4.253   0.506  13.443  0.2204  0.4838  0.1678
   11MPD2    H514030   4.239   0.542  13.349 -2.4698 -2.7088 -0.6438
   11MPD2    N114031   4.402   0.131  13.720  0.9556  0.5218 -0.6326
   11MPD2    H714032   4.400   0.202  13.794 -0.4812 -0.3625  0.1685
    1MPD1     C14033   3.828   2.505  16.259 -0.6591  0.1267  0.4156
    1MPD1    C114034   3.850   2.375  16.209 -0.3559 -0.4806 -0.3592
    1MPD1    C214035   3.786   2.269  16.267 -0.5251 -0.5138  0.2710
    1MPD1    C314036   3.683   2.287  16.352  0.1816  0.0736 -0.3313
    1MPD1    C414037   3.651   2.415  16.392  0.5540  0.2385  0.2418
    1MPD1    C514038   3.728   2.520  16.356  0.0357 -0.2621 -0.2768
    1MPD1     H14039   3.813   2.170  16.233 -0.8826 -0.7700  0.7492
    1MPD1    H114040   3.572   2.441  16.462  1.4032  0.3427  1.1508
    1MPD1    H214041   3.878   2.590  16.214 -0.2166 -0.6720 -0.5800
    1MPD1    H314042   3.700   2.619  16.390 -2.3034 -0.8139 -0.6162
    1MPD1     N14043   3.610   2.181  16.425 -1.1299  0.5470  0.2642
    1MPD1    H514044   3.540   2.217  16.488  0.8047  0.3150  2.5171
    1MPD1    N114045   3.956   2.344  16.128  0.1161  0.1806 -0.5686
    1MPD1    H614046   3.930   2.269  16.066  0.6020  1.1798 -1.9831
    1MPD1    H714047   3.968   2.420  16.061  1.7796  0.9625  0.5830
    2MPD1     C14048   3.482   1.201  16.215  0.0826 -0.2676 -0.2353
    2MPD1    C114049   3.581   1.260  16.288 -0.3764  0.3198 -0.1634
    2MPD1    C214050   3.573   1.394  16.311 -0.4691  0.1606  0.9575
    2MPD1    C314051   3.464   1.473  16.277 -0.0833  0.4950 -0.4061
    2MPD1    C414052   3.359   1.414  16.207  0.2786  1.3522 -0.0180
    2MPD1    C514053   3.374   1.280  16.181  0.0913  0.7622  0.5177
    2MPD1     H14054   3.656   1.441  16.361  0.3144 -2.3765  2.0355
    2MPD1    H114055   3.266   1.460  16.178  0.3913  0.6497 -1.4915
    2MPD1    H214056   3.486   1.096  16.186  0.7877  0.1564 -1.6929
    2MPD1    H314057   3.293   1.233  16.127  1.3891  0.9634 -1.5791
    2MPD1     N14058   3.454   1.602  16.325 -0.6802  0.1045  0.0402
    2MPD1    H514059   3.539   1.652  16.350  0.8394 -0.6923 -3.5572
    2MPD1    N114060   3.701   1.187  16.305 -0.2616  0.2726  0.1420
    2MPD1    H614061   3.667   1.097  16.337 -3.5539  1.4613 -0.0261
    2MPD1    H714062   3.758   1.225  16.380 -2.5224 -0.4784  2.2253
    3TMC3    C114063   3.359   1.793  16.414 -0.0453  0.1866  0.2870
    3TMC3    C214064   3.287   1.836  16.525 -0.5598 -0.4437 -0.3641
    3TMC3    C314065   3.325   1.950  16.590 -0.5582 -0.2372  0.2458
    3TMC3    C414066   3.481   1.855  16.388 -0.6240  0.8774 -0.8506
    3TMC3    C514067   3.518   1.967  16.459 -0.5958 -0.0495 -0.0718
    3TMC3    C614068   3.436   2.021  16.556 -0.5340  0.0706 -0.1163
    3TMC3     C14069   3.339   1.666  16.360 -0.6303 -0.1030  0.1071
    3TMC3     O14070   3.222   1.637  16.338  0.3523 -0.0432  0.0186
    3TMC3     H14071   3.202   1.777  16.559 -1.0264  0.2968 -0.2606
    3TMC3    H114072   3.539   1.832  16.299  0.1658  3.5186 -1.0110
    3TMC3    H214073   3.467   2.109  16.612 -0.5345 -0.7243  1.1391
    3TMC3    C714074   3.617   2.048  16.391  0.1899  0.7915 -0.1613
    3TMC3    C814075   3.230   2.024  16.670  0.7966  0.0766  0.8567
    3TMC3    O114076   3.687   1.997  16.302  0.1651  0.0204  0.1704
    3TMC3    O214077   3.273   2.125  16.723  0.7096  0.1941 -0.0249
    4MPD1     C14078   2.736   2.159  16.776 -0.3206 -0.2553  0.4368
    4MPD1    C114079   2.735   2.024  16.747 -0.2064 -0.3262  0.0912
    4MPD1    C214080   2.854   1.976  16.706 -0.6209 -0.5104  0.2231
    4MPD1    C314081   2.979   2.050  16.697  0.2510 -0.3781 -0.2583
    4MPD1    C414082   2.974   2.178  16.733 -0.4982  0.6819 -0.0412
    4MPD1    C514083   2.848   2.237  16.767 -0.1555  0.0321 -0.3926
    4MPD1     H14084   2.860   1.871  16.681 -1.2862 -0.6143  0.5047
    4MPD1    H114085   3.063   2.239  16.742  0.4573 -0.8420  0.9704
    4MPD1    H214086   2.641   2.205  16.800 -0.9734 -0.7523 -1.1996
    4MPD1    H314087   2.840   2.341  16.795  0.1265 -0.2442  0.7147
    4MPD1     N14088   3.102   1.977  16.667 -0.6942 -0.5805 -0.2096
    4MPD1    H514089   3.091   1.877  16.651 -1.6558 -0.5047  0.0018
    4MPD1    N114090   2.615   1.950  16.738 -0.3505  0.0596 -0.1747
    4MPD1    H614091   2.547   1.995  16.799 -0.7534  0.2674 -0.7827
    4MPD1    H714092   2.622   1.855  16.775  0.2653  0.0078 -0.4250
    1TCq1    O114093   4.502   4.656  11.794 -0.4559  0.0381  0.3477
    1TCq1    C114094   4.384   4.703  11.758  0.2923 -0.2301 -0.1201
    1TCq1    O214095   4.316   4.660  11.664  0.3966  0.1650  0.6192
    1TCq1    C214096   4.334   0.058  11.864  0.0611  0.2859 -0.2077
    1TCq1    C314097   4.209   0.110  11.844  0.0419 -0.1806 -0.1122
    1TCq1    C414098   4.139   0.158  11.952  0.1830  0.1955  0.7494
    1TCq1    C514099   4.201   0.186  12.071  0.2470 -0.3278  0.2730
    1TCq1    C614100   4.330   0.134  12.094 -0.0960  0.2224 -0.9531
    1TCq1    C714101   4.391   0.062  11.991  0.1616  0.8473 -0.7141
    1TCq1    C814102   4.391   0.134  12.225 -0.4342 -0.8839 -0.3844
    1TCq1    O414103   4.501   0.086  12.243 -0.0430 -0.0168 -0.1597
    1TCq1    C914104   4.015   0.221  11.921  0.1353  0.1593  0.0346
    1TCq1    O514105   3.946   0.256  12.021 -0.1186  0.0554  0.3922
    1TCq1    O614106   4.001   0.267  11.806 -0.2826 -0.2131  0.0350
    1TCq1    H114107   4.556   4.727  11.834 -2.2427  1.5596  0.0680
    1TCq1    H214108   4.154   0.091  11.753 -0.5922 -0.5679  0.3432
    1TCq1    H314109   4.147   0.238  12.148 -0.5470  1.8726 -1.7629
    1TCq1    H414110   4.484   0.013  12.015 -1.9666 -1.4436  2.8147
    2MPD1     C14111   4.394   0.352  12.703  0.7175  0.3001  0.0631
    2MPD1    C114112   4.262   0.333  12.664  0.0049  0.9676 -0.1723
    2MPD1    C214113   4.240   0.295  12.527 -0.2567  0.2120 -0.2305
    2MPD1    C314114   4.344   0.254  12.441  0.8375 -0.7576 -0.0624
    2MPD1    C414115   4.471   0.262  12.493  0.2508 -0.1132 -0.0499
    2MPD1    C514116   4.497   0.323  12.617  0.1127  0.4130 -0.2029
    2MPD1     H14117   4.136   0.285  12.498 -0.2576  1.0777 -0.5161
    2MPD1    H114118   4.552   0.235  12.426 -1.5217 -0.8877 -1.8819
    2MPD1    H214119   4.419   0.405  12.794  1.9343  0.6243 -0.4615
    2MPD1    H314120   4.595   0.357  12.648  0.4275 -1.4276  0.8340
    2MPD1     N14121   4.308   0.201  12.316 -0.8180  0.3258 -0.6237
    2MPD1    H514122   4.213   0.222  12.285 -0.5324  1.1343 -0.9283
    2MPD1    N114123   4.157   0.352  12.743 -0.3073 -0.3658 -0.2841
    2MPD1    H614124   4.072   0.362  12.688 -0.6233 -1.8556 -0.0797
    2MPD1    H714125   4.162   0.445  12.785  0.4028 -0.5646  0.0705
    1TMC1    C114126   0.686   4.592   1.000 -0.0850 -0.3864 -0.0240
    1TMC1    C214127   0.764   4.671   1.080  0.0404  0.5057 -0.2782
    1TMC1    C314128   0.858   4.618   1.163  0.3302 -0.4698  0.1751
    1TMC1    C414129   0.702   4.456   1.000  0.5748 -0.4204  0.3018
    1TMC1    C514130   0.805   4.405   1.082 -0.1422 -0.2085  0.6209
    1TMC1    C614131   0.884   4.482   1.158  0.4108 -0.6552  0.4336
    1TMC1     C14132   0.625   4.645   0.882  0.4092 -0.4611 -0.4651
    1TMC1     O14133   0.562   4.567   0.812  0.2440 -0.2412 -0.4936
    1TMC1     H14134   0.748   0.040   1.093 -0.2287  0.3324  0.7317
    1TMC1    H114135   0.657   4.388   0.930  0.3049  0.7892 -0.6979
    1TMC1    H214136   0.952   4.432   1.226 -1.6640 -1.5966  1.8102
    1TMC1    C714137   0.812   4.260   1.097 -0.3600  0.3172 -0.9107
    1TMC1    C814138   0.922   4.712   1.244  0.5199  0.0393 -0.4037
    1TMC1    O114139   0.914   4.198   1.131  0.1679  0.2505 -0.0599
    1TMC1    O214140   0.882   0.086   1.268  0.2506  0.5504  0.5082
    1TMC1    O314141   0.701   4.248   1.179  0.5757  1.1738  0.2298
    1TMC1    H314142   0.622   4.299   1.151 -0.0845  0.3830  0.6451
    1TMC1    O514143   1.050   4.669   1.268 -0.2172  0.5268  0.3413
    1TMC1    H514144   1.066   4.579   1.232  1.6340  0.6392  0.8954
    2MPD1     C14145   0.514   0.311   0.579 -1.7912 -0.4184 -0.4372
    2MPD1    C114146   0.541   0.351   0.706 -0.5872 -0.7069  0.2018
    2MPD1    C214147   0.595   0.263   0.798  0.2537  0.2776  0.2545
    2MPD1    C314148   0.602   0.127   0.772  0.2355  0.0900  0.1177
    2MPD1    C414149   0.568   0.085   0.650 -0.7882  0.3950  0.2677
    2MPD1    C514150   0.525   0.175   0.556  0.0943  0.1930  0.2675
    2MPD1     H14151   0.620   0.296   0.898  1.4754 -1.5269  0.5621
    2MPD1    H114152   0.602   4.726   0.613 -2.2443  0.4820 -1.2901
    2MPD1    H214153   0.463   0.377   0.510 -0.5304  1.7354  0.7006
    2MPD1    H314154   0.495   0.149   0.454  1.3176 -0.6961  0.1377
    2MPD1     N14155   0.637   0.042   0.879  0.5372  0.2349  0.1771
    2MPD1    H514156   0.666   0.094   0.962  3.6137  2.2377 -2.1682
    2MPD1    N114157   0.545   0.491   0.730  0.0705  0.5488 -0.4264
    2MPD1    H614158   0.473   0.535   0.674 -0.6465 -0.4186 -0.2567
    2MPD1    H714159   0.525   0.513   0.827 -0.0158  1.9944 -0.7723
    1MPD1     C14160   3.799   2.098  12.477 -0.0824 -0.3073 -0.5394
    1MPD1    C114161   3.820   2.169  12.588 -0.4313  0.0611  0.1404
    1MPD1    C214162   3.947   2.176  12.635 -0.6792  0.2160  1.1492
    1MPD1    C314163   4.046   2.093  12.591 -0.4267 -0.1254 -0.0326
    1MPD1    C414164   4.019   2.001  12.490 -0.0972  0.1420  0.7691
    1MPD1    C514165   3.893   2.008  12.436  0.2786 -0.2390 -0.3890
    1MPD1     H14166   3.980   2.263  12.691  0.8935 -1.1555  2.3428
    1MPD1    H114167   4.094   1.940  12.440  0.4049  1.0114  0.4404
    1MPD1    H214168   3.708   2.112  12.420 -0.8110 -1.1709  0.4212
    1MPD1    H314169   3.865   1.952  12.348  1.3254  1.0105 -1.5092
    1MPD1     N14170   4.177   2.116  12.627  0.4284 -0.2656 -0.2609
    1MPD1    H514171   4.191   2.185  12.700  1.9611 -1.2103  0.3251
    1MPD1    N114172   3.728   2.274  12.617  0.3293 -0.5380 -0.2201
    1MPD1    H614173   3.762   2.306  12.708  0.3747  0.4560 -0.5922
    1MPD1    H714174   3.637   2.232  12.631  0.3813 -1.3115 -2.2640
    2MPD1     C14175   0.320   3.160  11.245 -0.1528 -0.0542  0.2629
    2MPD1    C114176   0.206   3.092  11.216  0.0515 -0.7526  0.3206
    2MPD1    C214177   0.217   2.956  11.208 -0.4966 -0.6385  0.7033
    2MPD1    C314178   0.332   2.884  11.238 -0.1319 -0.3032  0.2622
    2MPD1    C414179   0.443   2.957  11.264  0.1636  0.3200 -0.0803
    2MPD1    C514180   0.436   3.095  11.276  0.3494 -0.2661  0.4373
    2MPD1     H14181   0.123   2.906  11.184 -2.2113  2.6463  0.5620
    2MPD1    H114182   0.537   2.905  11.278 -0.1833 -0.3715 -0.3220
    2MPD1    H214183   0.319   3.267  11.255  0.5199 -0.3632  3.7944
    2MPD1    H314184   0.533   3.144  11.282 -0.9672  2.3153  0.7323
    2MPD1     N14185   0.344   2.742  11.232  0.0673  0.0939 -0.4957
    2MPD1    H514186   0.433   2.701  11.260 -0.0951 -0.3360 -0.6127
    2MPD1    N114187   0.080   3.155  11.210 -0.3079  0.4127  0.4133
    2MPD1    H614188   0.037   3.124  11.123  0.4466 -0.4944  0.3675
    2MPD1    H714189   0.083   3.256  11.223  0.6228  0.4403 -0.0007
    3MPD1     C14190   0.018   1.742  10.924  0.6033  0.5102  0.1281
    3MPD1    C114191   0.098   1.742  11.029  0.4529  0.5143 -0.0679
    3MPD1    C214192   0.141   1.855  11.089  0.3989 -0.0853  0.1084
    3MPD1    C314193   0.110   1.979  11.035  0.0119 -0.6580 -0.0467
    3MPD1    C414194   0.027   1.983  10.922 -0.1312 -0.1988  0.9763
    3MPD1    C514195   4.713   1.866  10.874  0.1038  0.2542  0.4438
    3MPD1     H14196   0.197   1.853  11.181 -0.1026 -1.3306  0.3787
    3MPD1    H114197   4.726   2.075  10.878  0.3107 -0.9498 -0.9785
    3MPD1    H214198   4.716   1.655  10.873 -1.1146  0.8748  0.8235
    3MPD1    H314199   4.643   1.868  10.791  1.5736  0.3328 -0.8028
    3MPD1     N14200   0.157   2.099  11.098 -0.3250  0.6017  0.4639
    3MPD1    H514201   0.214   2.081  11.180 -1.8125 -0.2922  1.3071
    3MPD1    N114202   0.121   1.620  11.084  0.4679 -0.3226 -0.0624
    3MPD1    H614203   0.047   1.587  11.145  0.8151 -0.6918  0.1589
    3MPD1    H714204   0.205   1.618  11.142  1.3005 -0.4245 -1.2687
    4MPD2     C14205   4.725   2.558  12.471 -0.1433 -0.0332  0.0861
    4MPD2    C114206   0.043   2.443  12.527  0.3150  0.0410  0.0096
    4MPD2    C214207   0.158   2.387  12.475  0.1417 -0.1527 -0.2364
    4MPD2    C314208   0.217   2.440  12.360 -0.5828  0.5409 -0.6587
    4MPD2    C414209   0.155   2.549  12.304  0.6548  0.3549  0.2416
    4MPD2    C514210   0.041   2.612  12.361  0.8663  0.3103 -0.8967
    4MPD2     H14211   0.172   2.285  12.509  2.2261 -0.2015 -1.2326
    4MPD2    H114212   0.196   2.590  12.213  2.8155  0.4633  1.2570
    4MPD2    H214213   4.638   2.607  12.512  0.2709  0.1334  0.7718
    4MPD2    H314214   4.724   2.696  12.319 -0.8369 -1.8063 -2.8861
    4MPD2     N14215   0.324   2.383  12.294 -0.1933 -0.1598 -0.4425
    4MPD2    H514216   0.344   2.427  12.205  0.4819  0.3373 -0.0419
    4MPD2    N114217   4.711   2.369  12.621 -0.0366 -0.1645 -0.2689
    4MPD2    H714218   0.021   2.284  12.649 -0.5883 -0.4733 -0.2774
    5TMC3    C114219   4.545   2.273  12.748  0.2090 -0.2805 -0.1687
    5TMC3    C214220   4.423   2.227  12.702 -0.0789 -0.0660 -0.1986
    5TMC3    C314221   4.410   2.101  12.645  0.4187  0.0519  0.1833
    5TMC3    C414222   4.652   2.190  12.753 -0.8014 -0.1540  0.4017
    5TMC3    C514223   4.640   2.059  12.698  0.7302  0.1166  0.0019
    5TMC3    C614224   4.518   2.015  12.647 -0.0040 -0.4876  0.1263
    5TMC3     C14225   4.589   2.393  12.679 -0.6468  1.2549 -0.1046
    5TMC3     O14226   4.512   2.488  12.660 -0.4190 -0.0998  0.3394
    5TMC3     H14227   4.350   2.307  12.687  0.5108  0.8906  1.9507
    5TMC3    H114228   0.002   2.207  12.815  0.1249  0.7366 -1.1296
    5TMC3    H214229   4.496   1.918  12.605 -0.6498 -0.7239  1.0064
    5TMC3    C714230   0.026   2.010  12.639  0.1057 -0.6792 -0.0392
    5TMC3    C814231   4.291   2.060  12.585  0.7070  0.4615 -1.0407
    5TMC3    O114232   0.120   2.089  12.641 -0.3524  0.8528 -0.0929
    5TMC3    O214233   4.300   1.972  12.502  0.8536  0.3107 -0.2827
    6TMC3    C114234   0.286   2.525  11.180 -0.4329  0.8978 -0.1046
    6TMC3    C214235   0.229   2.442  11.093  0.2979 -0.1038 -0.2587
    6TMC3    C314236   0.252   2.306  11.107  0.0165  0.2392  0.7290
    6TMC3    C414237   0.367   2.479  11.283  0.1777 -0.6382  0.1160
    6TMC3    C514238   0.407   2.351  11.283  0.4377  0.0418  0.6360
    6TMC3    C614239   0.351   2.255  11.195  0.2720  0.1068  0.6639
    6TMC3     C14240   0.257   2.662  11.169 -0.3019  0.2889 -0.7817
    6TMC3     O14241   0.161   2.689  11.099 -0.1704  0.4846 -0.1365
    6TMC3     H14242   0.142   2.476  11.037  0.6791 -2.3099 -2.2174
    6TMC3    H114243   0.395   2.534  11.372  2.4184  1.4706 -1.9054
    6TMC3    H214244   0.374   2.149  11.199  2.0005  0.4688 -0.0554
    6TMC3    C714245   0.479   2.305  11.398 -0.0210  0.7203 -0.5907
    6TMC3    C814246   0.161   2.219  11.037  0.8885 -0.6237  0.6403
    6TMC3    O114247   0.489   2.384  11.486 -0.7249 -0.3657  0.3569
    6TMC3    O214248   0.118   2.254  10.927 -0.5063  0.2755 -0.1812
    7MPD2     C14249   0.318   1.715  12.335  0.3823  0.4545 -0.3193
    7MPD2    C114250   0.340   1.836  12.396  0.3941 -0.5865 -0.3168
    7MPD2    C214251   0.245   1.890  12.481 -0.7792 -0.9463 -0.9621
    7MPD2    C314252   0.122   1.830  12.498  0.1166 -0.1818  1.1779
    7MPD2    C414253   0.103   1.710  12.435  0.0706 -0.1813  0.5512
    7MPD2    C514254   0.198   1.652  12.357  0.0155  0.0167  0.3391
    7MPD2     H14255   0.264   1.983  12.534 -0.0774 -1.7686  0.2277
    7MPD2    H114256   0.015   1.649  12.454 -1.6709  1.4376 -2.3809
    7MPD2    H214257   0.391   1.671  12.269  0.1454  1.0474 -0.9758
    7MPD2    H314258   0.175   1.556  12.312 -1.6207  0.7275 -0.3601
    7MPD2     N14259   0.016   1.886  12.582  0.1006 -0.6270  0.1306
    7MPD2    H514260   4.666   1.834  12.588 -0.3053  0.2570  1.8956
    7MPD2    N114261   0.446   1.922  12.372  0.2167 -0.3207 -0.7101
    7MPD2    H714262   0.442   2.017  12.409 -0.7160 -0.5733 -0.1738
    8TMC3    C114263   0.611   2.026  12.253 -0.5498  0.3146 -0.1852
    8TMC3    C214264   0.627   2.037  12.119 -0.5535 -0.6206  0.2519
    8TMC3    C314265   0.590   2.160  12.068 -0.0619  0.0363  1.0188
    8TMC3    C414266   0.580   2.132  12.337  0.3387 -0.9388  0.0608
    8TMC3    C514267   0.523   2.241  12.274 -0.2645 -0.2008 -0.2019
    8TMC3    C614268   0.518   2.255  12.138  0.8506 -0.1259 -1.1448
    8TMC3     C14269   0.547   1.899  12.286 -1.3309 -0.3117 -0.2762
    8TMC3     O14270   0.578   1.800  12.223  0.2508 -0.2309 -0.5210
    8TMC3     H14271   0.650   1.948  12.062 -0.4064 -0.4244  0.0072
    8TMC3    H114272   0.579   2.123  12.445  0.9783  0.6597  0.2047
    8TMC3    H214273   0.475   2.343  12.091 -1.9272 -0.8046  0.1583
    8TMC3    C714274   0.405   2.288  12.352 -0.4723 -0.6910  0.3024
    8TMC3    C814275   0.575   2.173  11.925 -0.3048 -0.2142  0.0811
    8TMC3    O114276   0.381   2.222  12.455  0.1138 -0.2499 -0.5792
    8TMC3    O214277   0.536   2.280  11.881 -0.7762  0.2490  0.5098
    9MPD2     C14278   0.713   1.944  11.674 -0.7480  0.6053 -0.2132
    9MPD2    C114279   0.650   2.058  11.714  0.5174  0.1455 -0.1116
    9MPD2    C214280   0.594   2.144  11.619 -0.1384  0.3149  0.2298
    9MPD2    C314281   0.599   2.110  11.486  0.2321 -0.4433 -0.4149
    9MPD2    C414282   0.667   1.995  11.446  0.1937  0.0834  0.2987
    9MPD2    C514283   0.730   1.920  11.542 -0.6086  0.2666 -0.1102
    9MPD2     H14284   0.539   2.231  11.652  0.1620 -0.0490  1.6701
    9MPD2    H114285   0.680   1.960  11.344  0.4285 -0.1756  0.4173
    9MPD2    H214286   0.762   1.881  11.748  0.4168 -2.4094 -3.5604
    9MPD2    H314287   0.770   1.820  11.527 -0.1190  0.1584  2.0408
    9MPD2     N14288   0.542   2.185  11.382  0.1973 -0.2775 -0.0838
    9MPD2    H514289   0.529   2.146  11.289 -2.3692 -1.9162  0.9683
    9MPD2    N114290   0.642   2.074  11.853  0.9123 -0.0417  0.2190
    9MPD2    H714291   0.690   2.010  11.915  0.0889  0.3783  1.2819
    1MPD1     C14292   3.497   4.543  15.624  0.6062  0.2971  0.5702
    1MPD1    C114293   3.632   4.538  15.611 -0.3308  0.3513 -0.0961
    1MPD1    C214294   3.716   4.578  15.714  0.5770 -0.2140 -1.1499
    1MPD1    C314295   3.663   4.604  15.842 -0.4840 -0.2947  0.0897
    1MPD1    C414296   3.530   4.593  15.863 -0.1544 -0.3586 -0.6786
    1MPD1    C514297   3.452   4.570  15.751 -0.6345 -0.4380 -0.7273
    1MPD1     H14298   3.822   4.576  15.694  0.5391 -3.6696 -1.1367
    1MPD1    H114299   3.485   4.602  15.961 -0.2396  3.1275 -1.0288
    1MPD1    H214300   3.434   4.536  15.536  0.6263  0.0338  0.5761
    1MPD1    H314301   3.344   4.577  15.753 -0.5266  1.6563 -1.7290
    1MPD1     N14302   3.739   4.633  15.958  0.3215  0.0556 -0.1225
    1MPD1    H514303   3.682   4.639  16.042  1.7303  0.1833  0.8219
    1MPD1    N114304   3.672   4.519  15.472 -0.1990  0.0002  0.1125
    1MPD1    H614305   3.619   4.443  15.430  2.0132 -0.0542 -2.5567
    1MPD1    H714306   3.771   4.496  15.470 -0.1699  0.1068  0.3051
    2TMC2    C114307   4.098   0.008  16.235  1.0069  0.3034 -0.4714
    2TMC2    C214308   4.016   0.068  16.324 -0.5276  0.7680 -0.2793
    2TMC2    C314309   3.882   0.075  16.290 -0.8800 -0.2042 -0.0020
    2TMC2    C414310   4.048   4.688  16.119  0.0798 -0.1380  0.0181
    2TMC2    C514311   3.914   4.691  16.093  0.3259  1.0858 -0.6196
    2TMC2    C614312   3.832   0.020  16.175  0.1175  0.7584  0.2359
    2TMC2     C14313   4.241   4.736  16.262  0.1360 -0.2069  0.0877
    2TMC2     O14314   4.277   0.050  16.364  0.0233  0.7379  0.4797
    2TMC2     H14315   4.057   0.097  16.420  0.9009  0.9163 -0.9476
    2TMC2    H114316   4.121   4.641  16.054  0.3669  0.3560 -0.0191
    2TMC2    H214317   3.724   0.014  16.173  0.2169 -0.7426 -0.3544
    2TMC2    C714318   3.873   4.658  15.963 -0.2053 -0.4642  0.3838
    2TMC2    C814319   3.797   0.145  16.378 -0.5350 -0.1965  0.0292
    2TMC2    O114320   3.965   4.627  15.883  0.4660  0.2177  0.2139
    2TMC2    O214321   3.680   0.122  16.402  0.2315  0.3185  0.1283
    2TMC2    O514322   3.860   0.261  16.414 -0.1410 -0.2416  0.2051
    2TMC2    H514323   3.950   0.277  16.379 -0.0779 -1.2964 -0.1137
    3MPD1     C14324   4.715   4.533  16.169 -0.5050  0.2194 -0.5850
    3MPD1    C114325   4.638   4.537  16.057  0.3034 -0.7904  0.1110
    3MPD1    C214326   4.510   4.594  16.059  0.5585  0.0746  0.2007
    3MPD1    C314327   4.451   4.632  16.173 -0.3698  0.7546 -0.2440
    3MPD1    C414328   4.525   4.618  16.292 -0.0934  0.5520  0.0761
    3MPD1    C514329   4.656   4.578  16.282 -0.0076 -0.0956  0.0155
    3MPD1     H14330   4.449   4.596  15.969  1.7540 -2.1718 -0.6396
    3MPD1    H114331   4.481   4.658  16.383 -0.2263  0.0690  0.2236
    3MPD1    H214332   0.079   4.492  16.172  0.4735  2.6233 -0.8051
    3MPD1    H314333   4.723   4.586  16.367  1.1483 -2.6103 -0.6575
    3MPD1     N14334   4.322   4.684  16.164 -0.1305  0.1587 -0.1560
    3MPD1    H514335   4.278   4.679  16.073 -0.9660 -2.2161  0.3851
    3MPD1    N114336   4.685   4.487  15.934  0.5500  0.3371 -0.1045
    3MPD1    H614337   4.611   4.447  15.878 -0.2151  1.4840  0.0672
    3MPD1    H714338   0.021   4.416  15.940 -0.6343 -0.8380  0.4031
    1TMC1    C114339   2.668   4.033  13.195 -0.0951  0.6699  0.3674
    1TMC1    C214340   2.784   3.962  13.167  0.2155  0.1093  0.5383
    1TMC1    C314341   2.767   3.834  13.128  0.7330  1.0295 -0.4007
    1TMC1    C414342   2.538   3.978  13.178 -0.3787 -0.2737 -0.1771
    1TMC1    C514343   2.537   3.848  13.130  0.3283 -0.1838 -0.2876
    1TMC1    C614344   2.644   3.778  13.106  0.3919  0.3234  0.4830
    1TMC1     C14345   2.678   4.154  13.271  0.0383 -0.2765 -0.1312
    1TMC1     O14346   2.578   4.225  13.270  0.2781 -0.2393 -0.1758
    1TMC1     H14347   2.877   4.018  13.164  1.0135 -1.0771  2.7945
    1TMC1    H114348   2.452   4.036  13.210  0.0025  0.0530  0.2664
    1TMC1    H214349   2.639   3.675  13.073 -1.0980  0.4018  0.4752
    1TMC1    C714350   2.422   3.759  13.149  0.2520  0.2751  0.3783
    1TMC1    C814351   2.884   3.773  13.074  0.1935 -0.2722 -0.1691
    1TMC1    O114352   2.428   3.653  13.212  0.1285 -0.4295  0.0660
    1TMC1    O214353   2.875   3.693  12.984  0.0492  0.2028 -1.0595
    1TMC1    O314354   2.313   3.825  13.119  0.1688  0.3847 -0.2634
    1TMC1    H314355   2.329   3.898  13.055  0.5892  0.7174  0.2216
    1TMC1    O514356   3.001   3.818  13.119  0.3075 -0.0637  0.3105
    1TMC1    H514357   2.971   3.863  13.201 -0.1364  0.5502 -0.1859
    2MPD2     C14358   2.729   4.363  13.473  0.1992 -0.6543 -0.0984
    2MPD2    C114359   2.822   4.275  13.426 -0.1162 -0.5569 -1.4204
    2MPD2    C214360   2.952   4.280  13.479 -0.8618  0.1144 -0.0751
    2MPD2    C314361   2.980   4.372  13.577  0.0094 -0.7105 -0.4298
    2MPD2    C414362   2.886   4.459  13.623 -0.1632  0.0867 -0.2643
    2MPD2    C514363   2.758   4.441  13.586  0.5264 -0.5340  0.3590
    2MPD2     H14364   3.019   4.208  13.434 -2.0355 -0.6705 -0.5748
    2MPD2    H114365   2.909   4.528  13.704  0.3733 -1.6974  1.0917
    2MPD2    H214366   2.627   4.373  13.438 -0.4026  0.2369  1.8674
    2MPD2    H314367   2.682   4.495  13.642  1.5389  1.8765 -0.5845
    2MPD2     N14368   3.119   4.385  13.623 -0.3181  0.5094  0.3618
    2MPD2    H514369   3.182   4.322  13.575 -0.5795 -0.6400  1.5455
    2MPD2    N114370   2.798   4.170  13.333  0.1766 -0.2595  0.0482
    2MPD2    H714371   2.872   4.105  13.310  0.5407  0.9059 -2.0263
    3TCq1    O114372   3.718   4.616  13.823  0.2881 -0.3507  0.1716
    3TCq1    C114373   3.617   4.580  13.896  0.7165 -0.0142  0.0408
    3TCq1    O214374   3.568   4.663  13.971 -0.0551 -0.7561 -0.0863
    3TCq1    C214375   3.533   4.484  13.831  0.2741  0.2465 -0.0805
    3TCq1    C314376   3.596   4.396  13.745 -0.0404 -0.4028 -0.4417
    3TCq1    C414377   3.512   4.319  13.667 -0.0561 -0.2354 -0.1525
    3TCq1    C514378   3.373   4.332  13.659 -0.6099 -0.0416 -0.0534
    3TCq1    C614379   3.321   4.434  13.732 -0.9008 -0.0108 -0.0637
    3TCq1    C714380   3.400   4.513  13.815 -0.4381  0.1067 -0.4679
    3TCq1    C814381   3.179   4.467  13.714  0.3666  0.2880 -0.0784
    3TCq1    O414382   3.134   4.546  13.797 -0.0311  0.7512  0.4676
    3TCq1    C914383   3.576   4.235  13.577  0.1003  0.1475 -0.6113
    3TCq1    O514384   3.689   4.277  13.528  0.4539 -0.4117 -1.2184
    3TCq1    O614385   3.508   4.134  13.544  0.2899 -0.6074  0.1787
    3TCq1    H114386   3.734   4.565  13.741 -1.2834 -0.0083 -0.3558
    3TCq1    H214387   3.702   4.379  13.756  0.3008 -0.0683 -3.2452
    3TCq1    H314388   3.321   4.267  13.590 -1.3413  0.2555  0.2179
    3TCq1    H414389   3.360   4.607  13.851  0.7487  0.3744  0.1300
    1MPD2     C14390   2.246   1.111  14.821  0.6596  0.0678  0.1251
    1MPD2    C114391   2.190   1.020  14.736  0.3623 -0.0525 -0.2714
    1MPD2    C214392   2.268   0.918  14.674  0.2900  0.0624  0.2776
    1MPD2    C314393   2.406   0.913  14.705  0.3528  0.6135 -0.3928
    1MPD2    C414394   2.466   1.015  14.776 -0.0683  0.3298  0.0826
    1MPD2    C514395   2.382   1.102  14.842  0.8414 -0.5567 -0.3506
    1MPD2     H14396   2.231   0.848  14.599  0.8863 -2.6735  2.5171
    1MPD2    H114397   2.572   1.026  14.795  0.0742 -0.5470 -0.2373
    1MPD2    H214398   2.189   1.177  14.885 -0.7728 -2.7803  1.7734
    1MPD2    H314399   2.423   1.168  14.917 -1.6963  0.1276  0.4529
    1MPD2     N14400   2.497   0.811  14.660  0.7320 -0.1425  0.6961
    1MPD2    H514401   2.595   0.820  14.682  0.8457  0.9453 -0.2590
    1MPD2    N114402   2.053   1.038  14.720  0.5642 -0.1009  0.1283
    1MPD2    H714403   2.003   1.120  14.754  1.6525  0.2883  0.8078
    2TMC3    C114404   1.862   0.983  14.596 -0.1965  0.1994 -0.2005
    2TMC3    C214405   1.785   0.883  14.532 -0.3047  0.1474 -0.3372
    2TMC3    C314406   1.730   0.908  14.404  0.1005  1.1837 -0.5479
    2TMC3    C414407   1.875   1.103  14.534 -0.3429 -0.2951 -0.1438
    2TMC3    C514408   1.816   1.130  14.409 -1.0633 -0.2289 -0.1342
    2TMC3    C614409   1.751   1.029  14.345 -0.4780 -0.9043 -0.2098
    2TMC3     C14410   1.984   0.937  14.661 -0.4675  0.2530  0.3365
    2TMC3     O14411   2.005   0.817  14.631 -0.0610  0.4742  0.0844
    2TMC3     H14412   1.763   0.794  14.589  1.1904 -0.3393 -0.5210
    2TMC3    H114413   1.933   1.184  14.575  1.3792 -1.3564 -0.4823
    2TMC3    H214414   1.686   1.047  14.260 -0.4899 -0.5295 -0.1225
    2TMC3    C714415   1.836   1.265  14.355  0.2071 -0.0710 -0.5633
    2TMC3    C814416   1.758   0.790  14.327 -0.0109  0.4697 -0.1699
    2TMC3    O114417   1.900   1.339  14.424  0.4172 -0.2480 -0.3115
    2TMC3    O214418   1.703   0.779  14.217  0.5162 -0.0878  0.3323
    3TCq1    O114419   2.077   2.328  13.988 -0.0726  0.3972 -0.7302
    3TCq1    C114420   2.188   2.269  14.042 -0.3795 -0.4168 -0.0214
    3TCq1    O214421   2.296   2.328  14.051 -0.4853  0.0171  0.1574
    3TCq1    C214422   2.152   2.149  14.121  0.0215  0.6924 -0.9293
    3TCq1    C314423   2.241   2.112  14.218 -0.0346 -0.3974  0.0552
    3TCq1    C414424   2.230   1.982  14.264  0.0163  0.5627  0.5965
    3TCq1    C514425   2.137   1.890  14.219 -0.0721 -0.0589  0.4708
    3TCq1    C614426   2.045   1.937  14.129 -0.1171 -0.2235  0.0339
    3TCq1    C714427   2.047   2.067  14.080 -0.6144 -0.0070  0.7006
    3TCq1    C814428   1.945   1.849  14.074  0.5645  0.1892 -0.0413
    3TCq1    O414429   1.887   1.881  13.970  0.6805  0.0986  0.0948
    3TCq1    C914430   2.328   1.934  14.357  0.0480 -0.8071 -0.9170
    3TCq1    O514431   2.314   1.820  14.407 -0.0327 -0.0671 -0.6878
    3TCq1    O614432   2.410   2.018  14.399  0.0091  0.1362  0.5197
    3TCq1    H114433   1.997   2.279  14.016  2.3660 -2.4518  1.3873
    3TCq1    H214434   2.330   2.170  14.240  1.3765 -1.5509 -2.5987
    3TCq1    H314435   2.145   1.785  14.247 -0.8460 -0.3245 -0.2978
    3TCq1    H414436   1.993   2.085  13.988  1.2136  0.4453 -0.2744
    4MPD2     C14437   1.776   1.627  13.993 -0.5416  0.3829 -0.0192
    4MPD2    C114438   1.835   1.631  14.118 -0.2737 -0.6354 -1.0609
    4MPD2    C214439   1.827   1.524  14.206  0.1365  0.1535  0.7436
    4MPD2    C314440   1.780   1.401  14.159  0.5320  1.0156 -0.6128
    4MPD2    C414441   1.715   1.399  14.041  0.0489 -0.1701 -0.1888
    4MPD2    C514442   1.701   1.515  13.960 -0.0698  0.0598 -0.3329
    4MPD2     H14443   1.882   1.525  14.300  1.7526 -2.5207 -0.1857
    4MPD2    H114444   1.667   1.305  14.017  1.2699 -0.5166 -1.2576
    4MPD2    H214445   1.763   1.710  13.923 -0.7707 -0.1366 -0.5933
    4MPD2    H314446   1.653   1.521  13.863 -0.9864  1.0436  0.1810
    4MPD2     N14447   1.788   1.282  14.228 -0.5901 -0.5301 -0.4450
    4MPD2    H514448   1.760   1.199  14.176 -3.7187  0.3581 -0.1544
    4MPD2    N114449   1.925   1.737  14.152  0.3829 -0.2740  0.0322
    4MPD2    H714450   1.977   1.722  14.238 -0.0116 -0.4233  0.2460
    5TMC2    C114451   2.540   0.506  14.315  0.9046  0.5961 -0.2081
    5TMC2    C214452   2.639   0.573  14.257  0.1100  0.6680 -0.4586
    5TMC2    C314453   2.685   0.689  14.320  0.4327 -0.0378  0.2055
    5TMC2    C414454   2.509   0.525  14.449 -0.6526  0.5575 -0.0314
    5TMC2    C514455   2.563   0.633  14.513 -0.8712 -0.1026 -0.9300
    5TMC2    C614456   2.648   0.720  14.450  1.0981 -0.3131  0.2200
    5TMC2     C14457   2.417   0.480  14.237 -0.2818 -0.1866 -0.1721
    5TMC2     O14458   2.421   0.435  14.126  0.1858 -0.5062  0.2225
    5TMC2     H14459   2.657   0.550  14.152 -1.1489 -2.2493 -0.0333
    5TMC2    H114460   2.435   0.464  14.501 -0.8174  1.3099  0.6133
    5TMC2    H214461   2.688   0.809  14.499 -1.4888 -0.8772  3.3613
    5TMC2    C714462   2.455   0.705  14.576  0.6335  0.6989  0.2202
    5TMC2    C814463   2.814   0.744  14.269  0.0317  0.4590 -0.2870
    5TMC2    O114464   2.348   0.657  14.544  0.5001 -0.1899 -0.4223
    5TMC2    O214465   2.849   0.861  14.269 -0.2193  0.2501  0.0873
    5TMC2    O514466   2.890   0.636  14.253  0.0532 -0.4849  0.3388
    5TMC2    H514467   2.868   0.548  14.290  0.3079 -0.7628 -0.1773
    6MPD2     C14468   1.916   0.576  14.192 -0.2597  0.9835 -0.4938
    6MPD2    C114469   1.959   0.643  14.300  0.2879  0.5903  0.2636
    6MPD2    C214470   2.090   0.632  14.333 -0.0113  0.6808  0.4042
    6MPD2    C314471   2.175   0.552  14.257  0.1851  0.1819  0.4706
    6MPD2    C414472   2.123   0.474  14.151 -0.3688 -0.0844 -0.1756
    6MPD2    C514473   1.995   0.484  14.122 -0.2273 -0.2931 -0.3400
    6MPD2     H14474   2.130   0.690  14.415 -0.2443  0.5177  0.6336
    6MPD2    H114475   2.189   0.402  14.106 -1.5453 -0.7185 -0.9036
    6MPD2    H214476   1.817   0.579  14.149 -0.8392  1.1276  0.8618
    6MPD2    H314477   1.946   0.421  14.049 -0.5480 -0.1720 -0.2279
    6MPD2     N14478   2.309   0.547  14.301 -0.2406  0.0281  0.4867
    6MPD2    H514479   2.328   0.606  14.381  0.0704  1.5452 -0.7136
    6MPD2    N114480   1.883   0.741  14.367 -0.2408 -0.3889 -0.7319
    6MPD2    H714481   1.923   0.778  14.453 -0.6406 -0.5164 -0.4871
  945NH4     N114482   2.847   2.550  14.151 -0.0332 -0.4725  0.5576
  945NH4     H214483   2.806   2.458  14.126 -0.5936 -0.7171  2.4082
  945NH4     H314484   2.943   2.544  14.190 -0.2576 -3.3435  0.6423
  945NH4     H414485   2.791   2.597  14.225  1.5527  0.3875  1.2241
  945NH4     H514486   2.843   2.625  14.079 -2.5736 -2.7149 -1.6352
  946SOD     NA14487   2.441   0.525  15.323  0.3067 -0.3216  0.2085
  947SOD     NA14488   3.462   0.123  13.997  0.3326 -0.2936  0.0042
  948SOD     NA14489   2.287   1.659  14.823 -0.2715  0.1466  0.4437
  949SOD     NA14490   3.271   4.310   4.785 -0.2614  0.0727 -0.5403
  950SOD     NA14491   3.696   0.372   8.685  0.1163  0.1829  0.2338
  951SOD     NA14492   3.862   4.279  11.286 -0.4054 -0.1134  0.1763
  952SOD     NA14493   0.190   0.907   5.692  0.1057 -0.1798  0.9999
  953SOL     OW14494   0.029   0.403  14.558 -0.4946 -0.6726  0.2109
  953SOL    HW114495   4.736   0.352  14.483 -0.4014 -0.5403  0.0835
  953SOL    HW214496   0.120   0.423  14.537 -0.6620 -1.4462 -1.3307
  954SOL     OW14497   3.798   2.300   3.003 -0.0903  0.1197 -0.2307
  954SOL    HW114498   3.739   2.260   3.067 -1.0223 -1.4336 -2.0639
  954SOL    HW214499   3.880   2.274   3.044 -0.6510  0.6256  1.2099
  955SOL     OW14500   0.978   0.243  11.163 -0.1506  0.6291 -0.5122
  955SOL    HW114501   0.934   0.281  11.239  0.8730 -2.5798  1.6728
  955SOL    HW214502   0.910   0.201  11.110  0.7073 -1.0003 -0.3289
  956SOL     OW14503   4.072   3.212   2.462  0.0665 -0.5667 -0.5091
  956SOL    HW114504   4.100   3.143   2.522 -0.2844 -0.1335  0.1578
  956SOL    HW214505   4.160   3.231   2.428 -0.0800  0.7174 -0.1646
  957SOL     OW14506   2.621   0.210   7.345 -0.0277 -0.2410  0.1884
  957SOL    HW114507   2.547   0.175   7.297 -0.1190  1.0580 -0.6049
  957SOL    HW214508   2.590   0.300   7.341 -0.1247 -0.3652 -1.5557
  958SOL     OW14509   0.020   4.252   8.496  0.3541 -0.1573  0.1239
  958SOL    HW114510   4.699   4.250   8.420  1.6920 -0.0299 -0.9023
  958SOL    HW214511   0.053   4.163   8.496 -0.0975 -0.3245 -1.2305
  959SOL     OW14512   4.205   2.685  17.264 -0.4500 -0.2905 -0.0991
  959SOL    HW114513   4.130   2.735  17.232 -1.2619 -2.0171 -0.8592
  959SOL    HW214514   4.189   2.683  17.358 -0.1294 -0.3694 -0.0453
  960SOL     OW14515   4.185   3.276   8.203  0.1527  0.1796  0.0423
  960SOL    HW114516   4.116   3.230   8.154  0.9495 -0.0002 -0.9187
  960SOL    HW214517   4.253   3.208   8.200 -0.0533 -0.0321  0.1924
  961SOL     OW14518   0.015   4.580  10.895  0.8581  0.4420  0.4331
  961SOL    HW114519   4.734   4.644  10.964 -0.2691 -0.4936  1.0185
  961SOL    HW214520   4.706   4.503  10.927  0.7592 -0.3199 -1.5364
  962SOL     OW14521   3.551   1.162  15.091  0.4304 -0.4354  0.7856
  962SOL    HW114522   3.491   1.229  15.121  0.2649 -1.2479  2.2583
  962SOL    HW214523   3.573   1.120  15.174  2.1914  3.0244  2.0614
  963SOL     OW14524   4.204   1.563   4.805  0.1961  0.1649  0.2349
  963SOL    HW114525   4.269   1.582   4.873  0.1952  0.2019  0.2252
  963SOL    HW214526   4.197   1.648   4.762 -1.3808 -0.8261 -1.4659
  964SOL     OW14527   0.258   0.556   5.246  0.7837 -0.1151 -0.1826
  964SOL    HW114528   0.203   0.527   5.173 -0.9931  0.5996  0.8661
  964SOL    HW214529   0.201   0.605   5.306  1.2709 -0.8735  0.8861
  965SOL     OW14530   0.088   2.110   0.171 -0.0872 -0.0176 -0.1577
  965SOL    HW114531   4.734   2.086   0.155 -0.2540 -1.0612  2.3172
  965SOL    HW214532   0.126   2.074   0.091  0.1288 -3.0494  1.2886
  966SOL     OW14533   1.689   3.272   3.014  0.2005 -0.3238 -0.0475
  966SOL    HW114534   1.675   3.367   3.014  1.1934 -0.1749  1.7973
  966SOL    HW214535   1.667   3.255   2.922 -1.8957  0.5262  0.2895
  967SOL     OW14536   3.998   0.755   7.652  0.2966  0.0334 -0.1422
  967SOL    HW114537   4.057   0.681   7.638 -0.2186 -0.5927  1.0100
  967SOL    HW214538   3.994   0.756   7.747  0.1330  1.1174 -0.1628
  968SOL     OW14539   2.120   1.893  11.567 -0.1239  0.3238  0.3340
  968SOL    HW114540   2.196   1.938  11.532 -1.2652  0.8813 -1.3845
  968SOL    HW214541   2.055   1.960  11.546  0.1401  0.6124  0.4405
  969SOL     OW14542   1.736   3.564   3.572  0.6047  0.7554  0.0263
  969SOL    HW114543   1.686   3.543   3.651  0.5637  0.1540 -0.1528
  969SOL    HW214544   1.664   3.539   3.514  0.8749 -0.5351  0.2425
  970SOL     OW14545   0.202   2.365   1.361 -0.4746  0.0580  0.0433
  970SOL    HW114546   0.199   2.272   1.341 -1.2947  1.1976 -5.2928
  970SOL    HW214547   0.252   2.409   1.291  1.7670 -2.4501  0.0859
  971SOL     OW14548   0.297   4.000   9.075 -0.6699  0.0421  0.3720
  971SOL    HW114549   0.269   4.054   9.000 -1.5786 -0.6482  0.2021
  971SOL    HW214550   0.223   3.939   9.071  0.1235 -1.0064  1.7300
  972SOL     OW14551   2.067   4.534   8.189  0.2531 -1.1123 -0.5436
  972SOL    HW114552   2.103   4.559   8.274  2.6635  2.2346 -2.5432
  972SOL    HW214553   2.058   4.623   8.154  0.4659 -1.3542 -1.2128
  973SOL     OW14554   4.374   3.719   9.439  0.4048 -0.4326 -0.0494
  973SOL    HW114555   4.439   3.786   9.421  0.7406 -0.5220  0.8144
  973SOL    HW214556   4.401   3.641   9.391  0.6163 -1.3206  1.5191
  974SOL     OW14557   1.093   2.503   3.285 -0.0660  0.0761  0.4200
  974SOL    HW114558   1.016   2.537   3.240 -1.2353 -0.2926  2.1385
  974SOL    HW214559   1.069   2.543   3.369 -0.7041  3.0978 -1.2139
  975SOL     OW14560   3.212   0.986   2.967 -0.5423  0.1549 -0.2828
  975SOL    HW114561   3.208   0.970   2.873  0.7623  2.1978 -0.6790
  975SOL    HW214562   3.303   0.992   2.994 -0.5011  1.4069 -0.6712
  976SOL     OW14563   0.621   1.631  15.997  0.4027  0.0826 -0.1178
  976SOL    HW114564   0.652   1.715  16.031 -2.1483  0.2841  1.7437
  976SOL    HW214565   0.631   1.636  15.902  1.5773 -1.5076 -0.0739
  977SOL     OW14566   3.564   1.539   4.506 -0.3480 -0.4038 -0.4827
  977SOL    HW114567   3.631   1.539   4.438  0.0174  3.9469 -0.1580
  977SOL    HW214568   3.521   1.462   4.470  0.3055 -0.7204 -0.5747
  978SOL     OW14569   3.100   1.956   3.924 -0.2111 -1.2436 -0.0099
  978SOL    HW114570   3.177   1.991   3.879  0.2711 -2.5869 -0.2541
  978SOL    HW214571   3.049   2.037   3.920  2.9596  0.7840  0.7575
  979SOL     OW14572   4.657   3.571   1.815 -0.4874 -0.3395  0.1059
  979SOL    HW114573   4.626   3.481   1.802 -2.5146  0.0148  2.5297
  979SOL    HW214574   4.601   3.624   1.758  1.3088  0.4617 -0.9064
  980SOL     OW14575   4.197   3.910  10.661 -0.0764  1.2822 -0.4610
  980SOL    HW114576   4.120   3.958  10.632 -1.4975 -1.2882 -0.9258
  980SOL    HW214577   4.165   3.820  10.650 -0.4398  1.4091 -0.4136
  981SOL     OW14578   1.527   4.526   8.878 -0.0167 -0.3699 -0.2940
  981SOL    HW114579   1.577   4.554   8.955 -1.7172  2.9546 -0.4061
  981SOL    HW214580   1.467   4.470   8.928 -0.7825 -0.8801 -1.7759
  982SOL     OW14581   0.037   1.580   8.573 -0.1606  0.0358  0.5896
  982SOL    HW114582   0.103   1.631   8.526  0.0618  0.2664  1.1514
  982SOL    HW214583   0.091   1.526   8.630 -0.6426 -0.2552  0.7652
  983SOL     OW14584   3.149   2.823   2.625 -0.8733 -0.4035 -0.3221
  983SOL    HW114585   3.169   2.791   2.537 -0.0048 -3.4553  0.9559
  983SOL    HW214586   3.170   2.915   2.610  2.8869 -1.1181  0.4722
  984SOL     OW14587   1.382   4.250  14.300 -0.1631  0.2716 -0.2514
  984SOL    HW114588   1.316   4.283  14.361 -3.1504 -1.7642 -2.3815
  984SOL    HW214589   1.339   4.260  14.215 -1.1040  0.7019  0.2718
  985SOL     OW14590   3.035   0.823  11.232 -0.0921  0.2308 -0.3469
  985SOL    HW114591   2.965   0.889  11.236  0.5010  0.8843 -0.8569
  985SOL    HW214592   2.993   0.753  11.281 -0.1362 -1.0780 -2.2710
  986SOL     OW14593   1.832   4.104  11.990  0.2647  0.2491 -0.2045
  986SOL    HW114594   1.821   4.177  12.051  2.3286 -1.2572  1.9593
  986SOL    HW214595   1.762   4.106  11.925 -0.3686 -1.2915  0.4365
  987SOL     OW14596   3.111   4.055   0.022 -0.3850  0.3574  0.5432
  987SOL    HW114597   3.091   3.985  17.708  0.9837 -1.4059  2.1290
  987SOL    HW214598   3.026   4.074   0.063 -1.5022  0.4925 -1.8618
  988SOL     OW14599   1.618   1.968  12.814  0.0650  0.1479 -0.3004
  988SOL    HW114600   1.630   2.047  12.867 -0.4368  1.4098 -2.0830
  988SOL    HW214601   1.536   1.992  12.772 -0.7730 -0.9631  0.7234
  989SOL     OW14602   2.340   2.288   5.206 -0.4220 -0.1453 -0.2044
  989SOL    HW114603   2.358   2.236   5.284  1.2378 -1.9388 -1.7987
  989SOL    HW214604   2.392   2.366   5.223 -0.9196 -0.4652  2.6827
  990SOL     OW14605   4.496   3.134   5.598  0.6441  0.4433 -0.5302
  990SOL    HW114606   4.430   3.110   5.533 -1.0143  2.4229  0.4332
  990SOL    HW214607   4.559   3.061   5.596 -0.9482 -0.9440  0.3036
  991SOL     OW14608   0.495   1.296   8.088 -0.5624  0.2710 -0.1979
  991SOL    HW114609   0.514   1.317   7.996  1.0742 -0.8628 -0.1339
  991SOL    HW214610   0.440   1.367   8.121 -0.7407  0.8807 -1.8028
  992SOL     OW14611   1.206   4.281  15.194  0.4377 -0.3154 -0.3283
  992SOL    HW114612   1.244   4.216  15.134 -0.6832 -0.6434 -0.6948
  992SOL    HW214613   1.217   4.230  15.274  1.4753 -1.6003 -1.2766
  993SOL     OW14614   3.684   0.358   6.714 -0.3974  0.0688 -0.1202
  993SOL    HW114615   3.665   0.390   6.626 -1.1320  1.6752  0.6357
  993SOL    HW214616   3.704   0.268   6.685  0.6882 -0.6469  2.7930
  994SOL     OW14617   0.695   4.154   9.592  0.5152 -0.7990  0.3915
  994SOL    HW114618   0.739   4.187   9.670  0.9763 -1.1182  0.2635
  994SOL    HW214619   0.634   4.225   9.574  0.1895 -0.9508  0.9010
  995SOL     OW14620   0.729   3.299   4.663 -0.7831 -0.3679 -0.6936
  995SOL    HW114621   0.744   3.216   4.707 -0.7269 -0.0084 -0.0302
  995SOL    HW214622   0.644   3.329   4.698 -0.0904  0.1519  0.5447
  996SOL     OW14623   4.412   1.856   5.301 -0.0178  0.4312 -0.1943
  996SOL    HW114624   4.355   1.893   5.369 -2.0613 -0.3392 -1.4802
  996SOL    HW214625   4.386   1.765   5.318  2.6312 -0.2488  0.2472
  997SOL     OW14626   3.206   0.232   8.836 -0.0663 -0.2588 -0.3724
  997SOL    HW114627   3.179   0.321   8.861 -0.8908 -0.9644  1.2429
  997SOL    HW214628   3.150   0.221   8.759 -1.2416  3.0260  0.0106
  998SOL     OW14629   4.395   1.038   4.436  0.1115  0.4610 -0.4294
  998SOL    HW114630   4.428   0.953   4.406  0.2659  0.0949  0.7541
  998SOL    HW214631   4.382   1.016   4.529  3.6157  1.7388  0.3581
  999SOL     OW14632   3.997   4.246  15.527 -0.1370 -0.0855  0.0462
  999SOL    HW114633   4.014   4.287  15.612  0.9368 -0.9972  0.2831
  999SOL    HW214634   3.909   4.212  15.543 -0.9881  1.2873 -1.7403
 1000SOL     OW14635   1.344   1.543  16.487  0.2324 -0.4541 -0.6020
 1000SOL    HW114636   1.350   1.598  16.565 -0.9470 -0.3032 -0.6162
 1000SOL    HW214637   1.321   1.596  16.411  1.2233 -0.3859 -0.8620
 1001SOL     OW14638   4.434   1.656   9.723 -0.4039  0.3140 -0.1872
 1001SOL    HW114639   4.524   1.687   9.725 -1.6480  3.9635 -1.2473
 1001SOL    HW214640   4.407   1.701   9.643 -1.7100 -0.1719 -0.0177
 1002SOL     OW14641   0.599   1.916   8.594  0.3399  0.3156 -0.1543
 1002SOL    HW114642   0.671   1.935   8.654 -0.9064  3.5258  0.3020
 1002SOL    HW214643   0.596   1.994   8.540  1.1914 -0.4097 -1.2530
 1003SOL     OW14644   4.349   2.783  13.729 -0.2421 -0.2184  0.6045
 1003SOL    HW114645   4.309   2.857  13.775 -1.3545 -1.7630  2.1267
 1003SOL    HW214646   4.302   2.789  13.646  0.2044  1.0811  0.4488
 1004SOL     OW14647   2.957   1.135   9.265  0.2540 -0.1815 -0.4140
 1004SOL    HW114648   2.982   1.209   9.320  1.1206 -1.7427  1.3287
 1004SOL    HW214649   3.003   1.059   9.301  1.1850  0.9084  0.7027
 1005SOL     OW14650   2.070   3.490   6.641  0.4957  0.2473  1.2415
 1005SOL    HW114651   2.122   3.558   6.684 -1.4377  1.3915  1.7762
 1005SOL    HW214652   2.057   3.546   6.565 -0.9754  0.6188  1.7642
 1006SOL     OW14653   0.486   4.359   6.452 -0.1421  0.4376 -0.4373
 1006SOL    HW114654   0.457   4.274   6.486  1.5363 -0.8936 -2.3806
 1006SOL    HW214655   0.410   4.394   6.406 -0.3738 -0.2834 -0.6093
 1007SOL     OW14656   3.874   3.443   9.181 -0.0838  0.1411 -0.3181
 1007SOL    HW114657   3.802   3.460   9.243  0.3653  2.3423 -0.4176
 1007SOL    HW214658   3.930   3.380   9.227 -1.1571 -0.0875  0.7030
 1008SOL     OW14659   3.060   4.238   8.177 -0.0302  0.2019 -0.0915
 1008SOL    HW114660   3.092   4.151   8.202  0.7344  0.2793 -0.8128
 1008SOL    HW214661   2.970   4.230   8.209 -0.2677  0.5576 -0.6679
 1009SOL     OW14662   4.077   1.971   6.807  0.0113 -0.1737 -1.0123
 1009SOL    HW114663   4.037   1.965   6.894 -2.2475  2.1622 -1.9101
 1009SOL    HW214664   4.093   1.880   6.781  2.5094 -0.5728  1.8254
 1010SOL     OW14665   3.115   1.157   6.474  0.0490 -0.0138 -0.5862
 1010SOL    HW114666   3.037   1.212   6.487  0.4935  0.4209  0.3083
 1010SOL    HW214667   3.165   1.192   6.548 -0.9742 -1.1959  0.6621
 1011SOL     OW14668   1.699   0.136  11.045 -0.0918 -0.2283  0.3118
 1011SOL    HW114669   1.624   0.180  11.085  0.8500  1.5142  0.1421
 1011SOL    HW214670   1.756   0.135  11.123 -0.8569 -0.8134  0.8657
 1012SOL     OW14671   2.891   1.747   8.195  0.7466  0.2395 -0.5856
 1012SOL    HW114672   2.872   1.836   8.165 -0.1259  0.6589  1.2470
 1012SOL    HW214673   2.804   1.711   8.210  1.0029 -0.1612 -0.0541
 1013SOL     OW14674   4.627   1.038  15.542  0.4049 -0.6033 -0.1030
 1013SOL    HW114675   4.693   0.986  15.496 -0.6358 -2.0121  0.0008
 1013SOL    HW214676   4.625   1.002  15.631 -1.5606  1.0529  0.5138
 1014SOL     OW14677   4.313   3.078  10.657 -0.3414 -1.0511 -0.3717
 1014SOL    HW114678   4.392   3.112  10.698 -1.6548  2.4559 -0.7180
 1014SOL    HW214679   4.324   2.985  10.674  0.7719 -0.8832 -0.1924
 1015SOL     OW14680   4.281   1.083   6.629 -0.0484 -0.0380 -0.2842
 1015SOL    HW114681   4.360   1.036   6.603 -0.6152 -1.5135  0.6937
 1015SOL    HW214682   4.308   1.140   6.701  0.9632  0.2546 -0.8869
 1016SOL     OW14683   2.290   0.350   7.089  0.1257  0.2040 -0.0350
 1016SOL    HW114684   2.323   0.438   7.107  0.3308  0.0174  0.4967
 1016SOL    HW214685   2.285   0.317   7.179 -0.2822  1.3975  0.3891
 1017SOL     OW14686   2.076   0.518   6.789 -0.2644  0.7289 -0.4032
 1017SOL    HW114687   2.005   0.561   6.741 -0.9011  0.1904  0.0652
 1017SOL    HW214688   2.152   0.568   6.758 -0.1087  0.4603 -0.4502
 1018SOL     OW14689   0.456   1.630   5.213 -0.3069  0.0231 -0.0630
 1018SOL    HW114690   0.508   1.648   5.291  0.3423  0.7191 -0.6578
 1018SOL    HW214691   0.420   1.547   5.243 -0.1257  0.0866  0.3296
 1019SOL     OW14692   2.691   1.187   7.501  0.0163 -0.3287 -0.2055
 1019SOL    HW114693   2.746   1.235   7.440  1.2257 -1.4343  0.0220
 1019SOL    HW214694   2.621   1.249   7.524  1.0223  0.0707  1.8034
 1020SOL     OW14695   0.212   1.999   2.454  0.5354  0.2772  0.2166
 1020SOL    HW114696   0.226   2.092   2.437  2.1045  0.3629  2.0084
 1020SOL    HW214697   0.302   1.974   2.435  0.6812  1.6279 -0.8675
 1021SOL     OW14698   0.515   1.754   8.192 -0.0874  0.0736  0.0529
 1021SOL    HW114699   0.422   1.759   8.216 -0.0770  0.0117  0.1058
 1021SOL    HW214700   0.556   1.822   8.246 -0.4065 -0.8102  1.3998
 1022SOL     OW14701   3.411   0.533   9.042  0.4368 -0.0691 -0.4901
 1022SOL    HW114702   3.323   0.497   9.036 -0.5766  2.4178 -0.4282
 1022SOL    HW214703   3.386   0.625   9.046  2.9473  0.6862 -1.8776
 1023SOL     OW14704   0.314   2.124  10.757 -0.3288  0.3014 -0.1009
 1023SOL    HW114705   0.246   2.145  10.820  0.3895  2.7011 -0.0912
 1023SOL    HW214706   0.307   2.029  10.755  1.0725  0.2344 -2.5514
 1024SOL     OW14707   0.555   2.906  10.929  0.0207  0.2359 -0.2059
 1024SOL    HW114708   0.542   2.978  10.990 -1.6583 -0.5863  0.3971
 1024SOL    HW214709   0.627   2.860  10.972 -0.9287 -1.2508 -0.2325
 1025SOL     OW14710   0.974   3.317   0.680  0.2477  0.2851  0.4686
 1025SOL    HW114711   1.025   3.288   0.756  1.3934 -1.7774 -1.0788
 1025SOL    HW214712   0.888   3.321   0.721  0.6709  2.7183  1.1752
 1026SOL     OW14713   2.292   2.710   6.295 -0.1406  0.1692  0.1081
 1026SOL    HW114714   2.283   2.686   6.388  0.0866 -1.2434 -0.2419
 1026SOL    HW214715   2.242   2.792   6.287 -0.0019  0.2241 -0.1928
 1027SOL     OW14716   4.331   3.861  13.538 -0.7810  0.3353  0.1688
 1027SOL    HW114717   4.424   3.881  13.547 -1.0259  1.7003 -0.2309
 1027SOL    HW214718   4.323   3.897  13.449  1.3103 -1.6127 -0.7791
 1028SOL     OW14719   1.551   1.460   0.748 -0.2643  0.0765  0.8217
 1028SOL    HW114720   1.613   1.474   0.819  1.7187 -1.6778 -0.5733
 1028SOL    HW214721   1.611   1.432   0.680 -1.6946  0.4352 -0.5980
 1029SOL     OW14722   1.188   1.992  10.697  0.6455  0.0620 -0.1940
 1029SOL    HW114723   1.230   2.067  10.654  4.8614 -2.7462 -0.9630
 1029SOL    HW214724   1.261   1.930  10.698 -0.2488 -1.0342 -1.9561
 1030SOL     OW14725   3.275   1.041  17.517 -0.1485 -0.1221  0.3130
 1030SOL    HW114726   3.369   1.025  17.507  0.2977  2.9942 -0.4989
 1030SOL    HW214727   3.252   0.981  17.446  2.9287 -1.0784  0.0999
 1031SOL     OW14728   1.820   2.869   2.338  0.7024 -0.2911  0.0942
 1031SOL    HW114729   1.837   2.788   2.387  0.3477  1.0353  2.4178
 1031SOL    HW214730   1.743   2.833   2.294 -0.7923  2.7442  0.2285
 1032SOL     OW14731   0.785   0.285   1.107 -0.3896 -0.6151 -0.3650
 1032SOL    HW114732   0.766   0.373   1.139  3.0989 -0.3881  1.0226
 1032SOL    HW214733   0.849   0.253   1.170 -0.4726  0.5289  0.3073
 1033SOL     OW14734   2.774   2.560   3.401 -0.0482 -0.3916  0.2096
 1033SOL    HW114735   2.859   2.604   3.404 -1.6023  2.4639  2.0471
 1033SOL    HW214736   2.735   2.605   3.326  1.2125 -1.8369 -1.3238
 1034SOL     OW14737   4.216   0.415   8.218  0.3815 -0.0362 -0.1328
 1034SOL    HW114738   4.303   0.455   8.229  0.9395 -2.0558  2.8313
 1034SOL    HW214739   4.233   0.378   8.132 -0.9815  0.3686 -0.5741
 1035SOL     OW14740   0.862   2.035   6.396 -0.1732 -0.1266 -0.2034
 1035SOL    HW114741   0.780   2.020   6.349 -0.4713  0.8896 -0.0255
 1035SOL    HW214742   0.918   2.073   6.327  1.3029  0.2425  1.1918
 1036SOL     OW14743   0.309   1.922   4.504 -0.0978 -0.0302 -0.2612
 1036SOL    HW114744   0.372   1.872   4.556  1.1074  0.1303 -1.5821
 1036SOL    HW214745   0.252   1.948   4.577 -1.5196 -2.1805 -0.6074
 1037SOL     OW14746   1.665   2.581   3.670  0.3282 -0.4417 -0.4714
 1037SOL    HW114747   1.748   2.611   3.708  0.6127 -1.4761 -0.2750
 1037SOL    HW214748   1.690   2.542   3.587 -1.2715  0.2051 -1.2465
 1038SOL     OW14749   3.064   2.396  12.229 -0.3512 -0.1204  0.3626
 1038SOL    HW114750   3.039   2.339  12.302  1.1099  0.6840  1.4807
 1038SOL    HW214751   3.159   2.395  12.229 -0.3566 -0.2135  1.6202
 1039SOL     OW14752   0.844   4.701  12.742  0.3344  0.4342  0.1454
 1039SOL    HW114753   0.888   4.629  12.697 -0.9667 -0.6409  0.5624
 1039SOL    HW214754   0.896   0.036  12.707 -0.7041  0.5268 -1.2063
 1040SOL     OW14755   1.971   4.628   6.584 -0.1208 -0.3626  0.0263
 1040SOL    HW114756   1.938   4.565   6.648 -1.7420  0.3375 -0.1032
 1040SOL    HW214757   1.896   4.682   6.560  0.5471  0.4054 -0.3013
 1041SOL     OW14758   1.663   2.012   5.414 -0.6265 -0.8196 -0.3378
 1041SOL    HW114759   1.706   2.097   5.401 -3.2538  0.6050  0.3043
 1041SOL    HW214760   1.588   2.036   5.359 -0.6800  0.2324  0.1847
 1042SOL     OW14761   0.429   0.986  13.186 -0.5303 -0.2784 -0.1695
 1042SOL    HW114762   0.485   0.943  13.122  1.5436 -0.1239  1.5346
 1042SOL    HW214763   0.490   1.016  13.254  1.0037 -1.4488 -1.0371
 1043SOL     OW14764   2.361   4.418   8.086  0.8188  0.1147  0.6353
 1043SOL    HW114765   2.358   4.371   8.003 -0.4910 -1.4666  1.5786
 1043SOL    HW214766   2.294   4.372   8.137 -1.5003  2.6693 -0.1014
 1044SOL     OW14767   2.076   1.751   1.980 -0.3213 -0.4526  0.1293
 1044SOL    HW114768   2.148   1.797   2.023 -0.0433 -1.4374  0.7227
 1044SOL    HW214769   2.097   1.761   1.887 -1.4874 -2.5422 -0.3575
 1045SOL     OW14770   4.063   1.501  16.758  0.6536  0.0264 -0.5122
 1045SOL    HW114771   4.056   1.548  16.675 -0.5403 -1.5410 -1.3008
 1045SOL    HW214772   4.084   1.412  16.731  0.7947 -0.4039  0.9870
 1046SOL     OW14773   2.267   2.599   1.646 -0.1213 -0.3023 -0.2574
 1046SOL    HW114774   2.291   2.663   1.579  1.8557 -1.3509 -0.5303
 1046SOL    HW214775   2.235   2.522   1.598  2.7046 -1.6582  0.0755
 1047SOL     OW14776   2.730   3.187   5.651  0.6559 -0.5307  0.2713
 1047SOL    HW114777   2.643   3.159   5.623  0.3552  0.8911 -0.2144
 1047SOL    HW214778   2.765   3.216   5.567  1.1597 -0.5679  0.4688
 1048SOL     OW14779   3.838   2.441   8.192  0.1525  0.6475 -0.1616
 1048SOL    HW114780   3.907   2.411   8.251  0.6724  1.7716 -0.2126
 1048SOL    HW214781   3.884   2.493   8.127 -1.1806  0.8242 -0.9604
 1049SOL     OW14782   0.090   0.867   7.346  0.0516 -0.2944  0.3002
 1049SOL    HW114783   0.107   0.917   7.426 -1.5382  0.6149  0.0810
 1049SOL    HW214784   0.150   0.915   7.289 -1.6391  1.0586 -0.3410
 1050SOL     OW14785   1.829   1.580   5.676  0.3093 -0.2997 -0.1328
 1050SOL    HW114786   1.754   1.631   5.646  0.4659  1.2837  2.1781
 1050SOL    HW214787   1.781   1.497   5.675  0.9105 -0.6497 -0.7181
 1051SOL     OW14788   2.764   0.880   6.592 -0.3629 -0.0028  0.1017
 1051SOL    HW114789   2.705   0.805   6.582  0.9874 -1.3008  1.9352
 1051SOL    HW214790   2.852   0.846   6.581  0.1007  1.1616  0.2274
 1052SOL     OW14791   1.513   3.171  11.897 -0.3749 -0.5783 -0.0977
 1052SOL    HW114792   1.554   3.167  11.984  0.5279 -0.2047 -0.5055
 1052SOL    HW214793   1.547   3.258  11.876  0.6316 -1.0409 -0.3776
 1053SOL     OW14794   4.004   2.004  15.896 -0.2262 -0.6302 -0.2924
 1053SOL    HW114795   3.956   1.985  15.976 -2.9351  1.1243 -1.4946
 1053SOL    HW214796   4.081   1.957  15.926 -0.6481 -0.5514  0.8954
 1054SOL     OW14797   2.242   4.722   4.231 -0.4073  0.3575  0.1560
 1054SOL    HW114798   2.147   0.000   4.233 -0.6112 -0.8888  0.1698
 1054SOL    HW214799   2.273   0.047   4.296  2.3136  0.6991 -1.4586
 1055SOL     OW14800   2.800   2.975   8.286  0.0302 -0.0482  0.2099
 1055SOL    HW114801   2.749   2.909   8.331  0.9641 -1.7977 -1.2801
 1055SOL    HW214802   2.809   3.047   8.348  1.7027 -1.0741  1.1494
 1056SOL     OW14803   0.468   1.183   7.715 -0.3031  0.2892  0.6554
 1056SOL    HW114804   0.388   1.140   7.747 -0.6105  0.1904 -0.2525
 1056SOL    HW214805   0.540   1.132   7.754 -1.6368 -0.7420  1.7825
 1057SOL     OW14806   0.960   1.722   3.026 -0.5077 -0.4865 -0.2675
 1057SOL    HW114807   0.970   1.749   2.935  1.4117 -1.0603 -0.2183
 1057SOL    HW214808   0.988   1.801   3.072  1.4543 -0.4400 -1.5735
 1058SOL     OW14809   4.716   0.349   4.656 -0.7079 -0.0540  0.0581
 1058SOL    HW114810   0.020   0.433   4.636  2.7309 -1.7561 -0.0179
 1058SOL    HW214811   4.628   0.367   4.624 -1.1961 -1.3077  0.7027
 1059SOL     OW14812   1.228   1.132  16.158  0.5647  0.5710 -0.1567
 1059SOL    HW114813   1.231   1.222  16.191  2.8018  2.3135 -5.0242
 1059SOL    HW214814   1.316   1.107  16.186  0.4789  0.7386  0.2623
 1060SOL     OW14815   3.979   4.396  15.736  0.1691 -0.1876 -0.0629
 1060SOL    HW114816   3.919   4.368  15.805  1.0680 -1.1929  0.3081
 1060SOL    HW214817   3.982   4.491  15.746  1.6980 -0.6123  3.3769
 1061SOL     OW14818   0.739   0.013  13.000  0.1637 -0.3124  0.1778
 1061SOL    HW114819   0.737   4.663  13.039  0.0010  1.0230  3.0973
 1061SOL    HW214820   0.771   4.716  12.916  1.1992 -3.3989  1.8132
 1062SOL     OW14821   4.303   2.721  15.801 -0.0519  0.2253 -0.0098
 1062SOL    HW114822   4.362   2.796  15.811  0.5578 -0.3598  0.7888
 1062SOL    HW214823   4.344   2.695  15.718 -0.2605 -1.5098  0.4349
 1063SOL     OW14824   1.622   0.801  14.928  0.2380 -0.2796  0.4999
 1063SOL    HW114825   1.676   0.829  15.002 -1.1609  1.7332  0.7605
 1063SOL    HW214826   1.658   0.715  14.905  0.9068 -0.1463  1.0717
 1064SOL     OW14827   4.654   2.901  15.155  0.2300  0.3015  0.5529
 1064SOL    HW114828   4.708   2.871  15.082 -0.5177 -1.3357  0.6792
 1064SOL    HW214829   4.691   2.988  15.173  1.2416 -0.0961  0.3858
 1065SOL     OW14830   2.596   3.783   3.562  0.8154  0.2462 -0.0959
 1065SOL    HW114831   2.511   3.739   3.557  0.0694  1.5076  1.2993
 1065SOL    HW214832   2.607   3.800   3.469  2.1739  0.7434  0.1591
 1066SOL     OW14833   0.058   2.620   9.772 -0.1691  0.4944  0.1130
 1066SOL    HW114834   4.724   2.608   9.835 -1.6473  2.0939 -1.2574
 1066SOL    HW214835   0.123   2.641   9.838  0.1492  1.9764 -0.6669
 1067SOL     OW14836   3.623   3.853   9.517 -0.2663  0.2563 -0.1959
 1067SOL    HW114837   3.715   3.828   9.527 -0.2385  0.4803  0.1478
 1067SOL    HW214838   3.587   3.836   9.604  2.2255 -1.1984  0.5640
 1068SOL     OW14839   0.267   4.635   8.654 -0.4195  0.0426 -0.1789
 1068SOL    HW114840   0.217   4.647   8.574  0.9133 -0.9553 -1.1674
 1068SOL    HW214841   0.192   4.655   8.709 -1.6542 -1.9526 -1.1229
 1069SOL     OW14842   3.349   2.273   5.474 -0.0746  0.3070  0.0458
 1069SOL    HW114843   3.295   2.343   5.511 -0.4429 -1.0703  2.1411
 1069SOL    HW214844   3.322   2.269   5.383 -1.7119 -0.8725  0.5761
 1070SOL     OW14845   1.825   0.151   5.791  0.0315  0.5834 -0.1691
 1070SOL    HW114846   1.884   0.199   5.850  0.8618  1.4827 -1.7514
 1070SOL    HW214847   1.889   0.113   5.731  1.6086  1.1674  1.1499
 1071SOL     OW14848   2.150   1.371  11.113 -0.6691  0.2593  0.2910
 1071SOL    HW114849   2.234   1.418  11.108 -1.0535  1.0116  0.7990
 1071SOL    HW214850   2.088   1.437  11.145  1.2218  1.3639  1.6994
 1072SOL     OW14851   2.179   1.157   8.382 -0.5852 -0.3124 -0.5586
 1072SOL    HW114852   2.092   1.124   8.404 -0.8435  0.4862 -0.3591
 1072SOL    HW214853   2.170   1.168   8.288 -2.0781 -0.7286 -0.4617
 1073SOL     OW14854   1.254   1.618  16.249 -0.1462  0.1297 -0.5444
 1073SOL    HW114855   1.171   1.592  16.208 -0.8008  0.3116  0.6562
 1073SOL    HW214856   1.273   1.704  16.211  0.1536  0.3855  0.1848
 1074SOL     OW14857   1.605   2.722   4.175 -0.0292  0.0900 -0.4333
 1074SOL    HW114858   1.598   2.665   4.098 -0.2503  0.8244 -0.9543
 1074SOL    HW214859   1.683   2.688   4.219  1.6371  1.9736 -1.9152
 1075SOL     OW14860   2.534   0.963   5.438  0.0261  0.3109  0.1675
 1075SOL    HW114861   2.542   1.031   5.505  0.0838  0.2618  0.2100
 1075SOL    HW214862   2.461   1.002   5.389  0.4231  1.3933  0.4263
 1076SOL     OW14863   1.560   3.120   6.839 -0.3111 -0.2859  0.0544
 1076SOL    HW114864   1.606   3.064   6.901 -0.7582 -1.0297 -0.2897
 1076SOL    HW214865   1.544   3.191   6.901 -0.9872 -0.2368 -0.1740
 1077SOL     OW14866   2.540   1.385  14.590 -0.1681  0.2149 -0.1707
 1077SOL    HW114867   2.560   1.291  14.594  0.6947  0.4510  1.1185
 1077SOL    HW214868   2.557   1.405  14.498 -1.2620  1.5081 -0.0796
 1078SOL     OW14869   4.230   2.204   7.381 -0.5995  0.2733  0.0295
 1078SOL    HW114870   4.137   2.210   7.363  0.0155  1.2127 -2.9095
 1078SOL    HW214871   4.234   2.210   7.477  1.9916 -1.6164  0.0440
 1079SOL     OW14872   4.462   4.059   5.882  0.5739  0.1200 -0.3321
 1079SOL    HW114873   4.426   4.106   5.957  0.3563  0.1697 -0.4658
 1079SOL    HW214874   4.379   4.019   5.855  1.0073  0.9852 -2.9669
 1080SOL     OW14875   2.818   0.550   4.361  0.5194 -0.3038  0.1892
 1080SOL    HW114876   2.891   0.605   4.336 -0.2506 -0.0052 -1.4301
 1080SOL    HW214877   2.836   0.473   4.306  0.7151 -0.4985  0.5291
 1081SOL     OW14878   4.170   3.135   7.477 -0.3084 -0.1237  0.3915
 1081SOL    HW114879   4.213   3.217   7.449 -1.6140  0.9121  1.4284
 1081SOL    HW214880   4.176   3.089   7.393 -1.7627 -1.5038  1.0762
 1082SOL     OW14881   3.127   3.142   6.754 -0.0603  0.2483  0.0104
 1082SOL    HW114882   3.195   3.128   6.821  0.7193  0.7639 -0.6786
 1082SOL    HW214883   3.122   3.238   6.754  1.2419  0.3170  0.6463
 1083SOL     OW14884   3.617   0.907   4.238  0.4232 -0.1364 -0.2537
 1083SOL    HW114885   3.691   0.934   4.293  0.8268 -0.8127 -0.4682
 1083SOL    HW214886   3.596   0.822   4.275  0.1837  1.2311  2.7458
 1084SOL     OW14887   3.823   0.945   5.065 -0.1602 -0.9238  0.2581
 1084SOL    HW114888   3.852   0.859   5.096  1.2734  0.3371  2.4548
 1084SOL    HW214889   3.788   0.985   5.145 -1.9209 -1.0447 -0.4537
 1085SOL     OW14890   1.138   3.758  15.505 -0.1630 -0.2003 -0.0549
 1085SOL    HW114891   1.099   3.707  15.435 -0.4988  1.3204 -0.9889
 1085SOL    HW214892   1.059   3.802  15.535 -0.7601 -1.1099 -0.3033
 1086SOL     OW14893   0.037   3.242  15.899  0.0658  0.2306 -0.6557
 1086SOL    HW114894   0.121   3.250  15.944 -0.5046 -2.0126  0.7844
 1086SOL    HW214895   4.735   3.322  15.935  0.2135  0.2343 -0.5001
 1087SOL     OW14896   0.522   2.265  17.737 -0.0684 -0.3325  0.3525
 1087SOL    HW114897   0.544   2.271  17.644 -0.2314  0.0754  0.3443
 1087SOL    HW214898   0.567   2.337   0.033 -0.7702 -0.8640  1.9796
 1088SOL     OW14899   4.647   0.101   4.255  0.1797 -0.1827  0.1355
 1088SOL    HW114900   4.700   0.116   4.334 -0.0013 -0.8109  0.3740
 1088SOL    HW214901   4.562   0.086   4.297  0.0047 -0.2246 -0.2328
 1089SOL     OW14902   1.057   0.249   7.612  0.0620  0.4040  0.0979
 1089SOL    HW114903   1.004   0.277   7.687 -1.1235 -0.2428 -0.4961
 1089SOL    HW214904   1.042   0.327   7.558  0.0986  0.5878  0.3527
 1090SOL     OW14905   4.355   0.400   3.486  0.3676 -0.3354  0.3387
 1090SOL    HW114906   4.422   0.332   3.476  0.5011 -0.3813  1.6425
 1090SOL    HW214907   4.372   0.450   3.406  1.6216  1.1596  1.5375
 1091SOL     OW14908   4.192   4.537   6.641 -0.2019  0.0433  0.3339
 1091SOL    HW114909   4.246   4.496   6.573 -0.8500  2.0298 -1.3650
 1091SOL    HW214910   4.182   4.466   6.705 -0.9591 -1.0540 -0.9771
 1092SOL     OW14911   0.237   3.768   8.880  0.2054  0.0899 -0.0409
 1092SOL    HW114912   0.317   3.751   8.929  1.0321  0.7275 -1.1785
 1092SOL    HW214913   0.203   3.679   8.880 -0.5499  0.3756 -0.3302
 1093SOL     OW14914   2.028   0.401   7.015  0.6693 -0.0496  0.2537
 1093SOL    HW114915   2.031   0.459   6.939 -1.5424 -0.5701 -0.2284
 1093SOL    HW214916   2.120   0.383   7.036  1.0339  2.4826  0.7863
 1094SOL     OW14917   0.161   0.879   2.473 -0.1402 -0.1732  0.3925
 1094SOL    HW114918   0.102   0.901   2.401  1.1330  1.1485 -0.2587
 1094SOL    HW214919   0.248   0.881   2.434 -0.8343  1.9434 -1.0425
 1095SOL     OW14920   4.540   0.318  13.054  0.1261 -0.4984 -0.3752
 1095SOL    HW114921   4.547   0.225  13.034  0.6001 -0.5621  0.0884
 1095SOL    HW214922   4.603   0.350  12.990 -0.2894 -0.3260 -0.6975
 1096SOL     OW14923   0.205   0.381   7.351 -0.3280  0.1467 -0.2434
 1096SOL    HW114924   0.222   0.316   7.419  1.3236  0.9008  0.0705
 1096SOL    HW214925   0.113   0.398   7.370  0.3422  1.5584  1.8391
 1097SOL     OW14926   0.049   0.197  13.697  0.0035 -0.3368 -0.5003
 1097SOL    HW114927   4.728   0.259  13.654  0.6481  1.4925  1.2903
 1097SOL    HW214928   0.119   0.172  13.636  0.5234 -0.2810  0.0705
 1098SOL     OW14929   2.214   2.965   6.786 -0.1169  0.1578 -0.5686
 1098SOL    HW114930   2.253   3.050   6.806  0.3477 -0.2856  0.3792
 1098SOL    HW214931   2.244   2.926   6.868 -0.3078 -0.1794 -0.6583
 1099SOL     OW14932   1.657   1.770   5.562 -0.0567  0.4095 -0.0787
 1099SOL    HW114933   1.687   1.842   5.507  1.2896 -0.1995 -0.1375
 1099SOL    HW214934   1.568   1.802   5.578 -0.2293 -1.0332  1.9182
 1100SOL     OW14935   1.274   1.275   3.576  0.0761 -0.4494 -0.3158
 1100SOL    HW114936   1.207   1.298   3.511  0.4307  2.6433  0.4104
 1100SOL    HW214937   1.268   1.346   3.640  0.7901  0.1427 -0.8959
 1101SOL     OW14938   1.132   2.323   4.425 -0.0844 -0.5110  0.2074
 1101SOL    HW114939   1.055   2.376   4.404 -0.3658 -0.7041  0.7481
 1101SOL    HW214940   1.108   2.289   4.511 -0.3803  1.1922  0.7793
 1102SOL     OW14941   3.319   0.157   7.140  0.4007  0.3322 -0.3554
 1102SOL    HW114942   3.320   0.061   7.133  1.0668  0.1765  1.8867
 1102SOL    HW214943   3.388   0.179   7.078  2.0058 -0.0541  1.2915
 1103SOL     OW14944   3.318   3.661   2.382  0.6886  0.0911  0.0458
 1103SOL    HW114945   3.267   3.590   2.420 -0.5557 -0.4412 -2.6382
 1103SOL    HW214946   3.405   3.647   2.420  0.1076  0.4398  1.5314
 1104SOL     OW14947   4.285   4.304   0.568  0.3588 -0.0350  0.8732
 1104SOL    HW114948   4.194   4.319   0.593  0.2146  0.1130  0.2602
 1104SOL    HW214949   4.304   4.389   0.527  1.0663 -0.4810  0.2601
 1105SOL     OW14950   3.993   0.239   0.077 -0.4258 -0.8888 -0.0736
 1105SOL    HW114951   3.975   0.193  17.742 -0.5933  0.1906 -0.6558
 1105SOL    HW214952   4.087   0.254   0.084 -0.6335  0.8739 -0.9040
 1106SOL     OW14953   2.860   1.271   8.347 -0.1543 -0.6798  0.1272
 1106SOL    HW114954   2.817   1.186   8.332 -0.9510 -0.5246  1.4617
 1106SOL    HW214955   2.853   1.308   8.259 -0.6631  0.5645  0.6920
 1107SOL     OW14956   3.309   1.415  11.674  0.6268  0.5484  0.3960
 1107SOL    HW114957   3.370   1.380  11.610 -1.0528 -1.6052  0.0077
 1107SOL    HW214958   3.358   1.414  11.756  0.4988  0.3284  0.4679
 1108SOL     OW14959   3.320   4.497  14.198 -0.4075 -0.1567  0.1711
 1108SOL    HW114960   3.307   4.404  14.181 -0.6977  0.1466 -1.2908
 1108SOL    HW214961   3.253   4.508  14.265 -1.6801  0.1767 -1.1472
 1109SOL     OW14962   4.188   0.427   6.824 -0.6585 -0.0517 -0.0463
 1109SOL    HW114963   4.169   0.519   6.840 -1.4872 -0.3842  0.8980
 1109SOL    HW214964   4.255   0.409   6.890 -0.2371  0.5304 -0.3271
 1110SOL     OW14965   0.533   1.531   9.636  0.2270  0.6296  1.4912
 1110SOL    HW114966   0.590   1.598   9.674  1.2278  1.2064 -1.0038
 1110SOL    HW214967   0.547   1.450   9.685 -2.4627 -1.0038 -0.3971
 1111SOL     OW14968   2.211   0.533   4.721  0.2752 -0.2887 -0.1745
 1111SOL    HW114969   2.131   0.582   4.703  0.9278  0.5952 -0.6580
 1111SOL    HW214970   2.265   0.562   4.647 -0.1708 -2.8204 -1.5156
 1112SOL     OW14971   1.554   1.836   4.788 -0.5895  0.3098 -0.3533
 1112SOL    HW114972   1.613   1.897   4.743 -1.7750  1.3187 -0.5455
 1112SOL    HW214973   1.512   1.902   4.843 -0.3304 -1.4243  1.9009
 1113SOL     OW14974   1.997   1.736  13.777  0.6490  0.3549 -0.3053
 1113SOL    HW114975   1.960   1.791  13.847  0.3813 -1.2524  0.8169
 1113SOL    HW214976   2.001   1.649  13.816  0.4336  0.8614  0.8578
 1114SOL     OW14977   3.604   1.848   5.694 -0.1253  0.3577 -0.2065
 1114SOL    HW114978   3.534   1.893   5.741 -1.9198 -0.5134 -2.0592
 1114SOL    HW214979   3.567   1.819   5.611  0.6910 -1.8017  0.1568
 1115SOL     OW14980   4.095   3.305   5.145  0.3189 -0.6204  0.4938
 1115SOL    HW114981   4.092   3.313   5.050  0.6235 -1.6035  0.3966
 1115SOL    HW214982   4.024   3.241   5.159 -0.2460 -0.2714 -0.8438
 1116SOL     OW14983   4.484   1.867   7.301 -0.4141  0.1677  0.8517
 1116SOL    HW114984   4.408   1.871   7.243  0.9821 -4.4924 -1.2579
 1116SOL    HW214985   4.545   1.832   7.237 -1.3323  1.4846 -0.7528
 1117SOL     OW14986   4.254   0.461   2.748 -0.2625 -0.5157  0.2715
 1117SOL    HW114987   4.328   0.414   2.787  0.8612 -0.5174 -1.8372
 1117SOL    HW214988   4.297   0.540   2.716 -1.6692  0.2557  0.2676
 1118SOL     OW14989   2.263   2.902   6.534 -0.1714 -0.1773 -0.4398
 1118SOL    HW114990   2.260   2.807   6.532  2.4261 -0.2611 -0.0425
 1118SOL    HW214991   2.234   2.927   6.621  0.2009 -0.9326 -0.0978
 1119SOL     OW14992   2.020   1.651   7.037 -0.9494 -0.5050  0.1251
 1119SOL    HW114993   2.107   1.613   7.025  0.5860  3.3856 -0.9624
 1119SOL    HW214994   2.034   1.693   7.122 -0.7972 -1.0074  0.3530
 1120SOL     OW14995   0.495   2.813   9.572  0.3089  0.1531  0.0084
 1120SOL    HW114996   0.571   2.843   9.522  0.8828  1.5714  1.7448
 1120SOL    HW214997   0.422   2.868   9.544  2.3885  3.5057  1.1357
 1121SOL     OW14998   3.788   1.410  12.458 -0.0182 -0.4430  0.1482
 1121SOL    HW114999   3.868   1.382  12.503  0.1167  1.0289  0.8045
 1121SOL    HW215000   3.726   1.400  12.531  0.6399  1.9944  1.0362
 1122SOL     OW15001   4.493   1.553   2.962  0.4642 -0.3506  0.1011
 1122SOL    HW115002   4.478   1.557   2.868 -0.6897  1.7093  0.3866
 1122SOL    HW215003   4.528   1.465   2.979 -3.0286 -1.2981  2.5076
 1123SOL     OW15004   1.950   3.030   9.791 -0.5107  0.3927  0.1397
 1123SOL    HW115005   1.983   2.988   9.870 -1.0250 -1.8124 -0.8126
 1123SOL    HW215006   1.881   2.973   9.759  1.4504 -0.8466 -1.8729
 1124SOL     OW15007   1.622   1.314   4.730 -0.2459 -0.1769  0.4929
 1124SOL    HW115008   1.603   1.389   4.786 -1.4378 -1.5431  1.8966
 1124SOL    HW215009   1.623   1.248   4.799  0.0826  1.7331  2.3004
 1125SOL     OW15010   2.616   0.474   5.439  0.0422  0.2278 -0.1230
 1125SOL    HW115011   2.591   0.545   5.498 -1.5807  0.7602 -1.4306
 1125SOL    HW215012   2.632   0.525   5.359 -0.5382 -1.9773 -1.6695
 1126SOL     OW15013   2.960   0.035  11.208 -0.1761  0.7970 -0.2459
 1126SOL    HW115014   3.035   0.051  11.149  1.3310 -0.6993  1.2752
 1126SOL    HW215015   2.919   0.121  11.203 -1.5463  0.1350 -0.3038
 1127SOL     OW15016   4.137   3.816   4.000  0.7827  0.0741 -0.2989
 1127SOL    HW115017   4.152   3.721   4.000  0.9232  0.0965 -1.2327
 1127SOL    HW215018   4.228   3.846   4.009  1.1545 -0.7438 -1.2753
 1128SOL     OW15019   3.945   0.273  15.757  0.5990  0.4764  0.1883
 1128SOL    HW115020   3.957   0.188  15.714 -0.4921  0.5965 -0.3545
 1128SOL    HW215021   4.033   0.304  15.736  0.6268  1.2051  1.3697
 1129SOL     OW15022   2.680   4.329   0.241 -0.4096  0.0873 -0.3349
 1129SOL    HW115023   2.651   4.367   0.323  0.4953  2.8261 -1.2891
 1129SOL    HW215024   2.682   4.405   0.183 -2.4326 -0.6636 -1.3731
 1130SOL     OW15025   0.102   0.075   3.914  0.2453 -0.2145  0.4868
 1130SOL    HW115026   0.057   0.025   3.846 -0.4228  0.0806  0.7074
 1130SOL    HW215027   0.113   0.159   3.868  1.5500 -0.4024  0.4546
 1131SOL     OW15028   0.692   1.687   3.680 -0.7873 -0.7118 -0.2430
 1131SOL    HW115029   0.701   1.662   3.588  0.6115 -0.2341 -0.2336
 1131SOL    HW215030   0.692   1.601   3.722 -0.2387 -1.1699 -1.1996
 1132SOL     OW15031   2.176   2.714   1.926  0.2452 -0.3264  0.1652
 1132SOL    HW115032   2.158   2.709   1.833  2.4151  2.3524 -0.3861
 1132SOL    HW215033   2.271   2.720   1.927  0.2136  0.2770 -1.1752
 1133SOL     OW15034   0.317   1.252   6.507  0.3708  0.0253 -0.7659
 1133SOL    HW115035   0.321   1.331   6.560 -1.7024 -0.7934  0.6392
 1133SOL    HW215036   0.396   1.203   6.530  0.3778  0.4293  0.0762
 1134SOL     OW15037   3.453   3.292   5.768 -0.2692 -0.1445 -0.0301
 1134SOL    HW115038   3.532   3.254   5.727  0.3515  0.4439  0.6193
 1134SOL    HW215039   3.490   3.332   5.847  1.8106  0.0535 -1.0936
 1135SOL     OW15040   0.410   2.577  12.088  0.3258  0.1508  0.1574
 1135SOL    HW115041   0.489   2.609  12.131  0.6736 -0.8843  0.3007
 1135SOL    HW215042   0.395   2.640  12.018 -0.3944 -0.4900 -0.2647
 1136SOL     OW15043   2.807   1.098   1.368  0.8602  0.2873 -0.2757
 1136SOL    HW115044   2.815   1.088   1.273  1.7369 -0.7245 -0.0923
 1136SOL    HW215045   2.855   1.020   1.395  2.0393  0.9021 -0.5526
 1137SOL     OW15046   3.355   0.268   8.251  0.0824 -0.5465 -0.8995
 1137SOL    HW115047   3.361   0.223   8.335  1.2898  0.0314 -0.6746
 1137SOL    HW215048   3.306   0.201   8.203  0.4597 -1.3816 -0.1058
 1138SOL     OW15049   0.144   2.049   8.915  0.2428 -0.2699 -0.0983
 1138SOL    HW115050   0.099   2.112   8.859 -0.0953 -1.8953 -1.6886
 1138SOL    HW215051   0.122   2.079   9.003 -0.6648 -0.5472 -0.2308
 1139SOL     OW15052   2.770   0.456  10.447 -0.2364  0.2485 -0.1477
 1139SOL    HW115053   2.865   0.468  10.448 -0.4247  1.7043  1.2427
 1139SOL    HW215054   2.739   0.541  10.417  0.8309  0.8155  0.3524
 1140SOL     OW15055   4.535   0.580   6.690 -0.3783  0.1532 -0.1321
 1140SOL    HW115056   4.445   0.605   6.668 -1.3257 -1.5225  1.8126
 1140SOL    HW215057   4.555   0.642   6.761 -0.5740  0.0296  0.0302
 1141SOL     OW15058   4.106   0.355  16.341 -0.3544 -0.2976 -0.2135
 1141SOL    HW115059   4.080   0.419  16.275 -1.1443  1.3808  1.7657
 1141SOL    HW215060   4.192   0.384  16.373  0.5171 -0.7294 -2.1557
 1142SOL     OW15061   2.360   4.105   3.301 -0.0619 -0.2543 -0.0236
 1142SOL    HW115062   2.370   4.199   3.311  0.0552 -0.5026  2.0668
 1142SOL    HW215063   2.286   4.076   3.354  0.7311 -2.1868  0.0516
 1143SOL     OW15064   0.858   1.190   9.577  0.5613  0.4361  0.7172
 1143SOL    HW115065   0.872   1.236   9.659 -1.1521  1.7672  0.2567
 1143SOL    HW215066   0.824   1.261   9.522  1.0800  0.8304  0.9048
 1144SOL     OW15067   0.347   1.817   2.980 -0.2173 -0.7553  0.1091
 1144SOL    HW115068   0.442   1.809   2.969 -0.0092  2.0917 -0.3219
 1144SOL    HW215069   0.336   1.755   3.052  0.3395 -0.6365  0.2971
 1145SOL     OW15070   2.423   1.841   6.314 -0.5847  0.2099 -0.4370
 1145SOL    HW115071   2.486   1.783   6.271  2.2002  2.8010  0.0868
 1145SOL    HW215072   2.441   1.923   6.268 -0.3189  0.7857  0.6940
 1146SOL     OW15073   3.726   1.148  17.319 -0.2206  0.0594  0.0435
 1146SOL    HW115074   3.739   1.160  17.413  0.4989  2.9039 -0.4156
 1146SOL    HW215075   3.777   1.221  17.283  3.9651 -1.4476  3.0943
 1147SOL     OW15076   3.999   1.605   7.110 -0.1730  0.1251 -0.1646
 1147SOL    HW115077   3.935   1.535   7.122 -2.3250  1.9516 -1.1314
 1147SOL    HW215078   4.032   1.592   7.021 -1.0187  1.1187 -0.6128
 1148SOL     OW15079   2.002   1.510   3.680 -0.3622  0.1600 -0.7064
 1148SOL    HW115080   1.907   1.511   3.680 -0.3638  0.3194  0.8081
 1148SOL    HW215081   2.012   1.600   3.647 -0.3630 -0.6129 -2.7782
 1149SOL     OW15082   1.592   3.175   3.254 -1.2418  0.0321  0.0891
 1149SOL    HW115083   1.640   3.246   3.295 -1.6683  0.6534 -0.4900
 1149SOL    HW215084   1.608   3.207   3.165 -1.4878  4.1570  1.5358
 1150SOL     OW15085   1.888   2.886   1.671 -0.1757  0.0273  0.0862
 1150SOL    HW115086   1.858   2.914   1.757 -0.2496  1.1980 -0.3245
 1150SOL    HW215087   1.976   2.925   1.669  0.2680 -1.0655 -2.2679
 1151SOL     OW15088   1.321   4.611   3.998  0.5254 -0.7801 -0.2864
 1151SOL    HW115089   1.386   4.549   3.963  0.5763 -0.0039 -1.5592
 1151SOL    HW215090   1.253   4.545   4.012 -0.2752  0.5758  2.2134
 1152SOL     OW15091   3.736   1.301   2.396  0.4549 -0.3002  0.1207
 1152SOL    HW115092   3.706   1.338   2.479  1.6357 -0.8894  0.8140
 1152SOL    HW215093   3.831   1.306   2.411  0.3592 -0.1807  0.6692
 1153SOL     OW15094   4.484   3.078   4.147 -0.5669  0.1478  0.2343
 1153SOL    HW115095   4.535   3.142   4.197  1.3902 -1.8989  0.8371
 1153SOL    HW215096   4.546   3.005   4.145 -2.6641 -1.6000  0.0436
 1154SOL     OW15097   4.555   3.967  12.477  0.0655  0.1580  0.0437
 1154SOL    HW115098   4.515   3.879  12.475  1.2921 -0.4196  0.7042
 1154SOL    HW215099   4.616   3.968  12.403 -0.6689  2.7535 -0.5078
 1155SOL     OW15100   0.992   1.376   5.351 -0.0781 -0.5078 -0.4268
 1155SOL    HW115101   1.028   1.421   5.274 -0.7996 -0.4493 -0.7320
 1155SOL    HW215102   1.037   1.292   5.339  0.9709 -0.0823  0.5522
 1156SOL     OW15103   3.130   2.611   7.604 -0.1225 -0.6816  0.1589
 1156SOL    HW115104   3.106   2.643   7.516 -0.7878  0.5631  0.7879
 1156SOL    HW215105   3.196   2.547   7.580 -2.4955 -3.5203  1.1823
 1157SOL     OW15106   0.650   3.128  15.447  0.3041 -0.0878  0.2822
 1157SOL    HW115107   0.659   3.065  15.518  1.2889 -1.3134 -0.9321
 1157SOL    HW215108   0.581   3.185  15.481  1.4517  2.0941 -1.0877
 1158SOL     OW15109   3.639   0.819   1.250 -0.1514 -1.1284  0.1738
 1158SOL    HW115110   3.598   0.767   1.319 -1.2167  0.1984  0.5467
 1158SOL    HW215111   3.665   0.750   1.190  0.6132  0.3842 -1.2321
 1159SOL     OW15112   2.915   2.017   9.688  0.0100  0.1537 -0.2144
 1159SOL    HW115113   3.004   1.996   9.716  0.3804 -1.6422 -2.7403
 1159SOL    HW215114   2.898   1.946   9.626  1.0422 -1.0907  0.9446
 1160SOL     OW15115   2.816   1.287   7.273  0.1783  0.2738 -0.3281
 1160SOL    HW115116   2.877   1.361   7.279  1.4037 -0.5840 -2.3354
 1160SOL    HW215117   2.736   1.331   7.244  0.8977  0.9505 -1.2864
 1161SOL     OW15118   3.870   4.363   5.026 -0.0822  0.1394  0.1370
 1161SOL    HW115119   3.947   4.342   5.078 -0.2114 -0.4171  0.1025
 1161SOL    HW215120   3.870   4.298   4.956 -0.8571 -0.7660  0.9741
 1162SOL     OW15121   1.513   1.158  11.529 -0.7479 -0.4558  0.7696
 1162SOL    HW115122   1.608   1.155  11.520 -0.9107 -0.0499 -1.1184
 1162SOL    HW215123   1.497   1.248  11.557  2.7794  0.4166 -0.0647
 1163SOL     OW15124   3.539   2.856   0.014  0.5568  0.1541 -0.7702
 1163SOL    HW115125   3.574   2.773  17.727 -3.4893 -1.6785 -0.4225
 1163SOL    HW215126   3.532   2.862   0.109  1.0746  1.1087 -0.7892
 1164SOL     OW15127   3.077   0.289   3.697  0.1076  0.3066  0.0336
 1164SOL    HW115128   3.028   0.220   3.652 -2.7754  0.6043  2.7370
 1164SOL    HW215129   3.045   0.369   3.657  0.6093  0.0190 -0.9255
 1165SOL     OW15130   2.346   2.888  16.045  0.0402 -0.0519  0.0499
 1165SOL    HW115131   2.327   2.924  16.132 -1.0530  1.3207 -0.7510
 1165SOL    HW215132   2.399   2.957  16.006 -0.6504 -0.0216 -0.8476
 1166SOL     OW15133   3.786   0.930   0.200 -0.1787 -0.3801 -0.0214
 1166SOL    HW115134   3.792   0.889   0.113  0.8110 -0.2243 -0.0218
 1166SOL    HW215135   3.858   0.992   0.208 -1.0461  0.9106 -2.0692
 1167SOL     OW15136   2.788   3.970  16.707 -0.6629  0.0150 -0.4879
 1167SOL    HW115137   2.721   3.902  16.716 -0.2237  0.2457  4.1375
 1167SOL    HW215138   2.741   4.050  16.733  1.6608  1.4799 -0.7710
 1168SOL     OW15139   3.019   3.566   3.087 -0.4310 -0.2612  0.4709
 1168SOL    HW115140   3.010   3.592   3.178  0.4831  1.6754  0.0084
 1168SOL    HW215141   3.111   3.537   3.080 -0.3128 -0.4439  2.9095
 1169SOL     OW15142   1.315   3.023   7.597  0.0823  0.0495  0.6026
 1169SOL    HW115143   1.296   3.047   7.688  4.1110 -0.6877  1.6415
 1169SOL    HW215144   1.230   2.998   7.561 -1.1280  2.3491  1.8627
 1170SOL     OW15145   2.131   1.866   5.822 -0.3186 -0.1517  0.1759
 1170SOL    HW115146   2.108   1.823   5.740  3.9060  0.8185 -1.5044
 1170SOL    HW215147   2.062   1.932   5.815  2.1877  2.3893 -0.6009
 1171SOL     OW15148   4.718   2.581  15.144  0.3793 -0.2441  0.4750
 1171SOL    HW115149   4.690   2.590  15.053 -1.9003  1.1166  1.3254
 1171SOL    HW215150   4.659   2.515  15.181 -0.2014 -0.1134 -0.2028
 1172SOL     OW15151   1.340   1.893   7.682  1.0815  0.3253  0.9076
 1172SOL    HW115152   1.386   1.941   7.613 -0.2414 -0.0994 -0.2709
 1172SOL    HW215153   1.394   1.924   7.755  2.9054 -2.1738  0.6390
 1173SOL     OW15154   3.356   1.345   2.447 -0.5111 -0.2835 -0.5378
 1173SOL    HW115155   3.450   1.364   2.440 -0.5124  0.2997  1.1489
 1173SOL    HW215156   3.356   1.257   2.485 -1.2792 -0.9447 -2.0655
 1174SOL     OW15157   1.226   2.450  14.457 -0.2006 -0.2097  0.5522
 1174SOL    HW115158   1.183   2.367  14.476  0.8011 -0.6729  0.7758
 1174SOL    HW215159   1.222   2.451  14.362  2.6173 -1.5603  0.4187
 1175SOL     OW15160   3.112   1.860   7.484  0.6596  0.1638  0.5168
 1175SOL    HW115161   3.070   1.789   7.434  1.5247 -0.0954  0.1636
 1175SOL    HW215162   3.176   1.813   7.537  0.1133 -1.2508 -0.0443
 1176SOL     OW15163   4.337   3.729   7.516 -0.3959 -0.0771  0.5782
 1176SOL    HW115164   4.332   3.677   7.596 -2.6953 -1.1736 -0.2447
 1176SOL    HW215165   4.249   3.765   7.502 -0.3993  0.1837  1.2829
 1177SOL     OW15166   0.901   1.556  13.713  0.4753  0.4621 -0.6703
 1177SOL    HW115167   0.968   1.489  13.726  0.2224  0.5664  1.1838
 1177SOL    HW215168   0.826   1.515  13.757 -0.7532  0.7649 -2.4976
 1178SOL     OW15169   3.595   3.519   8.836 -0.1752  0.4602  0.2166
 1178SOL    HW115170   3.676   3.568   8.845 -1.2533  2.6928 -2.1195
 1178SOL    HW215171   3.596   3.508   8.741 -2.4965  0.2877  0.2064
 1179SOL     OW15172   1.434   2.109  15.605  0.2829 -0.1665  0.4949
 1179SOL    HW115173   1.398   2.142  15.687  1.0685 -0.9316  1.1518
 1179SOL    HW215174   1.518   2.152  15.594  0.5386 -0.4300  1.3694
 1180SOL     OW15175   2.393   4.286   2.627  0.3753 -0.0793 -0.9295
 1180SOL    HW115176   2.317   4.340   2.649 -2.7945 -4.9645  0.0183
 1180SOL    HW215177   2.350   4.201   2.618 -0.9155  0.6239 -1.4653
 1181SOL     OW15178   4.183   1.139   0.681 -0.0402  0.4565  0.4174
 1181SOL    HW115179   4.188   1.081   0.604  2.7812 -0.2619  1.1231
 1181SOL    HW215180   4.162   1.228   0.654 -0.8546  0.0776 -0.2098
 1182SOL     OW15181   2.659   1.102   4.064 -0.0852 -0.1865  0.0620
 1182SOL    HW115182   2.664   1.189   4.102 -0.6085  0.5060 -1.4264
 1182SOL    HW215183   2.569   1.078   4.089 -1.0339  1.0858 -2.0815
 1183SOL     OW15184   4.552   4.221   6.708  0.6907  0.1257  0.0629
 1183SOL    HW115185   4.589   4.273   6.779  0.1486  1.6998 -0.8153
 1183SOL    HW215186   4.632   4.222   6.655  1.4082 -0.4281  1.1394
 1184SOL     OW15187   1.138   0.648   3.427  0.3130  0.5351  0.2472
 1184SOL    HW115188   1.101   0.575   3.377 -0.3852 -0.5212  2.2914
 1184SOL    HW215189   1.172   0.702   3.356 -2.1558  0.5420 -0.8941
 1185SOL     OW15190   2.539   2.154   1.789 -0.2542  0.2219 -0.0469
 1185SOL    HW115191   2.478   2.226   1.775 -0.0003  0.6838  1.1723
 1185SOL    HW215192   2.524   2.136   1.882  1.5228  0.7411  0.3417
 1186SOL     OW15193   4.002   1.726  17.196  0.0681  0.1270  0.3770
 1186SOL    HW115194   4.065   1.776  17.143 -0.6567 -1.0288 -1.5898
 1186SOL    HW215195   3.933   1.712  17.131  1.1602 -0.5769 -0.6296
 1187SOL     OW15196   0.821   3.952   5.645 -0.0513  0.2718 -0.4882
 1187SOL    HW115197   0.870   3.994   5.716  0.0388  1.4960 -1.2702
 1187SOL    HW215198   0.730   3.971   5.664  0.2359 -0.5769  1.6659
 1188SOL     OW15199   3.000   3.833   3.583 -0.5227 -0.6151 -0.0057
 1188SOL    HW115200   2.970   3.863   3.497 -2.5001  0.6447  1.1243
 1188SOL    HW215201   3.094   3.849   3.579 -0.5471 -0.5472 -0.2765
 1189SOL     OW15202   3.438   2.713   6.744  0.8423 -0.5636  0.0787
 1189SOL    HW115203   3.511   2.761   6.705 -1.1868  1.4727 -1.1950
 1189SOL    HW215204   3.362   2.746   6.696  1.1448  1.9694  1.3371
 1190SOL     OW15205   3.426   3.835   7.743 -0.3004  0.2029  0.2869
 1190SOL    HW115206   3.500   3.803   7.794  0.2252  1.2970  0.2123
 1190SOL    HW215207   3.382   3.873   7.820 -0.5571  1.0678 -0.2896
 1191SOL     OW15208   1.254   4.646   6.056  0.3783 -0.3658 -0.1128
 1191SOL    HW115209   1.318   4.595   6.006 -0.8135  2.1534 -4.2577
 1191SOL    HW215210   1.310   4.674   6.128 -3.1024  1.6600  1.8148
 1192SOL     OW15211   1.898   1.488  17.301 -0.2264 -0.2134  0.0347
 1192SOL    HW115212   1.960   1.560  17.291  0.1515 -0.7508 -1.4302
 1192SOL    HW215213   1.886   1.479  17.396 -1.7069 -0.1187 -0.1341
 1193SOL     OW15214   0.602   2.952  12.070 -0.1844  0.4338 -0.6673
 1193SOL    HW115215   0.618   2.882  12.134  1.4131  0.1145 -1.4409
 1193SOL    HW215216   0.593   3.033  12.121 -0.1607  1.5656 -2.4615
 1194SOL     OW15217   2.561   2.405  15.816 -0.4460 -0.0601 -0.2032
 1194SOL    HW115218   2.502   2.338  15.848  1.6265 -0.5672  2.5415
 1194SOL    HW215219   2.573   2.447  15.901  0.1543  1.3264 -0.9584
 1195SOL     OW15220   1.660   2.304   9.146  0.3544  0.3012 -0.2642
 1195SOL    HW115221   1.644   2.273   9.057 -1.3723  2.0401 -0.5520
 1195SOL    HW215222   1.611   2.387   9.146 -0.5117 -0.2335  3.2146
 1196SOL     OW15223   4.034   4.268   7.707 -0.2628  0.6448  0.9989
 1196SOL    HW115224   3.973   4.194   7.705 -1.2314  1.4823 -1.4216
 1196SOL    HW215225   4.015   4.292   7.798 -2.7059 -1.3765  1.0299
 1197SOL     OW15226   1.599   4.684   3.249  0.0347 -0.2033 -0.4407
 1197SOL    HW115227   1.578   4.647   3.164 -0.2909  3.1919 -1.8559
 1197SOL    HW215228   1.508   4.699   3.273 -0.6347 -0.1224 -3.0836
 1198SOL     OW15229   1.179   3.340   4.660  0.1495  0.4797 -0.7634
 1198SOL    HW115230   1.100   3.314   4.613  1.4423 -1.4461 -1.8827
 1198SOL    HW215231   1.144   3.414   4.709  0.5703  0.5450 -0.5554
 1199SOL     OW15232   2.878   0.775   0.850  0.6704 -0.3896 -0.4276
 1199SOL    HW115233   2.908   0.845   0.791  2.5572  1.0590  2.2120
 1199SOL    HW215234   2.782   0.778   0.846  0.7784  1.6630 -1.5342
 1200SOL     OW15235   2.501   2.449  13.947 -0.1790  0.1776 -0.4006
 1200SOL    HW115236   2.415   2.409  13.962 -0.0314  0.0251  0.0263
 1200SOL    HW215237   2.489   2.520  13.884  0.3699  0.6084 -0.0220
 1201SOL     OW15238   4.469   4.197   3.094 -0.3712  0.1959 -0.3128
 1201SOL    HW115239   4.438   4.178   3.182  0.9551 -0.1233  0.0899
 1201SOL    HW215240   4.561   4.216   3.109 -0.2840 -0.0116 -0.5854
 1202SOL     OW15241   3.194   1.481  12.418 -0.6489  0.4077  0.2033
 1202SOL    HW115242   3.152   1.460  12.335  0.0842  1.0085 -0.3229
 1202SOL    HW215243   3.245   1.554  12.383 -0.1739  0.3502  0.7738
 1203SOL     OW15244   2.008   3.120   7.399 -0.4410  0.1699 -0.5735
 1203SOL    HW115245   2.089   3.170   7.413 -1.4139  1.9308 -1.2589
 1203SOL    HW215246   1.986   3.158   7.314 -1.4740 -1.2874 -0.9582
 1204SOL     OW15247   1.710   1.353   2.300  0.0889  0.0841 -0.4513
 1204SOL    HW115248   1.764   1.424   2.265  0.0339  0.5586  0.4375
 1204SOL    HW215249   1.768   1.279   2.281  1.2788  0.9909 -0.3373
 1205SOL     OW15250   1.511   3.242  15.850  0.0015 -0.1306  0.1214
 1205SOL    HW115251   1.454   3.262  15.924 -0.5645 -1.0976 -0.0512
 1205SOL    HW215252   1.466   3.299  15.788 -2.0953  0.2152  1.9620
 1206SOL     OW15253   4.674   4.393   2.838  0.5372 -0.4597 -0.0538
 1206SOL    HW115254   4.720   4.476   2.838  1.8943 -1.2014  1.0893
 1206SOL    HW215255   4.670   4.366   2.930 -1.9602  1.1543  0.3223
 1207SOL     OW15256   3.984   0.695   4.907 -0.1982  0.1813 -0.0106
 1207SOL    HW115257   4.063   0.651   4.939 -0.5382 -1.1577 -1.0048
 1207SOL    HW215258   4.023   0.782   4.903  1.1351 -0.5099 -2.0515
 1208SOL     OW15259   1.402   0.921   3.293 -0.0102 -0.6153  0.1065
 1208SOL    HW115260   1.388   0.965   3.376  0.7363 -0.2624  0.0425
 1208SOL    HW215261   1.458   0.847   3.316  2.9701  2.1835  1.6926
 1209SOL     OW15262   3.372   3.105   6.881 -0.0567  0.0115  0.2861
 1209SOL    HW115263   3.363   3.061   6.796 -2.9059 -2.0430  1.6634
 1209SOL    HW215264   3.459   3.143   6.871 -0.1610  0.2648  0.3545
 1210SOL     OW15265   4.289   0.059  10.023  0.0568 -0.0281 -0.8893
 1210SOL    HW115266   4.296   0.116   9.947  1.1931  0.0807 -0.7052
 1210SOL    HW215267   4.197   0.035  10.027  0.4579 -1.2195  1.8746
 1211SOL     OW15268   1.168   0.500   7.459  0.6637 -0.2703 -0.0509
 1211SOL    HW115269   1.155   0.562   7.532 -0.4921 -2.1925  1.3717
 1211SOL    HW215270   1.221   0.553   7.400 -0.6219  2.9631  1.6532
 1212SOL     OW15271   2.482   2.667   2.617  0.6552 -0.1085 -0.1163
 1212SOL    HW115272   2.481   2.585   2.567  1.2973 -1.3717  1.9298
 1212SOL    HW215273   2.449   2.728   2.551  0.0606  1.5476  1.7349
 1213SOL     OW15274   3.487   2.960   2.543  0.0501 -0.5507  0.2641
 1213SOL    HW115275   3.403   3.007   2.542 -0.6361 -1.8040 -0.9876
 1213SOL    HW215276   3.545   3.027   2.579 -0.4118  0.6502 -1.2471
 1214SOL     OW15277   3.195   4.264   5.559  0.3862  0.0084 -0.6315
 1214SOL    HW115278   3.279   4.233   5.592 -0.7362  0.1094  2.2771
 1214SOL    HW215279   3.187   4.351   5.597  0.2098  0.9025 -2.7206
 1215SOL     OW15280   0.868   2.374   4.358 -0.0779 -0.5235  0.1421
 1215SOL    HW115281   0.902   2.303   4.303  2.0331  0.5805  0.0279
 1215SOL    HW215282   0.820   2.326   4.426  1.2264 -1.6236  0.2790
 1216SOL     OW15283   1.025   3.376   5.499  0.1701 -0.1689  0.3706
 1216SOL    HW115284   1.078   3.298   5.517 -1.5785 -1.9379 -1.9734
 1216SOL    HW215285   1.037   3.425   5.580 -2.5659  0.0966  0.6123
 1217SOL     OW15286   1.173   2.473   7.466 -0.3966 -0.1210 -0.1847
 1217SOL    HW115287   1.129   2.389   7.478  0.0955 -0.4349 -0.5719
 1217SOL    HW215288   1.210   2.463   7.378  0.4915 -1.7482  0.3828
 1218SOL     OW15289   1.393   3.386   5.695  0.1862 -0.0818  0.3012
 1218SOL    HW115290   1.400   3.475   5.730 -0.4477 -0.3959  1.2235
 1218SOL    HW215291   1.299   3.372   5.690  0.4925 -0.5343 -3.8160
 1219SOL     OW15292   0.839   2.561   6.563 -0.4275 -0.0129  0.3272
 1219SOL    HW115293   0.767   2.613   6.526  1.1545  0.3924 -2.1142
 1219SOL    HW215294   0.894   2.631   6.601 -1.2414 -1.1168  3.5761
 1220SOL     OW15295   0.620   3.691  10.403  0.2781  0.0520  0.5774
 1220SOL    HW115296   0.557   3.735  10.460 -0.5415  1.9113 -1.7409
 1220SOL    HW215297   0.585   3.603  10.393 -0.4631  0.5242 -1.0510
 1221SOL     OW15298   2.029   1.600   3.993 -0.5275  0.5857  0.3016
 1221SOL    HW115299   2.123   1.589   3.976 -0.6354  0.1943 -0.0270
 1221SOL    HW215300   1.989   1.568   3.913 -0.7727  1.0210  0.2507
 1222SOL     OW15301   3.114   4.079   4.800  0.3389 -0.3832  0.0101
 1222SOL    HW115302   3.018   4.077   4.802  0.3660 -1.5286  0.3778
 1222SOL    HW215303   3.124   4.026   4.721 -0.4112  1.6653 -1.4767
 1223SOL     OW15304   3.156   1.943  15.991 -0.1474  0.2422  0.1100
 1223SOL    HW115305   3.142   2.023  16.042  0.1546  0.8887 -0.8134
 1223SOL    HW215306   3.155   1.984  15.904 -0.4509  1.2105  0.5738
 1224SOL     OW15307   3.743   1.111  14.739  0.2346 -0.0284  0.6989
 1224SOL    HW115308   3.742   1.195  14.783 -0.1301  0.0829  0.4805
 1224SOL    HW215309   3.826   1.070  14.764  0.9538  0.9186 -0.1485
 1225SOL     OW15310   4.348   0.292  10.980  0.4314  0.1294  0.1689
 1225SOL    HW115311   4.275   0.264  10.924  0.9459  0.7043 -0.7960
 1225SOL    HW215312   4.404   0.326  10.910  0.5779 -0.8685 -0.2044
 1226SOL     OW15313   1.571   4.479  10.689  0.4082  0.5790 -0.2085
 1226SOL    HW115314   1.607   4.567  10.682 -2.7194  1.7949 -1.2392
 1226SOL    HW215315   1.477   4.496  10.679  0.6968  0.9438 -2.1380
 1227SOL     OW15316   1.697   1.779  17.708 -0.5748 -0.1115 -0.0765
 1227SOL    HW115317   1.613   1.744  17.737 -0.9266  2.2245  1.6623
 1227SOL    HW215318   1.669   1.864  17.676  2.2710  0.6577 -0.5045
 1228SOL     OW15319   1.272   3.260  16.066  0.0043  0.0154 -0.0223
 1228SOL    HW115320   1.318   3.332  16.108  1.8826 -1.9302  1.2060
 1228SOL    HW215321   1.182   3.292  16.071  0.3041  0.5697  1.6164
 1229SOL     OW15322   0.605   2.100   5.056 -0.5105  0.1079 -0.5331
 1229SOL    HW115323   0.576   2.021   5.011  0.5754 -0.4457 -0.2631
 1229SOL    HW215324   0.558   2.104   5.139 -0.2562  1.7220 -0.4746
 1230SOL     OW15325   3.096   3.933   2.647 -0.0022  0.1440  0.4956
 1230SOL    HW115326   3.162   3.917   2.714 -0.5292  3.2204  1.7534
 1230SOL    HW215327   3.129   3.877   2.576  1.3216  0.8233  0.5658
 1231SOL     OW15328   4.535   1.478   7.882  0.0004  0.0505  0.2854
 1231SOL    HW115329   4.479   1.451   7.809  1.7652 -0.3659 -0.9209
 1231SOL    HW215330   4.589   1.549   7.849  1.2362 -0.2363  1.7022
 1232SOL     OW15331   2.741   1.959   6.569 -0.3531  0.6628 -0.6758
 1232SOL    HW115332   2.810   1.906   6.531 -0.1814 -0.4258  1.1277
 1232SOL    HW215333   2.792   2.036   6.591  2.1812 -1.4627  0.8673
 1233SOL     OW15334   3.735   1.279   5.158 -0.0527 -0.4591 -0.0910
 1233SOL    HW115335   3.755   1.372   5.157  0.4091 -0.5460  0.6868
 1233SOL    HW215336   3.773   1.258   5.073 -1.9183  2.2346 -1.5973
 1234SOL     OW15337   1.668   2.371   6.100  0.1359 -0.0019 -0.7175
 1234SOL    HW115338   1.677   2.358   6.005 -0.8665 -0.4702 -0.7489
 1234SOL    HW215339   1.661   2.466   6.106  1.0952 -0.0444  1.1461
 1235SOL     OW15340   3.778   4.058   9.332  0.3927  0.7553 -0.0117
 1235SOL    HW115341   3.701   4.033   9.385  1.0469 -1.0199  0.1036
 1235SOL    HW215342   3.826   3.975   9.329  0.3026  0.7231 -0.5143
 1236SOL     OW15343   2.313   4.261   5.985  0.0891  0.6085  0.5935
 1236SOL    HW115344   2.396   4.299   5.958 -0.0983 -0.2834 -1.1995
 1236SOL    HW215345   2.294   4.309   6.066  1.2643  0.1163  1.1452
 1237SOL     OW15346   2.418   3.916   8.336  0.4826 -0.5615  0.6756
 1237SOL    HW115347   2.354   3.978   8.302  2.2262  1.0787  0.4056
 1237SOL    HW215348   2.381   3.911   8.424  2.1523  1.0248  1.4799
 1238SOL     OW15349   3.326   3.222  12.579  0.3728 -0.1610 -0.5459
 1238SOL    HW115350   3.303   3.264  12.662  0.8848 -0.4957 -0.2335
 1238SOL    HW215351   3.245   3.175  12.559  0.0927  0.3875 -0.6764
 1239SOL     OW15352   4.535   0.754   8.403 -0.3008  0.2812  0.6482
 1239SOL    HW115353   4.543   0.739   8.498 -1.3445 -0.4482  0.6222
 1239SOL    HW215354   4.456   0.806   8.393 -0.3032  0.3247  0.8781
 1240SOL     OW15355   3.827   4.674   1.767  0.1980  0.8307 -0.2519
 1240SOL    HW115356   3.770   0.010   1.788  1.9307  2.2275 -0.3472
 1240SOL    HW215357   3.796   4.636   1.684  1.5446  1.1171 -0.9046
 1241SOL     OW15358   4.178   1.020   0.921  0.3348 -0.1223 -0.3271
 1241SOL    HW115359   4.211   1.062   0.842  0.9979 -0.0631 -0.0210
 1241SOL    HW215360   4.084   1.012   0.902  0.1879 -0.6089  0.5892
 1242SOL     OW15361   0.624   1.335  10.796 -0.5726 -0.1416 -0.0533
 1242SOL    HW115362   0.648   1.272  10.864 -0.1470  2.1915  1.9463
 1242SOL    HW215363   0.626   1.286  10.713 -0.0200 -1.3615  0.6661
 1243SOL     OW15364   2.513   4.515   5.549 -0.1062  0.3072 -0.1786
 1243SOL    HW115365   2.560   4.457   5.489 -1.9959 -0.3982 -0.9793
 1243SOL    HW215366   2.424   4.508   5.516 -0.4267  0.0826  0.7174
 1244SOL     OW15367   2.779   3.663  11.251  1.2254 -0.2481  0.9989
 1244SOL    HW115368   2.875   3.669  11.260  1.0379  0.1928  2.7167
 1244SOL    HW215369   2.775   3.632  11.160 -1.6636  2.0321  0.3652
 1245SOL     OW15370   0.384   4.120   2.395 -0.0051  0.3071  0.0771
 1245SOL    HW115371   0.353   4.030   2.382  1.8508 -0.7411  2.7301
 1245SOL    HW215372   0.304   4.169   2.415 -0.9961 -1.5341  0.6337
 1246SOL     OW15373   2.589   3.952  17.416  0.2230  0.0813  0.9092
 1246SOL    HW115374   2.497   3.978  17.412  0.0331 -0.3636  2.4730
 1246SOL    HW215375   2.594   3.899  17.337  0.0760  0.2161  0.8082
 1247SOL     OW15376   0.009   2.826  16.124  0.0567  0.0884  0.2256
 1247SOL    HW115377   0.028   2.915  16.153 -0.7038 -0.1439  1.4119
 1247SOL    HW215378   0.094   2.783  16.118 -0.9556 -1.9307  0.0588
 1248SOL     OW15379   2.060   0.337   4.137  0.3728 -0.2258 -0.2708
 1248SOL    HW115380   2.119   0.410   4.158 -0.1930  0.2855 -0.4585
 1248SOL    HW215381   2.043   0.349   4.044 -1.5006 -1.9091 -0.1345
 1249SOL     OW15382   4.407   0.175   5.259  0.4805 -0.2575 -0.3582
 1249SOL    HW115383   4.315   0.187   5.284  0.5471 -1.3725  0.4394
 1249SOL    HW215384   4.456   0.174   5.341 -0.6094  0.7478  0.3082
 1250SOL     OW15385   1.798   3.693   7.606  0.4656  0.1538 -0.2343
 1250SOL    HW115386   1.839   3.612   7.637  0.6796  1.0535  1.8285
 1250SOL    HW215387   1.732   3.661   7.545 -0.7932  1.1610  0.5960
 1251SOL     OW15388   2.810   4.156   6.854  0.0285  0.0625 -0.5031
 1251SOL    HW115389   2.727   4.176   6.898 -0.4369 -1.3851 -0.7101
 1251SOL    HW215390   2.868   4.190   6.921 -2.3665  1.5648  0.8180
 1252SOL     OW15391   0.111   3.972   3.486 -0.3129 -0.1487 -0.1384
 1252SOL    HW115392   0.180   3.939   3.429 -0.1726  0.3049 -0.2356
 1252SOL    HW215393   0.111   3.923   3.568 -0.3110  1.4356  0.8234
 1253SOL     OW15394   1.675   0.240  15.058  0.1844  0.1979  0.4957
 1253SOL    HW115395   1.733   0.261  14.985 -1.5872  2.8341 -0.1591
 1253SOL    HW215396   1.586   0.268  15.034  0.1571  0.3582  0.7912
 1254SOL     OW15397   2.385   4.371   6.660 -0.0599  0.0799  0.0249
 1254SOL    HW115398   2.377   4.311   6.586 -0.1201  0.4373 -0.2613
 1254SOL    HW215399   2.466   4.417   6.637 -0.6628  0.1361 -2.0183
 1255SOL     OW15400   1.559   2.634  10.020 -0.3144 -0.3239 -0.3642
 1255SOL    HW115401   1.570   2.544   9.987  1.3050 -0.1609 -0.2896
 1255SOL    HW215402   1.478   2.630  10.070 -0.1061  0.5950  0.0359
 1256SOL     OW15403   1.320   1.183   6.573  0.6939  0.2789 -0.0366
 1256SOL    HW115404   1.374   1.176   6.651  0.0925  2.3946  0.5681
 1256SOL    HW215405   1.392   1.165   6.513 -0.3259  2.6648 -1.9576
 1257SOL     OW15406   3.522   0.939  13.804  0.5325 -0.5353  0.5144
 1257SOL    HW115407   3.500   1.030  13.826  0.8214  0.3840 -3.0447
 1257SOL    HW215408   3.553   0.908  13.889  1.1846 -2.3392 -0.3758
 1258SOL     OW15409   1.964   0.597   1.712  0.5439 -0.3958 -0.7338
 1258SOL    HW115410   2.022   0.543   1.658  2.0010  1.2659 -0.8496
 1258SOL    HW215411   1.966   0.554   1.797  1.2400 -1.2729 -1.1997
 1259SOL     OW15412   4.481   3.106   5.871  0.8889  0.0064 -0.4298
 1259SOL    HW115413   4.571   3.128   5.850  1.2233  1.6565  2.6671
 1259SOL    HW215414   4.429   3.124   5.793 -0.2241  1.0627  0.5549
 1260SOL     OW15415   4.290   0.146   8.334  0.4700 -0.2666 -0.2988
 1260SOL    HW115416   4.208   0.112   8.298  0.2303 -0.7776  0.7411
 1260SOL    HW215417   4.312   0.208   8.264  1.0264 -1.9942 -1.6713
 1261SOL     OW15418   1.826   1.307  11.252  0.2656 -0.9099  0.2386
 1261SOL    HW115419   1.893   1.266  11.306 -1.6217 -1.3901  2.2392
 1261SOL    HW215420   1.798   1.382  11.304  2.9653 -1.3815  2.3303
 1262SOL     OW15421   1.567   4.200   8.819 -0.3366  0.0947 -0.2494
 1262SOL    HW115422   1.491   4.158   8.858 -0.1900 -0.4968 -0.6004
 1262SOL    HW215423   1.565   4.149   8.738  3.4847  0.4932 -0.6181
 1263SOL     OW15424   4.648   3.404   4.030  0.0388  0.0739  0.6946
 1263SOL    HW115425   4.680   3.484   4.072  1.1310 -0.2917  0.5770
 1263SOL    HW215426   4.592   3.445   3.964  2.2799  0.7728 -0.8031
 1264SOL     OW15427   4.310   4.674  17.100  0.0272 -0.2204  0.3244
 1264SOL    HW115428   4.251   4.601  17.084 -1.5485  1.0662  0.2585
 1264SOL    HW215429   4.263   4.728  17.164  4.3420  0.1769  3.2407
 1265SOL     OW15430   1.386   2.422   2.510  0.1138 -0.0077  0.0356
 1265SOL    HW115431   1.456   2.485   2.492  1.6811 -1.6837  0.2659
 1265SOL    HW215432   1.346   2.414   2.424  0.4052  1.2541 -0.2207
 1266SOL     OW15433   2.930   1.281   6.880  0.6408  0.6093  0.6731
 1266SOL    HW115434   3.009   1.261   6.929  1.4903 -1.7015 -1.6518
 1266SOL    HW215435   2.865   1.230   6.929 -0.6107  0.2102 -1.4089
 1267SOL     OW15436   1.829   3.757   4.198  0.4390  0.0315 -0.0205
 1267SOL    HW115437   1.910   3.713   4.173 -0.3429 -0.8466 -0.9910
 1267SOL    HW215438   1.829   3.708   4.280  2.1080 -0.6587 -0.4448
 1268SOL     OW15439   3.498   4.256  15.713 -0.3540 -0.3793 -0.2657
 1268SOL    HW115440   3.451   4.249  15.796  1.0093  0.0322  0.5528
 1268SOL    HW215441   3.484   4.347  15.688 -1.2406 -0.5277 -0.2887
 1269SOL     OW15442   0.703   3.147  17.437 -0.0353  0.6755 -0.3720
 1269SOL    HW115443   0.785   3.178  17.398  0.8126  1.6951  2.2295
 1269SOL    HW215444   0.739   3.067  17.475 -2.5688 -0.1189  0.3346
 1270SOL     OW15445   4.157   0.216  10.810 -0.4063  0.0866  0.0612
 1270SOL    HW115446   4.149   0.122  10.823  0.4481 -0.0007  0.0001
 1270SOL    HW215447   4.169   0.219  10.715 -2.0374  0.0835 -0.1472
 1271SOL     OW15448   0.426   0.205  15.065 -0.4472 -0.4013 -0.0339
 1271SOL    HW115449   0.364   0.245  15.126 -1.3408  0.1032 -1.2731
 1271SOL    HW215450   0.434   0.117  15.101 -3.7409 -0.9835 -0.6934
 1272SOL     OW15451   3.235   3.316  15.008  0.1524  0.5776  0.2972
 1272SOL    HW115452   3.254   3.222  15.005  0.7499  0.6823  0.6215
 1272SOL    HW215453   3.325   3.349  15.008  1.4311 -2.8429  0.5962
 1273SOL     OW15454   0.491   0.143   6.656  0.2163  0.0425 -0.4009
 1273SOL    HW115455   0.528   0.090   6.726 -0.4645  1.9972  1.4120
 1273SOL    HW215456   0.528   0.106   6.575  3.7776  0.5802  0.9592
 1274SOL     OW15457   3.697   1.038   4.852 -0.0924  0.1209 -0.4333
 1274SOL    HW115458   3.745   1.019   4.933  3.0281  0.6641 -2.1509
 1274SOL    HW215459   3.740   0.980   4.789 -0.9014  1.2879 -2.0540
 1275SOL     OW15460   2.462   0.478   3.009  0.5375  0.0118  0.3194
 1275SOL    HW115461   2.509   0.400   2.980  1.7967  1.3230 -1.1806
 1275SOL    HW215462   2.518   0.528   3.069 -1.6301  1.4792  1.0988
 1276SOL     OW15463   3.479   3.760   8.520  0.4305  0.2385  0.2838
 1276SOL    HW115464   3.419   3.834   8.517  0.7772  0.5064 -0.0956
 1276SOL    HW215465   3.461   3.710   8.600 -1.1358 -0.2267 -0.3679
 1277SOL     OW15466   1.395   2.639   7.288  0.0719 -0.4019 -0.7901
 1277SOL    HW115467   1.382   2.545   7.284 -0.2009 -0.4333  0.7525
 1277SOL    HW215468   1.305   2.668   7.305  0.4928 -0.5764  1.6837
 1278SOL     OW15469   2.388   2.780   2.392 -0.1053 -0.1777  0.5717
 1278SOL    HW115470   2.414   2.872   2.385  1.5462 -0.6350  0.7998
 1278SOL    HW215471   2.422   2.732   2.317  0.4489 -0.7275  1.1729
 1279SOL     OW15472   2.085   2.546   4.688  0.2578 -0.1021  0.0729
 1279SOL    HW115473   2.022   2.489   4.644  0.5676 -1.3657  1.2589
 1279SOL    HW215474   2.166   2.542   4.638 -0.5466  2.1005 -1.3861
 1280SOL     OW15475   1.031   3.137  14.437  0.1064  0.0744 -0.1904
 1280SOL    HW115476   0.937   3.149  14.430 -0.0211 -1.0607 -0.5083
 1280SOL    HW215477   1.050   3.079  14.362  1.2977  0.0416  0.1292
 1281SOL     OW15478   1.722   0.843   2.703  0.2087  0.0149 -0.0436
 1281SOL    HW115479   1.774   0.788   2.645  0.3446  1.0322 -0.8762
 1281SOL    HW215480   1.723   0.805   2.791 -3.2794 -2.3033 -0.9969
 1282SOL     OW15481   2.312   0.004  13.866 -0.1038 -0.5107 -0.1082
 1282SOL    HW115482   2.337   0.065  13.936 -0.9237 -0.4740  0.1530
 1282SOL    HW215483   2.370   0.047  13.803  1.1972 -2.0420  0.0305
 1283SOL     OW15484   3.337   2.881  17.092 -0.1874  0.0360  0.3045
 1283SOL    HW115485   3.360   2.923  17.010  3.4997 -2.2939  0.1401
 1283SOL    HW215486   3.423   2.902  17.129 -0.1019  1.2453 -0.6100
 1284SOL     OW15487   0.688   1.411   8.969 -0.5433 -0.4396  0.3228
 1284SOL    HW115488   0.740   1.453   9.037 -0.0511  0.4953 -0.6238
 1284SOL    HW215489   0.756   1.362   8.923  0.3452 -0.7288  1.9602
 1285SOL     OW15490   1.977   1.301   4.744  1.1204  0.0760 -0.1482
 1285SOL    HW115491   1.952   1.393   4.746 -3.3491 -1.1793  1.0639
 1285SOL    HW215492   1.933   1.266   4.666  1.4794  1.7527 -1.0959
 1286SOL     OW15493   3.904   1.788   7.312  0.1156  0.1993 -0.6545
 1286SOL    HW115494   3.861   1.711   7.349  0.5079  1.2291  1.9645
 1286SOL    HW215495   3.947   1.750   7.236  1.0605  0.8170 -0.4217
 1287SOL     OW15496   0.403   1.252   2.615 -0.1407 -0.2742  0.3825
 1287SOL    HW115497   0.483   1.254   2.667  0.0105  1.9361  0.0477
 1287SOL    HW215498   0.431   1.206   2.536 -1.4016  0.3226 -0.4131
 1288SOL     OW15499   2.742   3.751   7.329  0.2650 -0.4143  0.0180
 1288SOL    HW115500   2.789   3.673   7.357 -0.4573 -1.3449 -1.3477
 1288SOL    HW215501   2.722   3.791   7.414 -2.8297  0.8356 -1.3115
 1289SOL     OW15502   3.761   1.826   2.445 -0.0040 -0.1287 -0.0427
 1289SOL    HW115503   3.704   1.882   2.391  0.1602  0.9525  0.8855
 1289SOL    HW215504   3.829   1.888   2.471  0.7227 -0.9898  0.1034
 1290SOL     OW15505   0.334   1.912   8.570 -0.3210 -0.3686 -0.1999
 1290SOL    HW115506   0.429   1.924   8.576 -0.4989  0.8430  0.2584
 1290SOL    HW215507   0.306   2.002   8.587  0.0075 -0.2838 -0.0909
 1291SOL     OW15508   3.788   1.367  17.507 -0.0179 -0.2720 -0.1826
 1291SOL    HW115509   3.726   1.424  17.463 -1.5527  0.1275  2.4923
 1291SOL    HW215510   3.860   1.426  17.485 -0.5635  0.3449 -0.3087
 1292SOL     OW15511   1.401   2.445  17.276  0.2099  0.4152  0.1570
 1292SOL    HW115512   1.350   2.365  17.283  0.8806 -0.0771 -0.4617
 1292SOL    HW215513   1.361   2.501  17.342  0.2061  1.8995 -1.0996
 1293SOL     OW15514   0.325   2.084   7.728 -0.2867 -0.2172  0.3486
 1293SOL    HW115515   0.284   2.013   7.777 -0.1394 -0.9746 -0.6315
 1293SOL    HW215516   0.252   2.145   7.736  0.2400  0.4264  0.2107
 1294SOL     OW15517   4.376   0.930  14.411 -0.3932  0.1945  0.0337
 1294SOL    HW115518   4.418   1.016  14.405  0.6532 -0.3967 -1.0905
 1294SOL    HW215519   4.301   0.943  14.468 -0.3822 -0.0588  0.1039
 1295SOL     OW15520   3.422   3.872   3.370  0.0222 -0.0340  0.1290
 1295SOL    HW115521   3.476   3.853   3.293 -0.2968 -0.4843  0.0183
 1295SOL    HW215522   3.482   3.941   3.398  1.3189 -1.4138  0.7944
 1296SOL     OW15523   2.661   0.271  11.072 -0.4514 -0.3686  0.1047
 1296SOL    HW115524   2.756   0.263  11.082 -0.0039  3.5460 -1.3106
 1296SOL    HW215525   2.630   0.240  11.157  0.5512  0.0703  0.6284
 1297SOL     OW15526   2.705   3.214  14.917  0.3547 -0.3476  0.0523
 1297SOL    HW115527   2.650   3.238  14.991  0.7749 -2.4545  1.0575
 1297SOL    HW215528   2.754   3.293  14.896  0.7032 -0.7905 -0.8101
 1298SOL     OW15529   0.306   2.438   3.729 -1.0701  0.9499  0.2496
 1298SOL    HW115530   0.384   2.424   3.675 -1.3254  0.8316 -0.0889
 1298SOL    HW215531   0.250   2.371   3.690  0.2892 -0.0059 -0.0376
 1299SOL     OW15532   4.188   4.245   9.575  0.3933 -0.1770  0.8779
 1299SOL    HW115533   4.149   4.330   9.553  0.9488  0.1078  0.9702
 1299SOL    HW215534   4.252   4.275   9.640  0.9442  0.7121 -0.0516
 1300SOL     OW15535   0.419   2.987   6.706 -0.3209  0.1242  0.5883
 1300SOL    HW115536   0.463   3.039   6.773 -0.0943 -0.1475  0.6481
 1300SOL    HW215537   0.364   2.917   6.743  1.3848 -0.9434  1.0699
 1301SOL     OW15538   0.989   1.460   8.383  0.3073  0.2369 -0.1296
 1301SOL    HW115539   1.061   1.446   8.445  0.7867  2.3255 -0.2450
 1301SOL    HW215540   0.912   1.439   8.436  1.7950 -1.3986  1.4209
 1302SOL     OW15541   0.919   0.738  16.904 -0.5269 -0.3051  0.3187
 1302SOL    HW115542   0.856   0.782  16.847 -1.2862  1.7847  2.7294
 1302SOL    HW215543   0.869   0.674  16.955 -0.0847 -1.0099 -0.1496
 1303SOL     OW15544   1.806   0.364   2.064  0.2700 -0.3391  0.4094
 1303SOL    HW115545   1.773   0.298   2.125  0.2017 -2.0367 -1.4783
 1303SOL    HW215546   1.735   0.426   2.083 -0.3454 -1.1434  0.7650
 1304SOL     OW15547   2.979   2.939   6.287  0.5088  0.0178 -1.0094
 1304SOL    HW115548   2.940   3.022   6.261 -1.6989 -0.1410  1.7364
 1304SOL    HW215549   3.032   2.966   6.363  0.1636 -1.7449 -0.1292
 1305SOL     OW15550   3.481   3.722   8.246  0.5679 -0.4003 -0.3007
 1305SOL    HW115551   3.494   3.748   8.337 -1.1750  0.8380 -0.3966
 1305SOL    HW215552   3.404   3.669   8.266 -0.0632 -0.0248 -1.7104
 1306SOL     OW15553   4.022   4.533   6.094 -0.1752 -0.4337  0.0137
 1306SOL    HW115554   4.034   4.614   6.044 -0.2389  1.2989  2.8167
 1306SOL    HW215555   4.019   4.566   6.184  0.8059 -0.8390  0.1970
 1307SOL     OW15556   2.664   4.213  12.465 -0.2151 -0.2037  0.0766
 1307SOL    HW115557   2.687   4.272  12.537 -3.2873  0.7607  0.2359
 1307SOL    HW215558   2.671   4.128  12.509 -0.2758 -0.7533 -0.9673
 1308SOL     OW15559   4.437   3.769  16.395  0.0317 -0.2695 -0.0926
 1308SOL    HW115560   4.392   3.774  16.479 -2.4227 -0.7490 -1.3627
 1308SOL    HW215561   4.468   3.858  16.379  0.8885 -0.6891 -0.7686
 1309SOL     OW15562   4.051   1.378   5.238  0.5392  0.4940  0.6556
 1309SOL    HW115563   4.089   1.328   5.310  0.6560 -0.2558  0.0718
 1309SOL    HW215564   3.995   1.442   5.283 -1.0474 -0.8191  0.5695
 1310SOL     OW15565   3.046   3.702   2.835 -0.0584  0.0523 -0.0164
 1310SOL    HW115566   3.024   3.790   2.865 -2.3964  0.0218 -1.6219
 1310SOL    HW215567   3.053   3.662   2.921  1.8952  0.4525  0.0316
 1311SOL     OW15568   1.128   2.764   7.285 -0.4966  0.4399  0.2226
 1311SOL    HW115569   1.149   2.796   7.198  2.6495 -2.7625 -0.2362
 1311SOL    HW215570   1.095   2.843   7.328  0.3647  0.8528  0.1205
 1312SOL     OW15571   2.132   4.041   7.419  0.1058  0.3351 -0.2030
 1312SOL    HW115572   2.043   4.061   7.451  0.7253  4.4982 -1.0828
 1312SOL    HW215573   2.103   3.985   7.347 -0.0623  0.2108 -0.0400
 1313SOL     OW15574   3.399   2.954   3.249  0.0074  0.2603 -0.2059
 1313SOL    HW115575   3.324   2.894   3.249  0.9622 -0.9281  1.1239
 1313SOL    HW215576   3.477   2.916   3.209 -0.0876 -0.8142  0.6388
 1314SOL     OW15577   1.439   0.302  10.044  0.0489 -0.1947 -0.3075
 1314SOL    HW115578   1.497   0.374  10.069  1.5373 -0.9356 -1.6657
 1314SOL    HW215579   1.416   0.332   9.956  0.0889 -0.0822 -0.2797
 1315SOL     OW15580   4.189   1.016  17.278 -0.6595  0.2899 -0.5474
 1315SOL    HW115581   4.208   1.109  17.294 -1.0657  0.3967 -0.6915
 1315SOL    HW215582   4.238   0.997  17.198 -1.5824  0.1190 -1.0758
 1316SOL     OW15583   2.589   1.335  17.615  0.1526  0.1309 -0.1407
 1316SOL    HW115584   2.568   1.284  17.537 -3.6538 -0.1124  1.0675
 1316SOL    HW215585   2.683   1.340  17.600  0.3195 -1.5344  0.4043
 1317SOL     OW15586   1.350   2.342   4.781  0.3516  0.6893  0.6134
 1317SOL    HW115587   1.363   2.419   4.726 -0.3857  1.7737  1.9651
 1317SOL    HW215588   1.259   2.350   4.810 -0.4876  2.6904 -2.5274
 1318SOL     OW15589   0.539   2.441   4.446 -0.0938  0.6319  0.2077
 1318SOL    HW115590   0.594   2.416   4.371  1.4903  0.0407  1.5870
 1318SOL    HW215591   0.567   2.371   4.504 -1.5890 -2.2109 -2.4755
 1319SOL     OW15592   4.367   2.947  17.344 -0.4484 -0.6505  0.5083
 1319SOL    HW115593   4.380   2.876  17.281  0.3854  0.5871 -0.7088
 1319SOL    HW215594   4.455   2.974  17.371 -1.4288 -0.1201  3.2002
 1320SOL     OW15595   0.419   0.449  16.133 -0.2274  0.0468  0.1816
 1320SOL    HW115596   0.387   0.383  16.071 -3.1445  1.5331  0.0828
 1320SOL    HW215597   0.338   0.476  16.175  0.6432  0.0340  1.8527
 1321SOL     OW15598   4.574   3.985  11.801 -0.0251  0.6896  0.7697
 1321SOL    HW115599   4.609   3.952  11.884 -2.1776 -1.3655  0.8388
 1321SOL    HW215600   4.504   3.923  11.783 -0.4532  1.5562 -0.5916
 1322SOL     OW15601   3.110   0.745  13.112  0.5003  0.3849 -0.2711
 1322SOL    HW115602   3.166   0.771  13.185  0.3638 -0.0175 -0.0266
 1322SOL    HW215603   3.135   0.654  13.100  0.4871  0.2840  0.4859
 1323SOL     OW15604   0.800   2.682   3.959 -0.6079  0.3504 -0.0645
 1323SOL    HW115605   0.774   2.648   4.044 -0.3574 -1.1095 -0.5719
 1323SOL    HW215606   0.770   2.772   3.972 -0.2210  0.4409  0.1888
 1324SOL     OW15607   0.760   1.386   6.669  0.3384  0.2520 -0.0354
 1324SOL    HW115608   0.782   1.355   6.757  1.9785 -2.3344 -1.3580
 1324SOL    HW215609   0.732   1.476   6.683  0.9783  0.3587  0.5201
 1325SOL     OW15610   3.950   4.579  15.418  0.0092 -0.8440  0.1139
 1325SOL    HW115611   3.943   4.491  15.379  0.9042  0.1035 -2.2131
 1325SOL    HW215612   3.928   4.635  15.343 -0.5752  0.4624  1.2732
 1326SOL     OW15613   0.279   3.390   0.364 -0.1453  0.3923 -0.0680
 1326SOL    HW115614   0.287   3.357   0.453 -0.0369 -0.1755 -0.2872
 1326SOL    HW215615   0.316   3.478   0.367  1.4151 -0.2702  0.0079
 1327SOL     OW15616   1.970   3.493   1.641 -0.6396 -0.2110  0.1217
 1327SOL    HW115617   1.993   3.576   1.682  0.7305  0.4655 -2.0306
 1327SOL    HW215618   2.050   3.440   1.649  0.4235  1.6538  1.8895
 1328SOL     OW15619   0.011   2.226   8.126 -0.5511 -0.7598 -0.8360
 1328SOL    HW115620   0.083   2.255   8.180 -0.3382 -1.8669 -0.5273
 1328SOL    HW215621   4.672   2.273   8.160 -0.5273  0.6058 -2.6530
 1329SOL     OW15622   0.667   0.748  14.768 -0.8420 -0.5666 -0.0376
 1329SOL    HW115623   0.679   0.772  14.677 -2.7872 -0.5748 -0.2833
 1329SOL    HW215624   0.663   0.831  14.815 -2.3099 -1.0398  0.7000
 1330SOL     OW15625   1.250   1.687   9.959  0.0382 -0.8655 -0.6615
 1330SOL    HW115626   1.224   1.769   9.917  0.1423 -0.9575 -0.9061
 1330SOL    HW215627   1.334   1.723   9.990  0.5630 -1.7826 -1.0123
 1331SOL     OW15628   0.553   4.651   4.019 -0.0788  0.2352 -0.0198
 1331SOL    HW115629   0.523   4.730   3.973 -0.1234  1.4798  2.1592
 1331SOL    HW215630   0.647   4.666   4.032 -0.5171  0.7341  2.5485
 1332SOL     OW15631   0.003   0.691   3.432  0.5333 -0.1560  0.6009
 1332SOL    HW115632   0.072   0.625   3.421  1.5845  1.1423 -0.4965
 1332SOL    HW215633   4.682   0.632   3.481  0.7283  0.4502  1.5630
 1333SOL     OW15634   0.603   1.964   8.013  0.5266 -0.4779 -0.5660
 1333SOL    HW115635   0.660   2.023   8.062  0.7098 -0.0079 -1.3445
 1333SOL    HW215636   0.589   1.896   8.080  1.9723 -1.1409 -0.9488
 1334SOL     OW15637   4.075   0.664  12.663  0.3714 -0.2076  0.1338
 1334SOL    HW115638   4.019   0.742  12.668  1.0011  0.2680 -0.3976
 1334SOL    HW215639   4.022   0.606  12.608  1.0595 -0.2930 -0.4371
 1335SOL     OW15640   1.215   1.419   9.884 -0.0231 -0.2445 -0.2959
 1335SOL    HW115641   1.183   1.380   9.965  2.3869 -0.6300  0.4759
 1335SOL    HW215642   1.234   1.507   9.915 -1.8321  0.6550 -1.7465
 1336SOL     OW15643   3.467   1.116   2.748 -0.2868 -0.0213  0.0759
 1336SOL    HW115644   3.547   1.156   2.714  0.7303 -1.0820  1.2380
 1336SOL    HW215645   3.488   1.147   2.836  2.8308  0.3307 -0.7900
 1337SOL     OW15646   1.664   3.864   9.833 -0.3793 -0.2745  0.4336
 1337SOL    HW115647   1.750   3.839   9.869  0.5428  1.1580 -0.7905
 1337SOL    HW215648   1.630   3.909   9.910 -0.6324 -1.3463  0.9555
 1338SOL     OW15649   4.041   2.309   6.963  0.0440  0.3064 -0.1332
 1338SOL    HW115650   4.116   2.283   6.910 -0.8660  1.0721 -1.8310
 1338SOL    HW215651   4.027   2.234   7.020 -0.0290  1.0685  0.8400
 1339SOL     OW15652   0.373   3.768  14.701 -0.2460 -0.1964  0.0018
 1339SOL    HW115653   0.364   3.693  14.641 -0.3883 -1.1151  1.1762
 1339SOL    HW215654   0.437   3.824  14.657  2.0831 -2.8135  0.1117
 1340SOL     OW15655   1.435   3.959   4.864 -0.1035 -0.5977  0.4230
 1340SOL    HW115656   1.436   4.051   4.890  0.7932 -0.2066 -0.9918
 1340SOL    HW215657   1.354   3.949   4.813 -0.6658  0.1284  1.1818
 1341SOL     OW15658   1.347   4.256   4.062  0.2225  0.2564 -0.1208
 1341SOL    HW115659   1.258   4.281   4.037 -0.4328 -1.2870  0.7213
 1341SOL    HW215660   1.400   4.293   3.990  1.8493 -1.6504  0.0923
 1342SOL     OW15661   3.078   0.849   6.488  0.3792  0.3351 -0.3924
 1342SOL    HW115662   3.096   0.858   6.582  1.1963 -0.4491 -0.4774
 1342SOL    HW215663   3.094   0.936   6.453  0.6557  0.0830 -0.8966
 1343SOL     OW15664   2.054   0.781   0.203 -0.4803  0.3147 -0.1952
 1343SOL    HW115665   2.053   0.875   0.188 -2.3033  0.0794 -1.4742
 1343SOL    HW215666   2.074   0.778   0.297 -0.6385 -0.2564 -0.1790
 1344SOL     OW15667   3.608   3.004  13.860  0.6304  0.0633  0.1884
 1344SOL    HW115668   3.645   2.929  13.815  1.9988  2.1510 -2.1614
 1344SOL    HW215669   3.644   2.998  13.949  0.5595 -0.1348  0.2022
 1345SOL     OW15670   3.081   0.329  10.089 -0.3429 -0.4154  0.2868
 1345SOL    HW115671   3.053   0.317  10.180  0.7444 -0.1738  0.6514
 1345SOL    HW215672   2.998   0.344  10.044  0.4440 -2.4361 -1.8371
 1346SOL     OW15673   0.715   4.125   3.421  0.2362 -0.1481 -0.6398
 1346SOL    HW115674   0.765   4.112   3.502  1.9244  1.6725 -1.4233
 1346SOL    HW215675   0.725   4.040   3.378 -1.0304 -1.6144  1.9086
 1347SOL     OW15676   2.277   2.321   7.995 -0.1715 -0.1974  0.1064
 1347SOL    HW115677   2.193   2.340   7.953  0.5449  2.4939 -0.1028
 1347SOL    HW215678   2.327   2.294   7.918  0.0529 -0.8080  0.4709
 1348SOL     OW15679   2.543   3.103  14.491 -0.9346 -0.8381 -0.2340
 1348SOL    HW115680   2.565   3.130  14.580 -1.2055  1.2645 -0.8026
 1348SOL    HW215681   2.457   3.069  14.513 -1.1432 -0.1442  0.0147
 1349SOL     OW15682   2.341   3.920  10.896  0.3288 -0.2625 -0.2666
 1349SOL    HW115683   2.391   3.989  10.939 -0.7712  0.8257 -0.7242
 1349SOL    HW215684   2.315   3.954  10.810  0.7693 -1.6573 -0.9535
 1350SOL     OW15685   1.133   1.363   6.799 -0.3906 -0.8496 -0.0293
 1350SOL    HW115686   1.132   1.300   6.871 -0.5099  1.6704  2.1671
 1350SOL    HW215687   1.109   1.308   6.724  1.3979 -1.0358 -0.4664
 1351SOL     OW15688   2.440   2.579  12.703 -0.3357  0.1148  0.7974
 1351SOL    HW115689   2.478   2.499  12.665 -1.2258  0.8554 -1.6301
 1351SOL    HW215690   2.496   2.583  12.781 -0.3831  0.4104  0.8143
 1352SOL     OW15691   0.610   3.682  15.296 -0.1958 -0.6407 -0.2772
 1352SOL    HW115692   0.702   3.708  15.291 -0.3811 -0.2357 -1.6144
 1352SOL    HW215693   0.621   3.590  15.319  0.7931  0.0618  2.0677
 1353SOL     OW15694   4.443   2.974  11.928 -0.2010  0.4196  0.0179
 1353SOL    HW115695   4.398   2.990  11.844  1.7330 -1.1920 -1.3091
 1353SOL    HW215696   4.506   3.045  11.940 -0.8978  1.1934 -0.8731
 1354SOL     OW15697   3.332   3.824   6.675  0.5191  0.0206 -0.2677
 1354SOL    HW115698   3.343   3.817   6.770  1.1444  1.0037 -0.2608
 1354SOL    HW215699   3.419   3.839   6.639  0.4964  0.4071 -0.1644
 1355SOL     OW15700   2.637   0.546   4.942  0.1142  0.0497 -0.0569
 1355SOL    HW115701   2.703   0.614   4.956  0.2317  0.3241 -1.9453
 1355SOL    HW215702   2.695   0.474   4.917 -3.1315 -2.1963 -1.2364
 1356SOL     OW15703   2.025   2.192   2.286  0.1289 -0.2444  0.4771
 1356SOL    HW115704   1.938   2.228   2.303  0.5204  1.8407 -1.8813
 1356SOL    HW215705   2.065   2.203   2.372  0.4192 -0.4178  0.3642
 1357SOL     OW15706   3.705   4.132  13.326  0.1329 -0.2352 -0.2375
 1357SOL    HW115707   3.623   4.099  13.361 -0.0982 -1.7633 -2.2590
 1357SOL    HW215708   3.727   4.202  13.388  0.0441 -0.3909 -0.0312
 1358SOL     OW15709   2.434   1.761   2.804  0.2936 -0.0604  0.0947
 1358SOL    HW115710   2.381   1.840   2.804  1.3379  0.6286 -0.5711
 1358SOL    HW215711   2.513   1.802   2.838  0.5631  0.4454 -1.1728
 1359SOL     OW15712   1.681   3.786   9.178 -0.4573 -0.3591 -0.2361
 1359SOL    HW115713   1.750   3.741   9.129 -0.0587 -1.8520  1.7084
 1359SOL    HW215714   1.597   3.746   9.155 -0.2629  0.6201 -2.6638
 1360SOL     OW15715   0.104   3.849   5.821 -0.3621 -0.3603  0.2089
 1360SOL    HW115716   0.049   3.912   5.867  0.3294  1.9600 -2.1804
 1360SOL    HW215717   0.185   3.897   5.804 -0.7982  0.0657 -0.6656
 1361SOL     OW15718   2.864   4.026   4.015  0.2544  0.0845 -0.3993
 1361SOL    HW115719   2.905   4.012   4.101 -1.0484 -1.8509 -0.1084
 1361SOL    HW215720   2.863   3.935   3.987  0.7028  0.9884 -3.2889
 1362SOL     OW15721   2.454   4.513   8.471 -0.0919  0.4091 -0.8674
 1362SOL    HW115722   2.449   4.563   8.389  0.0906  0.1433 -1.0416
 1362SOL    HW215723   2.497   4.435   8.437  0.4102  0.0903  0.4991
 1363SOL     OW15724   3.257   1.045   8.275 -0.2268 -0.1678  0.1900
 1363SOL    HW115725   3.280   1.031   8.183  1.9678  1.0172  0.5425
 1363SOL    HW215726   3.302   0.969   8.312  2.4956  1.1176 -0.4439
 1364SOL     OW15727   4.289   1.037   7.339 -0.5207 -0.6155 -0.0803
 1364SOL    HW115728   4.286   0.977   7.414  0.8798  0.0059  0.4918
 1364SOL    HW215729   4.205   1.082   7.346 -1.0779 -1.1119 -3.8171
 1365SOL     OW15730   1.265   3.280   0.009 -0.3596 -0.0248  0.5210
 1365SOL    HW115731   1.282   3.324   0.092  0.4883 -0.2560  0.4656
 1365SOL    HW215732   1.312   3.199   0.028  1.6338  1.3501  1.4167
 1366SOL     OW15733   3.404   3.738  17.559  0.3564 -0.4902  0.5941
 1366SOL    HW115734   3.393   3.784  17.642  1.5591  1.0619 -0.1062
 1366SOL    HW215735   3.333   3.674  17.566 -2.1045  2.0545 -0.9261
 1367SOL     OW15736   2.991   1.996   6.838 -0.2234 -0.1085 -0.0359
 1367SOL    HW115737   2.978   2.081   6.878 -0.2413 -0.1522  0.0506
 1367SOL    HW215738   3.084   1.978   6.849  0.2114  1.9415 -0.4045
 1368SOL     OW15739   0.993   4.223   2.579 -0.2057  0.2187 -0.6323
 1368SOL    HW115740   0.951   4.210   2.495 -1.7049 -1.4794  0.3845
 1368SOL    HW215741   0.933   4.181   2.640  1.9039  1.7521  2.5571
 1369SOL     OW15742   0.407   1.576   2.047  0.0632 -0.4478 -0.0705
 1369SOL    HW115743   0.313   1.583   2.028  0.0545 -0.6000 -0.0819
 1369SOL    HW215744   0.399   1.594   2.141  0.4743 -1.4717  0.1612
 1370SOL     OW15745   0.015   2.600   5.729 -0.1235  0.3581 -0.1013
 1370SOL    HW115746   0.066   2.588   5.809  1.4027  0.5311 -1.0697
 1370SOL    HW215747   4.663   2.609   5.764  1.1578  1.2702  2.8974
 1371SOL     OW15748   1.003   4.437   9.261 -0.1445  0.3276  0.0214
 1371SOL    HW115749   1.060   4.401   9.329 -1.9777 -0.0258  1.3811
 1371SOL    HW215750   1.065   4.495   9.216  0.8312  0.6923  1.8452
 1372SOL     OW15751   3.854   1.378  15.679  0.4480 -0.1290  0.1942
 1372SOL    HW115752   3.782   1.345  15.626 -0.2779  0.5783  0.7392
 1372SOL    HW215753   3.816   1.465  15.693  0.8124  0.3161 -1.6466
 1373SOL     OW15754   1.514   2.960   3.582  0.1054 -0.6629  1.0854
 1373SOL    HW115755   1.493   2.867   3.585  0.4969 -0.7932 -0.2213
 1373SOL    HW215756   1.459   2.981   3.507  2.0528 -0.8995 -0.4316
 1374SOL     OW15757   4.724   4.004  11.161  0.0961 -0.0924 -0.0358
 1374SOL    HW115758   4.734   4.021  11.067 -1.2720  0.3002 -0.1023
 1374SOL    HW215759   0.073   3.985  11.199  0.2550  1.6503  0.4570
 1375SOL     OW15760   4.034   2.873   8.198 -0.2214 -0.4024  0.5949
 1375SOL    HW115761   4.055   2.907   8.111 -0.2983  0.2872  0.8449
 1375SOL    HW215762   4.115   2.871   8.250  0.2029  1.5717 -0.0111
 1376SOL     OW15763   3.562   2.903   8.701  0.0158  0.2661 -0.3974
 1376SOL    HW115764   3.624   2.865   8.763 -0.2916  1.0173  0.3845
 1376SOL    HW215765   3.514   2.947   8.772  2.0325  0.4083  0.8801
 1377SOL     OW15766   1.425   2.719  10.257 -0.9176 -0.2167  0.3412
 1377SOL    HW115767   1.469   2.699  10.340 -4.2460 -1.2704  1.8395
 1377SOL    HW215768   1.382   2.804  10.267 -1.2980 -0.5826  1.7641
 1378SOL     OW15769   0.291   2.113   6.928 -0.1314  0.1665  0.1482
 1378SOL    HW115770   0.267   2.192   6.976 -0.3110 -1.3284  2.5141
 1378SOL    HW215771   0.365   2.156   6.884  0.8189 -0.8903  0.7070
 1379SOL     OW15772   3.125   4.567  15.629  0.0866 -0.0531 -0.0788
 1379SOL    HW115773   3.157   4.618  15.555  0.6715 -3.3865 -2.1496
 1379SOL    HW215774   3.120   4.480  15.588 -1.7330 -0.9903  2.0968
 1380SOL     OW15775   1.241   1.682   9.289 -0.2375  0.3088  0.5923
 1380SOL    HW115776   1.310   1.718   9.346 -1.3705  2.3159  0.7302
 1380SOL    HW215777   1.177   1.689   9.360 -1.0499  0.2398 -0.1378
 1381SOL     OW15778   0.734   3.902   3.253  0.3608  0.1689  0.1615
 1381SOL    HW115779   0.802   3.835   3.263  0.7680  0.1538 -2.6355
 1381SOL    HW215780   0.781   3.952   3.187  0.1064 -0.5528 -0.5753
 1382SOL     OW15781   0.702   4.224   8.945  0.4674  0.3978 -0.1969
 1382SOL    HW115782   0.752   4.282   9.003 -0.6919  1.1680  0.0357
 1382SOL    HW215783   0.723   4.254   8.856  2.5872  1.8476  0.7654
 1383SOL     OW15784   0.699   2.282   4.594  0.7073  0.0459  0.1010
 1383SOL    HW115785   0.743   2.197   4.589 -1.6673 -1.1804 -0.0486
 1383SOL    HW215786   0.676   2.279   4.687  0.6573  0.2163  0.0937
 1384SOL     OW15787   2.375   3.844   6.481 -0.0643 -0.2422 -0.4847
 1384SOL    HW115788   2.362   3.797   6.563  0.5422  0.0378 -0.2306
 1384SOL    HW215789   2.284   3.850   6.451 -0.4885 -0.2611  0.8255
 1385SOL     OW15790   3.274   3.484   6.373  0.4117 -0.1715 -0.1175
 1385SOL    HW115791   3.198   3.509   6.425  1.3424  0.3238  1.0013
 1385SOL    HW215792   3.340   3.521   6.430  0.3972  0.1549 -0.3125
 1386SOL     OW15793   1.943   0.982  11.685 -0.4843 -1.1158  0.3084
 1386SOL    HW115794   1.900   1.029  11.613  0.7932 -0.4570 -0.0263
 1386SOL    HW215795   1.881   1.002  11.756  0.1548 -1.9807  1.1129
 1387SOL     OW15796   3.192   4.501   5.742 -0.3153 -0.2294  0.2007
 1387SOL    HW115797   3.235   4.581   5.772 -0.3398  0.1370 -0.7506
 1387SOL    HW215798   3.264   4.445   5.773 -0.4951  0.0605  1.1455
 1388SOL     OW15799   1.046   0.833  11.874  0.2408  0.1480  0.3602
 1388SOL    HW115800   0.995   0.913  11.885 -0.1746 -0.1132  0.3356
 1388SOL    HW215801   1.126   0.857  11.922  1.1192  0.4557 -1.2808
 1389SOL     OW15802   1.239   0.942   6.896  0.3756  0.3792 -0.4340
 1389SOL    HW115803   1.255   0.871   6.834  1.7249 -0.0277  0.3775
 1389SOL    HW215804   1.290   0.921   6.974 -0.1719  0.4942 -0.0416
 1390SOL     OW15805   0.445   3.114  17.427  0.5232  0.1052  0.0523
 1390SOL    HW115806   0.408   3.153  17.507  0.2306 -1.2881  0.5948
 1390SOL    HW215807   0.537   3.135  17.438  0.7251 -1.0289  0.4614
 1391SOL     OW15808   3.695   4.079   3.561  0.0331  0.0445 -0.1514
 1391SOL    HW115809   3.628   4.123   3.509 -0.7990 -0.0843  0.7999
 1391SOL    HW215810   3.654   3.993   3.572  0.8227 -0.1835  1.0114
 1392SOL     OW15811   0.090   2.118  12.205  0.3847  0.1064 -0.3866
 1392SOL    HW115812   0.058   2.200  12.167  1.4456  0.7859  0.1668
 1392SOL    HW215813   0.048   2.111  12.291 -0.5999  1.2184 -0.7669
 1393SOL     OW15814   1.581   1.979  17.447  0.4060  0.3967  0.0805
 1393SOL    HW115815   1.570   2.011  17.537  0.2264  1.0470 -0.1682
 1393SOL    HW215816   1.611   2.056  17.398  0.1864 -0.1908 -0.9777
 1394SOL     OW15817   0.238   2.512  16.116 -0.0875  0.4978 -0.0430
 1394SOL    HW115818   0.290   2.436  16.090 -0.9996 -0.2853  0.4152
 1394SOL    HW215819   0.148   2.479  16.109  0.8343 -2.0932  0.4043
 1395SOL     OW15820   1.044   3.745   5.819  0.5072  0.4199 -0.5471
 1395SOL    HW115821   1.032   3.838   5.837  0.5408  0.5437 -1.1738
 1395SOL    HW215822   1.083   3.739   5.731  1.8881 -2.8257  0.2845
 1396SOL     OW15823   1.017   2.319  16.645  0.5386 -0.2613  0.1120
 1396SOL    HW115824   0.927   2.345  16.626  0.2939  0.5226  2.3349
 1396SOL    HW215825   1.073   2.396  16.632 -0.6941  0.6295  0.0530
 1397SOL     OW15826   1.551   2.914   7.598 -0.5304 -0.1023  0.0020
 1397SOL    HW115827   1.472   2.968   7.603 -1.1438 -1.0856  0.9091
 1397SOL    HW215828   1.566   2.902   7.692  0.1670 -3.3380 -0.5241
 1398SOL     OW15829   1.761   3.535   3.151  0.5791 -0.1273 -0.3949
 1398SOL    HW115830   1.809   3.549   3.070  1.1597 -1.7920 -0.3438
 1398SOL    HW215831   1.677   3.579   3.136  0.5709 -0.4319 -1.2554
 1399SOL     OW15832   4.428   2.616   4.218 -0.0163 -1.0172  1.1923
 1399SOL    HW115833   4.409   2.527   4.247  0.2324 -2.2541 -2.4834
 1399SOL    HW215834   4.344   2.645   4.183  1.7855  4.0353  1.1227
 1400SOL     OW15835   1.601   2.907   7.117  0.1942 -0.2289  0.5724
 1400SOL    HW115836   1.622   2.814   7.122  0.5031 -0.2677 -1.1928
 1400SOL    HW215837   1.516   2.915   7.160 -0.0589 -2.6494  0.5246
 1401SOL     OW15838   3.732   0.578   7.743 -0.3732  0.2988  0.2244
 1401SOL    HW115839   3.809   0.557   7.690 -0.6499 -0.5362  0.1600
 1401SOL    HW215840   3.731   0.500   7.798  1.3199  0.9076  1.0903
 1402SOL     OW15841   2.628   3.897   7.569  0.6732  0.1417  0.2676
 1402SOL    HW115842   2.640   3.870   7.660 -0.8672 -0.2393  0.3588
 1402SOL    HW215843   2.534   3.916   7.567  0.8394  0.8667 -1.2880
 1403SOL     OW15844   4.449   4.397   5.249 -0.0924 -0.0901  0.7498
 1403SOL    HW115845   4.419   4.448   5.174 -2.3006 -1.8821  0.3937
 1403SOL    HW215846   4.505   4.460   5.294  1.0947  0.3616 -1.3362
 1404SOL     OW15847   0.812   0.642  11.077  0.0338  0.0409  0.4798
 1404SOL    HW115848   0.868   0.595  11.139  0.0530 -1.0987 -0.4047
 1404SOL    HW215849   0.726   0.616  11.111 -0.2687  0.8939  0.3599
 1405SOL     OW15850   2.219   4.078   5.781 -0.3371 -0.3998  0.1320
 1405SOL    HW115851   2.177   4.019   5.844 -1.2891 -0.1250 -0.2593
 1405SOL    HW215852   2.226   4.157   5.834  0.5653  0.6604 -1.5752
 1406SOL     OW15853   3.594   3.066   4.696  0.7653  0.3308  0.4034
 1406SOL    HW115854   3.518   3.115   4.665  1.0929 -0.6534 -1.9694
 1406SOL    HW215855   3.551   2.989   4.733 -1.2210  0.6067 -1.3230
 1407SOL     OW15856   2.049   2.888   7.716  0.0350  0.4343 -0.7828
 1407SOL    HW115857   2.055   2.983   7.724  2.1030  0.2436 -0.0212
 1407SOL    HW215858   2.019   2.865   7.804  3.6847 -0.1162  0.3210
 1408SOL     OW15859   0.484   3.070   8.978  0.6548  0.8159  0.0340
 1408SOL    HW115860   0.476   3.020   8.896  0.0122 -0.2971  0.7729
 1408SOL    HW215861   0.440   3.010   9.038  2.0758 -0.6390 -0.3763
 1409SOL     OW15862   0.106   0.881   5.459 -0.3871 -0.1487  0.2338
 1409SOL    HW115863   0.014   0.897   5.476  0.1458  2.9855  0.1895
 1409SOL    HW215864   0.121   0.929   5.377  2.6987 -1.3639  0.0521
 1410SOL     OW15865   3.045   1.261   4.957 -0.9099  0.1543  0.0052
 1410SOL    HW115866   3.017   1.258   4.865  1.4666  1.9758 -0.7719
 1410SOL    HW215867   3.051   1.169   4.980  0.4378  0.9988  2.9365
 1411SOL     OW15868   3.414   4.046   5.744  0.2996 -0.5617  0.4790
 1411SOL    HW115869   3.424   3.961   5.701 -1.0261 -1.1995  1.4358
 1411SOL    HW215870   3.327   4.027   5.777  0.5290 -1.7534  0.3921
 1412SOL     OW15871   2.319   1.787   1.810  0.0288  0.4524  0.5030
 1412SOL    HW115872   2.411   1.811   1.818  0.3179  0.1901 -1.8156
 1412SOL    HW215873   2.308   1.759   1.719 -1.0107  2.0901  0.1159
 1413SOL     OW15874   1.794   2.106  10.014 -0.6535  0.6088  0.2599
 1413SOL    HW115875   1.877   2.101   9.966 -0.8917  1.8040 -0.2501
 1413SOL    HW215876   1.731   2.044   9.977 -0.0004  0.4323 -0.5539
 1414SOL     OW15877   0.454   4.545   2.789 -0.3033  0.5563 -0.1832
 1414SOL    HW115878   0.502   4.620   2.824 -0.3759  0.0766  0.9152
 1414SOL    HW215879   0.485   4.540   2.698 -0.3904 -0.0351 -0.1828
 1415SOL     OW15880   2.217   1.412   8.755  0.5612  0.2942  0.1578
 1415SOL    HW115881   2.127   1.379   8.758 -0.2407  2.4517 -0.1335
 1415SOL    HW215882   2.215   1.469   8.831  0.3559  0.4965 -0.0030
 1416SOL     OW15883   4.133   3.151   3.780  0.5790 -0.1668  0.4592
 1416SOL    HW115884   4.163   3.238   3.756 -1.9602  0.1649 -1.5176
 1416SOL    HW215885   4.183   3.085   3.731  0.3278 -0.2848  0.3596
 1417SOL     OW15886   2.916   0.885   1.456 -0.1325 -0.5509  0.4345
 1417SOL    HW115887   2.832   0.841   1.471  1.3671 -2.6968  2.4990
 1417SOL    HW215888   2.969   0.858   1.531 -1.2093 -0.1377  1.3468
 1418SOL     OW15889   0.805   4.660   9.412  0.4530 -0.1279  0.1628
 1418SOL    HW115890   0.713   4.666   9.388  0.7924 -0.9583 -1.3345
 1418SOL    HW215891   0.803   4.584   9.470  3.5444 -1.4890 -1.4751
 1419SOL     OW15892   0.996   2.652  12.668  0.4319  0.3382 -0.8376
 1419SOL    HW115893   1.068   2.676  12.725 -0.8389  1.2555  0.3808
 1419SOL    HW215894   0.920   2.683  12.718  0.1851 -1.7777  0.1088
 1420SOL     OW15895   2.392   0.383   4.018  0.4199  0.3907  0.2168
 1420SOL    HW115896   2.324   0.317   4.005  1.9591 -1.3752  1.1199
 1420SOL    HW215897   2.365   0.453   3.959 -1.7670 -1.6538 -1.1996
 1421SOL     OW15898   4.116   3.786   7.068 -0.1918  0.6812 -0.3125
 1421SOL    HW115899   4.199   3.815   7.106 -0.2807 -0.1260  0.4960
 1421SOL    HW215900   4.092   3.865   7.019 -1.3136  0.2935 -0.3922
 1422SOL     OW15901   4.003   2.633   1.653 -0.3173  0.4824 -0.0849
 1422SOL    HW115902   4.044   2.551   1.682  2.0559  1.5305 -0.4816
 1422SOL    HW215903   4.050   2.696   1.708  1.8050  0.9850 -2.4490
 1423SOL     OW15904   1.228   4.711  12.099  0.0141  0.5691  0.1302
 1423SOL    HW115905   1.293   4.716  12.028 -1.0847 -0.8560 -0.9668
 1423SOL    HW215906   1.147   0.016  12.070  0.9117  0.3615 -2.6961
 1424SOL     OW15907   0.470   2.027  17.360 -0.1456  0.1531  0.2371
 1424SOL    HW115908   0.545   1.993  17.312 -2.1322 -0.9502 -2.1011
 1424SOL    HW215909   0.444   2.108  17.318  1.2497 -0.1094 -1.1135
 1425SOL     OW15910   3.884   4.497   1.995  0.0778 -0.4397  0.4830
 1425SOL    HW115911   3.820   4.493   2.066  1.1630  0.3810  1.5041
 1425SOL    HW215912   3.833   4.550   1.933 -0.1145  1.3983  2.2260
 1426SOL     OW15913   3.516   1.210   9.057  0.0764 -1.1595  0.4080
 1426SOL    HW115914   3.457   1.180   9.127  0.5109 -0.1569  1.2214
 1426SOL    HW215915   3.494   1.303   9.054  1.6278 -0.7895  0.6374
 1427SOL     OW15916   0.096   0.931  16.782  0.0342 -0.7558  0.3344
 1427SOL    HW115917   0.047   0.999  16.736  2.8450  1.5451  0.7125
 1427SOL    HW215918   0.066   0.860  16.725  0.9913  1.2404 -2.6638
 1428SOL     OW15919   0.472   1.982   2.265 -0.1385 -0.4897  0.2452
 1428SOL    HW115920   0.537   1.915   2.245  1.1014  0.7495  0.0962
 1428SOL    HW215921   0.501   2.063   2.222 -1.3380 -1.0390 -1.5622
 1429SOL     OW15922   3.089   1.863   7.921  0.0167  0.1254 -0.3444
 1429SOL    HW115923   2.998   1.881   7.945 -0.3625  0.6046 -2.1543
 1429SOL    HW215924   3.074   1.776   7.884 -0.1783 -0.9058  2.1487
 1430SOL     OW15925   3.331   3.368   5.270  0.4962  0.2440 -0.4619
 1430SOL    HW115926   3.260   3.432   5.264 -0.4521 -1.0076 -2.7421
 1430SOL    HW215927   3.373   3.383   5.185  1.0507  1.1933 -0.0203
 1431SOL     OW15928   2.967   0.977   0.667  0.2399  0.0560 -0.3207
 1431SOL    HW115929   3.050   0.979   0.716  0.2710 -0.0241 -0.3706
 1431SOL    HW215930   2.975   1.050   0.606  2.0047 -1.3044 -1.7035
 1432SOL     OW15931   2.041   1.594  11.250  0.4896 -0.4408  0.1247
 1432SOL    HW115932   2.137   1.597  11.257  0.5040 -2.0683  0.7251
 1432SOL    HW215933   2.020   1.605  11.342  1.3664  0.8976  0.1564
 1433SOL     OW15934   0.512   4.119   2.638 -0.3428  0.7278  0.2196
 1433SOL    HW115935   0.466   4.116   2.554 -1.9497  1.0742  1.0914
 1433SOL    HW215936   0.464   4.181   2.693 -1.1819  0.2181  0.0635
 1434SOL     OW15937   1.845   1.183  17.187  0.1898  0.4923  0.2812
 1434SOL    HW115938   1.875   1.130  17.262 -1.0447  1.0288  1.1623
 1434SOL    HW215939   1.866   1.271  17.217  1.8283 -0.1082  0.8886
 1435SOL     OW15940   2.220   0.824   3.685  0.2782  0.8313  0.3139
 1435SOL    HW115941   2.180   0.869   3.759 -0.6107  0.4549  0.0760
 1435SOL    HW215942   2.146   0.769   3.657  1.5053 -0.9689  0.6441
 1436SOL     OW15943   0.138   1.431   3.970 -0.0986  0.0721  0.1698
 1436SOL    HW115944   0.129   1.511   3.918 -1.9493 -0.6350 -0.6017
 1436SOL    HW215945   0.145   1.464   4.060  1.6083  1.0869 -0.3440
 1437SOL     OW15946   3.783   0.996  17.591  0.0114  0.2083  0.2356
 1437SOL    HW115947   3.813   0.960  17.507  2.8415 -1.5926  2.0179
 1437SOL    HW215948   3.764   0.914  17.636 -1.2458  0.5417  0.3094
 1438SOL     OW15949   3.610   3.487   3.167 -0.0174  0.5579 -0.3055
 1438SOL    HW115950   3.692   3.506   3.212  0.8158 -0.2061 -1.4937
 1438SOL    HW215951   3.563   3.570   3.168  1.3920  1.3544 -1.3681
 1439SOL     OW15952   3.834   2.566   4.864  0.0585  0.3345  0.4507
 1439SOL    HW115953   3.795   2.653   4.877 -1.4653 -0.2478 -0.1756
 1439SOL    HW215954   3.763   2.518   4.907 -0.0951 -2.2081 -2.6620
 1440SOL     OW15955   0.011   2.679   3.510 -0.0493  0.3335  0.0007
 1440SOL    HW115956   0.065   2.755   3.530  0.4784  0.7422 -3.0741
 1440SOL    HW215957   4.713   2.669   3.599  0.3947  0.6344  0.2085
 1441SOL     OW15958   0.341   3.569   2.850  0.4068  0.3556 -0.0186
 1441SOL    HW115959   0.359   3.637   2.785 -0.3675 -0.3495 -0.9665
 1441SOL    HW215960   0.255   3.594   2.882  0.0502  1.2373 -1.6453
 1442SOL     OW15961   2.406   4.147   1.788  0.0778 -0.0557  0.1108
 1442SOL    HW115962   2.487   4.099   1.809  0.2353 -0.3444 -1.1694
 1442SOL    HW215963   2.349   4.070   1.783  1.6271 -1.0431 -2.6903
 1443SOL     OW15964   2.295   3.567  10.520 -0.1443  0.0424 -0.0825
 1443SOL    HW115965   2.269   3.635  10.459 -3.4883  0.5662  1.9336
 1443SOL    HW215966   2.377   3.549  10.474 -1.5737 -2.8831 -1.4681
 1444SOL     OW15967   1.303   2.944   6.446 -0.2813  0.3832  0.2092
 1444SOL    HW115968   1.335   2.951   6.536 -2.9570 -0.8364  1.2701
 1444SOL    HW215969   1.316   2.851   6.427  0.7289  0.8921 -1.5628
 1445SOL     OW15970   1.231   0.508   1.176 -0.4611 -0.2764 -0.1923
 1445SOL    HW115971   1.168   0.456   1.127  1.0193 -2.2903  0.0533
 1445SOL    HW215972   1.174   0.573   1.218  1.5753  0.6399  1.1283
 1446SOL     OW15973   2.622   0.986   2.330 -0.0728  0.2779  0.0854
 1446SOL    HW115974   2.548   0.950   2.281  1.8726  0.6046 -3.0941
 1446SOL    HW215975   2.587   1.005   2.417  0.3184  1.1633  0.0503
 1447SOL     OW15976   3.904   3.175   5.758 -0.1323 -0.1032  0.3819
 1447SOL    HW115977   3.977   3.201   5.702 -0.9773  0.8615 -0.2695
 1447SOL    HW215978   3.900   3.080   5.747  0.0813  0.0223 -0.7499
 1448SOL     OW15979   2.381   0.006  12.999 -0.4675 -0.2312  0.0261
 1448SOL    HW115980   2.352   0.087  12.958 -0.7056  0.9860  2.5928
 1448SOL    HW215981   2.336   4.676  12.947 -1.4958 -1.3692  2.3805
 1449SOL     OW15982   1.596   0.723  11.774  0.1460 -0.8832 -0.5292
 1449SOL    HW115983   1.576   0.811  11.805 -0.6742 -0.3831 -2.4886
 1449SOL    HW215984   1.620   0.753  11.686 -0.3706 -1.4873 -0.8670
 1450SOL     OW15985   0.913   3.619   3.543 -0.4662  0.3274  0.1396
 1450SOL    HW115986   0.905   3.702   3.591 -1.8481  0.7668 -0.8558
 1450SOL    HW215987   0.941   3.555   3.608  0.0361 -0.2959 -0.6804
 1451SOL     OW15988   2.405   3.064   2.293 -0.1775  0.1038  0.0047
 1451SOL    HW115989   2.375   3.149   2.325 -1.2639 -0.5059  0.5828
 1451SOL    HW215990   2.401   3.066   2.198  2.7387  0.9922 -0.1175
 1452SOL     OW15991   4.560   3.932   4.824 -0.1162  0.4065  0.0303
 1452SOL    HW115992   4.567   3.914   4.730 -2.6912  2.4147 -0.5345
 1452SOL    HW215993   4.635   3.988   4.845 -1.3489  1.2127  2.2362
 1453SOL     OW15994   1.252   3.819  10.814 -0.0734 -0.0813  0.6578
 1453SOL    HW115995   1.179   3.836  10.754  0.0358 -2.8458 -0.2727
 1453SOL    HW215996   1.235   3.871  10.892  2.8383  2.0469 -0.1452
 1454SOL     OW15997   2.621   0.442   0.584  0.2788 -0.6992  0.3534
 1454SOL    HW115998   2.572   0.417   0.662 -0.3209 -0.0122  0.2032
 1454SOL    HW215999   2.601   0.366   0.529 -1.3497 -0.8130  1.0882
 1455SOL     OW16000   3.714   2.591   3.413  0.2938  0.2940 -0.2883
 1455SOL    HW116001   3.792   2.537   3.413 -1.3736 -2.1302  0.3647
 1455SOL    HW216002   3.656   2.544   3.353  1.1479 -1.7883  0.5132
 1456SOL     OW16003   3.106   1.849   5.753 -0.1444  0.3278  0.2265
 1456SOL    HW116004   3.083   1.824   5.663 -1.7295  0.9815  0.4343
 1456SOL    HW216005   3.131   1.771   5.802  1.4951  0.6181 -0.1709
 1457SOL     OW16006   0.747   2.937   5.291  0.0273  0.0727 -0.4801
 1457SOL    HW116007   0.739   3.027   5.323  0.4255  0.8620 -2.6047
 1457SOL    HW216008   0.838   2.932   5.261  0.4104 -0.3568  0.7334
 1458SOL     OW16009   3.357   2.001   3.863  0.2830 -0.0220  0.2022
 1458SOL    HW116010   3.439   1.971   3.901  0.2101 -0.2857  0.1538
 1458SOL    HW216011   3.390   2.060   3.795  2.1740 -0.4468  0.7703
 1459SOL     OW16012   0.094   2.123   4.954  0.3135 -0.0283  0.2616
 1459SOL    HW116013   0.173   2.156   4.912 -1.5198  2.3674 -1.2922
 1459SOL    HW216014   0.036   2.169   4.894  1.0022  1.2323  0.5781
 1460SOL     OW16015   0.224   2.733   3.220  0.1382  0.6475  0.0900
 1460SOL    HW116016   0.215   2.828   3.226  0.1857  0.5957  1.0143
 1460SOL    HW216017   0.164   2.702   3.152 -0.5094  2.4990 -0.1591
 1461SOL     OW16018   3.387   2.686   7.712 -0.1139  0.0687 -0.8886
 1461SOL    HW116019   3.301   2.725   7.696 -0.9639 -0.7387  1.7190
 1461SOL    HW216020   3.386   2.621   7.641 -1.4210 -0.0833 -0.7452
 1462SOL     OW16021   0.182   0.393   0.501  0.6938 -0.5233 -0.2029
 1462SOL    HW116022   0.241   0.347   0.442 -1.1541 -0.0718 -2.4112
 1462SOL    HW216023   0.172   0.331   0.574  0.3409  0.0736  0.2563
 1463SOL     OW16024   4.005   3.688   5.674  0.0682 -0.0027 -0.1565
 1463SOL    HW116025   4.030   3.779   5.659  1.9534 -0.2300  1.5739
 1463SOL    HW216026   4.046   3.647   5.598  0.0643 -2.2363  1.0610
 1464SOL     OW16027   2.063   1.160  10.098  0.0415 -0.6253  0.1446
 1464SOL    HW116028   2.145   1.186  10.139 -0.2547  2.5928 -1.2829
 1464SOL    HW216029   2.003   1.158  10.173  0.5001  2.3647  0.5790
 1465SOL     OW16030   3.229   3.199   3.216 -0.0036 -0.3006 -0.1423
 1465SOL    HW116031   3.259   3.109   3.230 -2.0977 -1.0384 -0.3469
 1465SOL    HW216032   3.305   3.246   3.182  0.0340  0.6093  1.2271
 1466SOL     OW16033   3.951   0.732   6.700  0.4698 -0.7842 -0.1711
 1466SOL    HW116034   4.007   0.770   6.632  0.2847 -0.4298 -0.1280
 1466SOL    HW216035   3.892   0.675   6.650 -1.6004  1.7205 -0.6030
 1467SOL     OW16036   0.564   0.916   7.072  0.0988 -1.1786 -0.0857
 1467SOL    HW116037   0.611   0.974   7.013 -1.0057  0.3099  0.5048
 1467SOL    HW216038   0.621   0.881   7.140 -2.3330 -1.8253  1.6093
 1468SOL     OW16039   2.965   0.235   2.640  0.6486 -0.2930 -0.5396
 1468SOL    HW116040   3.008   0.297   2.700 -0.4620 -0.1584  0.1139
 1468SOL    HW216041   2.961   0.286   2.560 -0.6175  0.7837  0.2072
 1469SOL     OW16042   3.807   1.505   6.009 -0.0610  0.0187  0.3352
 1469SOL    HW116043   3.755   1.451   5.948 -0.5076  1.4599 -0.5526
 1469SOL    HW216044   3.754   1.585   6.004 -1.5659 -0.9616  0.3979
 1470SOL     OW16045   4.458   0.285  14.620  0.5262  0.1479  0.1766
 1470SOL    HW116046   4.536   0.240  14.589 -0.4964 -2.2663  1.0911
 1470SOL    HW216047   4.465   0.363  14.565  1.2036  1.0581  1.5645
 1471SOL     OW16048   3.038   2.152   8.311  0.2116  0.2242 -0.0279
 1471SOL    HW116049   3.011   2.119   8.396  1.6393  0.9018  0.6717
 1471SOL    HW216050   3.129   2.176   8.326 -1.2021  4.0842  2.3960
 1472SOL     OW16051   1.165   1.379  10.456 -0.5230  0.2464 -0.6812
 1472SOL    HW116052   1.220   1.447  10.419  4.0472 -2.9216  0.3466
 1472SOL    HW216053   1.222   1.302  10.461 -0.2858  0.4380 -0.4385
 1473SOL     OW16054   2.873   1.651   3.730  0.4580  0.5063  0.1504
 1473SOL    HW116055   2.938   1.706   3.774  1.5222  1.3343 -2.4164
 1473SOL    HW216056   2.823   1.632   3.809 -1.8530  0.6105 -1.3034
 1474SOL     OW16057   4.547   1.744   2.335 -0.1703  0.4565 -0.0758
 1474SOL    HW116058   4.540   1.657   2.296 -0.4758 -0.7669  2.7581
 1474SOL    HW216059   4.639   1.767   2.323 -0.2530 -0.0005 -1.6379
 1475SOL     OW16060   1.629   4.160   5.461  0.1532 -0.8816  0.3002
 1475SOL    HW116061   1.568   4.111   5.408 -2.1917  2.4125 -0.0711
 1475SOL    HW216062   1.694   4.094   5.484 -0.8301 -1.5745  1.0736
 1476SOL     OW16063   0.485   2.783  10.352 -0.1148 -0.2224  0.3244
 1476SOL    HW116064   0.558   2.737  10.395  0.1346  1.2103  1.4444
 1476SOL    HW216065   0.402   2.738  10.364  0.0453 -0.3733  0.9136
 1477SOL     OW16066   0.575   0.794   6.642  0.0185  0.0943 -0.4084
 1477SOL    HW116067   0.590   0.706   6.609  2.3292  0.1289  0.5858
 1477SOL    HW216068   0.562   0.774   6.735  1.0778  1.0383 -0.0586
 1478SOL     OW16069   3.682   2.742   2.117  0.3327 -0.3664 -0.0133
 1478SOL    HW116070   3.735   2.676   2.072  1.0165 -2.0220  3.2402
 1478SOL    HW216071   3.742   2.814   2.136 -1.8263  1.1932  0.9254
 1479SOL     OW16072   4.581   2.985   1.814 -0.8238  0.2855 -0.0848
 1479SOL    HW116073   4.575   2.918   1.882  2.0487  0.8408  0.7240
 1479SOL    HW216074   4.509   3.042   1.841  0.5780  2.0596 -0.0835
 1480SOL     OW16075   1.688   0.238   2.621 -0.0389 -0.0277 -0.4936
 1480SOL    HW116076   1.706   0.328   2.645 -0.7915 -0.0309  0.0466
 1480SOL    HW216077   1.763   0.200   2.667 -1.1022 -0.4869  0.8574
 1481SOL     OW16078   1.751   2.651   1.459  0.2927 -0.0109 -0.0791
 1481SOL    HW116079   1.769   2.641   1.365 -0.5036 -1.7510 -0.0514
 1481SOL    HW216080   1.799   2.580   1.503 -0.7791 -1.2342 -0.8685
 1482SOL     OW16081   4.048   0.527   2.175  0.1841 -0.1415 -0.3721
 1482SOL    HW116082   3.990   0.545   2.101 -2.7681 -0.8018  1.7726
 1482SOL    HW216083   4.086   0.613   2.194  0.3935 -0.1229 -0.8769
 1483SOL     OW16084   3.687   0.898   8.440  0.5306 -0.4058 -0.5423
 1483SOL    HW116085   3.758   0.852   8.394 -1.0774 -1.0421 -2.3722
 1483SOL    HW216086   3.680   0.976   8.385  0.4976 -0.2815 -0.3639
 1484SOL     OW16087   0.117   2.796   4.995 -0.4672 -0.5528 -0.1602
 1484SOL    HW116088   0.041   2.808   4.939 -0.7651 -2.7641 -0.2396
 1484SOL    HW216089   0.154   2.721   4.948 -1.6532 -2.1814  1.4625
 1485SOL     OW16090   3.152   3.855   2.324  0.1233  1.1548  0.4522
 1485SOL    HW116091   3.089   3.802   2.275 -0.3667  0.5959  1.7063
 1485SOL    HW216092   3.210   3.789   2.362 -0.1422 -0.7281 -2.4496
 1486SOL     OW16093   3.967   1.603  10.741 -0.2698 -0.5207 -0.0438
 1486SOL    HW116094   3.949   1.571  10.829  2.8569 -0.0612  0.7727
 1486SOL    HW216095   3.995   1.694  10.749 -2.9439  0.2911  0.0487
 1487SOL     OW16096   3.532   2.459   3.235  0.3097 -0.1520 -0.1330
 1487SOL    HW116097   3.441   2.436   3.255  0.4041  1.6389  2.4165
 1487SOL    HW216098   3.565   2.370   3.223  1.2423  0.2734 -0.6753
 1488SOL     OW16099   2.677   3.239   1.905 -0.1701  0.4440 -0.2774
 1488SOL    HW116100   2.596   3.202   1.941 -0.5074 -0.1067 -1.6060
 1488SOL    HW216101   2.644   3.277   1.823  0.2755  1.8971  0.2252
 1489SOL     OW16102   1.247   2.603  17.498  0.0014  0.5246 -0.2980
 1489SOL    HW116103   1.343   2.602  17.505 -0.0337  1.8295  0.3890
 1489SOL    HW216104   1.209   2.606  17.586 -2.5632  1.5745 -1.4356
 1490SOL     OW16105   4.613   2.699  13.822  0.4559  0.7732 -0.3650
 1490SOL    HW116106   4.596   2.632  13.888  3.1116 -0.2610 -0.7326
 1490SOL    HW216107   4.524   2.716  13.790  0.4235 -1.4074 -1.3838
 1491SOL     OW16108   2.972   1.755  11.932  0.3459 -0.0651 -0.5080
 1491SOL    HW116109   2.891   1.730  11.976 -0.1300  2.8763  0.2360
 1491SOL    HW216110   3.032   1.686  11.962 -0.0776 -0.1275  0.1840
 1492SOL     OW16111   0.054   4.052   6.217  0.3617  0.1504 -0.0256
 1492SOL    HW116112   0.033   4.036   6.126  0.2246  1.3903 -0.2196
 1492SOL    HW216113   4.723   4.010   6.269  0.3391  0.0780 -0.1155
 1493SOL     OW16114   3.709   2.153   0.104  0.2347 -0.1344  0.0197
 1493SOL    HW116115   3.796   2.117   0.121 -0.1065 -0.4296  1.1760
 1493SOL    HW216116   3.666   2.074   0.072 -2.1775  1.3359 -0.4336
 1494SOL     OW16117   3.640   4.086   5.361  0.6553 -0.1390  0.8017
 1494SOL    HW116118   3.621   4.134   5.281 -0.5713 -0.2730  1.0229
 1494SOL    HW216119   3.552   4.063   5.389  0.1018 -0.3072 -1.1376
 1495SOL     OW16120   2.748   0.271  16.352  0.4928  0.1855 -0.7423
 1495SOL    HW116121   2.827   0.263  16.298  0.4137 -0.3034 -0.7894
 1495SOL    HW216122   2.684   0.251  16.283 -1.1009  0.5085  0.6659
 1496SOL     OW16123   2.844   1.941   5.979  0.3462  0.1320  0.8202
 1496SOL    HW116124   2.811   1.884   5.910 -1.0611  1.4834  0.3685
 1496SOL    HW216125   2.858   2.029   5.945 -0.3375 -1.0341 -2.4828
 1497SOL     OW16126   1.058   0.779   7.920 -0.2206  0.3586 -0.1465
 1497SOL    HW116127   1.036   0.764   8.012  2.2267 -0.5664  0.2883
 1497SOL    HW216128   1.106   0.862   7.917  0.1742  0.1207 -0.4014
 1498SOL     OW16129   0.531   0.910   8.685 -0.3147  0.8120 -0.4343
 1498SOL    HW116130   0.622   0.909   8.714 -0.7504  0.4748  0.9328
 1498SOL    HW216131   0.494   0.870   8.764 -0.6376 -0.5494 -1.2714
 1499SOL     OW16132   2.040   4.458  16.113  0.4920  0.0323  0.3041
 1499SOL    HW116133   2.001   4.535  16.154  1.6239  2.6403 -3.6211
 1499SOL    HW216134   2.057   4.473  16.021  0.1652  1.1746  0.4347
 1500SOL     OW16135   1.626   0.475   2.375  1.3524  0.2624  0.2133
 1500SOL    HW116136   1.573   0.499   2.299  0.2878 -0.4460  0.7336
 1500SOL    HW216137   1.632   0.565   2.407 -0.8320 -0.5906  2.9547
 1501SOL     OW16138   2.072   3.808   3.281  0.1217 -0.0468  0.3801
 1501SOL    HW116139   2.026   3.752   3.344 -0.0780 -2.4596 -1.9081
 1501SOL    HW216140   2.080   3.886   3.336  0.9286  0.3399 -0.3044
 1502SOL     OW16141   2.482   1.340   7.495 -0.8032  0.2905 -0.4139
 1502SOL    HW116142   2.491   1.343   7.591  1.9827  1.7761 -0.7186
 1502SOL    HW216143   2.392   1.313   7.477 -1.4400  1.9630  0.2197
 1503SOL     OW16144   4.176   1.662   1.457  0.1441  0.3959  0.4035
 1503SOL    HW116145   4.181   1.686   1.365  0.3232  0.1533  0.3504
 1503SOL    HW216146   4.236   1.589   1.469 -1.8944 -1.0502  1.6882
 1504SOL     OW16147   2.169   0.690   6.014  0.6065  0.1169  0.2566
 1504SOL    HW116148   2.195   0.640   5.936  1.7275  0.6725  0.2634
 1504SOL    HW216149   2.161   0.621   6.080  2.6862 -2.2963 -2.0087
 1505SOL     OW16150   2.281   1.481   0.229 -0.0518  0.5783 -0.2103
 1505SOL    HW116151   2.310   1.563   0.189  1.9802 -0.3436 -0.6166
 1505SOL    HW216152   2.345   1.430   0.179  0.2758  1.4635 -0.6954
 1506SOL     OW16153   1.819   1.385   2.799 -0.0755  0.3812 -0.3982
 1506SOL    HW116154   1.881   1.370   2.727 -1.1232  0.7314 -1.3687
 1506SOL    HW216155   1.772   1.303   2.814  1.5921 -0.4153  0.5642
 1507SOL     OW16156   3.338   4.076   2.266 -0.2150  0.1445  0.8695
 1507SOL    HW116157   3.279   4.004   2.241 -1.0668  1.4090 -0.7467
 1507SOL    HW216158   3.316   4.083   2.359  0.6211  1.7397  0.9376
 1508SOL     OW16159   2.030   1.240  17.540 -0.1941 -0.0042 -0.6276
 1508SOL    HW116160   2.125   1.244  17.552  0.0314 -0.1475 -2.4532
 1508SOL    HW216161   2.009   1.327  17.575 -0.4152  0.0117 -0.8028
 1509SOL     OW16162   2.417   1.301   2.377 -0.4471  0.2475 -0.9655
 1509SOL    HW116163   2.425   1.267   2.466 -2.9971  2.4073  0.0959
 1509SOL    HW216164   2.406   1.396   2.379 -0.7062  0.1625  1.1779
 1510SOL     OW16165   1.926   2.193  17.690  0.3297  0.5249  0.3960
 1510SOL    HW116166   1.950   2.101  17.683  0.5309  0.8308 -3.0491
 1510SOL    HW216167   1.914   2.213  17.597  0.2896  0.0035  0.2889
 1511SOL     OW16168   2.333   3.423  14.965 -0.0201  0.0072  0.3185
 1511SOL    HW116169   2.352   3.424  14.871  0.2889  2.9577  0.4246
 1511SOL    HW216170   2.287   3.506  14.962  0.6160  0.3406 -0.2427
 1512SOL     OW16171   4.589   4.098  13.814 -0.1785  0.1897  0.3959
 1512SOL    HW116172   4.580   4.175  13.870  0.6112  0.1949  0.5228
 1512SOL    HW216173   4.503   4.064  13.839 -1.0193  0.4077 -2.2668
 1513SOL     OW16174   3.313   0.913  17.084 -0.4055 -0.7291 -0.3993
 1513SOL    HW116175   3.375   0.985  17.098  0.0520 -0.9189 -1.3856
 1513SOL    HW216176   3.370   0.836  17.081  0.8697  0.2094 -0.7013
 1514SOL     OW16177   3.866   0.825  15.107  0.1013 -0.1135  0.2256
 1514SOL    HW116178   3.779   0.853  15.077 -0.3537 -1.6886  0.1002
 1514SOL    HW216179   3.897   0.905  15.149 -1.1430 -0.9964  2.7781
 1515SOL     OW16180   4.009   0.594  14.216  0.3816 -0.6561  0.3781
 1515SOL    HW116181   4.095   0.611  14.252 -0.0934  1.8797  0.3151
 1515SOL    HW216182   3.985   0.683  14.189 -1.8738 -1.4100 -0.1646
 1516SOL     OW16183   3.072   1.129   8.016 -0.4726  0.0399 -0.5584
 1516SOL    HW116184   3.023   1.048   8.029  0.3145 -0.4142 -0.3755
 1516SOL    HW216185   3.161   1.093   8.013 -0.9692 -1.3062  1.2473
 1517SOL     OW16186   2.557   2.105  14.081  0.5050 -0.1155 -0.3841
 1517SOL    HW116187   2.621   2.042  14.049  2.5587  1.4568  0.6576
 1517SOL    HW216188   2.482   2.114  14.021  1.9147  0.0824 -2.1162
 1518SOL     OW16189   0.912   2.903  16.778 -0.2865 -0.6431 -0.6367
 1518SOL    HW116190   1.004   2.884  16.759  0.2032  1.3180 -0.2473
 1518SOL    HW216191   0.867   2.838  16.725  0.6973 -1.3975 -0.5606
 1519SOL     OW16192   4.492   4.294  10.241 -0.4212  0.1808  0.1495
 1519SOL    HW116193   4.551   4.345  10.297  1.1153 -1.1274 -0.2921
 1519SOL    HW216194   4.429   4.358  10.208 -0.1594  1.5142  2.2225
 1520SOL     OW16195   2.618   4.288   9.669 -0.0186  0.3264 -0.2693
 1520SOL    HW116196   2.619   4.363   9.610 -3.0728 -0.2747 -1.0538
 1520SOL    HW216197   2.706   4.296   9.706  0.0965 -1.5543 -0.1367
 1521SOL     OW16198   1.879   1.553   4.774 -0.3268  0.3358  0.3633
 1521SOL    HW116199   1.881   1.644   4.743  2.7001 -0.3817 -1.4812
 1521SOL    HW216200   1.786   1.538   4.758 -0.4410 -0.2980  1.6712
 1522SOL     OW16201   0.026   0.742  13.313  0.0548  0.5267 -0.2856
 1522SOL    HW116202   4.722   0.664  13.275 -0.9680 -0.1634  2.2004
 1522SOL    HW216203   0.083   0.761  13.239  0.9571 -1.8174 -0.2199
 1523SOL     OW16204   0.974   3.984   2.325 -0.3353 -0.4225 -0.1187
 1523SOL    HW116205   0.915   4.055   2.300  1.9493  1.4213 -0.2542
 1523SOL    HW216206   0.914   3.923   2.370 -0.3222  1.3501  2.3002
 1524SOL     OW16207   3.841   2.824   3.331 -0.3630 -0.0768  0.0373
 1524SOL    HW116208   3.924   2.777   3.330 -0.2279  0.1382  2.3756
 1524SOL    HW216209   3.793   2.773   3.395 -0.3363  0.1683  0.2551
 1525SOL     OW16210   2.226   0.860   8.057  0.2584 -0.1360  0.0908
 1525SOL    HW116211   2.306   0.816   8.083  0.0982  0.2144  1.1765
 1525SOL    HW216212   2.160   0.794   8.078  0.5449 -0.9520 -1.5766
 1526SOL     OW16213   2.299   2.210   3.195  0.3207 -0.2881  0.2950
 1526SOL    HW116214   2.345   2.194   3.277 -2.3781 -0.4529  1.7760
 1526SOL    HW216215   2.212   2.181   3.224 -0.3827  1.1079 -0.4209
 1527SOL     OW16216   3.953   0.983  15.341  0.0743  0.4418  0.6397
 1527SOL    HW116217   3.999   0.899  15.341  0.4645  0.6579 -0.7104
 1527SOL    HW216218   4.037   1.029  15.344  0.1439  0.5502 -3.0366
 1528SOL     OW16219   0.037   3.684   6.557 -0.1316 -0.5193 -0.5237
 1528SOL    HW116220   0.005   3.622   6.622 -1.1986  0.2481 -0.3197
 1528SOL    HW216221   0.124   3.708   6.588 -0.6987  1.1699 -0.2414
 1529SOL     OW16222   4.636   0.097   4.882 -0.1359  0.4081 -0.6926
 1529SOL    HW116223   4.570   0.164   4.896  1.0901  1.4387  0.1715
 1529SOL    HW216224   4.717   0.139   4.913  0.5242 -1.7102  0.4539
 1530SOL     OW16225   4.596   3.673   8.512  0.0482 -0.4711  0.8096
 1530SOL    HW116226   4.552   3.749   8.474 -1.7557 -1.5822  0.6481
 1530SOL    HW216227   4.529   3.643   8.574 -1.6195  3.9256  1.1316
 1531SOL     OW16228   1.810   2.718   8.179  0.1983 -0.5833  0.2448
 1531SOL    HW116229   1.776   2.770   8.252 -0.1466 -0.3724 -0.0625
 1531SOL    HW216230   1.789   2.627   8.200 -0.8703 -1.1054 -3.1049
 1532SOL     OW16231   4.552   0.189   3.521  0.1420  0.0549  0.1453
 1532SOL    HW116232   4.495   0.131   3.571 -1.2882 -0.0516 -1.6233
 1532SOL    HW216233   4.639   0.165   3.553  0.4205 -1.4384 -1.7774
 1533SOL     OW16234   4.571   4.686  17.033  0.2281  0.1640 -0.6054
 1533SOL    HW116235   4.478   4.707  17.033  0.1595 -0.1405 -1.5051
 1533SOL    HW216236   4.570   4.639  16.949  1.8554 -1.4115  0.2493
 1534SOL     OW16237   0.471   4.505  17.480 -0.2654  0.1618 -0.3884
 1534SOL    HW116238   0.538   4.518  17.412 -1.5911 -1.3824 -1.9857
 1534SOL    HW216239   0.404   4.570  17.460 -0.1907  0.2948 -0.2084
 1535SOL     OW16240   0.733   1.116   8.765  0.4881 -0.3361 -0.1327
 1535SOL    HW116241   0.711   1.160   8.683  2.6868  2.3218  0.7086
 1535SOL    HW216242   0.802   1.174   8.797  2.3393 -1.3959 -2.2278
 1536SOL     OW16243   4.431   3.846   6.834  0.1390 -0.3011  0.8283
 1536SOL    HW116244   4.523   3.872   6.848  0.0409  1.8206 -2.3968
 1536SOL    HW216245   4.412   3.762   6.874  2.0912 -1.6985 -1.1842
 1537SOL     OW16246   0.261   4.266  17.342 -0.1713 -0.3644  0.6546
 1537SOL    HW116247   0.262   4.192  17.402 -1.5714 -1.3244 -0.5062
 1537SOL    HW216248   0.323   4.326  17.382 -0.8534  0.6632  0.1933
 1538SOL     OW16249   0.169   1.913   9.843 -0.4539  0.3877  0.0713
 1538SOL    HW116250   0.252   1.873   9.818 -0.0926  2.1437 -1.5523
 1538SOL    HW216251   0.187   1.950   9.930  1.9436  2.6367 -1.3809
 1539SOL     OW16252   3.874   1.145   0.681 -0.2056  0.0338 -0.2461
 1539SOL    HW116253   3.937   1.108   0.620 -0.4809 -1.1163  0.1756
 1539SOL    HW216254   3.884   1.088   0.757  0.2505 -3.2455 -2.7806
 1540SOL     OW16255   3.502   3.361   7.100 -0.5337  0.8356 -0.4354
 1540SOL    HW116256   3.546   3.378   7.017  1.2332  2.2128  0.7759
 1540SOL    HW216257   3.561   3.294   7.137  0.5666  1.6852 -0.6393
 1541SOL     OW16258   2.949   3.371   9.243  0.2405  0.2266 -0.0348
 1541SOL    HW116259   2.883   3.408   9.185 -1.0237  1.5821  2.2512
 1541SOL    HW216260   3.018   3.426   9.207 -0.7373  1.9356  0.7020
 1542SOL     OW16261   0.380   3.997   3.172  0.5347  0.3343 -0.0508
 1542SOL    HW116262   0.346   4.059   3.108  2.4480  1.4923  0.0574
 1542SOL    HW216263   0.420   4.057   3.236  2.0017 -2.7506  1.9372
 1543SOL     OW16264   2.654   2.404   7.064 -0.0096  0.2710  0.3308
 1543SOL    HW116265   2.686   2.415   7.153 -0.3895 -0.8321  0.6094
 1543SOL    HW216266   2.670   2.495   7.041  1.1353 -0.5524 -2.1657
 1544SOL     OW16267   1.237   0.256   6.024  0.0213  0.6302 -0.0587
 1544SOL    HW116268   1.227   0.349   6.045  1.0904  0.4169  1.3539
 1544SOL    HW216269   1.270   0.262   5.934 -1.2149 -0.1080 -0.5702
 1545SOL     OW16270   4.497   3.759   6.207 -0.2100  0.4806 -0.7194
 1545SOL    HW116271   4.579   3.744   6.159  0.7717 -1.0337  1.4037
 1545SOL    HW216272   4.529   3.838   6.251 -2.1600  0.5500  0.5723
 1546SOL     OW16273   1.203   3.162   6.995 -0.0734 -0.2831  0.3608
 1546SOL    HW116274   1.190   3.256   6.980 -0.2981  0.0691  2.7446
 1546SOL    HW216275   1.184   3.130   6.907 -1.4668  0.5263  0.3692
 1547SOL     OW16276   4.666   0.748  12.329  0.0857  0.4042  0.3294
 1547SOL    HW116277   4.663   0.652  12.328 -3.9804  0.5626 -0.7604
 1547SOL    HW216278   4.580   0.772  12.296  0.5190  1.0566 -0.3400
 1548SOL     OW16279   0.097   0.926  13.520  0.1974 -0.4360 -0.1072
 1548SOL    HW116280   0.028   0.900  13.582 -0.6941  0.0566 -0.8825
 1548SOL    HW216281   0.085   0.865  13.447  2.6704  1.0381 -1.7241
 1549SOL     OW16282   1.323   2.803   1.041  0.1274 -0.1717 -0.0615
 1549SOL    HW116283   1.396   2.832   1.096 -1.9718  0.6628  2.2888
 1549SOL    HW216284   1.256   2.869   1.060  1.3016  1.8218 -2.8172
 1550SOL     OW16285   2.265   0.130   8.730  0.2005 -0.1060  0.6575
 1550SOL    HW116286   2.210   0.061   8.693  1.4522 -1.3504  1.1125
 1550SOL    HW216287   2.351   0.088   8.731 -0.2009 -0.9220  0.8734
 1551SOL     OW16288   1.440   3.007   5.366  0.1614 -0.4739 -0.0388
 1551SOL    HW116289   1.442   2.958   5.448 -0.5907 -1.4112 -0.5752
 1551SOL    HW216290   1.534   3.002   5.347  0.2016 -2.5549  0.6732
 1552SOL     OW16291   3.818   4.124  11.116  0.0757 -0.0555 -0.6374
 1552SOL    HW116292   3.751   4.134  11.048  0.3258  0.0736 -0.8664
 1552SOL    HW216293   3.853   4.039  11.090 -1.4714 -0.4392 -1.4461
 1553SOL     OW16294   1.991   2.962   6.065 -0.4684 -0.1570  0.0193
 1553SOL    HW116295   1.922   2.971   6.132  0.3874 -1.9353  1.1321
 1553SOL    HW216296   1.987   3.045   6.018  0.5694  0.1225  0.4264
 1554SOL     OW16297   4.713   2.689   4.569 -0.2560  0.3645  0.2860
 1554SOL    HW116298   4.626   2.659   4.596  0.4644 -3.7794 -2.0339
 1554SOL    HW216299   4.727   2.648   4.483  1.0903 -1.5932  1.4244
 1555SOL     OW16300   4.362   2.924  11.495 -0.0506 -0.1159 -0.0239
 1555SOL    HW116301   4.440   2.939  11.441  0.5448 -1.9933  0.3224
 1555SOL    HW216302   4.382   2.979  11.571  1.6735 -0.9377  0.1304
 1556SOL     OW16303   1.385   0.442   7.103 -0.1179  0.2281 -1.0519
 1556SOL    HW116304   1.322   0.370   7.109 -1.2560  1.2459 -0.7055
 1556SOL    HW216305   1.458   0.394   7.142 -2.3971 -0.9223  1.8710
 1557SOL     OW16306   0.811   1.233  17.092  0.6011  0.4187  0.2610
 1557SOL    HW116307   0.906   1.219  17.095  0.7128  1.2937  0.9449
 1557SOL    HW216308   0.801   1.326  17.072 -0.6807  0.1274 -0.4133
 1558SOL     OW16309   0.892   3.311   8.224 -0.2651 -0.2180 -0.4228
 1558SOL    HW116310   0.805   3.274   8.240  0.4885 -1.6314  0.3587
 1558SOL    HW216311   0.947   3.279   8.296  0.9261  1.9190 -0.3978
 1559SOL     OW16312   2.394   4.132   7.470  0.3148 -0.5369 -0.5749
 1559SOL    HW116313   2.307   4.099   7.451 -0.2598  0.2849  0.6427
 1559SOL    HW216314   2.374   4.219   7.505  1.4019  0.6880 -2.9833
 1560SOL     OW16315   1.398   4.368   6.995 -0.0322 -0.0708  0.0940
 1560SOL    HW116316   1.360   4.281   7.007  0.2237 -0.3172 -0.8608
 1560SOL    HW216317   1.491   4.348   6.980 -0.2818 -2.0154  1.0938
 1561SOL     OW16318   2.414   2.234   7.065 -0.1787  0.3351 -0.0525
 1561SOL    HW116319   2.486   2.295   7.046 -0.6285  1.4586  1.8588
 1561SOL    HW216320   2.455   2.167   7.120 -0.6185 -1.4090 -1.8668
 1562SOL     OW16321   3.022   3.482  11.437  0.5463  0.5238  0.1727
 1562SOL    HW116322   3.103   3.451  11.477 -0.1018 -2.3428 -0.7856
 1562SOL    HW216323   3.047   3.561  11.389  1.5055 -0.7734 -1.4310
 1563SOL     OW16324   1.472   4.464   6.036  0.3663 -0.0200  0.1628
 1563SOL    HW116325   1.504   4.460   6.126 -0.8095 -0.0803  0.5753
 1563SOL    HW216326   1.550   4.471   5.981  0.5992  1.1786  0.6452
 1564SOL     OW16327   0.894   4.687  15.480  0.1913 -0.6176 -0.4246
 1564SOL    HW116328   0.972   4.634  15.496 -0.3911 -2.0968 -2.4075
 1564SOL    HW216329   0.900   0.015  15.550 -1.9297  0.1465 -0.9583
 1565SOL     OW16330   3.332   3.905   0.020 -0.4426 -0.3357  0.4370
 1565SOL    HW116331   3.299   3.856   0.095  1.3547  0.4919  1.7831
 1565SOL    HW216332   3.264   3.972   0.023 -1.0250 -0.8894 -0.5290
 1566SOL     OW16333   3.404   1.260  12.217  0.0285 -0.3402  0.2397
 1566SOL    HW116334   3.480   1.252  12.275 -1.1161 -1.9015  1.5437
 1566SOL    HW216335   3.340   1.224  12.279 -1.8553  1.9515 -0.3909
 1567SOL     OW16336   1.752   0.261   3.925  0.0354 -0.2873 -0.0507
 1567SOL    HW116337   1.775   0.350   3.897 -2.2520  0.2414 -0.2034
 1567SOL    HW216338   1.730   0.221   3.841  0.3502  0.9668 -0.7449
 1568SOL     OW16339   3.727   1.092   6.688 -0.1018 -0.0199  0.2260
 1568SOL    HW116340   3.712   0.999   6.668  2.2814  0.1915 -2.4319
 1568SOL    HW216341   3.653   1.136   6.645 -0.9454 -2.6729 -1.0623
 1569SOL     OW16342   0.809   0.169   4.912  0.1260 -0.1604 -0.5061
 1569SOL    HW116343   0.882   0.232   4.912  0.4192 -0.5094  0.0776
 1569SOL    HW216344   0.729   0.222   4.908  0.8175  0.8965 -0.4711
 1570SOL     OW16345   2.338   0.422   2.688  0.4220  0.4737  0.4207
 1570SOL    HW116346   2.412   0.387   2.640 -0.6655 -0.1061 -0.8317
 1570SOL    HW216347   2.366   0.399   2.777  1.4559 -1.5489 -0.4398
 1571SOL     OW16348   1.363   2.242   6.806  0.4672 -0.2427 -0.0858
 1571SOL    HW116349   1.284   2.197   6.778 -0.0854  0.6840 -0.0159
 1571SOL    HW216350   1.419   2.231   6.729  1.3257  0.8027  0.3840
 1572SOL     OW16351   0.403   2.941  10.702  0.0500 -0.3086  0.1305
 1572SOL    HW116352   0.378   2.851  10.678 -1.4703  0.3674 -0.8370
 1572SOL    HW216353   0.455   2.928  10.782  2.0003  2.4567 -0.7249
 1573SOL     OW16354   0.020   3.306   3.349  0.3945  0.4422 -0.0085
 1573SOL    HW116355   0.106   3.287   3.388  0.2984  0.7614  0.3633
 1573SOL    HW216356   0.043   3.375   3.287  3.2227 -0.1347  0.3740
 1574SOL     OW16357   0.075   2.766   0.567 -0.3452  0.2152  0.1962
 1574SOL    HW116358   0.080   2.688   0.512  1.6547 -0.0966  0.8407
 1574SOL    HW216359   0.004   2.815   0.526 -0.3512 -0.5387 -0.6878
 1575SOL     OW16360   0.302   1.272  11.925  0.2438 -0.5490 -0.4552
 1575SOL    HW116361   0.379   1.217  11.938 -0.2010 -0.7565  1.2254
 1575SOL    HW216362   0.235   1.227  11.976 -0.5997 -1.0048 -1.9714
 1576SOL     OW16363   4.559   0.551  13.285  0.3796  0.5760  0.6110
 1576SOL    HW116364   4.569   0.597  13.202 -1.4151 -1.0065 -0.4833
 1576SOL    HW216365   4.535   0.462  13.260 -1.2764  0.1048  3.8174
 1577SOL     OW16366   1.010   3.497   3.765 -0.0237  0.6760 -0.2876
 1577SOL    HW116367   0.986   3.445   3.841  1.1521  0.7087  0.1113
 1577SOL    HW216368   1.106   3.497   3.771 -0.2440 -1.8049  2.9128
 1578SOL     OW16369   4.257   0.037  17.567 -0.3772  0.6153  0.0129
 1578SOL    HW116370   4.283   4.706  17.630 -0.0887 -0.9875 -1.8545
 1578SOL    HW216371   4.346   0.060  17.540 -0.1571  0.3924  0.5308
 1579SOL     OW16372   0.579   3.482   2.569  0.5990  0.1193  0.5983
 1579SOL    HW116373   0.622   3.461   2.486  1.3838 -2.4843  1.6752
 1579SOL    HW216374   0.569   3.577   2.560 -2.3234 -0.5083 -3.0023
 1580SOL     OW16375   1.833   0.334   3.212 -0.3468  0.6255  0.4753
 1580SOL    HW116376   1.796   0.270   3.151  2.5584 -1.5255  0.9876
 1580SOL    HW216377   1.902   0.277   3.245  2.0265  2.2290 -1.6726
 1581SOL     OW16378   0.432   0.917   1.541  0.1100 -0.4193 -0.1165
 1581SOL    HW116379   0.375   0.993   1.534 -1.2273 -1.3641  0.5530
 1581SOL    HW216380   0.454   0.923   1.634  0.5848 -0.6290 -0.2159
 1582SOL     OW16381   1.087   1.934  16.964  0.3186  0.5788 -0.1409
 1582SOL    HW116382   1.085   1.885  16.882  1.5467 -0.4030  0.4189
 1582SOL    HW216383   1.116   2.018  16.928  0.7783  1.0138  1.2407
 1583SOL     OW16384   1.734   1.056   3.252 -0.6940  0.2999 -0.1935
 1583SOL    HW116385   1.672   1.052   3.179  1.1781 -0.8611 -1.7112
 1583SOL    HW216386   1.723   0.966   3.283  0.5077  0.0269 -0.5752
 1584SOL     OW16387   0.093   3.047   4.356  0.7084 -0.4637 -0.5491
 1584SOL    HW116388   0.103   2.978   4.290  0.6680 -1.8005  0.8415
 1584SOL    HW216389   0.156   3.110   4.322 -2.2586  2.9208  0.2217
 1585SOL     OW16390   1.673   2.591   7.864  0.2741  0.2443 -0.1150
 1585SOL    HW116391   1.755   2.579   7.912  0.8112  2.6967 -0.4319
 1585SOL    HW216392   1.684   2.527   7.794 -0.4564 -1.0074  0.9214
 1586SOL     OW16393   0.165   4.714   7.293  0.1970 -0.2754  0.3656
 1586SOL    HW116394   0.149   0.056   7.345 -1.9769 -1.6927  1.9060
 1586SOL    HW216395   0.251   4.682   7.319 -0.1797 -2.3529 -1.0015
 1587SOL     OW16396   2.443   3.434   7.381  0.4558 -0.7326  0.2261
 1587SOL    HW116397   2.389   3.468   7.310  0.6307 -1.5149 -0.2692
 1587SOL    HW216398   2.475   3.346   7.364  0.0842 -0.6311 -0.9897
 1588SOL     OW16399   0.115   2.262   6.604 -0.2655 -0.4114 -0.2155
 1588SOL    HW116400   0.204   2.226   6.604 -0.2859 -0.4522 -0.9544
 1588SOL    HW216401   0.132   2.345   6.649 -0.8620  0.7404 -2.1406
 1589SOL     OW16402   1.247   1.037   9.852  0.1927 -0.2754 -0.5114
 1589SOL    HW116403   1.184   1.008   9.918 -0.5845  1.9750 -0.2848
 1589SOL    HW216404   1.191   1.085   9.792 -0.1153 -1.1926 -0.9655
 1590SOL     OW16405   1.522   0.581   2.763 -0.3881  0.0969  0.8860
 1590SOL    HW116406   1.505   0.507   2.706 -0.5963  1.3825 -0.7298
 1590SOL    HW216407   1.589   0.531   2.809  0.5511 -1.6630 -2.3790
 1591SOL     OW16408   2.079   1.779   9.400 -0.0003  0.1398  0.1375
 1591SOL    HW116409   2.124   1.859   9.429  0.1607  0.9029 -2.2512
 1591SOL    HW216410   2.052   1.806   9.313 -2.0606 -2.4934 -0.0073
 1592SOL     OW16411   4.162   4.684   4.182  0.1565 -0.1569 -0.6513
 1592SOL    HW116412   4.077   4.692   4.226  0.7714 -0.4905  0.6006
 1592SOL    HW216413   4.153   4.602   4.134  2.3703 -1.2467  0.7605
 1593SOL     OW16414   0.363   0.276   7.907  0.8179  0.8056  0.5539
 1593SOL    HW116415   0.391   0.192   7.869 -0.1517  1.5829 -1.8926
 1593SOL    HW216416   0.290   0.297   7.849  0.9280 -1.3463 -0.3712
 1594SOL     OW16417   1.768   1.684   5.087  0.0407 -0.5248  0.2503
 1594SOL    HW116418   1.786   1.662   5.179  1.1044 -0.1536  0.1315
 1594SOL    HW216419   1.727   1.606   5.050 -1.2556  0.4485 -0.3603
 1595SOL     OW16420   3.324   0.437  14.305 -0.0239 -0.1420  0.1612
 1595SOL    HW116421   3.279   0.521  14.308 -0.5502 -0.3891 -0.8487
 1595SOL    HW216422   3.418   0.454  14.297 -0.6008  1.8580 -2.0970
 1596SOL     OW16423   0.765   1.324   8.231  0.2295 -0.0108  0.1325
 1596SOL    HW116424   0.696   1.306   8.167  0.3250  1.6353 -0.4216
 1596SOL    HW216425   0.735   1.401   8.278 -0.0028  0.3386 -0.5805
 1597SOL     OW16426   0.152   3.121   4.723 -0.5942  0.0184 -0.1277
 1597SOL    HW116427   0.101   3.201   4.712 -2.6443 -1.3548 -0.8048
 1597SOL    HW216428   0.096   3.051   4.689  1.8958 -1.7637 -0.5822
 1598SOL     OW16429   2.777   3.226   4.459  0.8500 -0.0709  0.7267
 1598SOL    HW116430   2.766   3.321   4.448  0.3677 -0.6903 -3.8770
 1598SOL    HW216431   2.782   3.233   4.555 -1.7721  0.6234  0.8323
 1599SOL     OW16432   4.232   3.033   2.961  0.2750  1.0538  0.2977
 1599SOL    HW116433   4.200   2.954   2.917  1.0073  1.3878 -0.8330
 1599SOL    HW216434   4.255   3.001   3.048 -1.0122  2.6354  1.2164
 1600SOL     OW16435   3.152   3.550   4.691  0.0711 -0.6089  0.3197
 1600SOL    HW116436   3.205   3.608   4.747  1.8243 -0.6923 -1.2383
 1600SOL    HW216437   3.064   3.580   4.715 -0.5063 -0.6149 -1.8104
 1601SOL     OW16438   3.483   0.760  11.518 -0.3403  0.1263 -0.4709
 1601SOL    HW116439   3.518   0.838  11.560  0.6626 -0.9116  0.6367
 1601SOL    HW216440   3.553   0.702  11.550 -2.2813 -1.8737  0.1853
 1602SOL     OW16441   3.267   4.592  17.115 -0.4278  0.2980  0.1551
 1602SOL    HW116442   3.180   4.560  17.140  0.0182 -0.3648  0.8508
 1602SOL    HW216443   3.241   4.619  17.027  0.7904  0.6008 -0.1144
 1603SOL     OW16444   3.653   1.246  15.523 -0.4092 -0.1064 -0.0386
 1603SOL    HW116445   3.588   1.286  15.465 -1.9721 -0.2301  1.6522
 1603SOL    HW216446   3.601   1.203  15.590  2.6568 -1.2013  1.6688
 1604SOL     OW16447   2.662   1.098  17.432 -0.2223 -0.4290 -0.1608
 1604SOL    HW116448   2.621   1.037  17.371  0.7922  0.9757 -2.2157
 1604SOL    HW216449   2.672   1.171  17.371  0.4200  0.9617  1.6053
 1605SOL     OW16450   2.792   0.295   5.178 -0.2650  0.2644 -0.2733
 1605SOL    HW116451   2.745   0.254   5.251  1.3628  0.8102  1.0704
 1605SOL    HW216452   2.844   0.356   5.229 -0.5343  0.3615 -0.1139
 1606SOL     OW16453   3.305   3.808   6.356 -0.0482  0.2295  0.1715
 1606SOL    HW116454   3.271   3.760   6.431  1.2251 -0.0661  0.5557
 1606SOL    HW216455   3.333   3.896   6.381 -0.4796 -0.3410  2.6222
 1607SOL     OW16456   1.216   1.679   2.477  0.2785  0.3134  0.0926
 1607SOL    HW116457   1.261   1.689   2.393  0.5916 -0.4338  0.1684
 1607SOL    HW216458   1.209   1.768   2.511  2.0696  0.1529  0.8748
 1608SOL     OW16459   1.320   0.171   3.105  0.5158 -0.0965 -0.1414
 1608SOL    HW116460   1.350   0.094   3.056 -0.1994 -0.7406  0.4397
 1608SOL    HW216461   1.230   0.180   3.074  0.1023 -0.7903  0.8656
 1609SOL     OW16462   3.240   2.938   7.676 -0.1597  0.0114  0.3098
 1609SOL    HW116463   3.283   2.980   7.601  1.7324  0.0367  1.4153
 1609SOL    HW216464   3.291   2.982   7.744 -0.0823 -1.4322  1.1793
 1610SOL     OW16465   2.371   4.730   7.474  0.5733 -0.4305  0.1356
 1610SOL    HW116466   2.317   4.730   7.553 -0.5508  1.3533 -0.6295
 1610SOL    HW216467   2.452   4.688   7.504 -0.4406 -1.9139  0.7819
 1611SOL     OW16468   1.191   0.656   7.708 -0.2449 -0.0546  0.8062
 1611SOL    HW116469   1.159   0.652   7.798 -1.8165  3.0835  0.3892
 1611SOL    HW216470   1.275   0.613   7.722 -0.6599 -1.4524 -0.9770
 1612SOL     OW16471   4.323   1.475   6.258  0.1469 -0.4202 -0.2949
 1612SOL    HW116472   4.320   1.431   6.343 -0.3922  0.5735  0.2010
 1612SOL    HW216473   4.233   1.456   6.232  0.5070 -0.6095 -1.4021
 1613SOL     OW16474   3.108   2.291   6.611  0.4032 -0.2787  0.0291
 1613SOL    HW116475   3.017   2.289   6.641  0.1779  1.0886 -0.5965
 1613SOL    HW216476   3.142   2.375   6.643 -1.2227 -0.0474  1.1594
 1614SOL     OW16477   0.193   4.275  11.002 -0.1260  0.0878 -0.4874
 1614SOL    HW116478   0.256   4.258  11.072  1.3883 -0.5398 -1.9927
 1614SOL    HW216479   0.193   4.192  10.955 -2.9404  0.2633 -0.7884
 1615SOL     OW16480   0.696   3.794   7.006 -0.1292 -0.3535  0.2602
 1615SOL    HW116481   0.755   3.854   7.051 -0.3331 -0.5542  0.7940
 1615SOL    HW216482   0.613   3.809   7.052 -0.7123  2.3093 -1.5952
 1616SOL     OW16483   2.716   0.427   8.635  0.4430 -0.5465  0.1057
 1616SOL    HW116484   2.652   0.361   8.611 -0.7817  0.9102 -0.6111
 1616SOL    HW216485   2.720   0.491   8.564 -1.1684  0.6432  1.0821
 1617SOL     OW16486   4.381   4.231   2.595 -0.0343 -0.9111 -0.0228
 1617SOL    HW116487   4.380   4.320   2.559  2.0239 -0.8761 -0.0109
 1617SOL    HW216488   4.287   4.224   2.611 -0.0084 -2.7474 -0.5858
 1618SOL     OW16489   1.710   2.428   8.243  0.1936  0.3619  0.4672
 1618SOL    HW116490   1.767   2.400   8.172 -1.3342 -0.2837 -0.5142
 1618SOL    HW216491   1.738   2.362   8.307 -1.9094 -2.2978 -1.3564
 1619SOL     OW16492   0.382   1.226   7.159  0.5285 -0.1807 -0.5549
 1619SOL    HW116493   0.340   1.309   7.179  0.3120 -0.3265 -0.4057
 1619SOL    HW216494   0.406   1.236   7.067  1.3913 -3.9888 -0.7358
 1620SOL     OW16495   1.721   3.228   4.697 -0.3422 -0.1286  0.2027
 1620SOL    HW116496   1.656   3.192   4.636 -0.6068 -0.2775  0.5701
 1620SOL    HW216497   1.798   3.198   4.650 -0.7135  0.2803 -0.6621
 1621SOL     OW16498   4.194   1.384  12.435 -0.5408 -0.2662 -0.0531
 1621SOL    HW116499   4.206   1.419  12.347 -1.4620 -0.0846 -0.1026
 1621SOL    HW216500   4.256   1.431  12.491 -2.2488  1.1185  0.6838
 1622SOL     OW16501   1.680   1.587   9.104 -0.3021 -0.0301  0.0193
 1622SOL    HW116502   1.659   1.662   9.159 -0.0229  0.1432 -0.1098
 1622SOL    HW216503   1.753   1.620   9.052  2.0930 -2.8130  1.6075
 1623SOL     OW16504   2.506   1.909   8.883  0.1465  0.1266  0.4430
 1623SOL    HW116505   2.559   1.850   8.937  0.3688  1.0087  1.1839
 1623SOL    HW216506   2.443   1.952   8.941 -1.3379  0.2269 -1.2250
 1624SOL     OW16507   3.391   2.982  11.026 -0.1943 -0.1069  0.1654
 1624SOL    HW116508   3.372   3.050  10.962 -1.0169 -0.6051 -0.1252
 1624SOL    HW216509   3.439   3.034  11.090 -1.8678 -1.4090  2.4865
 1625SOL     OW16510   4.575   3.831  17.676 -0.2790  0.1300  0.2480
 1625SOL    HW116511   4.556   3.922  17.697  0.8838  0.2387  0.8654
 1625SOL    HW216512   4.603   3.829  17.585 -1.1883  1.7843 -0.0517
 1626SOL     OW16513   2.509   1.226   3.543 -0.3596  0.1890 -0.4176
 1626SOL    HW116514   2.417   1.249   3.528 -0.8820 -1.0895  0.7784
 1626SOL    HW216515   2.491   1.132   3.537 -0.7474  0.0871  2.1850
 1627SOL     OW16516   2.972   3.188   5.075  0.2881 -0.2154 -0.3677
 1627SOL    HW116517   3.047   3.219   5.025 -0.0156 -1.1827 -1.4217
 1627SOL    HW216518   3.007   3.187   5.164  2.2069 -0.4151 -1.1376
 1628SOL     OW16519   4.114   2.619   4.344 -0.9792  0.4123  0.5012
 1628SOL    HW116520   4.176   2.648   4.412  0.9701  0.4934 -1.3158
 1628SOL    HW216521   4.082   2.702   4.310 -0.6977  0.3899  0.1830
 1629SOL     OW16522   0.982   3.009   5.138 -0.4518 -0.0341 -0.3106
 1629SOL    HW116523   0.931   2.996   5.058 -1.2048  0.0229  0.1595
 1629SOL    HW216524   1.061   3.052   5.106 -0.2880  1.1687  1.7359
 1630SOL     OW16525   3.340   0.213  11.494  0.0889  0.2492 -0.5137
 1630SOL    HW116526   3.432   0.236  11.480  0.8864 -3.6345 -1.5707
 1630SOL    HW216527   3.337   0.118  11.483  1.2801  0.0674  0.6519
 1631SOL     OW16528   2.481   1.653  11.544  0.6989  0.0604 -0.1580
 1631SOL    HW116529   2.438   1.700  11.615 -1.5332 -0.3481 -1.2676
 1631SOL    HW216530   2.574   1.668  11.565  0.2613  0.5951  1.3974
 1632SOL     OW16531   0.793   2.673  16.646  0.0302 -0.3677  0.2295
 1632SOL    HW116532   0.828   2.680  16.558  0.0182  1.8087  0.3931
 1632SOL    HW216533   0.802   2.580  16.665  0.4484 -0.0271  1.7094
 1633SOL     OW16534   4.299   3.326   3.616 -0.3783 -0.5069 -0.0866
 1633SOL    HW116535   4.283   3.268   3.541 -0.4525 -0.4886 -0.0852
 1633SOL    HW216536   4.393   3.343   3.605 -0.7071  0.7455 -1.0095
 1634SOL     OW16537   4.616   0.362   8.933 -0.1431  0.4030  0.2087
 1634SOL    HW116538   4.571   0.402   9.008 -0.4405  0.8402 -0.2082
 1634SOL    HW216539   4.603   0.269   8.952  0.6989 -0.5191 -3.8416
 1635SOL     OW16540   3.095   2.804   8.387 -0.3417  0.0809 -0.7849
 1635SOL    HW116541   3.085   2.829   8.295  0.4426 -1.1565 -1.2051
 1635SOL    HW216542   3.093   2.890   8.429  1.3843 -0.8139  1.1652
 1636SOL     OW16543   0.938   1.247   9.877 -0.0568 -0.0955 -0.0769
 1636SOL    HW116544   0.886   1.257   9.957  1.6166  1.7056  0.7745
 1636SOL    HW216545   0.951   1.152   9.884  0.8242  0.0670  0.3632
 1637SOL     OW16546   0.349   2.236  12.721 -0.1667 -0.1354  0.4436
 1637SOL    HW116547   0.281   2.183  12.680 -0.8414  0.5872  0.6387
 1637SOL    HW216548   0.380   2.273  12.638  1.0096  0.3504  1.1087
 1638SOL     OW16549   0.537   0.213   8.337  0.4087 -0.3588  0.1356
 1638SOL    HW116550   0.537   0.308   8.324  3.2987 -0.6451 -1.7859
 1638SOL    HW216551   0.477   0.201   8.412  0.7274  2.3320  0.8458
 1639SOL     OW16552   4.437   1.463   2.333  0.9426 -0.1821 -0.0808
 1639SOL    HW116553   4.416   1.378   2.371  3.6755 -0.2596  1.2333
 1639SOL    HW216554   4.368   1.523   2.362 -0.7804 -0.7021 -3.1092
 1640SOL     OW16555   0.891   2.269   9.986 -0.6165 -0.1422 -0.3232
 1640SOL    HW116556   0.917   2.355   9.953 -1.4181  0.9475  1.9167
 1640SOL    HW216557   0.880   2.220   9.904  3.8728  0.4214 -1.2391
 1641SOL     OW16558   3.793   1.722  17.004 -0.0821  0.1362  0.2643
 1641SOL    HW116559   3.788   1.627  16.991  1.8358 -0.0027  0.4756
 1641SOL    HW216560   3.854   1.743  16.933 -1.6089  0.4762 -0.9373
 1642SOL     OW16561   4.045   4.698  13.429 -0.2858  0.1183 -0.8852
 1642SOL    HW116562   4.031   4.606  13.408  1.6073 -0.4496  0.3115
 1642SOL    HW216563   4.055   4.704  13.524  0.0583 -2.6795 -0.7480
 1643SOL     OW16564   4.415   1.737  16.089 -0.2322 -0.2961 -0.6625
 1643SOL    HW116565   4.348   1.798  16.058  0.7577  1.0192 -0.2213
 1643SOL    HW216566   4.498   1.785  16.091 -0.1612 -0.3872 -1.2587
 1644SOL     OW16567   1.564   3.772   6.039 -0.2802 -0.5329  0.0041
 1644SOL    HW116568   1.573   3.827   6.116 -0.0486  0.3332 -0.6431
 1644SOL    HW216569   1.645   3.726   6.061  0.1796  0.1970 -0.1871
 1645SOL     OW16570   3.069   0.366   1.604 -0.2499  0.2159  0.0247
 1645SOL    HW116571   2.974   0.358   1.610  0.0556 -1.7003  2.1589
 1645SOL    HW216572   3.074   0.406   1.517  0.7534  4.5258  2.0511
 1646SOL     OW16573   3.348   2.870   4.806  0.0357 -0.0906  0.1325
 1646SOL    HW116574   3.270   2.836   4.851 -0.7135 -1.9712 -2.6213
 1646SOL    HW216575   3.412   2.799   4.802  1.1752  1.0110 -1.0032
 1647SOL     OW16576   2.713   2.535   8.133 -0.4203  0.1089  0.5301
 1647SOL    HW116577   2.618   2.532   8.146 -0.8185  0.3537 -2.2322
 1647SOL    HW216578   2.730   2.618   8.089  0.3495 -0.9996 -1.2667
 1648SOL     OW16579   4.674   3.915   5.515 -0.5479  0.0463 -0.4589
 1648SOL    HW116580   0.031   3.924   5.503 -0.5033  0.8330  0.4970
 1648SOL    HW216581   4.644   3.995   5.557 -1.2234  0.4179 -1.6629
 1649SOL     OW16582   3.830   0.158   8.331  0.3896  0.0591  0.7316
 1649SOL    HW116583   3.828   0.183   8.424 -1.1118  0.8890  0.4722
 1649SOL    HW216584   3.740   0.125   8.327 -0.1280  1.3432  1.5391
 1650SOL     OW16585   3.761   4.250  15.921 -0.7404  0.1024 -0.4528
 1650SOL    HW116586   3.708   4.261  15.842  0.5668 -0.5170 -1.4093
 1650SOL    HW216587   3.695   4.263  15.989  0.0658  0.3215  0.2795
 1651SOL     OW16588   1.886   3.470   4.881 -0.7443 -0.0166  0.4570
 1651SOL    HW116589   1.936   3.453   4.961 -2.6941 -0.0493  1.6479
 1651SOL    HW216590   1.819   3.403   4.891  0.0679 -1.0832 -1.3326
 1652SOL     OW16591   1.047   0.818   3.714 -0.4759  0.3344 -0.2252
 1652SOL    HW116592   1.108   0.745   3.729 -2.7703 -1.3933  0.7119
 1652SOL    HW216593   1.100   0.879   3.662 -1.0975  0.2669 -0.9448
 1653SOL     OW16594   4.719   0.560  14.253  0.3267 -0.5842  0.1701
 1653SOL    HW116595   4.631   0.540  14.286  0.0981  0.1338  0.0058
 1653SOL    HW216596   4.699   0.583  14.163  0.1912 -1.1107  0.0666
 1654SOL     OW16597   4.086   0.057   1.822  0.0133  0.5183  0.3082
 1654SOL    HW116598   4.005   0.045   1.773 -0.4282 -0.7229  1.3631
 1654SOL    HW216599   4.142   0.087   1.750 -1.1125  2.2132  0.1321
 1655SOL     OW16600   0.028   0.603   7.612 -0.0314  0.3287 -0.2196
 1655SOL    HW116601   4.683   0.643   7.639 -1.0203 -0.5996 -1.8237
 1655SOL    HW216602   0.025   0.613   7.517  3.1352 -0.4333 -0.3926
 1656SOL     OW16603   0.254   4.123   4.202  0.2572 -0.4266  0.3451
 1656SOL    HW116604   0.256   4.039   4.248  0.8446 -0.7247 -0.2297
 1656SOL    HW216605   0.193   4.170   4.259  1.0576 -1.6240  2.2171
 1657SOL     OW16606   3.642   0.546  12.204 -0.2085 -0.0586 -0.4027
 1657SOL    HW116607   3.711   0.572  12.265 -1.4380  3.2508 -0.4322
 1657SOL    HW216608   3.573   0.523  12.265  0.4401 -0.3651  0.2150
 1658SOL     OW16609   0.337   1.014   2.810 -0.4158 -0.4782 -0.8847
 1658SOL    HW116610   0.353   1.097   2.765  1.2690 -1.0937 -1.4173
 1658SOL    HW216611   0.245   0.993   2.793 -0.7575 -1.6972  2.3899
 1659SOL     OW16612   2.352   3.228   2.077 -0.1741 -0.2969  0.0145
 1659SOL    HW116613   2.365   3.287   2.151 -0.0969  2.0560 -1.8765
 1659SOL    HW216614   2.261   3.211   2.102  0.2777  0.4084  2.1001
 1660SOL     OW16615   3.643   1.406   2.641 -0.3951 -0.0793 -0.6010
 1660SOL    HW116616   3.677   1.483   2.595 -1.2545  1.8650  1.9970
 1660SOL    HW216617   3.721   1.382   2.690  0.1755  0.9736 -0.9826
 1661SOL     OW16618   1.106   2.764   8.930  0.1581 -0.0314 -0.3647
 1661SOL    HW116619   1.020   2.757   8.888 -1.0682  2.2269  1.7504
 1661SOL    HW216620   1.133   2.856   8.935 -0.6095  0.0689  2.2288
 1662SOL     OW16621   1.434   1.030   8.965  0.1114 -0.7729 -0.3516
 1662SOL    HW116622   1.499   0.988   8.910 -0.4571  0.8862 -2.2933
 1662SOL    HW216623   1.458   1.012   9.056  0.8521 -1.7401 -0.7445
 1663SOL     OW16624   2.266   0.537   4.241 -0.0433  0.6842 -0.7071
 1663SOL    HW116625   2.265   0.480   4.318 -1.1958 -0.0807 -1.2778
 1663SOL    HW216626   2.350   0.518   4.200  1.9844  1.4286  3.0772
 1664SOL     OW16627   4.077   4.514   0.986  0.1003 -0.0493  0.3405
 1664SOL    HW116628   4.126   4.433   1.001  0.1683  0.1111  0.9734
 1664SOL    HW216629   4.046   4.518   0.895 -0.3994 -1.0084  0.4762
 1665SOL     OW16630   1.867   1.676   8.933  0.3331 -0.0988 -0.3462
 1665SOL    HW116631   1.896   1.748   8.876  0.7890 -2.1980 -2.7677
 1665SOL    HW216632   1.931   1.613   8.900 -1.0265 -1.5177 -0.2606
 1666SOL     OW16633   0.958   2.325   6.184 -0.4526  0.0302 -0.0181
 1666SOL    HW116634   0.892   2.320   6.115 -0.9806  0.6062  0.4354
 1666SOL    HW216635   0.920   2.403   6.225 -0.8883  0.3792 -1.0894
 1667SOL     OW16636   4.373   0.952   4.686 -0.1559 -0.1554 -0.7045
 1667SOL    HW116637   4.325   0.869   4.688 -1.1377  0.4326  0.1168
 1667SOL    HW216638   4.340   0.996   4.764  0.0647 -0.2406 -0.5640
 1668SOL     OW16639   2.783   0.032  12.950 -0.0312 -0.7415 -0.6320
 1668SOL    HW116640   2.805   0.115  12.993 -3.9585 -0.8016  1.5200
 1668SOL    HW216641   2.872   4.737  12.936  1.2020  2.3442  0.0629
 1669SOL     OW16642   4.450   1.385   8.126 -0.0590  0.4037 -0.0817
 1669SOL    HW116643   4.495   1.403   8.043  0.5822  0.9970  0.3874
 1669SOL    HW216644   4.514   1.402   8.195 -0.7050  0.8978  0.4041
 1670SOL     OW16645   4.447   0.390  14.361  0.2060 -0.2865 -0.0018
 1670SOL    HW116646   4.421   0.448  14.289  1.7512 -0.1489 -0.4504
 1670SOL    HW216647   4.423   0.308  14.318  2.7422 -0.6246 -0.7948
 1671SOL     OW16648   3.372   0.588  15.171  0.0168 -0.0597 -0.5502
 1671SOL    HW116649   3.450   0.540  15.143 -0.4039 -0.7146 -0.6038
 1671SOL    HW216650   3.406   0.668  15.211  0.5653 -0.7387  0.3242
 1672SOL     OW16651   3.827   0.458   2.554 -0.0912  0.0562 -0.4900
 1672SOL    HW116652   3.917   0.429   2.539 -1.1045 -3.3346 -0.0701
 1672SOL    HW216653   3.802   0.503   2.474 -1.4114  1.6067  0.7858
 1673SOL     OW16654   2.843   1.087  17.092 -0.0713 -0.1805  0.0454
 1673SOL    HW116655   2.914   1.031  17.058 -1.0881 -1.0344 -0.7090
 1673SOL    HW216656   2.792   1.096  17.011  1.0019 -1.2086 -0.7475
 1674SOL     OW16657   2.426   3.257  13.202 -0.1856  0.6107  0.2670
 1674SOL    HW116658   2.473   3.181  13.234 -0.4132 -0.2859 -1.5201
 1674SOL    HW216659   2.471   3.271  13.119 -0.2489  0.0542  0.1396
 1675SOL     OW16660   4.103   4.666  10.807  0.1718  0.4478 -0.1263
 1675SOL    HW116661   4.020   4.681  10.761 -1.2523  0.1076  2.3707
 1675SOL    HW216662   4.086   4.576  10.834 -3.1809  0.6100 -1.6502
 1676SOL     OW16663   1.811   3.248   0.937  0.3229 -0.0941  0.1995
 1676SOL    HW116664   1.762   3.327   0.957 -0.7955  0.0225 -3.0279
 1676SOL    HW216665   1.879   3.281   0.878  0.3196  0.6856  0.6434
 1677SOL     OW16666   2.738   1.483  10.398  0.1410  0.0069  0.0855
 1677SOL    HW116667   2.759   1.428  10.473  2.7327  1.6995  0.5837
 1677SOL    HW216668   2.826   1.487  10.360 -0.5467 -1.3763 -1.6364
 1678SOL     OW16669   0.434   4.711  14.863 -0.5585 -0.2066 -0.1290
 1678SOL    HW116670   0.459   0.065  14.849 -0.0026 -0.2471  0.5700
 1678SOL    HW216671   0.372   4.716  14.936  0.7118 -1.6595  1.0571
 1679SOL     OW16672   4.534   4.436   3.996 -0.3618  0.0478 -0.1034
 1679SOL    HW116673   4.482   4.516   3.988  0.7265  0.7889  0.1682
 1679SOL    HW216674   4.599   4.467   4.060  0.2228 -2.3986  0.4707
 1680SOL     OW16675   4.720   0.998   8.950  0.2091 -0.1219 -0.6555
 1680SOL    HW116676   4.636   0.960   8.973  0.1890 -0.6373 -1.5960
 1680SOL    HW216677   0.040   0.955   9.013  0.1261  1.2434  0.3612
 1681SOL     OW16678   1.230   2.372   2.723 -0.3052  0.3905 -0.3073
 1681SOL    HW116679   1.189   2.452   2.753 -1.7470 -0.2640 -0.5259
 1681SOL    HW216680   1.301   2.400   2.665 -0.1241 -0.9930 -0.7544
 1682SOL     OW16681   4.122   0.868   6.549 -0.3124  0.3598 -0.2515
 1682SOL    HW116682   4.057   0.883   6.480  0.3446 -2.6915 -1.5269
 1682SOL    HW216683   4.170   0.949   6.567 -1.1266  0.8240 -0.1491
 1683SOL     OW16684   1.627   0.050   6.245 -0.1980 -0.0781  0.7003
 1683SOL    HW116685   1.641   0.095   6.162 -0.1087  0.4342  0.9838
 1683SOL    HW216686   1.535   0.073   6.253  0.1552  1.4316  0.4673
 1684SOL     OW16687   3.655   1.975   5.327 -0.2551  0.1595  0.2336
 1684SOL    HW116688   3.699   1.995   5.409 -2.3869 -2.3779  2.0059
 1684SOL    HW216689   3.714   2.020   5.267  0.6425 -0.5679  0.5623
 1685SOL     OW16690   0.892   3.689  16.795  0.3758 -0.0658  0.3589
 1685SOL    HW116691   0.815   3.639  16.823  1.6685 -3.2422 -1.6907
 1685SOL    HW216692   0.894   3.758  16.862  1.9853 -0.4509  0.7017
 1686SOL     OW16693   1.022   2.899   5.949 -0.1743  0.1500  0.3987
 1686SOL    HW116694   1.023   2.977   5.893 -0.0560 -1.0400 -1.2540
 1686SOL    HW216695   0.931   2.897   5.978 -0.2283 -1.1209  0.1262
 1687SOL     OW16696   0.546   3.252   2.864 -0.5738 -0.1535 -0.6943
 1687SOL    HW116697   0.458   3.288   2.866  0.5516  2.5472  1.4452
 1687SOL    HW216698   0.537   3.186   2.933 -0.1357  0.9621  0.4514
 1688SOL     OW16699   2.525   2.611   2.200 -0.3289  0.2705 -0.1279
 1688SOL    HW116700   2.487   2.525   2.186  0.4668 -0.2428  0.7925
 1688SOL    HW216701   2.600   2.595   2.258 -0.9083 -0.9696  0.2734
 1689SOL     OW16702   3.884   1.241  11.154  0.4925 -0.5387  0.1464
 1689SOL    HW116703   3.809   1.270  11.101  1.2602 -0.6667 -1.0224
 1689SOL    HW216704   3.961   1.262  11.102 -0.1038 -0.6301 -0.7862
 1690SOL     OW16705   4.446   1.666   5.684 -0.0813 -0.1322  0.0953
 1690SOL    HW116706   4.359   1.662   5.644 -0.6754 -0.4131  1.4187
 1690SOL    HW216707   4.426   1.683   5.776 -2.4294  0.6746 -0.5543
 1691SOL     OW16708   1.542   2.847   3.205  0.1007  0.4576 -0.0828
 1691SOL    HW116709   1.551   2.933   3.246 -0.4226  1.4859 -2.1220
 1691SOL    HW216710   1.633   2.821   3.216 -0.0330 -0.1543 -0.3953
 1692SOL     OW16711   4.530   2.977   7.440 -0.5202 -0.6259  0.5039
 1692SOL    HW116712   4.452   2.950   7.391  0.0217 -2.2743  0.5438
 1692SOL    HW216713   4.588   2.909   7.405  0.9621  1.1577 -0.4799
 1693SOL     OW16714   2.555   1.986  11.540  0.4178  0.3503 -0.3345
 1693SOL    HW116715   2.466   2.004  11.511 -0.0559 -2.3774 -0.6260
 1693SOL    HW216716   2.527   1.929  11.611  1.5498 -1.4916 -1.3535
 1694SOL     OW16717   1.961   0.459   7.982 -0.6590  0.2656  0.2948
 1694SOL    HW116718   1.916   0.454   7.897 -0.3120 -1.0183  0.1922
 1694SOL    HW216719   1.933   0.387   8.038  1.2219 -1.3134 -0.8164
 1695SOL     OW16720   2.818   1.265   3.672 -0.1646  0.5160  0.6326
 1695SOL    HW116721   2.861   1.347   3.697 -0.4307  0.4193  1.4178
 1695SOL    HW216722   2.824   1.257   3.577 -0.8131  1.1108  0.5419
 1696SOL     OW16723   0.349   1.497   8.248  0.1356 -0.5523 -0.0625
 1696SOL    HW116724   0.366   1.432   8.316 -0.9491  0.7531  1.4575
 1696SOL    HW216725   0.319   1.573   8.297  0.2280 -2.1127  2.4159
 1697SOL     OW16726   4.093   4.218   5.218 -0.2047 -0.2850  0.2137
 1697SOL    HW116727   4.177   4.201   5.260  0.2540  1.4811  0.0264
 1697SOL    HW216728   4.100   4.161   5.141  0.4812 -1.3299  1.0468
 1698SOL     OW16729   3.600   4.487  14.199  0.3052  0.5046 -0.3499
 1698SOL    HW116730   3.597   4.570  14.152 -0.6128  0.3845 -0.4871
 1698SOL    HW216731   3.511   4.480  14.232  0.0957 -2.0837 -1.4316
 1699SOL     OW16732   0.722   0.599   6.868  0.2034  0.6418  0.1344
 1699SOL    HW116733   0.748   0.524   6.920 -0.2070  0.7451  0.4887
 1699SOL    HW216734   0.666   0.557   6.803 -1.1396 -0.3809  1.9674
 1700SOL     OW16735   0.298   1.080  13.588  0.2225 -0.0738 -0.2999
 1700SOL    HW116736   0.216   1.043  13.556  0.9219 -0.7869 -1.2753
 1700SOL    HW216737   0.266   1.160  13.629 -2.2999 -1.2304 -0.0441
 1701SOL     OW16738   2.612   4.092   7.327 -0.2059 -0.1377 -0.6557
 1701SOL    HW116739   2.631   4.037   7.404  0.5032  0.0161 -0.7213
 1701SOL    HW216740   2.528   4.126   7.358 -0.3376 -1.6916  0.7074
 1702SOL     OW16741   2.702   4.363   5.436  0.0643 -0.1164 -0.2386
 1702SOL    HW116742   2.710   4.346   5.342  2.6121 -1.9333  0.3016
 1702SOL    HW216743   2.760   4.292   5.463  0.5909  0.9552  1.4625
 1703SOL     OW16744   0.683   0.031   6.459  0.1994  0.0083  0.2760
 1703SOL    HW116745   0.770   0.070   6.467  0.2104  0.1741 -0.6535
 1703SOL    HW216746   0.701   4.674   6.467 -1.1588 -0.1193  1.8316
 1704SOL     OW16747   1.661   1.860  15.587 -0.4278 -0.3631 -0.1390
 1704SOL    HW116748   1.566   1.858  15.584 -0.3410 -3.2456 -0.5774
 1704SOL    HW216749   1.690   1.894  15.502  1.0948 -2.5845 -0.5005
 1705SOL     OW16750   2.283   3.092   2.929 -0.4432 -0.1495 -0.7882
 1705SOL    HW116751   2.342   3.161   2.898  0.5060 -1.3334 -1.6315
 1705SOL    HW216752   2.314   3.018   2.877  1.4270  1.3211 -1.7602
 1706SOL     OW16753   2.432   2.106   6.207  0.2225 -0.5023 -0.4737
 1706SOL    HW116754   2.406   2.135   6.294  0.6140  0.3961 -0.6558
 1706SOL    HW216755   2.504   2.163   6.182 -0.7068  0.5940 -0.6679
 1707SOL     OW16756   4.656   3.674   5.665 -0.5885 -0.2600 -0.2291
 1707SOL    HW116757   4.578   3.705   5.620 -1.0031 -0.3985  0.3925
 1707SOL    HW216758   4.707   3.754   5.679 -0.5543 -0.5423  1.2849
 1708SOL     OW16759   2.893   3.307   7.037 -0.4351  0.1602 -0.1699
 1708SOL    HW116760   2.885   3.400   7.016  0.7552  0.5188  0.9435
 1708SOL    HW216761   2.821   3.299   7.100  0.5622 -2.1435  0.6797
 1709SOL     OW16762   2.291   3.027  16.289 -0.1536 -0.0986 -0.1109
 1709SOL    HW116763   2.198   3.002  16.284  0.0609 -1.0545  0.6270
 1709SOL    HW216764   2.285   3.083  16.366  0.8954 -0.6839  0.3823
 1710SOL     OW16765   0.908   4.049   6.163 -0.1533  0.3771 -0.1935
 1710SOL    HW116766   0.853   4.127   6.169  1.0905  1.1369  1.3352
 1710SOL    HW216767   0.970   4.071   6.093  0.3207 -1.0997 -0.2405
 1711SOL     OW16768   4.713   4.052   7.088  0.3489  0.3268 -0.0127
 1711SOL    HW116769   4.629   4.064   7.133 -0.6839  3.0308 -2.7169
 1711SOL    HW216770   0.025   3.999   7.151 -2.2338 -0.4871  1.3360
 1712SOL     OW16771   0.462   2.515  13.952  0.0478 -0.3586  0.5972
 1712SOL    HW116772   0.425   2.472  14.028 -2.4969  1.1008  0.1750
 1712SOL    HW216773   0.413   2.475  13.879  0.2964 -0.9152  0.7313
 1713SOL     OW16774   3.311   0.468   2.518  0.0147 -0.7149 -0.0188
 1713SOL    HW116775   3.258   0.389   2.503  0.2956 -1.3358  2.2727
 1713SOL    HW216776   3.363   0.436   2.592  1.7384  1.4280 -0.3167
 1714SOL     OW16777   3.132   3.405   1.912  0.2390  0.7638  0.1837
 1714SOL    HW116778   3.086   3.414   1.828 -0.7046  1.9225  0.8143
 1714SOL    HW216779   3.164   3.495   1.906 -2.3286  1.6846  0.0450
 1715SOL     OW16780   1.109   4.346   3.965  0.5764 -0.0725 -0.2547
 1715SOL    HW116781   1.108   4.262   3.920 -1.0786  0.3195 -0.9640
 1715SOL    HW216782   1.080   4.405   3.895  0.2704  0.5103  0.3639
 1716SOL     OW16783   3.394   4.709   6.093 -0.1379  0.1228  0.1541
 1716SOL    HW116784   3.348   0.056   6.098 -3.7544 -1.7228 -1.8330
 1716SOL    HW216785   3.375   4.683   6.003 -1.4608 -1.0638  0.7540
 1717SOL     OW16786   3.079   3.296   3.417  0.0533 -0.2700 -0.6777
 1717SOL    HW116787   3.013   3.232   3.445 -1.8106  0.8511 -2.4754
 1717SOL    HW216788   3.103   3.271   3.327 -0.1847 -0.2090 -0.7583
 1718SOL     OW16789   0.481   3.721   9.065 -0.6010 -0.1482  0.1516
 1718SOL    HW116790   0.574   3.726   9.090 -0.1932 -1.5255 -1.1042
 1718SOL    HW216791   0.446   3.794   9.116  0.1571  0.6397 -0.4517
 1719SOL     OW16792   2.031   1.689   8.021 -0.2415  0.3266 -0.0347
 1719SOL    HW116793   2.097   1.757   8.007 -1.7206  1.6291 -0.6547
 1719SOL    HW216794   2.050   1.667   8.112  1.0034 -0.5689 -0.5092
 1720SOL     OW16795   2.199   0.215   2.933 -0.5698  0.0553  0.6569
 1720SOL    HW116796   2.188   0.208   2.838  0.2782 -2.1232  0.7251
 1720SOL    HW216797   2.135   0.282   2.957 -2.1089 -1.9785  2.3113
 1721SOL     OW16798   3.569   4.525   4.532  0.0209 -0.1341 -0.3197
 1721SOL    HW116799   3.587   4.592   4.466 -0.6793  0.4617  0.0935
 1721SOL    HW216800   3.527   4.458   4.477 -1.2098  0.7164 -0.4316
 1722SOL     OW16801   2.775   3.254   1.449 -0.1541  0.6219 -0.1006
 1722SOL    HW116802   2.865   3.244   1.480 -0.3345  1.7952  0.8194
 1722SOL    HW216803   2.784   3.264   1.355 -1.2606  0.2535 -0.2457
 1723SOL     OW16804   3.709   2.202  13.657 -0.0855  0.0167  0.3984
 1723SOL    HW116805   3.689   2.173  13.746 -1.3453 -1.8712 -0.4736
 1723SOL    HW216806   3.628   2.206  13.605 -0.3285  0.5720  0.8191
 1724SOL     OW16807   2.212   2.165   3.767 -0.1682  0.8270 -0.4205
 1724SOL    HW116808   2.271   2.149   3.693  0.5125 -1.8397  0.7234
 1724SOL    HW216809   2.187   2.075   3.786 -2.3351  1.4326 -0.4122
 1725SOL     OW16810   3.140   3.156   8.883  0.0115  0.6781 -0.1983
 1725SOL    HW116811   3.092   3.136   8.964  1.7812 -0.7629  0.4919
 1725SOL    HW216812   3.184   3.237   8.910 -1.3164  1.0679  0.7952
 1726SOL     OW16813   0.564   0.565   1.093  0.4463  0.1074 -0.0614
 1726SOL    HW116814   0.517   0.549   1.174  2.5164  0.4510  1.2072
 1726SOL    HW216815   0.653   0.579   1.125 -0.0229  0.9940  0.8134
 1727SOL     OW16816   2.491   3.572   2.318  0.2040  0.5119 -0.5494
 1727SOL    HW116817   2.517   3.654   2.274  1.5253  0.6988  0.5863
 1727SOL    HW216818   2.534   3.578   2.403 -1.1564  1.7564  0.0345
 1728SOL     OW16819   2.785   1.694   5.117 -0.5742 -0.0600 -0.5517
 1728SOL    HW116820   2.781   1.632   5.044 -0.8508 -1.4922  0.6769
 1728SOL    HW216821   2.783   1.781   5.077  3.2386  0.0014 -0.6248
 1729SOL     OW16822   3.803   0.463   5.693  0.3571  0.4445  0.2010
 1729SOL    HW116823   3.774   0.497   5.778  2.0409 -0.3519  1.0973
 1729SOL    HW216824   3.795   0.548   5.650 -0.2359  0.4028  0.2289
 1730SOL     OW16825   0.685   3.090   3.572 -0.1512  0.4569 -0.2781
 1730SOL    HW116826   0.723   3.085   3.485  0.1733  0.8315 -0.1546
 1730SOL    HW216827   0.624   3.018   3.559  2.3440 -1.6065 -0.6317
 1731SOL     OW16828   2.482   1.870   6.605  0.1704 -0.0367 -0.2827
 1731SOL    HW116829   2.444   1.869   6.517 -3.5613 -1.8417  1.3836
 1731SOL    HW216830   2.565   1.910   6.579 -0.5371  1.4039 -0.3194
 1732SOL     OW16831   0.225   4.278   6.018 -0.1876 -0.2130 -0.2036
 1732SOL    HW116832   0.251   4.204   5.962 -0.5977  0.3078 -1.0768
 1732SOL    HW216833   0.233   4.352   5.958  0.5466 -0.4711 -0.4385
 1733SOL     OW16834   3.877   1.358   4.617 -0.2246  0.5300  0.1141
 1733SOL    HW116835   3.782   1.370   4.620 -0.4177 -0.9821  0.3541
 1733SOL    HW216836   3.900   1.406   4.538 -1.1666 -1.1636 -1.1874
 1734SOL     OW16837   4.342   0.983   5.813  0.4014 -0.1242 -0.0693
 1734SOL    HW116838   4.308   1.067   5.842 -1.4499  0.6567 -4.5436
 1734SOL    HW216839   4.281   0.912   5.832 -0.0727  0.1827 -0.4647
 1735SOL     OW16840   2.185   3.669   2.096 -0.2627 -0.5161  0.1550
 1735SOL    HW116841   2.181   3.682   2.191  1.4701  2.4244 -0.1768
 1735SOL    HW216842   2.107   3.614   2.082 -1.2995  1.3321 -1.4408
 1736SOL     OW16843   2.466   2.120  14.918 -0.7582  0.1929 -0.4371
 1736SOL    HW116844   2.444   2.068  14.840  1.2279 -1.8671  0.3576
 1736SOL    HW216845   2.409   2.192  14.893 -0.2357  0.4992 -0.7551
 1737SOL     OW16846   2.029   3.014  14.355 -0.0966 -0.4512 -0.0578
 1737SOL    HW116847   1.985   2.954  14.295  0.6494 -2.5323  1.4698
 1737SOL    HW216848   1.959   3.077  14.374 -1.2470 -1.6027 -0.4722
 1738SOL     OW16849   0.066   2.905   8.584 -0.6050  0.2183 -0.0763
 1738SOL    HW116850   0.105   2.875   8.502  2.3165  1.1220  0.9840
 1738SOL    HW216851   0.136   2.953   8.626  1.4773 -1.2447 -1.8916
 1739SOL     OW16852   3.383   2.719   1.976  0.0047  0.0339  0.1156
 1739SOL    HW116853   3.409   2.690   1.888 -1.6332 -0.0596 -0.3313
 1739SOL    HW216854   3.463   2.705   2.027  0.5309  0.1986 -0.6542
 1740SOL     OW16855   0.587   4.296   2.369 -0.4625 -0.0510  0.4695
 1740SOL    HW116856   0.538   4.215   2.380 -1.3183  0.1495 -1.8366
 1740SOL    HW216857   0.522   4.337   2.312 -0.5727 -0.4365  0.3186
 1741SOL     OW16858   4.597   1.014   6.825  0.8927 -0.2881  0.3485
 1741SOL    HW116859   4.656   0.970   6.886 -0.2664 -0.3727  1.4119
 1741SOL    HW216860   4.566   1.090   6.875 -1.5530 -1.0154 -0.0380
 1742SOL     OW16861   2.212   1.808  14.633 -0.0294  0.2256 -0.6509
 1742SOL    HW116862   2.250   1.793  14.546 -2.3589 -1.5824 -1.3430
 1742SOL    HW216863   2.181   1.897  14.623  2.2689  0.9361 -1.4683
 1743SOL     OW16864   3.437   1.752   4.406  0.0058 -0.3317 -0.1634
 1743SOL    HW116865   3.498   1.826   4.409  1.7740 -1.7939  0.4455
 1743SOL    HW216866   3.500   1.682   4.424 -0.6125 -0.5705  1.0787
 1744SOL     OW16867   0.074   4.357   7.446  0.6290  0.1539  0.5836
 1744SOL    HW116868   4.729   4.399   7.471  0.6632 -0.7915  2.2585
 1744SOL    HW216869   0.053   4.325   7.358  0.5437 -0.6556  0.8971
 1745SOL     OW16870   3.306   2.592   3.988 -0.3459  0.1906 -0.1247
 1745SOL    HW116871   3.226   2.642   4.003 -1.1205 -0.7418 -1.1666
 1745SOL    HW216872   3.306   2.527   4.059  0.3586  0.1931 -0.1176
 1746SOL     OW16873   3.196   1.466   6.240 -0.4053  0.3782 -0.0500
 1746SOL    HW116874   3.273   1.446   6.186 -0.6093  0.1841 -0.2711
 1746SOL    HW216875   3.124   1.429   6.189 -0.7875  0.6844  0.2611
 1747SOL     OW16876   0.358   1.719   4.979 -0.1136 -0.0363  0.6552
 1747SOL    HW116877   0.365   1.678   5.065  0.8816 -1.0398  0.1036
 1747SOL    HW216878   0.446   1.755   4.974  0.1753 -0.5229  2.5144
 1748SOL     OW16879   1.215   0.780   8.360  0.4273 -0.1153  0.2877
 1748SOL    HW116880   1.251   0.703   8.404  2.0608  0.4732 -0.0177
 1748SOL    HW216881   1.184   0.837   8.430 -0.2480  0.3376 -0.3847
 1749SOL     OW16882   4.599   3.130   8.183 -0.0923 -0.6113 -0.1299
 1749SOL    HW116883   4.521   3.098   8.138 -2.4460  2.4579  1.8043
 1749SOL    HW216884   4.590   3.225   8.181  0.7623 -0.5177  0.3215
 1750SOL     OW16885   2.334   2.610   5.078 -0.1257 -0.3813 -0.1742
 1750SOL    HW116886   2.400   2.575   5.019  0.3895  0.5373 -0.1319
 1750SOL    HW216887   2.259   2.597   5.020 -1.0620  0.3674  0.8692
 1751SOL     OW16888   1.169   3.452  12.515 -0.2908 -0.0867 -0.7436
 1751SOL    HW116889   1.117   3.500  12.579 -0.5403  0.9833 -1.7627
 1751SOL    HW216890   1.168   3.519  12.447  0.8413 -0.3161 -0.9796
 1752SOL     OW16891   2.337   2.067   2.541  0.0621  0.1272  0.1590
 1752SOL    HW116892   2.377   2.109   2.616 -1.4308  0.9649  0.4934
 1752SOL    HW216893   2.263   2.127   2.533  1.3981  1.8484  0.8475
 1753SOL     OW16894   0.083   4.310   3.866  0.1483 -0.5684  0.3404
 1753SOL    HW116895   0.121   4.375   3.807  2.5250 -0.4167  2.0625
 1753SOL    HW216896   0.156   4.249   3.873  0.1906 -0.6893 -1.0685
 1754SOL     OW16897   2.784   1.059   4.363  0.0579  0.3153  0.2506
 1754SOL    HW116898   2.863   1.099   4.398  0.0405  1.6241 -1.1840
 1754SOL    HW216899   2.739   1.134   4.323 -2.3467 -1.6852 -0.7846
 1755SOL     OW16900   0.812   0.780   8.857 -0.4758 -0.4143  0.1428
 1755SOL    HW116901   0.769   0.777   8.942 -0.7263 -1.2987 -0.0146
 1755SOL    HW216902   0.904   0.794   8.880 -0.4551 -1.2933  0.5923
 1756SOL     OW16903   4.567   3.674  10.199  0.5795 -0.1045 -0.3013
 1756SOL    HW116904   4.642   3.620  10.225  1.2288  1.2662  0.6497
 1756SOL    HW216905   4.574   3.756  10.248 -3.8813 -0.4871  0.9390
 1757SOL     OW16906   2.048   1.633  14.836  0.2531 -0.5143 -0.2185
 1757SOL    HW116907   2.006   1.716  14.811 -1.2323 -1.3735 -0.6012
 1757SOL    HW216908   2.010   1.578  14.768 -0.2675  1.7541 -1.7432
 1758SOL     OW16909   1.889   2.474   6.999  0.2022 -0.4745 -0.7859
 1758SOL    HW116910   1.916   2.482   7.091 -1.5156  0.6084 -0.3661
 1758SOL    HW216911   1.795   2.481   7.015  0.2603  3.7622 -2.2492
 1759SOL     OW16912   0.080   2.878  12.705  0.2855 -0.2308 -0.9384
 1759SOL    HW116913   0.031   2.960  12.706 -0.2530 -0.5338 -2.1051
 1759SOL    HW216914   0.011   2.825  12.745  1.2216 -0.1688  0.7464
 1760SOL     OW16915   3.931   4.032   2.288  0.5990  0.2362 -0.6005
 1760SOL    HW116916   3.969   3.957   2.335  0.5178 -1.1076 -2.6800
 1760SOL    HW216917   3.990   4.100   2.319 -1.8195  1.9169  0.3031
 1761SOL     OW16918   2.799   3.664   3.671 -0.5511  0.4301 -0.0404
 1761SOL    HW116919   2.871   3.716   3.635  0.9406 -2.2158 -0.9218
 1761SOL    HW216920   2.723   3.713   3.640  0.5409  1.5461 -0.9302
 1762SOL     OW16921   0.844   4.342   3.804 -0.6584 -0.1815  0.0902
 1762SOL    HW116922   0.803   4.345   3.890 -1.3498 -1.4923 -0.1920
 1762SOL    HW216923   0.802   4.420   3.767  1.7444  0.2488 -1.7786
 1763SOL     OW16924   4.390   3.485   9.287 -0.3211 -0.6935 -0.4612
 1763SOL    HW116925   4.352   3.416   9.341  1.1534 -0.4487  0.9016
 1763SOL    HW216926   4.476   3.445   9.273 -0.0012  0.3623 -1.5270
 1764SOL     OW16927   3.157   0.208   6.470  0.4163  0.1182 -0.2023
 1764SOL    HW116928   3.205   0.231   6.549 -1.4373 -1.3655  1.3565
 1764SOL    HW216929   3.191   0.120   6.457  1.3342  0.6171 -1.2407
 1765SOL     OW16930   1.603   2.574  17.032  0.1573 -0.7483  0.7968
 1765SOL    HW116931   1.585   2.484  17.057 -0.1145 -0.6840  0.8275
 1765SOL    HW216932   1.673   2.601  17.092 -0.0735 -0.2639  0.8445
 1766SOL     OW16933   4.503   1.310  16.542 -0.1478 -0.4966  0.1699
 1766SOL    HW116934   4.512   1.247  16.613  0.6794 -1.8329 -1.1100
 1766SOL    HW216935   4.493   1.400  16.573 -2.3887 -0.4526 -0.6752
 1767SOL     OW16936   2.686   1.096   9.294  0.4230  0.2080  0.0948
 1767SOL    HW116937   2.779   1.111   9.274  0.8987 -2.1172  0.5143
 1767SOL    HW216938   2.652   1.078   9.207 -0.6864  0.8334  0.4047
 1768SOL     OW16939   0.793   2.498   8.163  0.4850 -0.6110 -0.0345
 1768SOL    HW116940   0.739   2.420   8.149 -0.7340  0.4632 -1.3467
 1768SOL    HW216941   0.752   2.563   8.105  0.4295 -0.4105  0.2286
 1769SOL     OW16942   2.327   1.586   6.437  0.4755 -0.8735 -0.2677
 1769SOL    HW116943   2.374   1.667   6.416 -1.0348 -0.4836 -2.1971
 1769SOL    HW216944   2.409   1.536   6.436  0.4056 -0.9629 -2.4319
 1770SOL     OW16945   0.549   1.340  13.630  0.1007  0.1606 -0.1692
 1770SOL    HW116946   0.529   1.429  13.659  1.7933 -0.4612  2.9316
 1770SOL    HW216947   0.597   1.297  13.701  1.4605 -0.2064 -1.3154
 1771SOL     OW16948   4.364   2.310   7.713 -0.0531  0.1522 -0.0707
 1771SOL    HW116949   4.327   2.237   7.664 -0.9053  0.9678 -0.6317
 1771SOL    HW216950   4.301   2.320   7.784 -1.0760 -0.2422 -0.9343
 1772SOL     OW16951   2.664   4.391   3.846  0.5457 -0.1430 -0.0488
 1772SOL    HW116952   2.755   4.361   3.838  2.0867  4.7385 -1.0583
 1772SOL    HW216953   2.651   4.393   3.941  0.0832 -1.0826 -0.0947
 1773SOL     OW16954   3.184   2.861   8.745 -0.0951  0.3057 -0.0652
 1773SOL    HW116955   3.141   2.820   8.820  0.4679  1.0295  0.6551
 1773SOL    HW216956   3.270   2.886   8.780 -0.8846  2.1225  0.6065
 1774SOL     OW16957   3.032   3.032   8.561 -0.0546  0.8404  0.0158
 1774SOL    HW116958   3.048   2.960   8.622 -1.0969 -0.1134 -0.8253
 1774SOL    HW216959   2.952   3.067   8.599 -1.3734  0.5950 -2.5462
 1775SOL     OW16960   2.320   1.352  17.665 -0.2266  0.0775 -0.3936
 1775SOL    HW116961   2.312   1.423  17.602 -0.4955 -0.3278 -0.8242
 1775SOL    HW216962   2.413   1.345  17.688 -0.6520 -3.3818  0.3480
 1776SOL     OW16963   4.602   1.959   9.224 -0.1284  0.1819 -0.0530
 1776SOL    HW116964   4.540   1.960   9.151 -1.5217 -0.5688  1.0948
 1776SOL    HW216965   4.625   1.866   9.221 -0.2182  0.2431 -2.2858
 1777SOL     OW16966   2.156   4.505  10.759 -0.2143  0.4435 -0.7187
 1777SOL    HW116967   2.135   4.412  10.748  0.4102  0.1542  0.5345
 1777SOL    HW216968   2.069   4.539  10.738 -0.9953 -1.0067  0.1587
 1778SOL     OW16969   0.410   3.026  10.432  0.5125  0.6428  0.1125
 1778SOL    HW116970   0.414   2.931  10.424 -2.6739  0.3885  1.7659
 1778SOL    HW216971   0.429   3.038  10.525 -1.3571 -2.9107  0.9331
 1779SOL     OW16972   1.502   4.452   7.355 -0.1741  0.0426 -0.6438
 1779SOL    HW116973   1.465   4.454   7.443 -1.5775  1.2653 -1.2526
 1779SOL    HW216974   1.529   4.361   7.347  3.5185  1.1077 -0.3665
 1780SOL     OW16975   2.343   1.242   0.415 -0.1231  0.2251  0.4060
 1780SOL    HW116976   2.413   1.306   0.423  1.1072 -1.2071  0.8871
 1780SOL    HW216977   2.320   1.259   0.323  1.1599  0.1664  0.0864
 1781SOL     OW16978   2.104   2.653   0.244  0.2634 -0.1087  0.2030
 1781SOL    HW116979   2.050   2.668   0.321 -1.5151  0.0670 -1.1007
 1781SOL    HW216980   2.186   2.697   0.270  0.4092 -1.0063  1.2633
 1782SOL     OW16981   1.436   0.429   3.563 -0.1271 -0.2197 -0.3334
 1782SOL    HW116982   1.520   0.475   3.562  0.3872 -1.0960  2.4249
 1782SOL    HW216983   1.422   0.384   3.480 -1.7153 -0.5477  0.1016
 1783SOL     OW16984   2.528   0.871   8.582 -0.5213  0.8215  0.1966
 1783SOL    HW116985   2.458   0.843   8.641  2.0878 -3.4564  1.2388
 1783SOL    HW216986   2.489   0.950   8.544 -3.4880  0.4763  2.5197
 1784SOL     OW16987   3.638   4.637   3.389  0.3950  0.0837 -0.3698
 1784SOL    HW116988   3.551   4.634   3.349  1.1201 -2.1696 -1.7674
 1784SOL    HW216989   3.616   4.606   3.476 -1.6296  0.4299 -0.7576
 1785SOL     OW16990   0.335   1.263   0.423  0.5961  0.0494 -0.3239
 1785SOL    HW116991   0.383   1.183   0.447 -5.3956 -3.7646 -0.9645
 1785SOL    HW216992   0.371   1.290   0.339  1.0310  1.2239  0.2482
 1786SOL     OW16993   4.120   2.166   3.431  0.7879 -0.4440  0.3242
 1786SOL    HW116994   4.138   2.222   3.356 -0.5819 -1.6238 -0.8732
 1786SOL    HW216995   4.209   2.139   3.452  1.4183 -0.8130 -2.8716
 1787SOL     OW16996   2.276   4.021   3.684  0.6530 -0.8655 -0.1783
 1787SOL    HW116997   2.359   4.047   3.724  0.1317  1.7362 -0.8108
 1787SOL    HW216998   2.224   4.003   3.763 -3.7652 -0.1387 -2.9381
 1788SOL     OW16999   2.358   3.682   1.872 -0.3226  0.2571  0.2383
 1788SOL    HW117000   2.306   3.703   1.950 -0.4644  3.2964 -0.7000
 1788SOL    HW217001   2.312   3.742   1.814 -1.6002 -0.1088  0.8665
 1789SOL     OW17002   4.500   2.355  13.822 -0.0689 -0.1857  0.0748
 1789SOL    HW117003   4.467   2.280  13.871 -0.9507  0.4455  0.4705
 1789SOL    HW217004   4.478   2.430  13.878 -1.7933 -1.4768  1.1669
 1790SOL     OW17005   1.466   4.084   7.105  0.5717  0.1107  0.1131
 1790SOL    HW117006   1.426   4.013   7.153 -1.3964  2.7742  2.3805
 1790SOL    HW217007   1.397   4.098   7.040  1.7601 -0.8502 -1.3470
 1791SOL     OW17008   3.911   4.185   9.101  0.2246  0.0268 -0.6719
 1791SOL    HW117009   3.913   4.100   9.057 -2.8745  0.7616 -2.2566
 1791SOL    HW217010   3.861   4.160   9.178 -0.0483  0.9126 -0.5648
 1792SOL     OW17011   1.377   3.873  15.540 -0.0809 -0.1059 -0.0688
 1792SOL    HW117012   1.385   3.845  15.631 -1.4362 -1.9120 -0.4919
 1792SOL    HW217013   1.287   3.844  15.523  0.7344 -1.1689 -2.5312
 1793SOL     OW17014   2.937   2.659   5.083  0.1929  0.2720 -0.7106
 1793SOL    HW117015   2.990   2.733   5.114  0.4940 -1.3540  2.6386
 1793SOL    HW217016   2.898   2.692   5.002 -0.4597  3.2907  0.8433
 1794SOL     OW17017   1.276   1.466   9.144  0.3849  0.0644 -0.3512
 1794SOL    HW117018   1.315   1.481   9.058  0.6092  3.1318  0.2733
 1794SOL    HW217019   1.284   1.554   9.180  2.7789 -0.2324 -0.1587
 1795SOL     OW17020   4.533   0.129   3.938 -0.4135 -0.0657  0.7480
 1795SOL    HW117021   4.616   0.086   3.962  0.7863  1.1417 -1.2633
 1795SOL    HW217022   4.475   0.053   3.939  0.4442 -0.7157  1.7183
 1796SOL     OW17023   4.648   4.730   3.722 -0.1787 -0.4055 -0.8386
 1796SOL    HW117024   4.680   4.646   3.691 -1.0988 -0.0562 -2.7104
 1796SOL    HW217025   4.553   4.734   3.712 -0.3738 -1.2778  0.6705
 1797SOL     OW17026   4.470   0.809   2.186  0.4576  0.5753 -0.0738
 1797SOL    HW117027   4.437   0.830   2.099 -2.2083 -1.5024  0.4235
 1797SOL    HW217028   4.460   0.714   2.186 -0.1394  0.6414 -0.8246
 1798SOL     OW17029   0.360   2.468   1.168  0.7473 -0.2278  0.3344
 1798SOL    HW117030   0.357   2.561   1.147  1.1846 -0.2917 -0.0208
 1798SOL    HW217031   0.438   2.442   1.119  1.7560  1.5967  0.9978
 1799SOL     OW17032   0.644   2.400   5.541  0.0640  0.2274 -0.0393
 1799SOL    HW117033   0.608   2.413   5.454 -0.8967  1.8558  0.6009
 1799SOL    HW217034   0.735   2.426   5.525  0.4448 -1.7697 -1.1341
 1800SOL     OW17035   0.035   0.738   5.755 -0.4368 -0.3736 -0.0317
 1800SOL    HW117036   4.707   0.717   5.688 -1.7066  0.0667  1.0656
 1800SOL    HW217037   4.712   0.755   5.828  0.0942  0.4178  0.2176
 1801SOL     OW17038   3.916   1.158   3.463 -0.7370  0.1807  0.1514
 1801SOL    HW117039   3.977   1.152   3.537  0.1217  1.0385 -0.4863
 1801SOL    HW217040   3.959   1.222   3.406 -0.5093 -0.6441 -0.6104
 1802SOL     OW17041   1.759   1.976   8.800  0.0450  0.1168 -0.3347
 1802SOL    HW117042   1.709   1.945   8.875 -0.4103  0.6929 -0.3953
 1802SOL    HW217043   1.701   2.047   8.772  1.5583  2.6380  2.8535
 1803SOL     OW17044   3.055   2.674   3.331  1.0670 -0.9121  0.2523
 1803SOL    HW117045   3.094   2.593   3.364  0.6535 -0.3829  2.0358
 1803SOL    HW217046   3.038   2.654   3.239 -0.3896  0.0218  0.3293
 1804SOL     OW17047   2.531   0.553   4.429  0.3516 -0.5449  0.1440
 1804SOL    HW117048   2.603   0.602   4.390  0.6994 -0.4385  0.9080
 1804SOL    HW217049   2.479   0.627   4.459 -2.3600 -1.1213 -3.1105
 1805SOL     OW17050   3.942   4.612   7.913  0.0130 -0.0001 -0.4461
 1805SOL    HW117051   3.924   4.520   7.934 -0.4975 -0.0344 -1.0131
 1805SOL    HW217052   3.861   4.622   7.862 -1.0415 -1.0489  1.0323
 1806SOL     OW17053   2.657   2.491  11.365 -0.2187 -0.4812  0.4358
 1806SOL    HW117054   2.565   2.485  11.340 -0.7042  0.4539  2.0575
 1806SOL    HW217055   2.692   2.560  11.308 -2.3065 -0.5669 -0.9587
 1807SOL     OW17056   2.908   3.134  11.496 -0.6081 -0.7556 -0.1731
 1807SOL    HW117057   2.834   3.157  11.552 -1.1599 -1.9118 -0.4392
 1807SOL    HW217058   2.941   3.221  11.472 -3.6320  0.6496  0.8875
 1808SOL     OW17059   1.150   2.249   7.731  0.0821 -0.5744  0.4371
 1808SOL    HW117060   1.100   2.290   7.661  0.3226  0.6855  0.9917
 1808SOL    HW217061   1.105   2.165   7.744 -1.0605  0.1928  1.4111
 1809SOL     OW17062   0.400   2.584   8.238  0.2913  0.0097 -0.3467
 1809SOL    HW117063   0.468   2.628   8.291 -1.4132 -0.7525  2.4737
 1809SOL    HW217064   0.387   2.647   8.167  0.7894 -1.8862 -2.0955
 1810SOL     OW17065   1.352   2.500   4.351 -0.5916  0.0868 -0.0336
 1810SOL    HW117066   1.264   2.462   4.351 -0.3834 -0.3874  2.7495
 1810SOL    HW217067   1.405   2.433   4.308  0.3782 -0.3548  1.8344
 1811SOL     OW17068   2.058   4.009  10.255  0.1330 -0.3153  0.3087
 1811SOL    HW117069   2.011   4.063  10.192  3.1390  3.7331  1.5863
 1811SOL    HW217070   1.997   4.035  10.324  3.5437  0.9900  2.8210
 1812SOL     OW17071   2.463   1.726   4.099 -0.5511 -0.1194  0.0842
 1812SOL    HW117072   2.535   1.745   4.040  0.4282 -2.3799  0.5572
 1812SOL    HW217073   2.400   1.788   4.062  1.1273  1.2873 -0.4148
 1813SOL     OW17074   0.331   1.570  11.266 -0.3927  0.5081 -0.0842
 1813SOL    HW117075   0.269   1.566  11.339  1.5426 -0.3942  1.5023
 1813SOL    HW217076   0.393   1.640  11.283 -1.0191  1.4759 -1.7947
 1814SOL     OW17077   0.712   3.551   3.398 -0.2731 -0.8741 -0.3422
 1814SOL    HW117078   0.695   3.646   3.395  0.9459 -0.5404  3.7854
 1814SOL    HW217079   0.792   3.555   3.450  0.7067 -0.6298 -1.8532
 1815SOL     OW17080   3.371   0.379  15.448 -0.2078  0.2247  0.0623
 1815SOL    HW117081   3.378   0.313  15.518  0.9939  0.8521  0.5275
 1815SOL    HW217082   3.424   0.448  15.486  1.4127 -2.2635  2.3802
 1816SOL     OW17083   0.038   0.071   6.862  0.2232  0.2210  0.4741
 1816SOL    HW117084   0.062   0.105   6.776  0.0862 -0.2481  0.2508
 1816SOL    HW217085   0.111   0.011   6.873 -0.4129 -0.6239  0.1256
 1817SOL     OW17086   3.472   1.674   0.591  0.5628  0.1647  0.0219
 1817SOL    HW117087   3.448   1.729   0.666 -0.7973 -1.2925  0.6301
 1817SOL    HW217088   3.423   1.721   0.524 -0.2989 -4.8832 -2.8607
 1818SOL     OW17089   2.646   4.263  16.695  0.4097 -0.3905  0.3717
 1818SOL    HW117090   2.670   4.330  16.759  0.8809 -0.2379  0.0346
 1818SOL    HW217091   2.592   4.205  16.749  2.5839 -1.6889  1.1788
 1819SOL     OW17092   3.054   0.175   5.653  0.5076 -0.7240  0.5482
 1819SOL    HW117093   3.008   0.120   5.590 -0.0809  1.4486 -0.9247
 1819SOL    HW217094   3.057   0.262   5.614  1.0562 -0.1857  1.7809
 1820SOL     OW17095   0.064   0.806  13.893  0.1704  0.2194  0.4240
 1820SOL    HW117096   0.150   0.799  13.934  0.6857 -0.3101 -0.7701
 1820SOL    HW217097   0.036   0.715  13.903 -0.8440  0.5679  0.8418
 1821SOL     OW17098   1.065   2.000   7.834 -0.0079 -0.7407  0.5543
 1821SOL    HW117099   1.024   1.914   7.841 -0.2583 -0.6468  0.2256
 1821SOL    HW217100   1.091   2.016   7.925  1.9377  0.2447 -0.1897
 1822SOL     OW17101   1.462   3.912   7.303 -0.7380 -0.0758  0.0658
 1822SOL    HW117102   1.368   3.932   7.314 -0.8091 -1.0185  1.2529
 1822SOL    HW217103   1.489   3.968   7.377  0.6192 -1.2782  0.4725
 1823SOL     OW17104   1.233   3.879   9.175  0.3751 -0.4415  0.4528
 1823SOL    HW117105   1.172   3.837   9.235  1.7536  0.0536  2.1928
 1823SOL    HW217106   1.302   3.900   9.239  0.3870  1.3797 -0.1435
 1824SOL     OW17107   0.125   2.983   6.250  0.3238  0.3273  0.3350
 1824SOL    HW117108   0.178   3.035   6.309  2.3248 -2.7907  1.2615
 1824SOL    HW217109   0.189   2.964   6.182  0.0255  0.5970 -0.0259
 1825SOL     OW17110   4.277   2.826   8.615 -0.0413  0.0333  0.2869
 1825SOL    HW117111   4.233   2.797   8.695 -1.2413 -0.3775 -0.5205
 1825SOL    HW217112   4.371   2.819   8.635  0.4493  2.1500 -1.3447
 1826SOL     OW17113   4.433   4.017  12.723  0.2338  0.1432  0.2012
 1826SOL    HW117114   4.490   4.003  12.648 -0.2687 -3.1685  0.4717
 1826SOL    HW217115   4.385   4.097  12.700  0.2405  0.4466  1.2251
 1827SOL     OW17116   0.406   0.828   9.339  0.0810 -0.0388 -0.2317
 1827SOL    HW117117   0.383   0.920   9.352  0.8428 -0.0436  1.2153
 1827SOL    HW217118   0.489   0.826   9.388 -0.3978  3.7255  0.6683
 1828SOL     OW17119   0.334   2.224   2.763  0.0888  0.2711 -0.1425
 1828SOL    HW117120   0.385   2.186   2.691  1.0245 -1.0353  1.2034
 1828SOL    HW217121   0.369   2.312   2.776  0.8229  0.2516 -1.8891
 1829SOL     OW17122   4.045   0.509   2.901 -0.0861  0.0623  0.2670
 1829SOL    HW117123   3.985   0.468   2.839  0.4701 -0.2023 -0.0979
 1829SOL    HW217124   4.132   0.484   2.870 -0.7888 -2.0201 -0.0259
 1830SOL     OW17125   4.507   1.030   7.197 -0.1311  0.2510 -0.3060
 1830SOL    HW117126   4.422   1.035   7.242 -0.0864 -1.6446  0.0166
 1830SOL    HW217127   4.515   0.936   7.180 -0.9861  0.0678  0.2702
 1831SOL     OW17128   0.681   3.645  11.865  0.2067  0.4080  0.1683
 1831SOL    HW117129   0.750   3.663  11.928  1.3659  0.1031 -1.0096
 1831SOL    HW217130   0.660   3.731  11.829 -0.1834 -0.5676 -1.9594
 1832SOL     OW17131   2.444   1.465   3.083  0.2755  0.1835 -0.4382
 1832SOL    HW117132   2.511   1.522   3.120  1.9530 -1.4568 -0.9310
 1832SOL    HW217133   2.486   1.441   3.001  1.3515 -2.4322  0.8837
 1833SOL     OW17134   2.795   2.389   8.932  0.2465 -0.1132 -0.6478
 1833SOL    HW117135   2.707   2.365   8.963  0.8521 -0.4176  0.8177
 1833SOL    HW217136   2.836   2.432   9.007  1.5898 -3.5128  0.5566
 1834SOL     OW17137   3.720   2.541   1.933 -0.0647 -0.4488 -0.1093
 1834SOL    HW117138   3.707   2.480   1.861 -2.4668  1.0111 -0.9308
 1834SOL    HW217139   3.755   2.613   1.881  1.9318 -0.7128  0.8906
 1835SOL     OW17140   4.092   4.165  13.844  0.1671 -0.5055  0.2168
 1835SOL    HW117141   4.038   4.200  13.773  0.9852  0.1204 -0.0955
 1835SOL    HW217142   4.045   4.188  13.924  2.1676  1.1179  0.9299
 1836SOL     OW17143   2.286   0.419  13.790  0.2016 -0.6732 -0.4295
 1836SOL    HW117144   2.192   0.418  13.777  0.0747  0.4399  0.4109
 1836SOL    HW217145   2.321   0.460  13.710 -0.3034  0.4497 -0.0811
 1837SOL     OW17146   1.530   2.988  17.577  0.2262 -0.6760 -0.0146
 1837SOL    HW117147   1.591   2.914  17.570 -1.3334 -1.7872 -1.8643
 1837SOL    HW217148   1.454   2.948  17.620  0.8189 -3.0542 -1.1833
 1838SOL     OW17149   0.715   0.788   3.142 -0.2570 -0.0025 -0.3335
 1838SOL    HW117150   0.701   0.869   3.092 -1.7462  0.1272  0.2999
 1838SOL    HW217151   0.668   0.813   3.222 -0.2625 -2.1173  0.3086
 1839SOL     OW17152   1.128   3.956   8.320 -0.4417  0.3772  0.0987
 1839SOL    HW117153   1.150   3.984   8.231 -1.2819  1.8590  0.3481
 1839SOL    HW217154   1.198   3.895   8.343  0.7971  0.9841 -2.1172
 1840SOL     OW17155   1.209   3.324   1.916 -0.1151 -0.2200 -0.5623
 1840SOL    HW117156   1.291   3.330   1.964 -0.2332  0.4328 -0.4527
 1840SOL    HW217157   1.236   3.366   1.834  1.6205 -2.4945 -1.1491
 1841SOL     OW17158   4.462   2.282  13.404  0.3691 -0.1701 -0.4309
 1841SOL    HW117159   4.539   2.294  13.460  0.1995  1.4198 -0.5414
 1841SOL    HW217160   4.392   2.303  13.466  1.4160 -1.5801  1.2255
 1842SOL     OW17161   1.913   3.697   4.465 -0.2041  0.0961 -0.7128
 1842SOL    HW117162   1.948   3.778   4.502  0.5800  0.1594 -1.6028
 1842SOL    HW217163   1.966   3.641   4.521 -0.5569  0.1361 -0.3404
 1843SOL     OW17164   1.847   0.360   6.199 -0.1524  0.4439  0.4503
 1843SOL    HW117165   1.767   0.309   6.210 -0.9209  1.6001  0.1228
 1843SOL    HW217166   1.904   0.318   6.265  1.6917  2.1715 -0.0455
 1844SOL     OW17167   4.216   3.809   4.680  0.0713 -0.1216 -0.3899
 1844SOL    HW117168   4.125   3.778   4.677 -0.6657  1.8991  1.2859
 1844SOL    HW217169   4.231   3.845   4.593 -1.1013 -0.1230 -0.5956
 1845SOL     OW17170   1.134   1.208   3.899 -0.3001  0.0089 -0.2546
 1845SOL    HW117171   1.215   1.172   3.863  0.4628 -0.1320  1.5923
 1845SOL    HW217172   1.122   1.149   3.973  1.4104  1.3832  1.1408
 1846SOL     OW17173   3.258   2.522  16.632  0.2845 -0.1911 -0.3889
 1846SOL    HW117174   3.245   2.559  16.719 -2.6441 -1.3435 -0.3276
 1846SOL    HW217175   3.182   2.544  16.578  2.3963  1.6549 -2.6446
 1847SOL     OW17176   4.132   1.204   4.114 -0.2890  0.4790 -0.0654
 1847SOL    HW117177   4.060   1.141   4.114 -0.1494  0.3278 -1.7603
 1847SOL    HW217178   4.160   1.208   4.206  1.2992 -0.3580 -0.5051
 1848SOL     OW17179   1.292   1.782   6.038  0.2918  0.0085 -0.5652
 1848SOL    HW117180   1.252   1.777   6.126 -0.7646  1.3689 -0.9701
 1848SOL    HW217181   1.221   1.761   5.978  0.1366 -0.4539 -0.2215
 1849SOL     OW17182   3.163   3.473   8.583  0.5736  0.5780 -0.5628
 1849SOL    HW117183   3.172   3.418   8.506 -1.5055 -0.0372 -0.3595
 1849SOL    HW217184   3.069   3.466   8.600  0.3785 -0.2360 -2.0008
 1850SOL     OW17185   0.163   2.809  10.869  0.2242 -0.0503  0.5547
 1850SOL    HW117186   0.177   2.759  10.949 -0.4365  1.7765  1.8184
 1850SOL    HW217187   0.227   2.758  10.820  2.1406  1.4153  1.5705
 1851SOL     OW17188   3.645   3.355  17.710  0.0452  0.4559 -0.2560
 1851SOL    HW117189   3.631   3.370   0.056 -0.4863 -0.5416 -0.1757
 1851SOL    HW217190   3.675   3.264  17.716  0.7926  0.6743 -0.6762
 1852SOL     OW17191   2.281   4.542   5.374 -0.4889  0.4002  0.4558
 1852SOL    HW117192   2.217   4.487   5.329 -2.3382  1.5155  1.6955
 1852SOL    HW217193   2.238   4.626   5.358 -3.4013 -0.8329  1.6080
 1853SOL     OW17194   2.678   4.066  17.645 -0.0803 -0.5514 -0.6508
 1853SOL    HW117195   2.745   4.128  17.617 -2.0528  2.3191  1.0195
 1853SOL    HW217196   2.648   4.035  17.560  1.8144 -1.0362 -1.1473
 1854SOL     OW17197   1.012   2.937   2.432  0.6474  0.3414  0.3728
 1854SOL    HW117198   0.959   2.974   2.503 -0.1951 -0.1292 -0.0144
 1854SOL    HW217199   1.013   2.844   2.451 -0.4327 -0.2984 -2.7360
 1855SOL     OW17200   1.538   1.938   4.466 -0.0144 -0.0070  0.1188
 1855SOL    HW117201   1.495   2.021   4.484  1.1350  0.7331 -0.5798
 1855SOL    HW217202   1.492   1.920   4.384  0.6565  2.7672 -0.8642
 1856SOL     OW17203   4.312   4.062   0.208 -0.8139  0.2112 -0.0666
 1856SOL    HW117204   4.259   4.038   0.132 -0.5442 -0.3647 -0.0810
 1856SOL    HW217205   4.356   3.977   0.210  1.1512  1.2914  2.0255
 1857SOL     OW17206   2.718   3.795   4.869 -0.5980 -0.3112 -0.0683
 1857SOL    HW117207   2.720   3.847   4.949  0.1375 -0.2557 -0.1183
 1857SOL    HW217208   2.712   3.864   4.803  2.7045 -1.0850 -1.1761
 1858SOL     OW17209   2.967   2.490  15.703 -0.6779  0.7021 -0.2603
 1858SOL    HW117210   3.037   2.484  15.768  0.4249  2.2767 -1.2848
 1858SOL    HW217211   2.972   2.584  15.688  0.9621  0.5928 -0.4562
 1859SOL     OW17212   1.017   2.886   0.737  0.2265  0.0008  0.2905
 1859SOL    HW117213   1.100   2.921   0.768  0.0333  0.3470  0.4084
 1859SOL    HW217214   1.012   2.920   0.647 -1.7462  0.9975  0.7733
 1860SOL     OW17215   1.938   2.771  16.182 -0.1674  0.1610  0.2791
 1860SOL    HW117216   1.975   2.809  16.262 -0.1652 -4.5856  2.5417
 1860SOL    HW217217   1.966   2.847  16.131  0.7895 -0.5600 -0.2498
 1861SOL     OW17218   0.633   2.631   7.196 -0.0639 -0.6114 -0.2634
 1861SOL    HW117219   0.727   2.650   7.199  0.1077 -1.5875  0.9542
 1861SOL    HW217220   0.612   2.618   7.289 -0.2556 -0.4257 -0.2805
 1862SOL     OW17221   2.729   0.997   6.827  0.4994  0.0293  0.1561
 1862SOL    HW117222   2.764   0.959   6.746  0.3600 -0.8214  0.4897
 1862SOL    HW217223   2.636   0.992   6.806  0.3560 -0.4661  0.9087
 1863SOL     OW17224   4.480   3.136   2.817  0.0672 -0.2830  0.1726
 1863SOL    HW117225   4.458   3.168   2.905  2.7743  0.8277  0.4440
 1863SOL    HW217226   4.411   3.071   2.806  1.0057 -1.2653  0.1927
 1864SOL     OW17227   0.905   0.027  13.270  0.3677 -0.1939  0.2918
 1864SOL    HW117228   0.829   0.001  13.217  1.3816 -0.2630 -1.1324
 1864SOL    HW217229   0.937   0.106  13.226 -0.9817  0.0264 -0.2937
 1865SOL     OW17230   3.370   1.789   7.851 -0.5073 -0.6423  0.2850
 1865SOL    HW117231   3.424   1.731   7.905  0.0410 -1.0128 -0.6803
 1865SOL    HW217232   3.433   1.815   7.784 -2.5175  2.1467 -0.5416
 1866SOL     OW17233   2.010   0.113   4.332 -0.1817 -0.3320  0.2706
 1866SOL    HW117234   1.931   0.097   4.282  0.1444 -2.0387  0.2926
 1866SOL    HW217235   2.032   0.181   4.269 -0.9810 -0.0697  0.2804
 1867SOL     OW17236   2.879   1.266   6.582 -0.0583 -0.2134  0.3067
 1867SOL    HW117237   2.898   1.283   6.674 -0.9675  3.0261 -0.1268
 1867SOL    HW217238   2.893   1.355   6.551  0.5366 -0.4093 -0.0048
 1868SOL     OW17239   1.411   3.423   2.469 -0.6320 -0.4911  0.2127
 1868SOL    HW117240   1.338   3.439   2.529 -1.9361 -0.3533 -1.3803
 1868SOL    HW217241   1.376   3.360   2.405 -0.2887  0.5617 -1.0007
 1869SOL     OW17242   1.030   4.273   3.389 -0.0911  0.0890 -0.0199
 1869SOL    HW117243   0.947   4.305   3.352  0.3808 -1.0231 -2.0475
 1869SOL    HW217244   1.005   4.223   3.466 -0.3079  0.1521 -0.0503
 1870SOL     OW17245   1.965   0.159   3.735  0.0068 -0.1052 -0.1865
 1870SOL    HW117246   1.950   0.227   3.669 -1.4869 -0.9245 -0.6976
 1870SOL    HW217247   1.903   0.182   3.803 -1.4926  1.7085 -2.1934
 1871SOL     OW17248   1.153   2.015   8.094  0.2115  0.0602 -0.2177
 1871SOL    HW117249   1.248   2.007   8.087  0.2121 -1.0784  1.2069
 1871SOL    HW217250   1.134   1.954   8.165 -1.0674  0.0818 -0.5451
 1872SOL     OW17251   1.480   1.408   3.939 -0.1273 -0.7866  0.6631
 1872SOL    HW117252   1.542   1.474   3.972  0.6340 -0.2639 -1.8324
 1872SOL    HW217253   1.400   1.427   3.987 -0.0295  4.4736 -1.2226
 1873SOL     OW17254   2.130   1.162   7.131  0.3202 -0.0769 -0.4838
 1873SOL    HW117255   2.071   1.224   7.173  0.7414  0.8885 -1.3076
 1873SOL    HW217256   2.132   1.185   7.038  0.8518  2.0691  0.0736
 1874SOL     OW17257   4.031   4.724   2.581  0.0352 -0.5094 -0.4301
 1874SOL    HW117258   4.048   0.029   2.497  0.8359  4.3436  2.1286
 1874SOL    HW217259   4.103   4.661   2.578 -0.3798 -1.0144  0.2487
 1875SOL     OW17260   1.938   1.782   4.668  0.1830 -0.6973  0.5842
 1875SOL    HW117261   1.964   1.828   4.588 -1.8102  0.4655  0.5978
 1875SOL    HW217262   1.962   1.851   4.730  1.1164 -0.6713  0.1902
 1876SOL     OW17263   3.104   4.272   4.545  0.3208  0.5403 -0.0376
 1876SOL    HW117264   3.016   4.294   4.573  0.5214  0.7724  0.4115
 1876SOL    HW217265   3.132   4.335   4.480 -2.4875  0.0419 -1.7033
 1877SOL     OW17266   0.835   1.907   5.338  0.4811  0.2757  0.3377
 1877SOL    HW117267   0.740   1.895   5.337  0.4250  0.7114  0.6016
 1877SOL    HW217268   0.855   1.991   5.295 -3.9317  0.9535 -0.4617
 1878SOL     OW17269   2.863   0.334   4.139  0.2917 -0.6574 -0.4137
 1878SOL    HW117270   2.786   0.331   4.082 -1.0715  2.3910  1.2780
 1878SOL    HW217271   2.926   0.382   4.085  0.0410  2.1814  1.8391
 1879SOL     OW17272   0.628   0.277   7.719  0.1115  0.1811 -0.0150
 1879SOL    HW117273   0.571   0.352   7.702 -2.6917 -1.6734  1.1767
 1879SOL    HW217274   0.584   0.214   7.661  0.7777 -0.0513 -0.2735
 1880SOL     OW17275   0.589   1.110   3.949 -0.0651 -0.3735 -0.5377
 1880SOL    HW117276   0.539   1.145   3.875  0.0248  0.8851 -0.0107
 1880SOL    HW217277   0.667   1.074   3.907  0.3056 -1.5012  1.0920
 1881SOL     OW17278   2.719   2.521   5.673  0.0260 -0.2521  0.3308
 1881SOL    HW117279   2.796   2.545   5.621  2.0167 -1.8282  2.5688
 1881SOL    HW217280   2.647   2.574   5.637 -0.9351 -1.6875  0.1342
 1882SOL     OW17281   0.951   4.679   4.312  0.7121 -0.3528 -0.0624
 1882SOL    HW117282   0.975   4.674   4.405 -0.5724  1.0376  0.3555
 1882SOL    HW217283   1.021   4.627   4.272  0.2979 -0.3805 -0.7445
 1883SOL     OW17284   0.601   3.980  11.270 -0.0409  0.0534 -0.6601
 1883SOL    HW117285   0.518   4.012  11.304 -0.1173  0.4801 -1.2507
 1883SOL    HW217286   0.650   3.964  11.351 -0.1140 -0.6496 -0.7619
 1884SOL     OW17287   2.931   4.170   2.933  0.2791  0.0579 -0.3210
 1884SOL    HW117288   2.855   4.192   2.879 -1.7966 -0.5097  2.3505
 1884SOL    HW217289   2.962   4.260   2.937  0.6477 -0.0576 -0.6375
 1885SOL     OW17290   3.354   2.578   5.357  0.3144  0.0079 -0.9472
 1885SOL    HW117291   3.422   2.633   5.395  0.5008 -0.7211 -0.2182
 1885SOL    HW217292   3.406   2.499   5.340 -0.6291 -0.5602 -1.2227
 1886SOL     OW17293   4.336   4.203   9.342  0.2874  0.1658  0.1114
 1886SOL    HW117294   4.428   4.188   9.364  0.1637  1.5249  1.5289
 1886SOL    HW217295   4.295   4.205   9.428 -0.4066 -1.9407 -0.1538
 1887SOL     OW17296   0.819   0.858   2.123 -0.7893  0.0070  0.0282
 1887SOL    HW117297   0.910   0.852   2.095 -0.6038  0.4517  0.5218
 1887SOL    HW217298   0.791   0.941   2.085  0.0761 -0.4922 -1.6973
 1888SOL     OW17299   0.626   0.339  12.287 -0.8724 -0.5793 -0.0327
 1888SOL    HW117300   0.673   0.316  12.367 -0.8929 -1.7319 -0.3464
 1888SOL    HW217301   0.638   0.433  12.302  0.0524 -0.9069  1.3060
 1889SOL     OW17302   2.522   4.008  11.410  0.4338  0.1058 -0.2054
 1889SOL    HW117303   2.605   4.045  11.379  0.4279 -0.9973 -1.5141
 1889SOL    HW217304   2.522   3.919  11.374 -3.8750 -1.1056  2.8506
 1890SOL     OW17305   1.729   4.681   4.571 -0.1615  0.2369  0.2002
 1890SOL    HW117306   1.712   0.002   4.498  0.1699 -0.0767 -0.1257
 1890SOL    HW217307   1.639   4.655   4.588  0.0289 -2.4880 -3.0256
 1891SOL     OW17308   2.307   1.841   4.388  0.2713  0.2294  0.0082
 1891SOL    HW117309   2.326   1.748   4.396  1.6139  0.5337  0.2360
 1891SOL    HW217310   2.393   1.882   4.399  0.9992 -0.8725 -1.6067
 1892SOL     OW17311   4.281   1.254  17.297  0.3470 -0.2850  0.1954
 1892SOL    HW117312   4.348   1.271  17.231 -0.9674 -1.0351 -1.3328
 1892SOL    HW217313   4.240   1.340  17.302  0.1459 -0.3978  0.5317
 1893SOL     OW17314   1.499   1.695  12.350  0.6447  0.6657  0.2200
 1893SOL    HW117315   1.555   1.618  12.350 -0.4626 -0.1537  2.3204
 1893SOL    HW217316   1.560   1.765  12.372  0.9986 -0.7985  3.9666
 1894SOL     OW17317   1.687   2.070   4.677  0.2241 -0.8446 -0.2312
 1894SOL    HW117318   1.665   2.033   4.592 -2.1151  1.5977 -0.6891
 1894SOL    HW217319   1.604   2.107   4.708 -0.3932 -1.0011 -1.7389
 1895SOL     OW17320   1.335   2.360  14.752  0.1098  0.0550 -0.3842
 1895SOL    HW117321   1.283   2.349  14.673 -1.6368 -0.3259  0.8218
 1895SOL    HW217322   1.273   2.387  14.821  0.4035  2.0523 -0.8809
 1896SOL     OW17323   1.196   2.045   4.751  0.4401 -0.1001  0.0222
 1896SOL    HW117324   1.291   2.034   4.754  0.1700 -1.0086  5.0906
 1896SOL    HW217325   1.187   2.138   4.730  1.8565  0.2156  0.8127
 1897SOL     OW17326   0.930   3.262   4.498 -0.4377  0.1456  0.6741
 1897SOL    HW117327   0.857   3.300   4.547 -1.7019 -2.6905  0.9603
 1897SOL    HW217328   0.905   3.170   4.492  0.0656  0.0445  0.0561
 1898SOL     OW17329   3.114   2.263  13.578 -0.1309  0.0601  0.2153
 1898SOL    HW117330   3.089   2.346  13.620  0.3807  0.7327 -0.8096
 1898SOL    HW217331   3.034   2.240  13.532  0.6668 -0.4082 -0.9228
 1899SOL     OW17332   2.448   3.592   9.350 -0.4939 -0.1703 -0.3858
 1899SOL    HW117333   2.421   3.580   9.259  0.6726  2.5152 -1.0907
 1899SOL    HW217334   2.441   3.688   9.346 -3.1408 -0.3359  0.3584
 1900SOL     OW17335   2.792   3.998   3.149  0.0643  0.0828  0.6062
 1900SOL    HW117336   2.741   4.071   3.115  2.2610  1.2931 -0.0799
 1900SOL    HW217337   2.869   4.040   3.188  0.9323  0.4697 -1.5329
 1901SOL     OW17338   2.062   0.776   5.583 -0.8276  0.3661  0.0419
 1901SOL    HW117339   2.100   0.857   5.618  1.9530 -0.8057 -0.2934
 1901SOL    HW217340   2.085   0.784   5.490  1.8898 -0.0138  0.6793
 1902SOL     OW17341   3.749   2.538   1.660 -0.7618  0.1966 -0.4798
 1902SOL    HW117342   3.830   2.577   1.629  0.0771 -2.0524 -1.0743
 1902SOL    HW217343   3.707   2.517   1.577  1.1089  3.6620 -2.2782
 1903SOL     OW17344   1.020   3.409   7.743 -0.4882 -0.3777  0.5726
 1903SOL    HW117345   1.037   3.495   7.782 -0.2735 -0.9037  1.6327
 1903SOL    HW217346   0.980   3.358   7.813 -0.0257 -3.1049 -1.1333
 1904SOL     OW17347   0.263   2.407   4.916  0.4455  0.2734 -0.3049
 1904SOL    HW117348   0.350   2.368   4.908 -0.5746 -2.3354  1.3534
 1904SOL    HW217349   0.287   2.489   4.873  0.1723  0.2007 -0.5956
 1905SOL     OW17350   1.648   0.296   6.769 -0.0748 -0.1672  0.0190
 1905SOL    HW117351   1.664   0.355   6.843 -1.3088 -0.1675  0.2967
 1905SOL    HW217352   1.726   0.241   6.779  1.8431  2.5948  0.0760
 1906SOL     OW17353   1.757   2.490   3.121  0.1358  0.2406  0.6566
 1906SOL    HW117354   1.755   2.585   3.133 -0.5917 -0.0185  2.6009
 1906SOL    HW217355   1.850   2.469   3.117 -0.2570 -1.7558  1.7772
 1907SOL     OW17356   1.098   1.025   4.716  0.7397  0.0252 -0.1148
 1907SOL    HW117357   1.037   0.961   4.751  1.6163  0.3162  1.9327
 1907SOL    HW217358   1.079   1.012   4.623 -0.2213  0.8961 -0.0460
 1908SOL     OW17359   0.447   0.398   3.180  0.3567  0.8574  0.3299
 1908SOL    HW117360   0.516   0.380   3.116  0.4766  1.1718  0.3710
 1908SOL    HW217361   0.406   0.478   3.147 -1.2147 -0.3569 -0.6399
 1909SOL     OW17362   2.021   0.921   3.893  0.1195 -0.0074 -1.4159
 1909SOL    HW117363   2.008   0.829   3.916  1.2786 -0.0864 -1.0524
 1909SOL    HW217364   1.941   0.962   3.926 -1.0185 -2.0754 -1.6254
 1910SOL     OW17365   2.070   2.054   7.253  0.4915  0.0219  0.2078
 1910SOL    HW117366   2.074   2.031   7.160 -0.3104 -0.1028  0.2059
 1910SOL    HW217367   2.155   2.100   7.249 -0.2504  1.3049 -1.0709
 1911SOL     OW17368   4.097   2.024   8.154  0.0375  0.3162  0.0877
 1911SOL    HW117369   4.014   2.068   8.166 -1.8065 -2.7324 -1.3520
 1911SOL    HW217370   4.079   1.931   8.140  1.4360  0.2075 -1.1020
 1912SOL     OW17371   1.725   0.436   8.933  0.2228  0.1666  0.3300
 1912SOL    HW117372   1.786   0.502   8.965  0.5918  0.1488 -0.3280
 1912SOL    HW217373   1.650   0.460   8.987  0.1374 -0.1324  0.3441
 1913SOL     OW17374   4.084   4.506  17.035 -0.7520  0.1846  0.2274
 1913SOL    HW117375   4.106   4.422  16.994 -1.7812 -0.2284  0.5303
 1913SOL    HW217376   3.995   4.485  17.064 -0.0888 -0.1296  2.0732
 1914SOL     OW17377   1.913   2.800   8.867 -0.6880 -0.2172 -0.1776
 1914SOL    HW117378   2.003   2.787   8.897 -0.2624  2.7230 -0.1994
 1914SOL    HW217379   1.888   2.852   8.943 -1.0536  0.0686 -0.4936
 1915SOL     OW17380   3.870   0.481   4.029  0.6420  0.4955 -0.0066
 1915SOL    HW117381   3.896   0.557   3.976 -0.0714  1.5024  1.0854
 1915SOL    HW217382   3.792   0.522   4.066 -0.0933  0.7728 -1.8700
 1916SOL     OW17383   4.521   0.483   3.246  0.3132 -0.2515  0.6479
 1916SOL    HW117384   4.612   0.465   3.269  0.3075  1.0249  1.6882
 1916SOL    HW217385   4.529   0.548   3.176 -1.2529 -1.3325 -0.5266
 1917SOL     OW17386   0.540   1.021   0.032  0.0310 -0.2749  0.3580
 1917SOL    HW117387   0.469   1.000  17.718 -0.6782 -1.3436  1.5594
 1917SOL    HW217388   0.523   0.956   0.100 -0.0858  0.6864  1.2541
 1918SOL     OW17389   3.179   2.852   9.116 -0.1123  0.5962  0.0628
 1918SOL    HW117390   3.119   2.831   9.044  0.6320 -0.6460 -0.1806
 1918SOL    HW217391   3.265   2.826   9.085  0.1480  1.4983  0.0114
 1919SOL     OW17392   3.882   3.720   6.874  0.0083 -0.1938  0.8151
 1919SOL    HW117393   3.851   3.745   6.961  0.4889  0.7645  0.7204
 1919SOL    HW217394   3.946   3.791   6.859  0.1632 -0.6302 -0.6108
 1920SOL     OW17395   2.787   1.741  16.955 -0.5904 -0.8006  0.2787
 1920SOL    HW117396   2.732   1.810  16.992  1.9517  1.0615  0.6297
 1920SOL    HW217397   2.735   1.693  16.892 -0.0482  0.8497 -1.4184
 1921SOL     OW17398   2.976   1.465   0.479 -0.1670  0.5380  0.2146
 1921SOL    HW117399   3.043   1.529   0.504 -1.4769  1.2023  1.9755
 1921SOL    HW217400   2.940   1.507   0.402 -0.4075 -0.6905 -0.3404
 1922SOL     OW17401   2.505   4.365  14.981  0.5231  0.1462  0.0128
 1922SOL    HW117402   2.431   4.390  14.926  0.4592  2.6532  1.2575
 1922SOL    HW217403   2.577   4.417  14.945  2.4822 -0.8218  2.5599
 1923SOL     OW17404   1.546   2.307   0.251 -0.3123  0.4733 -0.1688
 1923SOL    HW117405   1.485   2.371   0.286  0.2832  1.1983 -0.4665
 1923SOL    HW217406   1.576   2.348   0.170  1.2133 -1.2957 -0.4987
 1924SOL     OW17407   0.074   3.671   2.006  0.3443 -0.5984 -0.2900
 1924SOL    HW117408   0.013   3.643   1.937 -1.2991  1.8512  0.2004
 1924SOL    HW217409   0.105   3.591   2.050  0.4616 -0.4888 -0.1756
 1925SOL     OW17410   0.933   3.093   2.650 -0.0136 -0.1426  0.2738
 1925SOL    HW117411   0.841   3.104   2.628  0.0910 -2.6427 -1.4533
 1925SOL    HW217412   0.947   3.168   2.708  1.2703 -0.3124  0.2004
 1926SOL     OW17413   3.421   0.894  14.367 -0.0747 -0.3245  0.3903
 1926SOL    HW117414   3.497   0.942  14.402  0.2085 -0.2842 -0.2811
 1926SOL    HW217415   3.351   0.946  14.405  0.2261 -0.2531  0.8513
 1927SOL     OW17416   1.122   4.236  10.776  0.3438 -0.0049 -0.3832
 1927SOL    HW117417   1.043   4.255  10.725 -0.6433 -0.5827  0.9109
 1927SOL    HW217418   1.107   4.149  10.814  1.5330  0.0723  0.2776
 1928SOL     OW17419   3.223   4.455   0.671  0.4005  0.7074 -0.1369
 1928SOL    HW117420   3.208   4.549   0.686 -1.3115  0.5190 -0.6401
 1928SOL    HW217421   3.317   4.445   0.660  0.2712 -1.0750  0.4160
 1929SOL     OW17422   0.085   3.512  14.248 -0.2148  0.5945  0.9070
 1929SOL    HW117423   0.045   3.598  14.238 -1.5853 -0.4126 -2.5231
 1929SOL    HW217424   0.157   3.518  14.186 -0.0090 -0.8493  0.9971
 1930SOL     OW17425   1.473   4.215   2.148 -0.1321  0.0984 -0.0015
 1930SOL    HW117426   1.543   4.259   2.100 -0.0304  0.0342  0.0890
 1930SOL    HW217427   1.510   4.216   2.236  0.9635 -3.1315 -0.4059
 1931SOL     OW17428   0.163   0.293   4.853 -0.0699  0.0995 -0.5196
 1931SOL    HW117429   0.222   0.223   4.825 -1.6917 -1.7701  0.7463
 1931SOL    HW217430   0.112   0.310   4.774 -0.9204  0.2426  0.0670
 1932SOL     OW17431   4.582   1.786   8.554  0.0100  0.1795 -0.2254
 1932SOL    HW117432   4.649   1.721   8.575 -1.8199 -1.5235  0.3884
 1932SOL    HW217433   4.610   1.805   8.464  1.3873 -2.2349 -0.3138
 1933SOL     OW17434   2.021   1.374   2.587  0.3149  0.2411  0.4643
 1933SOL    HW117435   2.055   1.294   2.548  0.8775 -0.4844  2.4276
 1933SOL    HW217436   2.102   1.420   2.610  1.0162  0.2913 -2.1114
 1934SOL     OW17437   2.024   1.093   3.083 -0.0018 -0.3344 -0.0210
 1934SOL    HW117438   2.058   1.103   3.172 -0.0557  1.9996 -0.2526
 1934SOL    HW217439   1.947   1.042   3.107  0.0757 -0.5537 -0.2466
 1935SOL     OW17440   3.916   4.342  16.831  0.0308 -0.7375 -0.6002
 1935SOL    HW117441   3.990   4.285  16.808 -0.5310 -1.8060  0.2492
 1935SOL    HW217442   3.931   4.407  16.763 -2.4484 -1.8244 -2.1741
 1936SOL     OW17443   0.827   1.733  13.533 -0.2718 -0.2109  0.4614
 1936SOL    HW117444   0.903   1.702  13.483  0.6059 -0.7388  2.1163
 1936SOL    HW217445   0.837   1.683  13.614 -1.2849 -0.9460  0.1247
 1937SOL     OW17446   0.386   1.536  12.037  0.1685  0.4528 -0.2255
 1937SOL    HW117447   0.312   1.583  11.999 -1.8617 -1.9941  0.7277
 1937SOL    HW217448   0.358   1.449  12.010  0.8236 -0.3320  1.5883
 1938SOL     OW17449   4.170   2.854  13.502 -0.4248 -0.4277 -0.4400
 1938SOL    HW117450   4.087   2.899  13.483 -0.5999 -0.8585 -0.7015
 1938SOL    HW217451   4.216   2.937  13.495 -0.5905 -0.2838  0.2071
 1939SOL     OW17452   0.840   0.352  11.427  0.3802  0.0592  0.0691
 1939SOL    HW117453   0.808   0.362  11.517 -1.3736  0.6886 -0.6210
 1939SOL    HW217454   0.845   0.440  11.390  0.1178  0.3188  0.6418
 1940SOL     OW17455   0.418   0.562   3.757 -0.4097  0.4717 -0.3819
 1940SOL    HW117456   0.453   0.621   3.824  1.7137 -1.3710  0.1157
 1940SOL    HW217457   0.487   0.496   3.762  0.6541  1.8043  2.1304
 1941SOL     OW17458   1.243   2.828   9.917 -0.0436 -0.1561 -0.3553
 1941SOL    HW117459   1.279   2.915   9.901  0.5996 -0.2393  0.6552
 1941SOL    HW217460   1.170   2.855   9.973  0.7210  2.1842 -0.4888
 1942SOL     OW17461   2.993   2.949  15.868 -0.1240  0.2227  0.2443
 1942SOL    HW117462   3.015   3.039  15.891 -0.1761 -0.1732  1.8246
 1942SOL    HW217463   3.021   2.949  15.776  0.3568  0.2223  0.3922
 1943SOL     OW17464   0.299   4.424   7.602 -0.8699 -0.2065 -0.2189
 1943SOL    HW117465   0.223   4.409   7.546  0.7662 -1.8554 -1.9999
 1943SOL    HW217466   0.276   4.495   7.661 -1.4310 -0.1649 -0.4817
 1944SOL     OW17467   0.989   4.663   3.057 -0.1927 -0.8885  0.1730
 1944SOL    HW117468   1.036   0.008   3.044  1.5817 -1.7831  0.9289
 1944SOL    HW217469   1.036   4.618   2.987  0.1585 -1.5701  0.8475
 1945SOL     OW17470   2.789   4.641  17.634 -0.0190 -0.3396 -0.3723
 1945SOL    HW117471   2.797   4.713  17.572 -1.7243  0.4844  0.3785
 1945SOL    HW217472   2.702   4.604  17.618  0.0575 -0.8150  0.3196
 1946SOL     OW17473   1.018   4.488   6.134 -0.3314  0.0460 -0.6837
 1946SOL    HW117474   1.087   4.427   6.107 -0.1656  0.0568 -0.2948
 1946SOL    HW217475   1.062   4.567   6.104  0.2657  0.3879  1.0853
 1947SOL     OW17476   2.053   0.286   8.763 -0.0635  0.3510 -0.5883
 1947SOL    HW117477   2.048   0.251   8.852 -0.1316  1.0845 -0.3024
 1947SOL    HW217478   2.138   0.246   8.744  0.2234  1.4685 -1.7009
 1948SOL     OW17479   2.891   3.770  17.159 -0.5516 -0.0181  0.6591
 1948SOL    HW117480   2.864   3.695  17.106  0.5534  0.1177 -0.0946
 1948SOL    HW217481   2.904   3.838  17.094 -1.1640 -1.6877 -1.2074
 1949SOL     OW17482   4.321   4.648   3.317 -0.2814 -0.3781 -0.7642
 1949SOL    HW117483   4.314   4.651   3.412 -0.2840  2.5796 -0.8638
 1949SOL    HW217484   4.237   4.609   3.292 -0.2396 -0.5664 -0.6176
 1950SOL     OW17485   1.592   0.495   0.885 -0.1046  0.2455  0.3723
 1950SOL    HW117486   1.517   0.461   0.836  2.1126 -3.3208 -0.5400
 1950SOL    HW217487   1.554   0.576   0.918 -1.8078 -0.0879 -0.8012
 1951SOL     OW17488   2.900   2.669  10.226  0.1638  0.5358 -0.2875
 1951SOL    HW117489   2.943   2.733  10.284  0.6959 -0.4056  0.3526
 1951SOL    HW217490   2.951   2.590  10.244 -1.0911 -0.7127 -2.2564
 1952SOL     OW17491   2.840   3.524  16.947  0.0263  0.5237 -0.2630
 1952SOL    HW117492   2.764   3.509  16.891  0.3142 -2.8262  0.2593
 1952SOL    HW217493   2.821   3.479  17.029 -0.5601  0.3709 -0.4861
 1953SOL     OW17494   2.451   0.199   7.737 -0.0784  0.4600  1.0609
 1953SOL    HW117495   2.542   0.203   7.707 -0.0605 -0.4765  0.9891
 1953SOL    HW217496   2.407   0.227   7.657  3.7218  1.0133 -0.8632
 1954SOL     OW17497   4.054   3.547  10.352  0.3011  0.9910  0.1243
 1954SOL    HW117498   4.032   3.486  10.282 -0.6635  1.1496  0.2817
 1954SOL    HW217499   4.084   3.625  10.305 -1.2763 -0.0952 -2.6624
 1955SOL     OW17500   1.884   4.169  10.085  0.2628 -0.6685 -0.4911
 1955SOL    HW117501   1.802   4.167  10.135  0.8006  1.8813  0.4928
 1955SOL    HW217502   1.918   4.254  10.112 -1.6868 -0.4469  1.2924
 1956SOL     OW17503   3.249   3.811  11.205 -0.0858  0.2424  0.5187
 1956SOL    HW117504   3.319   3.747  11.217 -0.3702  0.3531  2.7682
 1956SOL    HW217505   3.228   3.778  11.117  2.4226 -2.0972  0.8070
 1957SOL     OW17506   1.517   1.132   4.560  0.3631 -0.4425 -0.0498
 1957SOL    HW117507   1.436   1.155   4.514 -1.1042 -1.4593  2.0259
 1957SOL    HW217508   1.541   1.213   4.605 -0.8373 -0.7030  1.0518
 1958SOL     OW17509   3.667   1.669  11.214 -0.0055 -0.4805 -0.3891
 1958SOL    HW117510   3.632   1.724  11.285 -0.4168  0.5740 -1.4038
 1958SOL    HW217511   3.592   1.645  11.160  0.4291 -0.9616 -0.7716
 1959SOL     OW17512   2.240   1.561   3.827  0.0129 -0.2130 -0.1902
 1959SOL    HW117513   2.320   1.550   3.776 -0.8382 -0.0959 -1.5462
 1959SOL    HW217514   2.179   1.515   3.769 -0.2418 -0.1011 -0.0138
 1960SOL     OW17515   2.863   1.415   3.958  0.7370 -0.1027 -0.6769
 1960SOL    HW117516   2.782   1.461   3.979  0.6725 -0.1134 -0.9022
 1960SOL    HW217517   2.930   1.480   3.980 -0.1171 -0.1914  2.1292
 1961SOL     OW17518   1.549   2.299  10.017  0.4225 -0.5941  0.6337
 1961SOL    HW117519   1.521   2.314   9.927 -0.5936  1.2287  1.2549
 1961SOL    HW217520   1.605   2.224   9.996  1.1275  0.4737 -1.3266
 1962SOL     OW17521   0.246   4.453  10.811  0.4545  0.4582  0.5638
 1962SOL    HW117522   0.177   4.507  10.850 -2.4622 -3.5288  0.9130
 1962SOL    HW217523   0.239   4.380  10.873  0.6204 -0.2942 -0.3067
 1963SOL     OW17524   3.961   1.692   8.399  0.1632 -0.2231 -0.0486
 1963SOL    HW117525   3.983   1.613   8.350 -0.3206 -1.2849  1.4471
 1963SOL    HW217526   3.866   1.704   8.398  0.0072 -1.2195  1.9703
 1964SOL     OW17527   2.942   3.909   4.308  0.5199 -0.1026 -0.1084
 1964SOL    HW117528   2.951   3.994   4.352 -2.3549 -0.0206  0.3521
 1964SOL    HW217529   3.000   3.861   4.366 -1.4412 -0.3588  1.6329
 1965SOL     OW17530   3.153   4.452   9.498 -0.3051  0.4289  0.0390
 1965SOL    HW117531   3.106   4.494   9.426 -2.9528  0.4059  1.7518
 1965SOL    HW217532   3.236   4.431   9.457  0.4013  1.1970  1.0790
 1966SOL     OW17533   2.189   0.998   1.954  0.6427 -0.0598 -0.5533
 1966SOL    HW117534   2.212   1.028   1.867  1.6423  1.2983  0.1759
 1966SOL    HW217535   2.235   1.054   2.017  0.8148 -0.7163 -0.0906
 1967SOL     OW17536   1.430   1.929   8.595  0.3765  0.4633  0.2490
 1967SOL    HW117537   1.389   1.976   8.668 -2.2674 -1.7050  0.1500
 1967SOL    HW217538   1.419   1.992   8.524 -3.2209 -0.2404  0.1969
 1968SOL     OW17539   2.339   1.582   7.831 -0.0638 -0.0299  0.3302
 1968SOL    HW117540   2.264   1.537   7.869 -0.9012  0.9235 -0.1829
 1968SOL    HW217541   2.320   1.673   7.855  1.1897  0.1558  0.6160
 1969SOL     OW17542   4.122   4.514   9.828 -0.3752  0.0747 -0.3561
 1969SOL    HW117543   4.175   4.438   9.851 -1.7352 -0.5122  0.8080
 1969SOL    HW217544   4.194   4.562   9.786  1.1152 -0.9878  1.0057
 1970SOL     OW17545   4.204   2.089   7.645 -0.0839 -0.1150 -0.1376
 1970SOL    HW117546   4.134   2.052   7.590 -0.2951  0.9301 -0.5715
 1970SOL    HW217547   4.183   2.046   7.728 -0.3321  0.4427  0.0909
 1971SOL     OW17548   3.464   1.403   1.631  0.0397  0.2653 -0.4680
 1971SOL    HW117549   3.380   1.393   1.587 -0.4066 -0.3804  0.5291
 1971SOL    HW217550   3.458   1.489   1.673 -0.3881  0.1521 -0.2962
 1972SOL     OW17551   1.877   2.433   9.548 -0.1943  0.2056  0.0141
 1972SOL    HW117552   1.960   2.390   9.566  0.3658  1.0319 -0.6008
 1972SOL    HW217553   1.911   2.520   9.524  1.9618 -0.8800 -0.8414
 1973SOL     OW17554   4.079   0.621   8.545 -0.3974 -0.3724  0.0087
 1973SOL    HW117555   4.095   0.675   8.621  0.4491 -1.8400  0.8740
 1973SOL    HW217556   4.073   0.694   8.483 -0.1872 -0.0534  0.3688
 1974SOL     OW17557   1.444   0.945  10.736 -0.3533  0.4194  0.3402
 1974SOL    HW117558   1.499   0.985  10.669 -0.3714 -2.5207 -1.4448
 1974SOL    HW217559   1.511   0.934  10.803 -1.0623  1.0806  1.1649
 1975SOL     OW17560   1.119   1.967   5.674 -0.7909  0.4054  0.8895
 1975SOL    HW117561   1.144   1.952   5.765 -0.1700 -2.7960  0.1958
 1975SOL    HW217562   1.154   1.888   5.633 -1.3610  1.2237 -1.1654
 1976SOL     OW17563   0.290   4.174   3.630  0.0114  0.0757 -0.3668
 1976SOL    HW117564   0.318   4.193   3.540  2.8147 -0.4172  0.3883
 1976SOL    HW217565   0.277   4.261   3.667  0.6830  1.5460 -3.5464
 1977SOL     OW17566   0.457   0.645   6.263  0.8247 -0.5026  0.0255
 1977SOL    HW117567   0.373   0.633   6.220  0.6987  0.3702  0.0217
 1977SOL    HW217568   0.477   0.732   6.227  0.6659 -0.1383  0.8021
 1978SOL     OW17569   0.893   2.433   5.492  0.0079 -0.2279 -0.2714
 1978SOL    HW117570   0.935   2.348   5.508 -0.4306 -0.0054  2.1414
 1978SOL    HW217571   0.941   2.484   5.558  0.5913  1.3881 -1.9436
 1979SOL     OW17572   1.717   0.592   5.070 -0.2498 -0.1167  0.0654
 1979SOL    HW117573   1.806   0.602   5.104 -0.3794  0.7699  0.1437
 1979SOL    HW217574   1.677   0.539   5.139 -2.3748  2.3974  0.7429
 1980SOL     OW17575   3.085   0.946   1.250 -0.0754 -0.2312  0.4692
 1980SOL    HW117576   3.012   0.923   1.308 -0.0767  0.6732  0.8353
 1980SOL    HW217577   3.113   0.856   1.237  1.9469  0.2699  1.3495
 1981SOL     OW17578   1.601   3.672   8.482  0.0242  0.3011  0.0808
 1981SOL    HW117579   1.696   3.678   8.492 -0.0255  0.6212  0.3557
 1981SOL    HW217580   1.591   3.598   8.422 -0.0493  0.0851  0.3600
 1982SOL     OW17581   1.896   1.295   1.982 -0.1084 -0.1526  0.2293
 1982SOL    HW117582   1.941   1.278   2.065 -1.1487  1.5352  1.1368
 1982SOL    HW217583   1.831   1.226   1.969  1.7264 -1.9113  0.2238
 1983SOL     OW17584   2.978   1.370   8.033 -0.1563 -0.2632 -0.1298
 1983SOL    HW117585   3.018   1.283   8.029  0.7637  0.0034  3.3615
 1983SOL    HW217586   2.886   1.342   8.032  0.3434 -1.9592  1.8346
 1984SOL     OW17587   2.344   1.815   5.994 -0.5245 -0.1085 -0.1490
 1984SOL    HW117588   2.278   1.832   5.926  1.6471  0.8450 -2.0170
 1984SOL    HW217589   2.359   1.907   6.015 -0.8343 -0.1919  0.4291
 1985SOL     OW17590   3.520   2.731   3.081 -0.0980  0.4060  0.0587
 1985SOL    HW117591   3.522   2.635   3.082  1.0177  0.4614  3.1250
 1985SOL    HW217592   3.583   2.756   3.014 -0.0518 -1.9779 -0.7788
 1986SOL     OW17593   3.768   2.183   7.176 -0.9255 -0.6248 -0.3110
 1986SOL    HW117594   3.684   2.139   7.160 -0.7817 -0.3420 -1.8869
 1986SOL    HW217595   3.750   2.274   7.199  1.5650 -0.2160  0.0975
 1987SOL     OW17596   2.496   3.097   6.105 -0.4206  0.0872  0.4215
 1987SOL    HW117597   2.572   3.155   6.108 -0.6746  0.4183  0.3373
 1987SOL    HW217598   2.487   3.086   6.200  0.3149 -0.9720  0.3730
 1988SOL     OW17599   3.405   0.953   1.600 -0.0215 -0.3354  0.4932
 1988SOL    HW117600   3.456   0.879   1.568  0.0455  0.0484 -0.3088
 1988SOL    HW217601   3.362   0.982   1.519 -1.0041 -2.0741  0.3942
 1989SOL     OW17602   1.772   4.056   6.869  0.1289 -0.1487  0.0544
 1989SOL    HW117603   1.768   4.070   6.775  0.4648 -0.0087  0.0612
 1989SOL    HW217604   1.692   4.005   6.886 -0.5339  0.9512  0.2026
 1990SOL     OW17605   0.253   0.849   0.362  0.6250 -0.2468  0.5752
 1990SOL    HW117606   0.295   0.789   0.422 -1.1754  1.4310  3.5151
 1990SOL    HW217607   0.158   0.842   0.371  0.3977 -0.8497 -2.2353
 1991SOL     OW17608   0.189   2.708   0.803  0.0105  0.2944 -0.2291
 1991SOL    HW117609   0.143   2.730   0.722  0.1718 -1.7721 -0.8757
 1991SOL    HW217610   0.125   2.646   0.838  0.5431 -1.8066 -2.9371
 1992SOL     OW17611   2.894   1.558   1.704 -0.8229 -0.1176 -0.4729
 1992SOL    HW117612   2.861   1.468   1.705  0.3457 -0.5404  0.6620
 1992SOL    HW217613   2.888   1.581   1.797  2.1692  0.7602 -0.5052
 1993SOL     OW17614   3.146   2.612   0.092 -0.1186  0.1458 -0.3628
 1993SOL    HW117615   3.122   2.705   0.093  2.6787  0.8808 -0.8200
 1993SOL    HW217616   3.233   2.628   0.056  1.0617  0.5990  2.7475
 1994SOL     OW17617   1.751   0.722   7.977  0.4145  0.1389  0.0787
 1994SOL    HW117618   1.661   0.730   7.947  0.0508  1.1946  1.4880
 1994SOL    HW217619   1.774   0.636   7.942 -0.6998  0.0342 -0.3876
 1995SOL     OW17620   0.859   2.421   2.932  0.6208 -0.4521  0.4424
 1995SOL    HW117621   0.773   2.412   2.971  0.5592 -0.3249  0.3343
 1995SOL    HW217622   0.923   2.445   2.999  1.1366 -0.3957 -0.0638
 1996SOL     OW17623   0.693   4.163   5.147  0.2604 -0.0920 -0.3009
 1996SOL    HW117624   0.762   4.229   5.153 -1.4957  1.7918 -0.8018
 1996SOL    HW217625   0.650   4.183   5.230  0.6322  1.3858 -0.4790
 1997SOL     OW17626   2.024   4.204   6.963  0.0722 -0.3743  0.1351
 1997SOL    HW117627   1.943   4.160   6.939  0.2879  0.1356 -1.5771
 1997SOL    HW217628   2.007   4.231   7.053  0.3401  0.4601 -0.0669
 1998SOL     OW17629   2.062   3.066  14.700 -0.1447 -0.2320 -0.3869
 1998SOL    HW117630   2.032   3.147  14.659 -0.1844 -0.3754 -0.6465
 1998SOL    HW217631   2.018   3.008  14.638 -1.3946 -0.9275  1.1665
 1999SOL     OW17632   4.649   1.917  11.906 -0.3552  0.3259  0.2320
 1999SOL    HW117633   4.559   1.920  11.874  0.4992  0.6498 -2.1943
 1999SOL    HW217634   4.703   1.957  11.837 -0.6069 -1.1165 -0.8113
 2000SOL     OW17635   1.868   4.359   2.401 -0.3816  1.0933 -0.0030
 2000SOL    HW117636   1.858   4.454   2.396  1.7506  1.3049 -0.4336
 2000SOL    HW217637   1.951   4.339   2.358 -1.2758  0.2917 -1.3332
 2001SOL     OW17638   1.381   0.717   2.394  0.1604  0.6439  0.5574
 2001SOL    HW117639   1.398   0.773   2.470 -0.3173 -0.0181  1.1492
 2001SOL    HW217640   1.297   0.749   2.363  0.6954  0.7299 -0.7845
 2002SOL     OW17641   2.011   2.562   0.012  0.6001 -0.4212 -0.1419
 2002SOL    HW117642   2.024   2.612   0.093 -0.1348  1.2008 -1.0313
 2002SOL    HW217643   2.074   2.490   0.022  2.1066  1.1795  2.0134
 2003SOL     OW17644   1.993   4.605   4.076 -0.4667 -0.3064  0.4249
 2003SOL    HW117645   2.059   4.560   4.024 -1.8613  0.1420 -1.7176
 2003SOL    HW217646   1.939   4.534   4.111 -0.3832 -0.2470  0.6742
 2004SOL     OW17647   4.363   0.608   0.458  0.1743 -0.0439  0.1020
 2004SOL    HW117648   4.269   0.604   0.475  0.4265 -2.7453  0.9048
 2004SOL    HW217649   4.362   0.535   0.396  3.3412 -1.0169  1.1881
 2005SOL     OW17650   4.661   0.643  10.449  0.1829 -0.7882 -0.5980
 2005SOL    HW117651   4.625   0.713  10.503  3.1207  0.6018 -0.4679
 2005SOL    HW217652   4.717   0.696  10.391 -0.1375  3.5928  3.1161
 2006SOL     OW17653   3.548   1.181   7.101 -0.0875  0.1691  0.8864
 2006SOL    HW117654   3.615   1.147   7.042 -3.0718 -1.0202 -1.8314
 2006SOL    HW217655   3.609   1.226   7.160 -0.2201  1.4466  0.0500
 2007SOL     OW17656   2.616   0.861  11.875  0.2229 -0.1344 -0.0008
 2007SOL    HW117657   2.617   0.954  11.895  0.8420  0.7383 -4.1166
 2007SOL    HW217658   2.685   0.830  11.934 -1.6642  1.3194  2.9485
 2008SOL     OW17659   0.744   1.253   0.942  0.4996  0.4155 -0.1977
 2008SOL    HW117660   0.817   1.228   0.886 -0.0760 -0.6816 -0.4542
 2008SOL    HW217661   0.672   1.280   0.884  1.1259 -1.6586 -1.9264
 2009SOL     OW17662   0.949   0.513   1.490 -0.0074 -0.5807 -0.3104
 2009SOL    HW117663   1.008   0.448   1.450  0.0699  0.3254 -1.6715
 2009SOL    HW217664   0.994   0.550   1.566  0.8118 -1.5748 -0.3047
 2010SOL     OW17665   0.357   0.844  16.783 -0.0334  0.0892  0.4528
 2010SOL    HW117666   0.355   0.762  16.734  2.3563  0.3853 -0.1489
 2010SOL    HW217667   0.265   0.853  16.805  0.2819  1.0674  1.3610
 2011SOL     OW17668   3.454   0.425   2.756 -0.4798  0.2145 -0.0168
 2011SOL    HW117669   3.419   0.495   2.812  1.4802  1.1885 -0.0248
 2011SOL    HW217670   3.547   0.430   2.778 -0.2453 -0.4933 -0.8518
 2012SOL     OW17671   0.784   1.788   4.442 -0.7331  0.2301  0.4941
 2012SOL    HW117672   0.707   1.753   4.396 -1.6443  2.0126  0.6664
 2012SOL    HW217673   0.796   1.720   4.508 -1.7154 -0.3213  0.1141
 2013SOL     OW17674   0.487   1.205   8.851  0.2047 -0.6451 -0.3457
 2013SOL    HW117675   0.563   1.159   8.816  0.1504 -1.4389  0.5691
 2013SOL    HW217676   0.532   1.282   8.885  0.1097 -0.6352 -0.2420
 2014SOL     OW17677   2.345   4.310  16.371  0.4627 -0.2597  0.7047
 2014SOL    HW117678   2.416   4.269  16.421 -0.7010 -3.3326 -0.1434
 2014SOL    HW217679   2.269   4.268  16.411  1.6615 -2.6513  0.5200
 2015SOL     OW17680   2.630   1.097   3.800  0.1191  0.2173  0.4006
 2015SOL    HW117681   2.695   1.144   3.748  1.5665 -0.6818  1.4084
 2015SOL    HW217682   2.668   1.101   3.888  0.3990  2.2967  0.1852
 2016SOL     OW17683   2.867   0.242  13.104 -0.3554  0.3238  0.5185
 2016SOL    HW117684   2.874   0.337  13.102  0.8742  0.2466  1.2356
 2016SOL    HW217685   2.934   0.218  13.168  0.3525 -0.6308 -0.5940
 2017SOL     OW17686   2.233   1.315   5.004  0.0836  0.8580  0.5688
 2017SOL    HW117687   2.292   1.251   4.966 -2.1672 -0.3652 -0.8434
 2017SOL    HW217688   2.259   1.330   5.095 -1.6450 -0.9297  1.3508
 2018SOL     OW17689   3.773   3.037   1.945 -0.1161  0.1741  0.0596
 2018SOL    HW117690   3.745   3.041   2.037 -2.4249 -0.6830 -0.6199
 2018SOL    HW217691   3.700   3.084   1.905 -0.0557  1.2417  1.2047
 2019SOL     OW17692   3.018   2.453   4.211 -0.5365 -0.0730 -0.1861
 2019SOL    HW117693   2.981   2.477   4.126  1.5111 -1.4791 -1.4639
 2019SOL    HW217694   2.952   2.492   4.269  1.6893  1.0467  1.5968
 2020SOL     OW17695   2.028   4.463   7.069  0.0842 -0.6222  0.0194
 2020SOL    HW117696   2.070   4.523   7.131 -0.1266  0.2290 -0.6501
 2020SOL    HW217697   2.033   4.505   6.983  2.0061 -1.9368 -0.5163
 2021SOL     OW17698   4.714   3.433   2.943 -0.7895  0.1528 -0.1049
 2021SOL    HW117699   0.009   3.500   2.883 -0.6543  0.0989 -0.0915
 2021SOL    HW217700   4.637   3.402   2.894  1.4107 -2.0084 -2.1570
 2022SOL     OW17701   2.662   2.315   3.465 -0.0237 -0.1600  0.2053
 2022SOL    HW117702   2.707   2.383   3.415  1.6528 -1.4887 -0.1176
 2022SOL    HW217703   2.725   2.306   3.538 -0.2915  0.8933  0.5711
 2023SOL     OW17704   4.712   3.961   8.515  0.7272  0.1208 -0.4540
 2023SOL    HW117705   4.639   3.933   8.570 -0.4508  1.7474 -1.2075
 2023SOL    HW217706   0.033   3.963   8.592  1.8254 -0.9121 -1.2507
 2024SOL     OW17707   2.919   0.899  16.756  0.0343 -0.1683 -0.4611
 2024SOL    HW117708   2.991   0.842  16.781  0.6832  0.1517 -1.5927
 2024SOL    HW217709   2.858   0.891  16.829  0.5984  2.2653  0.2810
 2025SOL     OW17710   0.149   4.606   4.853  0.0924  0.3893 -0.9042
 2025SOL    HW117711   0.205   4.644   4.920 -3.0318 -0.0369  1.9748
 2025SOL    HW217712   0.221   4.592   4.793  0.3710 -0.2065 -0.4302
 2026SOL     OW17713   1.608   0.071   1.821  0.1581 -0.4042  0.8667
 2026SOL    HW117714   1.683   0.129   1.826 -0.0988  0.0752 -0.9174
 2026SOL    HW217715   1.647   4.722   1.834  0.1250 -0.4354  0.7651
 2027SOL     OW17716   2.590   4.578   2.944 -0.3566  0.9895  0.4349
 2027SOL    HW117717   2.642   4.525   2.885  0.8515  1.9314  0.6591
 2027SOL    HW217718   2.566   4.644   2.878  1.6151  0.7100 -0.5538
 2028SOL     OW17719   3.643   0.848   0.855 -0.3886  0.4282 -0.5874
 2028SOL    HW117720   3.566   0.861   0.910  0.1522  0.9211  0.0458
 2028SOL    HW217721   3.614   0.887   0.772  0.6418 -0.1322 -1.2153
 2029SOL     OW17722   2.706   0.805   9.127 -0.4468 -0.5661 -0.5581
 2029SOL    HW117723   2.747   0.873   9.073 -1.0702  1.6680  1.7785
 2029SOL    HW217724   2.754   0.822   9.208 -0.0101  0.7653 -1.0941
 2030SOL     OW17725   0.725   3.645  16.053  0.2413 -0.1033 -0.1173
 2030SOL    HW117726   0.638   3.684  16.046 -0.2995 -1.2119  0.3977
 2030SOL    HW217727   0.763   3.673  16.137  1.3092 -1.5622 -0.1078
 2031SOL     OW17728   4.523   0.465  16.652 -0.3970 -0.1297 -0.3658
 2031SOL    HW117729   4.540   0.452  16.745 -1.8275 -1.0734 -0.2319
 2031SOL    HW217730   4.577   0.396  16.614 -1.0918 -1.5160  1.1965
 2032SOL     OW17731   3.868   0.880   3.105 -0.3743 -0.0989 -0.4753
 2032SOL    HW117732   3.835   0.895   3.194  0.1107  0.7673 -0.4429
 2032SOL    HW217733   3.909   0.795   3.119 -0.9535 -0.3495 -0.2949
 2033SOL     OW17734   3.022   4.713  12.380 -0.4543  0.2469  0.3444
 2033SOL    HW117735   3.018   4.618  12.380  1.9551  0.1585  1.7999
 2033SOL    HW217736   3.071   4.712  12.297  1.0354  2.9159  1.1915
 2034SOL     OW17737   1.879   3.185   0.109 -0.1418 -0.3794  0.4228
 2034SOL    HW117738   1.917   3.192   0.022 -1.1423  0.0101  0.0136
 2034SOL    HW217739   1.921   3.105   0.141  0.2102  0.6220  2.4764
 2035SOL     OW17740   2.903   0.051   2.019  0.1848 -0.1287 -0.1920
 2035SOL    HW117741   2.912   0.038   1.924 -1.7053  1.9041 -0.6592
 2035SOL    HW217742   2.994   0.076   2.036  1.2210 -2.1024 -2.8571
 2036SOL     OW17743   1.342   3.095   1.493  0.8255 -0.0956  0.5878
 2036SOL    HW117744   1.426   3.100   1.539  1.7794  0.2728 -1.1894
 2036SOL    HW217745   1.310   3.184   1.506  0.7875 -0.1014  0.5338
 2037SOL     OW17746   0.462   0.139   2.648  0.4978  0.0574 -0.1189
 2037SOL    HW117747   0.387   0.080   2.636  0.5290 -0.5801  2.8375
 2037SOL    HW217748   0.488   0.122   2.739 -1.2726 -0.1889  0.3458
 2038SOL     OW17749   1.921   1.043   9.286 -0.4161  0.1701  0.2555
 2038SOL    HW117750   1.905   1.135   9.307  0.2296  0.5145 -0.7627
 2038SOL    HW217751   1.983   1.017   9.355 -1.0047  1.4223  1.2596
 2039SOL     OW17752   0.390   3.157   4.515  0.0586 -0.4210 -0.1629
 2039SOL    HW117753   0.335   3.234   4.497 -0.8510 -0.1995  3.4820
 2039SOL    HW217754   0.353   3.135   4.600  2.1088  2.2424  1.4243
 2040SOL     OW17755   0.366   0.089   5.329  0.4417  0.2205 -0.4658
 2040SOL    HW117756   0.460   0.078   5.317  0.7392  1.8406  0.3292
 2040SOL    HW217757   0.353   0.184   5.331 -1.3200  0.0065 -1.5964
 2041SOL     OW17758   4.236   4.176   8.529  0.1689  0.0646 -0.1285
 2041SOL    HW117759   4.215   4.268   8.546  2.3236  0.5446 -0.1121
 2041SOL    HW217760   4.274   4.157   8.615 -1.7437  3.3173  1.4338
 2042SOL     OW17761   0.468   0.610  14.113 -0.2870 -0.0120 -0.5117
 2042SOL    HW117762   0.429   0.594  14.027 -3.1090 -2.5849  1.2489
 2042SOL    HW217763   0.392   0.601  14.170  0.1401 -2.5058 -0.3525
 2043SOL     OW17764   2.774   0.985   5.237  0.6634 -0.3320 -0.6608
 2043SOL    HW117765   2.760   1.068   5.191 -1.8667 -0.7899 -0.7139
 2043SOL    HW217766   2.699   0.982   5.296  1.3282 -2.0553  0.0880
 2044SOL     OW17767   1.424   0.356   6.500  0.0029  0.3033  0.4267
 2044SOL    HW117768   1.472   0.416   6.556 -1.6072  1.7726  0.2452
 2044SOL    HW217769   1.418   0.406   6.419 -1.0498  0.4806  0.6108
 2045SOL     OW17770   4.339   4.374   6.427  0.0499 -0.5527  0.0076
 2045SOL    HW117771   4.412   4.339   6.376 -0.0135 -0.6520 -0.0163
 2045SOL    HW217772   4.273   4.309   6.402 -0.7217  0.6121 -0.9415
 2046SOL     OW17773   0.607   4.494   5.901 -0.0932 -0.2358 -0.0740
 2046SOL    HW117774   0.688   4.496   5.850 -1.2506 -3.1320 -2.0218
 2046SOL    HW217775   0.566   4.569   5.859  1.1692  0.0506 -0.7687
 2047SOL     OW17776   0.792   1.662   3.247 -0.1310  0.0105  0.1980
 2047SOL    HW117777   0.857   1.669   3.177 -0.4563  0.3144 -0.0737
 2047SOL    HW217778   0.774   1.755   3.262 -1.5129  0.1043 -2.0109
 2048SOL     OW17779   3.340   0.003   4.267  0.1067 -0.0209  0.0584
 2048SOL    HW117780   3.320   0.057   4.344 -0.4162  1.5391 -1.1743
 2048SOL    HW217781   3.248   4.712   4.260  0.5746 -1.2906 -0.8641
 2049SOL     OW17782   1.252   3.976   4.694  0.5976  0.0414  1.0520
 2049SOL    HW117783   1.168   3.962   4.650 -0.1552 -0.3047  2.5980
 2049SOL    HW217784   1.308   3.941   4.625  1.1907  1.7816  0.6555
 2050SOL     OW17785   4.670   0.647   4.859  0.1050  0.4398 -0.0789
 2050SOL    HW117786   4.716   0.709   4.802  0.4851  1.3523  1.2084
 2050SOL    HW217787   4.590   0.622   4.813 -0.3290  0.2029  0.8080
 2051SOL     OW17788   0.665   1.475  11.055 -0.2487 -0.0355  0.3145
 2051SOL    HW117789   0.668   1.498  10.962 -0.6767 -4.1262 -0.7373
 2051SOL    HW217790   0.759   1.482  11.073 -0.3784 -0.1541  1.0382
 2052SOL     OW17791   3.964   2.669   2.210  0.2079 -0.1159  0.1717
 2052SOL    HW117792   3.926   2.732   2.270 -1.1321  0.3712 -1.1709
 2052SOL    HW217793   3.967   2.716   2.126  1.1666 -2.1027 -0.9274
 2053SOL     OW17794   2.099   2.242  11.204  0.3313  0.1228  0.2015
 2053SOL    HW117795   2.182   2.238  11.252  0.9150 -0.5158 -0.8626
 2053SOL    HW217796   2.106   2.332  11.171  1.1953  0.5662  1.6220
 2054SOL     OW17797   1.248   3.531   3.516  0.3615 -0.2862 -0.6975
 2054SOL    HW117798   1.304   3.453   3.521  0.9689  0.2697  1.0795
 2054SOL    HW217799   1.166   3.502   3.556  0.4429  0.7560  0.2228
 2055SOL     OW17800   0.824   4.423   4.806  0.3566 -0.3015  0.2759
 2055SOL    HW117801   0.779   4.507   4.818 -0.2273 -0.3105 -1.7855
 2055SOL    HW217802   0.756   4.360   4.780  2.6963 -2.3543 -0.7799
 2056SOL     OW17803   3.640   3.650  15.515 -0.2539  0.3479  0.5167
 2056SOL    HW117804   3.700   3.635  15.441 -0.1645  0.3923  0.5797
 2056SOL    HW217805   3.696   3.619  15.585 -0.5458  1.8574  1.4201
 2057SOL     OW17806   2.789   3.323   4.723 -1.1641  0.2043 -0.3855
 2057SOL    HW117807   2.716   3.315   4.783  1.4404  0.3272  2.7673
 2057SOL    HW217808   2.823   3.412   4.729 -0.9291  0.1169 -0.4089
 2058SOL     OW17809   3.042   2.302   3.876  0.2407 -0.5152 -0.2141
 2058SOL    HW117810   2.981   2.370   3.903  0.7641 -0.5447  1.0427
 2058SOL    HW217811   3.102   2.348   3.818 -2.2252 -0.4395 -2.7027
 2059SOL     OW17812   3.613   0.786   3.019  0.4365 -0.3089  0.6361
 2059SOL    HW117813   3.640   0.749   2.935  1.0765 -0.9309  1.1191
 2059SOL    HW217814   3.704   0.806   3.043  0.7347 -0.5488 -0.3012
 2060SOL     OW17815   1.001   2.580   8.363 -0.1067  0.3453  0.2085
 2060SOL    HW117816   1.000   2.504   8.420 -2.7527  0.5395  0.4352
 2060SOL    HW217817   0.932   2.566   8.298  0.7458  1.6147 -0.9613
 2061SOL     OW17818   0.391   1.342   4.042  0.1600 -0.2899 -0.0610
 2061SOL    HW117819   0.317   1.386   3.999  0.2109  0.1899  0.3384
 2061SOL    HW217820   0.371   1.253   4.011 -1.4549  0.0202  0.0832
 2062SOL     OW17821   4.372   3.545   7.735  0.4590  0.5003 -0.6622
 2062SOL    HW117822   4.449   3.500   7.700  1.8617  0.7535  2.1061
 2062SOL    HW217823   4.332   3.474   7.786  2.6194 -1.6857 -2.0056
 2063SOL     OW17824   3.406   2.196   8.972  0.1861  0.6403  0.0254
 2063SOL    HW117825   3.482   2.230   9.019  0.0673  0.2271  0.5131
 2063SOL    HW217826   3.389   2.114   9.019 -0.6054  0.2067 -1.0162
 2064SOL     OW17827   2.796   2.291   7.981  0.3350  0.1662  0.3151
 2064SOL    HW117828   2.834   2.374   8.009  1.0199 -0.3752  0.9591
 2064SOL    HW217829   2.878   2.253   7.950  1.1415  0.4809  2.0938
 2065SOL     OW17830   3.773   0.483  10.360 -0.0310  0.0303  0.6855
 2065SOL    HW117831   3.751   0.563  10.409  0.8260  1.3417 -1.0794
 2065SOL    HW217832   3.864   0.472  10.386  0.2155 -1.8566 -1.0094
 2066SOL     OW17833   3.584   4.095   8.974  0.1301 -0.2486  0.2220
 2066SOL    HW117834   3.499   4.063   9.005  0.7532  0.2591  2.4635
 2066SOL    HW217835   3.644   4.031   9.013  0.3120  0.2704  0.7847
 2067SOL     OW17836   2.365   0.169  15.455  0.3900  0.5275 -0.2077
 2067SOL    HW117837   2.347   0.263  15.450 -0.6522  0.3559  0.5126
 2067SOL    HW217838   2.460   0.180  15.465  0.2057  2.1022 -0.1781
 2068SOL     OW17839   2.697   1.590   7.636 -0.0672 -0.0544 -0.1197
 2068SOL    HW117840   2.700   1.623   7.726  0.0091 -1.4001  0.3770
 2068SOL    HW217841   2.785   1.553   7.626 -0.8098 -1.5470 -1.1172
 2069SOL     OW17842   3.134   1.309   7.632  0.1600  0.2234  0.4555
 2069SOL    HW117843   3.212   1.281   7.679 -1.3182 -1.1144  2.1545
 2069SOL    HW217844   3.075   1.237   7.655  1.4411 -1.5380 -1.8391
 2070SOL     OW17845   3.401   0.278   3.442  0.3873  0.2283  0.2039
 2070SOL    HW117846   3.351   0.251   3.519  0.0916  0.2717  0.0297
 2070SOL    HW217847   3.491   0.280   3.473  0.1501 -1.8484  0.9890
 2071SOL     OW17848   1.666   1.823  16.034  0.1498 -0.1166 -0.7220
 2071SOL    HW117849   1.608   1.764  15.985 -1.6244  0.2675  0.8697
 2071SOL    HW217850   1.670   1.903  15.981  0.0705 -0.2793 -0.9735
 2072SOL     OW17851   1.209   3.163   4.315 -0.8026  0.4369  0.1383
 2072SOL    HW117852   1.168   3.102   4.254  2.1480 -1.6891  0.2622
 2072SOL    HW217853   1.201   3.106   4.392  2.8538  0.4871  0.5816
 2073SOL     OW17854   0.403   1.800   9.772  0.3567  0.3319  0.3982
 2073SOL    HW117855   0.441   1.720   9.808 -0.2691  0.2064  0.7925
 2073SOL    HW217856   0.474   1.861   9.755 -0.2013  0.3573 -1.7755
 2074SOL     OW17857   2.392   4.259   7.858 -0.4359 -0.1305  0.5047
 2074SOL    HW117858   2.304   4.256   7.819 -0.3615  1.1105  0.2433
 2074SOL    HW217859   2.453   4.284   7.789  0.2383 -1.4966  0.6033
 2075SOL     OW17860   2.246   4.110  10.075  0.3638 -0.0475 -0.0136
 2075SOL    HW117861   2.194   4.064  10.141  1.0247 -0.5498  0.1538
 2075SOL    HW217862   2.236   4.201  10.103 -1.6695  0.0575 -1.0693
 2076SOL     OW17863   1.068   1.067   3.414  0.0708  0.7674  0.5174
 2076SOL    HW117864   1.117   1.113   3.345 -0.1226 -0.3534 -0.3677
 2076SOL    HW217865   0.999   1.035   3.355  0.6248 -0.2775  0.4482
 2077SOL     OW17866   2.337   4.161  11.562  0.2551  0.3045 -0.1408
 2077SOL    HW117867   2.256   4.110  11.565  1.3076 -1.1423  3.1753
 2077SOL    HW217868   2.391   4.101  11.510  1.1742  0.6793  0.3976
 2078SOL     OW17869   2.210   2.448   3.067 -0.2451  0.0890  0.7421
 2078SOL    HW117870   2.237   2.373   3.120  0.9682 -0.4896 -0.6823
 2078SOL    HW217871   2.290   2.499   3.081 -0.7596  0.6746  1.4983
 2079SOL     OW17872   2.892   3.257   6.569  0.0340  0.2935 -0.9253
 2079SOL    HW117873   2.853   3.206   6.641 -0.4755 -0.2063 -1.5602
 2079SOL    HW217874   2.955   3.312   6.616  0.4219 -1.4722  0.6272
 2080SOL     OW17875   3.586   3.091   3.656  0.0173 -0.0571  0.0444
 2080SOL    HW117876   3.577   3.146   3.578 -1.4112 -0.2171  0.0858
 2080SOL    HW217877   3.507   3.038   3.651  0.1325 -0.4266  2.3623
 2081SOL     OW17878   2.063   3.127   9.581  0.4098 -0.1715 -0.3917
 2081SOL    HW117879   2.028   3.083   9.659  0.3235 -0.7974 -0.7777
 2081SOL    HW217880   2.020   3.210   9.598 -0.9810 -0.9720  0.0520
 2082SOL     OW17881   0.487   1.483   1.810  0.0650  0.2479 -0.0915
 2082SOL    HW117882   0.491   1.533   1.892  0.9934  0.8451 -0.5025
 2082SOL    HW217883   0.455   1.395   1.832 -0.8834  0.5279 -0.3739
 2083SOL     OW17884   2.759   3.552  14.888  0.1896  0.1306  0.3242
 2083SOL    HW117885   2.739   3.597  14.970  0.0979 -0.1361  0.4508
 2083SOL    HW217886   2.845   3.517  14.915  0.1537  0.0650  0.3543
 2084SOL     OW17887   3.264   2.570   4.839  0.4134  0.0143 -0.0157
 2084SOL    HW117888   3.242   2.482   4.868  2.3851 -0.6582 -0.5974
 2084SOL    HW217889   3.310   2.599   4.918  1.5836  0.0410 -0.7201
 2085SOL     OW17890   2.392   2.087  16.850 -0.0973 -0.3031  0.1591
 2085SOL    HW117891   2.401   2.104  16.944 -0.0304 -1.4644  0.3759
 2085SOL    HW217892   2.306   2.044  16.844 -0.5596  0.7474 -0.6163
 2086SOL     OW17893   2.032   3.087   6.598  0.1780  0.0460 -0.4229
 2086SOL    HW117894   1.941   3.100   6.624 -0.3414 -1.6486 -1.4180
 2086SOL    HW217895   2.079   3.062   6.677 -1.1995  0.4086  0.5087
 2087SOL     OW17896   4.164   0.355   0.715  0.4556 -0.1380 -0.0363
 2087SOL    HW117897   4.117   0.419   0.769 -0.0608  0.4081 -1.1346
 2087SOL    HW217898   4.209   0.412   0.653 -0.0673  0.6291  0.2923
 2088SOL     OW17899   0.880   0.408   7.748 -0.6538 -0.3433 -0.6219
 2088SOL    HW117900   0.879   0.500   7.724  1.1097 -0.3322 -0.6231
 2088SOL    HW217901   0.792   0.384   7.717 -0.2834  1.2730 -2.9435
 2089SOL     OW17902   2.456   2.905   7.780  0.2916 -0.1928  0.0755
 2089SOL    HW117903   2.543   2.891   7.743 -0.6306 -2.4611 -1.2225
 2089SOL    HW217904   2.436   2.976   7.720  1.6532  0.1056 -0.0193
 2090SOL     OW17905   4.530   0.003   6.134 -0.3611  0.3752  0.3589
 2090SOL    HW117906   4.444   4.706   6.158 -0.5871  1.2803  0.8097
 2090SOL    HW217907   4.575   4.732   6.219  2.2719  0.3228 -1.0226
 2091SOL     OW17908   3.006   1.995   6.532 -0.7698 -0.4657  0.0011
 2091SOL    HW117909   2.994   2.085   6.562  0.7061  0.3504 -1.8678
 2091SOL    HW217910   3.014   1.949   6.616 -1.6443  1.0922  0.9167
 2092SOL     OW17911   3.378   0.534   8.147 -0.1503 -0.6260 -0.8195
 2092SOL    HW117912   3.428   0.562   8.225 -1.0492 -1.0200 -0.1010
 2092SOL    HW217913   3.380   0.440   8.167  1.2907 -0.0837  1.7493
 2093SOL     OW17914   2.175   3.261   3.423 -0.2410 -0.1145  0.6344
 2093SOL    HW117915   2.186   3.356   3.419 -1.2963 -0.1110 -2.0172
 2093SOL    HW217916   2.092   3.264   3.374  0.5599  1.0295 -0.6630
 2094SOL     OW17917   4.328   4.439   3.685  0.1237 -0.0664  0.1526
 2094SOL    HW117918   4.261   4.507   3.675  0.2845  0.2620  1.2756
 2094SOL    HW217919   4.292   4.384   3.754 -1.7236  2.3104  1.0838
 2095SOL     OW17920   0.854   1.992   6.042  0.2870  0.2314 -0.8268
 2095SOL    HW117921   0.889   1.910   6.005 -0.1293  0.1930 -1.1347
 2095SOL    HW217922   0.912   2.017   6.114 -0.3886  0.1700 -0.2579
 2096SOL     OW17923   4.345   2.276  11.577  0.0775 -0.3390 -0.5366
 2096SOL    HW117924   4.310   2.309  11.495  1.6294  0.8790 -0.7012
 2096SOL    HW217925   4.356   2.360  11.622 -3.8348  0.1603 -0.5415
 2097SOL     OW17926   1.847   1.992   8.545  0.1934 -0.4056 -1.1168
 2097SOL    HW117927   1.808   1.909   8.518 -1.0584 -0.0306 -0.4502
 2097SOL    HW217928   1.824   2.006   8.636  1.2302 -0.7728 -0.8002
 2098SOL     OW17929   4.513   2.616   9.810  0.8880 -0.4612  0.5064
 2098SOL    HW117930   4.440   2.554   9.820  0.6410 -0.4952 -1.3781
 2098SOL    HW217931   4.534   2.638   9.900  2.2305 -2.6794  0.7471
 2099SOL     OW17932   3.866   2.800   6.842  0.4048 -0.2634  0.3083
 2099SOL    HW117933   3.911   2.855   6.905  0.9128  1.4993 -1.6280
 2099SOL    HW217934   3.935   2.739   6.814  0.4257  0.0448 -0.2963
 2100SOL     OW17935   1.988   2.836   7.470  0.3270  0.5323 -0.3691
 2100SOL    HW117936   2.005   2.831   7.564 -0.2140 -2.0352 -0.4099
 2100SOL    HW217937   2.045   2.908   7.444  0.3165  0.3839 -0.8019
 2101SOL     OW17938   4.208   3.197   6.669 -0.9613 -0.3503 -0.1810
 2101SOL    HW117939   4.295   3.195   6.629 -0.2016  1.9482  1.3505
 2101SOL    HW217940   4.154   3.256   6.616 -0.2729  2.2848  2.0491
 2102SOL     OW17941   0.603   2.933   7.173  0.2438  0.6936  0.2668
 2102SOL    HW117942   0.691   2.969   7.166 -0.3430  1.5304 -2.7576
 2102SOL    HW217943   0.611   2.846   7.133  0.6421  0.9309 -0.1598
 2103SOL     OW17944   3.780   0.152   6.585 -0.3093 -0.0671  0.4986
 2103SOL    HW117945   3.790   0.057   6.574  1.3168  0.3000 -1.1809
 2103SOL    HW217946   3.839   0.168   6.659 -1.2683  0.3547  1.1633
 2104SOL     OW17947   2.774   4.432   6.423  0.0271 -0.5090  0.5184
 2104SOL    HW117948   2.790   4.426   6.518  0.1540 -0.4350  0.5020
 2104SOL    HW217949   2.834   4.502   6.396  0.3742 -0.7396  0.6795
 2105SOL     OW17950   0.765   4.234   8.435  0.7383 -0.6328 -0.2032
 2105SOL    HW117951   0.692   4.206   8.491 -0.1643 -1.6323 -1.8686
 2105SOL    HW217952   0.789   4.146   8.407 -1.5228 -1.6426  1.0368
 2106SOL     OW17953   1.019   0.060   6.280 -0.2182  0.4205 -0.2103
 2106SOL    HW117954   0.945   0.011   6.243 -0.7752  0.3391  1.0187
 2106SOL    HW217955   1.043   0.110   6.202 -0.7378  0.9312 -0.0484
 2107SOL     OW17956   4.367   0.155   7.737  0.2388  0.7521 -0.6897
 2107SOL    HW117957   4.272   0.158   7.744  0.2966  3.9930 -1.0180
 2107SOL    HW217958   4.393   0.129   7.825  0.4593  0.2193 -0.9154
 2108SOL     OW17959   2.629   0.424  15.413 -0.0738 -0.4481  0.1974
 2108SOL    HW117960   2.694   0.468  15.467  1.3310 -1.6404 -0.5361
 2108SOL    HW217961   2.656   0.333  15.424  0.8877 -0.2308 -0.4606
 2109SOL     OW17962   1.351   2.866   5.127 -0.1522  0.2079 -0.2387
 2109SOL    HW117963   1.319   2.786   5.168 -1.3694 -0.9955 -3.5840
 2109SOL    HW217964   1.392   2.913   5.200  1.9494 -1.3701 -0.4084
 2110SOL     OW17965   2.426   0.405  12.218 -0.1519 -0.2024 -0.0976
 2110SOL    HW117966   2.338   0.375  12.198 -0.1452  0.2747 -0.8133
 2110SOL    HW217967   2.476   0.323  12.216 -0.4621 -0.4153  0.8204
 2111SOL     OW17968   3.646   3.754   7.846 -0.4816 -0.0569 -0.0395
 2111SOL    HW117969   3.628   3.660   7.837  1.1622 -0.4116  0.3417
 2111SOL    HW217970   3.673   3.764   7.937 -0.1418 -1.2021 -0.0111
 2112SOL     OW17971   1.488   4.005   8.628 -0.2723  0.2874 -0.2077
 2112SOL    HW117972   1.512   4.057   8.552  2.8820 -1.0291 -0.1286
 2112SOL    HW217973   1.411   3.961   8.593 -1.0819  1.4101  0.1659
 2113SOL     OW17974   0.629   1.230   3.205  0.3909 -0.1468 -0.3604
 2113SOL    HW117975   0.582   1.181   3.137  0.3488  0.1408 -0.5398
 2113SOL    HW217976   0.579   1.311   3.201 -0.1123 -0.3238  2.6662
 2114SOL     OW17977   4.349   4.708   6.952 -0.1620 -0.4334 -0.0556
 2114SOL    HW117978   4.400   4.645   6.900 -1.2116 -2.3143  1.1823
 2114SOL    HW217979   4.415   0.039   6.960 -1.6558  1.4124 -3.5863
 2115SOL     OW17980   0.554   3.852   7.301  0.2561  0.3904 -0.3896
 2115SOL    HW117981   0.481   3.824   7.355  0.4383  0.4855 -0.0903
 2115SOL    HW217982   0.525   3.939   7.272  1.0620  0.9832  0.5656
 2116SOL     OW17983   2.793   4.565  10.914 -0.6614  0.1482  0.2133
 2116SOL    HW117984   2.751   4.614  10.844  2.1850  0.7976 -1.0322
 2116SOL    HW217985   2.805   4.631  10.983 -0.7791 -2.8402  3.1212
 2117SOL     OW17986   3.618   4.194   8.566 -0.5880 -0.3705 -0.0465
 2117SOL    HW117987   3.673   4.217   8.491 -1.4577  0.5646 -0.3952
 2117SOL    HW217988   3.631   4.099   8.573 -2.2537 -0.5354  0.7125
 2118SOL     OW17989   3.137   3.674   5.866  0.0061 -0.2895  0.2178
 2118SOL    HW117990   3.052   3.715   5.884  1.2093  0.7545  3.5550
 2118SOL    HW217991   3.113   3.586   5.838 -2.1393  0.6161 -0.7460
 2119SOL     OW17992   4.424   2.629   2.486  0.0638  0.0595  0.4011
 2119SOL    HW117993   4.459   2.543   2.510 -0.1925 -0.5461 -1.4218
 2119SOL    HW217994   4.430   2.634   2.391 -0.7106 -3.0579  0.1856
 2120SOL     OW17995   4.528   2.885   2.451  0.6754 -0.2955  0.3287
 2120SOL    HW117996   4.617   2.863   2.425 -0.0253 -0.7427 -1.7394
 2120SOL    HW217997   4.490   2.802   2.478  0.3962 -1.6827 -4.2946
 2121SOL     OW17998   2.267   1.823   7.964  0.2087  0.2925  0.7443
 2121SOL    HW117999   2.259   1.918   7.968 -1.4196  0.1337  0.9450
 2121SOL    HW218000   2.346   1.812   8.017 -0.0674 -0.2743  1.0403
 2122SOL     OW18001   4.709   4.189   5.139 -0.1875 -0.0003 -0.0669
 2122SOL    HW118002   0.006   4.253   5.202 -0.4623 -1.0493  1.1443
 2122SOL    HW218003   4.686   4.239   5.061 -2.3112 -0.4823  0.2495
 2123SOL     OW18004   3.734   0.285  15.463 -0.4013  0.1139  0.0549
 2123SOL    HW118005   3.694   0.274  15.376 -0.9675 -0.1041  0.3410
 2123SOL    HW218006   3.714   0.198  15.497  1.1151 -0.4402 -0.4567
 2124SOL     OW18007   3.943   0.786   6.124 -0.0390 -0.2673  0.3775
 2124SOL    HW118008   3.933   0.804   6.218 -0.6131 -1.9588  0.6473
 2124SOL    HW218009   3.852   0.803   6.098 -0.4191  1.4761  2.8362
 2125SOL     OW18010   0.941   4.196   6.998  0.1657 -0.5060  0.3008
 2125SOL    HW118011   0.936   4.287   6.969  2.1792 -0.5255 -0.1206
 2125SOL    HW218012   1.000   4.208   7.073 -0.6966  0.0005  0.8907
 2126SOL     OW18013   4.491   4.263   7.438  0.2599  0.0580 -0.0935
 2126SOL    HW118014   4.397   4.263   7.456 -0.1681  0.1301 -2.3040
 2126SOL    HW218015   4.522   4.352   7.455  0.0415 -0.1115  1.1527
 2127SOL     OW18016   1.108   1.870  12.343  0.1786  0.0078 -0.0563
 2127SOL    HW118017   1.181   1.924  12.373  1.8512 -2.7005  0.7738
 2127SOL    HW218018   1.036   1.912  12.390  0.8949 -0.5739  1.5743
 2128SOL     OW18019   4.666   2.415  11.340  0.1977 -0.4510 -0.1008
 2128SOL    HW118020   4.675   2.468  11.261 -1.4742  2.6399  1.7872
 2128SOL    HW218021   4.571   2.427  11.344  0.2834  0.1065  0.3561
 2129SOL     OW18022   3.860   3.282   3.738 -0.6757 -0.3104 -0.1894
 2129SOL    HW118023   3.933   3.221   3.736 -0.1469  0.3046  0.2746
 2129SOL    HW218024   3.802   3.239   3.801  2.4228 -2.1545  1.3639
 2130SOL     OW18025   4.713   3.623  16.359  0.4134  0.9850 -0.3005
 2130SOL    HW118026   4.728   3.705  16.406 -0.9298  0.0795  1.6908
 2130SOL    HW218027   4.624   3.637  16.324 -0.0101  1.0467  0.8129
 2131SOL     OW18028   4.085   0.259   9.252 -0.4607 -0.6904  0.2087
 2131SOL    HW118029   4.079   0.218   9.166 -0.7664 -1.8819  0.8032
 2131SOL    HW218030   3.992   0.245   9.271 -0.2700 -3.2053 -0.6840
 2132SOL     OW18031   2.335   2.061   7.323 -0.7859 -0.1904 -0.0666
 2132SOL    HW118032   2.421   2.063   7.281 -1.8584  0.4629 -2.1974
 2132SOL    HW218033   2.344   1.985   7.381  2.2431 -2.3884 -3.4397
 2133SOL     OW18034   0.846   1.855   1.878 -0.1449 -0.3662  0.4602
 2133SOL    HW118035   0.900   1.872   1.800 -1.5431  2.4047  0.0871
 2133SOL    HW218036   0.805   1.773   1.852 -0.2464  0.1921 -1.1079
 2134SOL     OW18037   4.377   2.805   0.263  0.2275 -0.3055  0.4765
 2134SOL    HW118038   4.324   2.854   0.327 -1.4579 -3.2362  1.3545
 2134SOL    HW218039   4.459   2.853   0.268 -0.7436  1.5188 -1.3542
 2135SOL     OW18040   4.004   0.557   0.385  0.9519 -0.4235  0.4142
 2135SOL    HW118041   3.984   0.580   0.476 -1.3817  2.6834 -0.8658
 2135SOL    HW218042   4.021   0.638   0.336 -1.4041  0.1576  0.5750
 2136SOL     OW18043   0.683   0.507   2.547  0.2480  0.4626  0.3189
 2136SOL    HW118044   0.617   0.522   2.615  1.1796 -2.3102  1.8577
 2136SOL    HW218045   0.673   0.412   2.542  2.0895  0.3848 -1.5391
 2137SOL     OW18046   4.618   2.269   5.321 -0.4233  0.1927 -0.2894
 2137SOL    HW118047   4.656   2.184   5.344  1.3409  0.9088 -0.5451
 2137SOL    HW218048   4.529   2.247   5.297 -0.1957 -0.6863 -0.3377
 2138SOL     OW18049   1.585   1.705   3.350 -0.4859 -0.2564 -0.4240
 2138SOL    HW118050   1.551   1.675   3.434 -0.5216  1.3634  0.1303
 2138SOL    HW218051   1.509   1.748   3.313 -0.7176  0.0256  0.3934
 2139SOL     OW18052   3.546   0.922   7.869  0.3357 -0.2570 -0.2133
 2139SOL    HW118053   3.562   0.878   7.786 -3.1847 -2.4069  0.1858
 2139SOL    HW218054   3.608   0.880   7.929 -0.6626  0.3610  1.2702
 2140SOL     OW18055   2.933   2.645   6.448  0.1865 -0.3837  0.7675
 2140SOL    HW118056   2.892   2.699   6.380  1.7811  0.0846  0.1906
 2140SOL    HW218057   2.942   2.565   6.396 -0.3431  0.4062 -0.5427
 2141SOL     OW18058   1.977   2.446  17.426  0.1811 -0.5542 -0.2470
 2141SOL    HW118059   2.014   2.460  17.338 -1.5785 -2.7522 -1.3402
 2141SOL    HW218060   2.013   2.525  17.467 -0.2216 -1.2499  1.4180
 2142SOL     OW18061   1.949   3.867   3.054 -0.0967 -0.0255 -0.0326
 2142SOL    HW118062   1.937   3.784   3.008 -0.0366  1.6801 -3.0873
 2142SOL    HW218063   1.953   3.838   3.145  0.2021 -1.1016 -0.3904
 2143SOL     OW18064   0.559   3.215   6.440 -0.2581  0.4204 -0.8935
 2143SOL    HW118065   0.585   3.246   6.527  1.1692  1.3787 -1.6670
 2143SOL    HW218066   0.617   3.271   6.389 -0.6843  3.2706  1.7634
 2144SOL     OW18067   1.160   0.466   2.449 -0.3915 -0.2225 -0.2130
 2144SOL    HW118068   1.088   0.482   2.511 -0.3007  1.1660 -0.4716
 2144SOL    HW218069   1.156   0.538   2.387  0.3174  1.3989  1.6408
 2145SOL     OW18070   2.461   3.222   4.692  0.4450  0.2520 -0.2371
 2145SOL    HW118071   2.462   3.139   4.645 -0.0760  1.0491 -1.6364
 2145SOL    HW218072   2.477   3.277   4.616  1.0792  2.2607  1.3442
 2146SOL     OW18073   3.385   0.888   7.373 -0.0322  0.1652  0.3506
 2146SOL    HW118074   3.337   0.969   7.359 -0.9332 -0.4141  0.0754
 2146SOL    HW218075   3.334   0.842   7.440 -1.3603  0.0467 -0.7484
 2147SOL     OW18076   0.781   2.903   9.461 -0.5955 -0.6936  0.1476
 2147SOL    HW118077   0.721   2.917   9.388 -1.0275  1.6915  0.9426
 2147SOL    HW218078   0.861   2.903   9.409 -0.2619 -0.8052  0.6557
 2148SOL     OW18079   4.689   0.762  16.615  0.2571  0.1012 -0.5321
 2148SOL    HW118080   4.712   0.669  16.615  1.7267  0.4586 -0.8696
 2148SOL    HW218081   4.594   0.763  16.626  0.2380  1.3887 -0.7511
 2149SOL     OW18082   0.848   2.634   0.044  0.0993  0.6687 -0.1897
 2149SOL    HW118083   0.777   2.574   0.067  0.4853  0.8101  1.4041
 2149SOL    HW218084   0.794   2.710   0.021 -1.8733 -0.2276  1.3977
 2150SOL     OW18085   2.976   0.880   2.811 -0.2208  0.5742  0.2309
 2150SOL    HW118086   3.040   0.869   2.881  0.0806  1.2851  0.0589
 2150SOL    HW218087   2.932   0.795   2.819  1.5637 -0.5543 -1.8573
 2151SOL     OW18088   2.340   4.101   3.027 -0.0088  0.1040 -0.0614
 2151SOL    HW118089   2.314   4.095   3.119 -1.4822  1.9303 -0.3599
 2151SOL    HW218090   2.367   4.010   3.016  3.7739  1.2465 -0.1312
 2152SOL     OW18091   3.663   0.793   7.398  0.1668  0.0692  0.0241
 2152SOL    HW118092   3.696   0.839   7.321  2.3562 -0.3051  0.7444
 2152SOL    HW218093   3.569   0.811   7.392 -0.0777 -1.4098 -0.6897
 2153SOL     OW18094   0.452   3.007   3.144 -0.1562 -0.5257 -0.4049
 2153SOL    HW118095   0.409   2.985   3.061 -2.0684  3.6828 -0.4966
 2153SOL    HW218096   0.382   2.989   3.207 -0.3019 -2.5187 -1.1268
 2154SOL     OW18097   3.917   2.784   6.141 -0.0426 -0.2989 -0.5388
 2154SOL    HW118098   3.993   2.738   6.175 -0.8408 -1.0784  0.1959
 2154SOL    HW218099   3.949   2.874   6.142  0.5444 -0.5206  0.8343
 2155SOL     OW18100   0.177   1.864   5.980  0.2582 -0.0551  0.0448
 2155SOL    HW118101   0.202   1.953   5.954  0.3852  0.4531  1.8840
 2155SOL    HW218102   0.254   1.851   6.036 -0.1060  1.5685  0.9274
 2156SOL     OW18103   4.467   1.775   8.929  0.5931 -0.1787  0.0434
 2156SOL    HW118104   4.409   1.746   8.859  2.1107  2.0593 -2.1301
 2156SOL    HW218105   4.452   1.868   8.947 -0.5712 -0.8196  2.4699
 2157SOL     OW18106   0.843   2.023  13.855 -0.3593 -0.2530  0.1093
 2157SOL    HW118107   0.825   1.948  13.798 -0.1807 -0.3695  0.2055
 2157SOL    HW218108   0.753   2.037  13.884  0.0066 -0.4703  1.3690
 2158SOL     OW18109   1.310   2.906   9.361  0.3031  0.4448  0.0443
 2158SOL    HW118110   1.276   2.977   9.307 -0.2579  1.1338  1.3122
 2158SOL    HW218111   1.326   2.951   9.444 -2.8801 -2.2786  2.1468
 2159SOL     OW18112   1.803   3.668   6.078  0.3440 -0.2453  0.4867
 2159SOL    HW118113   1.842   3.632   5.999  0.6956 -0.4314  0.7453
 2159SOL    HW218114   1.844   3.623   6.152 -1.4677 -0.1125  1.5821
 2160SOL     OW18115   1.527   0.121   6.586 -0.5235  0.1464  0.1753
 2160SOL    HW118116   1.568   0.169   6.658 -0.0698 -1.5297  1.0069
 2160SOL    HW218117   1.465   0.182   6.545  0.4288  0.6859 -0.4620
 2161SOL     OW18118   3.393   0.300   6.670  0.1289 -0.0830 -0.3052
 2161SOL    HW118119   3.462   0.279   6.733  0.2483 -1.4371 -0.8890
 2161SOL    HW218120   3.373   0.393   6.684 -2.3546 -0.3472 -2.1627
 2162SOL     OW18121   0.660   1.472  10.369 -0.0448 -0.3570  0.0299
 2162SOL    HW118122   0.751   1.463  10.343 -0.2411  0.0623 -0.8273
 2162SOL    HW218123   0.661   1.433  10.456 -2.2351 -1.0245 -0.2411
 2163SOL     OW18124   1.793   2.039   4.367  0.0788  0.1247  0.0478
 2163SOL    HW118125   1.720   1.986   4.400 -0.3466  1.2936  0.9517
 2163SOL    HW218126   1.870   1.981   4.364 -0.8199 -1.0635 -0.2023
 2164SOL     OW18127   4.686   1.879   5.628  0.3759 -0.3702  0.4806
 2164SOL    HW118128   4.734   1.798   5.609  3.7108  1.1208  2.3867
 2164SOL    HW218129   4.645   1.853   5.710 -1.4695 -2.2876 -1.0635
 2165SOL     OW18130   4.259   4.602   2.638 -0.0339 -0.2250  0.1940
 2165SOL    HW118131   4.261   4.619   2.733  1.8291  0.4681  0.0162
 2165SOL    HW218132   4.349   4.574   2.623  0.1684  0.3419  0.3698
 2166SOL     OW18133   4.307   3.844   7.246 -0.6736 -0.6142 -0.3153
 2166SOL    HW118134   4.386   3.801   7.279 -1.0321 -1.2629 -0.2872
 2166SOL    HW218135   4.254   3.861   7.324 -1.8369  0.1723 -1.2899
 2167SOL     OW18136   0.770   1.161  17.745 -0.4266 -0.1597 -0.0414
 2167SOL    HW118137   0.759   1.232   0.062  0.6132 -0.5719  0.5919
 2167SOL    HW218138   0.695   1.105   0.018  0.2510 -1.2531 -0.6020
 2168SOL     OW18139   3.535   3.429  12.639  0.0336 -0.1562  0.4227
 2168SOL    HW118140   3.537   3.356  12.578  0.9285 -0.3265  0.6584
 2168SOL    HW218141   3.504   3.388  12.720 -1.3841  0.5232  0.2250
 2169SOL     OW18142   2.070   0.201   7.789 -0.0212  0.5269 -0.1687
 2169SOL    HW118143   1.995   0.190   7.731  0.3254 -1.7102 -0.1819
 2169SOL    HW218144   2.093   0.290   7.761  0.3831  0.5592  0.2668
 2170SOL     OW18145   4.215   0.989  12.484  0.0522 -0.1104  0.1450
 2170SOL    HW118146   4.266   0.914  12.513  0.5880  1.2141  2.6012
 2170SOL    HW218147   4.169   0.954  12.408 -0.3787  1.9668 -0.5531
 2171SOL     OW18148   4.342   4.002   2.949 -0.2353  0.2696  0.4149
 2171SOL    HW118149   4.382   4.076   2.995 -0.4769  0.3661  0.4726
 2171SOL    HW218150   4.416   3.960   2.907 -0.2545 -0.2654  0.9196
 2172SOL     OW18151   4.286   0.940   8.327  0.5302  0.1777  0.3638
 2172SOL    HW118152   4.220   0.989   8.378 -1.1206 -0.7378 -0.8965
 2172SOL    HW218153   4.328   1.012   8.282  3.9053 -1.7923  0.4145
 2173SOL     OW18154   2.003   0.216  16.676 -0.2933 -0.5750 -0.2158
 2173SOL    HW118155   2.070   0.192  16.612 -0.8088  4.0290 -2.5113
 2173SOL    HW218156   1.983   0.305  16.645 -2.2584 -0.8580  0.2254
 2174SOL     OW18157   2.739   2.922   7.742  0.6834 -0.6161 -0.1506
 2174SOL    HW118158   2.783   3.004   7.766  0.3402 -0.3732 -0.3486
 2174SOL    HW218159   2.809   2.880   7.691 -0.7226 -3.9155  0.6393
 2175SOL     OW18160   0.157   3.017   2.391 -0.1016 -0.4941 -0.2126
 2175SOL    HW118161   0.186   3.079   2.458 -0.2872  0.1608 -0.7289
 2175SOL    HW218162   0.092   3.080   2.359  0.3163 -0.4595 -0.9872
 2176SOL     OW18163   3.277   4.480   6.737 -0.5095 -0.3819  0.0343
 2176SOL    HW118164   3.212   4.423   6.776 -0.2772 -0.7175 -0.0699
 2176SOL    HW218165   3.264   4.479   6.643 -2.2949 -1.9946  0.2910
 2177SOL     OW18166   0.027   0.533   7.144  0.0060  0.0889 -0.2552
 2177SOL    HW118167   0.006   0.467   7.210  0.8327 -2.1143 -2.1892
 2177SOL    HW218168   0.054   0.475   7.073  0.2187 -1.4244  1.0681
 2178SOL     OW18169   3.266   1.134  15.472 -0.0354  0.2235  0.2651
 2178SOL    HW118170   3.307   1.143  15.386 -1.8707  3.6780 -0.2596
 2178SOL    HW218171   3.181   1.171  15.449 -1.0915 -1.0995  2.0274
 2179SOL     OW18172   3.501   3.185   7.982  0.0048 -0.2278 -0.3831
 2179SOL    HW118173   3.459   3.144   8.058 -1.1022  1.5591 -0.0180
 2179SOL    HW218174   3.436   3.162   7.915  1.7247 -1.5992 -1.5686
 2180SOL     OW18175   0.457   3.517  16.086  0.0083 -0.1184 -0.3603
 2180SOL    HW118176   0.463   3.594  16.029 -0.4066  0.5592  0.5203
 2180SOL    HW218177   0.408   3.558  16.157 -1.1188 -0.2658 -1.0575
 2181SOL     OW18178   3.618   2.433   7.179 -0.0232 -0.1737  0.0496
 2181SOL    HW118179   3.629   2.514   7.129  0.0605  0.2991  0.8232
 2181SOL    HW218180   3.575   2.377   7.115 -0.8399 -0.7527  1.1164
 2182SOL     OW18181   0.941   3.722   6.678 -0.0670 -0.2642 -0.4749
 2182SOL    HW118182   1.023   3.703   6.633 -1.2340 -0.1185 -2.6696
 2182SOL    HW218183   0.951   3.817   6.676  0.4461 -0.3020  0.6718
 2183SOL     OW18184   1.720   4.264  16.577  0.1423  0.0553 -0.4120
 2183SOL    HW118185   1.787   4.295  16.638 -1.0170  0.5875  0.5942
 2183SOL    HW218186   1.666   4.344  16.578  0.0741  0.0193 -1.9414
 2184SOL     OW18187   4.485   1.470   5.353  0.0724 -0.2431 -0.3343
 2184SOL    HW118188   4.577   1.486   5.376 -0.4553  1.5259  0.5681
 2184SOL    HW218189   4.502   1.434   5.266 -1.7641  0.0616 -0.8178
 2185SOL     OW18190   0.774   0.511   1.259  0.1599  0.7276 -0.3797
 2185SOL    HW118191   0.849   0.542   1.309 -0.6214  0.0582  1.2073
 2185SOL    HW218192   0.714   0.480   1.326 -0.6331 -0.6365 -1.7166
 2186SOL     OW18193   3.576   4.199  14.139 -0.4008 -0.2482  0.1590
 2186SOL    HW118194   3.569   4.175  14.232 -1.4505 -0.6888 -0.0317
 2186SOL    HW218195   3.483   4.215  14.123  0.6465  3.2902 -2.3105
 2187SOL     OW18196   2.781   1.067   4.804 -0.3365  0.2460  0.3710
 2187SOL    HW118197   2.736   1.000   4.753  3.2832 -0.6449 -1.5846
 2187SOL    HW218198   2.722   1.078   4.879  0.3447 -0.4258  0.9950
 2188SOL     OW18199   1.414   3.317  12.903 -0.4900  0.1937  0.5436
 2188SOL    HW118200   1.422   3.326  12.998  1.1497  1.0191  0.3205
 2188SOL    HW218201   1.437   3.402  12.865 -0.6105 -0.6855 -1.5005
 2189SOL     OW18202   3.585   1.473   4.965  0.5493  0.4692 -0.6509
 2189SOL    HW118203   3.672   1.446   4.934  0.7322 -2.3188  2.3211
 2189SOL    HW218204   3.531   1.434   4.896  0.3274 -1.5957  0.6925
 2190SOL     OW18205   3.739   3.348   5.103 -0.2034  0.0390 -0.0892
 2190SOL    HW118206   3.726   3.435   5.065  0.1280  0.4085  0.6255
 2190SOL    HW218207   3.669   3.350   5.169 -0.9068 -0.0448 -0.8448
 2191SOL     OW18208   3.497   3.586   2.659 -0.1834 -0.5435 -0.0264
 2191SOL    HW118209   3.536   3.505   2.691  0.5881 -0.0668  0.2342
 2191SOL    HW218210   3.561   3.617   2.594 -1.3454  1.8091 -0.0717
 2192SOL     OW18211   1.600   2.295  17.072 -0.3577 -0.2354 -0.9591
 2192SOL    HW118212   1.523   2.245  17.044 -0.8449  0.1905 -0.3808
 2192SOL    HW218213   1.671   2.252  17.025  1.0048  1.1921 -0.1760
 2193SOL     OW18214   3.435   1.224  14.329  0.0232 -0.1199 -0.2308
 2193SOL    HW118215   3.408   1.233  14.238  0.4668  3.0186 -0.0364
 2193SOL    HW218216   3.363   1.174  14.367 -0.8914  1.1623 -0.3106
 2194SOL     OW18217   3.576   2.927   1.078 -0.0052 -0.0144 -0.3753
 2194SOL    HW118218   3.508   2.884   1.026  1.5576 -1.5638 -1.1133
 2194SOL    HW218219   3.610   2.847   1.118 -0.6552  0.3183  0.8545
 2195SOL     OW18220   1.812   3.263   6.068 -0.1291 -0.5655 -0.6450
 2195SOL    HW118221   1.882   3.248   6.005  0.2113  0.3387 -0.4901
 2195SOL    HW218222   1.810   3.185   6.123  3.7665 -0.0875  0.1571
 2196SOL     OW18223   1.347   3.128  14.265  0.5283  0.4104  0.2190
 2196SOL    HW118224   1.268   3.082  14.239  0.6964 -0.5425  1.3645
 2196SOL    HW218225   1.336   3.129  14.361  0.2612 -0.1810  0.1935
 2197SOL     OW18226   4.207   4.104   4.031 -0.1410 -0.1230  0.5068
 2197SOL    HW118227   4.265   4.111   4.107 -0.9250  2.6800  0.8398
 2197SOL    HW218228   4.147   4.042   4.072  0.4961  0.1931  1.9088
 2198SOL     OW18229   2.252   4.036   2.549 -0.2996 -0.2885  0.3841
 2198SOL    HW118230   2.242   4.037   2.454  3.0643  1.9915  0.0542
 2198SOL    HW218231   2.163   4.059   2.575 -0.8250 -0.5339 -1.2099
 2199SOL     OW18232   4.334   0.776  12.598  0.3824 -0.2175 -0.3119
 2199SOL    HW118233   4.258   0.718  12.602 -0.0964  0.6199  2.6076
 2199SOL    HW218234   4.371   0.762  12.685 -1.3541 -0.0612  0.4511
 2200SOL     OW18235   1.758   2.019  15.343  0.3464  0.5584 -0.2726
 2200SOL    HW118236   1.820   2.090  15.331  1.1761  0.0281  0.8550
 2200SOL    HW218237   1.698   2.005  15.269 -0.9970  1.4631  0.6448
 2201SOL     OW18238   4.465   4.573   7.188 -0.5080  0.5521 -0.0893
 2201SOL    HW118239   4.524   4.511   7.145  1.1599  1.5480  0.7779
 2201SOL    HW218240   4.470   4.648   7.129 -1.7704  1.1318  0.5581
 2202SOL     OW18241   2.127   0.356   5.151  0.2880  0.0607  0.2858
 2202SOL    HW118242   2.209   0.337   5.106 -0.0653  0.0734 -0.3685
 2202SOL    HW218243   2.087   0.420   5.093 -0.3604 -0.3463  0.2715
 2203SOL     OW18244   2.956   4.167  15.934 -0.0390 -0.4858  0.2528
 2203SOL    HW118245   2.916   4.198  16.015  2.0986 -0.3948  1.2871
 2203SOL    HW218246   3.020   4.100  15.959 -1.3915 -1.9291 -0.1997
 2204SOL     OW18247   3.870   3.002   4.090  0.1020  0.0195  0.6698
 2204SOL    HW118248   3.891   2.985   3.999  1.0544 -1.4513  1.1679
 2204SOL    HW218249   3.859   3.097   4.083  1.0430  0.1076  0.4225
 2205SOL     OW18250   0.281   3.486   9.113  0.4851  0.1148  0.1792
 2205SOL    HW118251   0.351   3.479   9.048  0.4291  1.0567  0.0192
 2205SOL    HW218252   0.234   3.403   9.102 -2.1468  1.6039  0.0631
 2206SOL     OW18253   0.125   1.571  10.574 -0.0448  0.0203  0.1669
 2206SOL    HW118254   0.095   1.483  10.553 -2.2678  0.9206 -0.4497
 2206SOL    HW218255   0.161   1.558  10.662 -0.2032  0.2330  0.2645
 2207SOL     OW18256   2.860   4.053   7.533  0.1041  0.3416 -0.1095
 2207SOL    HW118257   2.913   3.975   7.550  0.2935  0.3631 -0.5966
 2207SOL    HW218258   2.772   4.014   7.535  0.6337 -0.8526  0.0544
 2208SOL     OW18259   1.683   3.817   7.156 -0.1893  0.8428  0.0067
 2208SOL    HW118260   1.613   3.827   7.220 -0.6253  2.9912 -0.8124
 2208SOL    HW218261   1.711   3.908   7.155  3.3001 -0.2222  0.4985
 2209SOL     OW18262   4.180   2.377   8.174  0.2947  0.6181 -0.3889
 2209SOL    HW118263   4.148   2.329   8.250 -1.1221  1.0570 -0.6999
 2209SOL    HW218264   4.172   2.462   8.218  2.4329 -0.4739  2.1426
 2210SOL     OW18265   4.022   2.233   5.613  0.4712  0.2630  0.1335
 2210SOL    HW118266   3.946   2.176   5.601  1.0063 -0.3008 -0.5550
 2210SOL    HW218267   4.069   2.220   5.531  0.0677 -0.3663 -0.0038
 2211SOL     OW18268   3.366   1.323   5.762  0.6450  0.1047 -0.1431
 2211SOL    HW118269   3.360   1.290   5.672 -3.7371 -1.6911  0.8204
 2211SOL    HW218270   3.342   1.416   5.762  0.6940  0.1195 -1.5020
 2212SOL     OW18271   3.755   2.345   5.512 -0.0214  0.0309  0.4418
 2212SOL    HW118272   3.739   2.386   5.426 -2.3181 -2.2876 -0.2389
 2212SOL    HW218273   3.679   2.372   5.562 -0.6854 -0.7723 -0.1278
 2213SOL     OW18274   0.120   2.588   9.344 -0.3641  0.0455 -0.5512
 2213SOL    HW118275   0.127   2.668   9.397  1.7922  0.7882 -1.9811
 2213SOL    HW218276   0.081   2.530   9.410  0.5159  2.0904  1.8021
 2214SOL     OW18277   3.461   0.127   7.410 -0.4881  0.1822  0.2901
 2214SOL    HW118278   3.410   0.201   7.444  0.1798 -0.3795  2.4980
 2214SOL    HW218279   3.445   0.155   7.320 -1.7496 -0.9451  0.1478
 2215SOL     OW18280   1.526   3.834   7.694  0.0116  0.3280 -0.1937
 2215SOL    HW118281   1.545   3.907   7.636  0.4207 -0.5346 -1.1439
 2215SOL    HW218282   1.589   3.770   7.662  1.5518 -0.0511  3.5767
 2216SOL     OW18283   3.121   4.087  11.398  0.1255 -0.4033  0.5503
 2216SOL    HW118284   3.150   4.042  11.319 -1.2060 -0.8369  0.3173
 2216SOL    HW218285   3.129   4.181  11.382 -4.9528 -0.0908 -0.2312
 2217SOL     OW18286   3.566   2.967  17.228 -0.5258 -0.0896 -0.4247
 2217SOL    HW118287   3.583   3.009  17.312 -3.7289  0.3063  0.0339
 2217SOL    HW218288   3.657   2.948  17.203 -0.1450 -0.0410  0.9335
 2218SOL     OW18289   0.227   4.257   9.796 -0.9512  0.1937  0.2588
 2218SOL    HW118290   0.284   4.297   9.862 -0.3236  0.8837 -0.7128
 2218SOL    HW218291   0.259   4.310   9.723 -0.3066 -1.7126 -0.8484
 2219SOL     OW18292   1.957   2.341  14.276 -0.4790 -0.2071 -0.0757
 2219SOL    HW118293   1.865   2.366  14.274  0.1301  1.6663 -3.9707
 2219SOL    HW218294   1.998   2.416  14.319 -0.0547  0.5124 -1.7445
 2220SOL     OW18295   4.088   4.088   7.370 -0.5669  0.1468 -0.3247
 2220SOL    HW118296   3.999   4.051   7.369 -0.5292 -0.0109  1.8544
 2220SOL    HW218297   4.127   4.032   7.437  0.7322 -1.2450 -2.2515
 2221SOL     OW18298   1.357   3.183   4.801  0.4151  0.4722  0.0134
 2221SOL    HW118299   1.291   3.240   4.760 -0.0317 -0.3423 -0.4022
 2221SOL    HW218300   1.372   3.119   4.732  1.0118 -0.9207  1.4648
 2222SOL     OW18301   1.896   3.624   2.906  0.4742  0.4075  0.3022
 2222SOL    HW118302   1.822   3.658   2.855 -0.3633  0.3404  1.4775
 2222SOL    HW218303   1.961   3.629   2.836  0.8929 -0.2943  0.6400
 2223SOL     OW18304   4.159   2.768   1.861  0.2507  0.1292  0.3980
 2223SOL    HW118305   4.149   2.683   1.904 -0.0412  0.3295  0.7211
 2223SOL    HW218306   4.228   2.746   1.798  2.3045  2.5850  1.7704
 2224SOL     OW18307   1.921   4.052   4.649  0.0745  0.0850  0.4173
 2224SOL    HW118308   1.886   3.967   4.675 -0.7445 -0.2659 -1.7952
 2224SOL    HW218309   1.849   4.113   4.669 -0.2443  0.4575 -1.8039
 2225SOL     OW18310   0.528   4.562   7.506  0.3904  0.6913  0.2748
 2225SOL    HW118311   0.587   4.551   7.580  1.3103  1.9035 -0.2825
 2225SOL    HW218312   0.456   4.503   7.530 -0.9841  0.8703 -3.3572
 2226SOL     OW18313   1.482   0.279   1.983 -0.5940  0.3591 -0.1312
 2226SOL    HW118314   1.512   0.223   1.911 -0.8514 -0.1077  0.1268
 2226SOL    HW218315   1.500   0.228   2.061 -0.3421  0.5655 -0.0564
 2227SOL     OW18316   0.032   0.939   7.042  0.5569  0.3471 -0.1636
 2227SOL    HW118317   0.125   0.956   7.059  0.8796  0.0572 -1.6878
 2227SOL    HW218318   4.726   0.975   7.120  2.4382 -2.2792  2.0797
 2228SOL     OW18319   2.026   1.028  16.999  0.5240  0.0448 -0.0989
 2228SOL    HW118320   1.965   1.093  17.036  1.5233  1.8769 -1.7092
 2228SOL    HW218321   1.965   0.966  16.958  1.2298 -0.1785 -0.7985
 2229SOL     OW18322   2.379   4.177   6.465  0.1707  0.5219 -0.6768
 2229SOL    HW118323   2.370   4.089   6.429  1.2892  0.8845 -1.8459
 2229SOL    HW218324   2.356   4.232   6.391 -0.5748 -0.1607 -0.9437
 2230SOL     OW18325   0.183   2.426  12.877  0.2558 -0.1861 -0.6389
 2230SOL    HW118326   0.160   2.373  12.953 -0.8284  1.0969 -0.0795
 2230SOL    HW218327   0.250   2.367  12.841  0.1846  0.0965 -1.2385
 2231SOL     OW18328   3.713   1.218  10.569  0.3619  0.2894 -0.5263
 2231SOL    HW118329   3.767   1.213  10.648 -0.9445  0.4574  0.3616
 2231SOL    HW218330   3.780   1.255  10.510 -1.3278  0.6393 -2.2207
 2232SOL     OW18331   2.001   3.199   5.869 -0.7570  0.3569 -0.5685
 2232SOL    HW118332   1.975   3.268   5.807  0.0024  0.4097 -0.8255
 2232SOL    HW218333   2.084   3.169   5.833  0.4463  1.7482  1.0480
 2233SOL     OW18334   3.329   0.823  13.603  0.6417 -0.0630  0.1825
 2233SOL    HW118335   3.385   0.872  13.663  3.4127  0.4212 -2.8044
 2233SOL    HW218336   3.278   0.776  13.670 -0.9397 -1.4607 -1.9909
 2234SOL     OW18337   0.762   1.961   3.159 -0.0389  0.2594 -0.1779
 2234SOL    HW118338   0.857   1.970   3.144  0.2918 -0.6627  1.3892
 2234SOL    HW218339   0.751   2.036   3.217  1.3789  0.1976  0.1828
 2235SOL     OW18340   3.372   3.033   7.452  0.7301 -0.5370 -0.1002
 2235SOL    HW118341   3.421   2.970   7.400 -0.4418 -0.8822 -0.7788
 2235SOL    HW218342   3.365   3.108   7.394  1.3065  1.4822  2.4400
 2236SOL     OW18343   2.614   3.349   3.163  0.2419 -0.2452  0.3574
 2236SOL    HW118344   2.573   3.263   3.158 -2.5344  1.1009  0.1853
 2236SOL    HW218345   2.536   3.405   3.160 -0.2115 -0.8932  0.1102
 2237SOL     OW18346   0.591   0.833   3.396  0.6757  0.5634 -0.5205
 2237SOL    HW118347   0.669   0.799   3.438 -1.1067 -0.7735  1.6773
 2237SOL    HW218348   0.532   0.764   3.427  0.2542  1.1180 -0.0842
 2238SOL     OW18349   0.553   1.056   2.064 -0.0828  0.0018 -0.4813
 2238SOL    HW118350   0.523   1.116   1.995 -0.4837 -0.0626 -0.3627
 2238SOL    HW218351   0.642   1.078   2.090 -1.0529  0.2549  2.5387
 2239SOL     OW18352   0.390   1.291   9.893 -0.2043  0.6104  0.4771
 2239SOL    HW118353   0.379   1.239   9.814  0.4799  0.0600  0.7450
 2239SOL    HW218354   0.477   1.265   9.923 -0.5984 -0.9954  0.2334
 2240SOL     OW18355   3.407   4.315   4.960 -0.0219  0.3445  0.2369
 2240SOL    HW118356   3.480   4.281   5.012  0.4387  0.8984 -0.0433
 2240SOL    HW218357   3.426   4.409   4.964  1.0543  0.1664 -0.6668
 2241SOL     OW18358   3.276   3.576  13.564 -0.6724 -0.0189  0.0011
 2241SOL    HW118359   3.279   3.600  13.471 -0.1437  2.2349  0.5979
 2241SOL    HW218360   3.249   3.662  13.597 -0.8299 -0.7415  1.7682
 2242SOL     OW18361   0.823   2.861   6.946 -0.4778  0.4503  0.5107
 2242SOL    HW118362   0.855   2.926   7.009  2.4197  0.8035 -1.3079
 2242SOL    HW218363   0.877   2.784   6.966 -0.0034  0.5344 -0.4657
 2243SOL     OW18364   3.738   1.090   6.948  0.6834 -0.1754  0.0644
 2243SOL    HW118365   3.718   1.080   6.855 -0.5842 -0.1676  0.3313
 2243SOL    HW218366   3.828   1.057   6.949  0.8031  0.2048  1.6969
 2244SOL     OW18367   0.971   0.572  14.115  0.2234 -0.4299  0.9250
 2244SOL    HW118368   0.975   0.606  14.205 -0.3082 -0.2002  0.8642
 2244SOL    HW218369   0.901   0.507  14.124 -2.4880  2.4219  0.5079
 2245SOL     OW18370   1.371   4.516   4.626  0.3237 -0.0261  0.0202
 2245SOL    HW118371   1.363   4.565   4.708  2.0972  1.6789 -0.8272
 2245SOL    HW218372   1.361   4.429   4.665 -0.7703 -0.4040 -1.1292
 2246SOL     OW18373   4.575   2.806   4.096  0.2036 -0.3680  0.7154
 2246SOL    HW118374   4.540   2.803   4.007 -1.2112  2.1304  1.2113
 2246SOL    HW218375   4.526   2.737   4.141 -0.4894 -0.2722  0.1138
 2247SOL     OW18376   1.140   4.100  15.410  0.1558 -0.2655  0.2156
 2247SOL    HW118377   1.205   4.085  15.478  0.6240  1.3933  0.1297
 2247SOL    HW218378   1.173   4.044  15.340  1.9251  1.4218 -0.2927
 2248SOL     OW18379   1.682   1.737  17.420 -0.4548  0.0127 -0.1511
 2248SOL    HW118380   1.657   1.828  17.407 -1.5899 -0.0139  1.7448
 2248SOL    HW218381   1.732   1.750  17.501 -0.9043  2.3239 -0.2475
 2249SOL     OW18382   1.497   2.547  14.655 -0.1275  0.3333  0.3383
 2249SOL    HW118383   1.572   2.513  14.606  0.0095 -0.2682  0.9739
 2249SOL    HW218384   1.461   2.469  14.697 -0.4771  0.2917 -0.0413
 2250SOL     OW18385   0.553   3.693   5.058  0.0186 -0.0110  0.2193
 2250SOL    HW118386   0.597   3.754   5.118 -0.0689  0.1140  0.1569
 2250SOL    HW218387   0.620   3.626   5.065  0.3692  0.1818 -1.1978
 2251SOL     OW18388   4.365   3.448   5.013  0.1565  0.3187  0.3429
 2251SOL    HW118389   4.370   3.393   4.934  2.0021  1.7187 -0.5205
 2251SOL    HW218390   4.428   3.516   4.991 -0.4974  1.4744  2.1021
 2252SOL     OW18391   4.339   3.701   3.546 -0.1593  0.5892 -0.2492
 2252SOL    HW118392   4.390   3.712   3.466  1.3024 -0.5196  0.5366
 2252SOL    HW218393   4.351   3.610   3.573 -3.7420  0.2477  0.2590
 2253SOL     OW18394   3.423   1.252   6.310  0.2385  0.2380  0.5931
 2253SOL    HW118395   3.340   1.272   6.353 -0.6261 -2.2881  0.1236
 2253SOL    HW218396   3.475   1.331   6.323 -0.1964  0.4629  0.9546
 2254SOL     OW18397   3.258   3.203   7.819 -0.0233 -0.2538 -0.5338
 2254SOL    HW118398   3.181   3.167   7.863  0.1269  1.5350  1.1658
 2254SOL    HW218399   3.221   3.253   7.746  0.7370  0.3505 -0.5113
 2255SOL     OW18400   2.153   2.001  15.213  0.0579  0.0063 -0.1410
 2255SOL    HW118401   2.114   2.069  15.159  1.3442  0.9559  0.1235
 2255SOL    HW218402   2.230   2.049  15.242 -0.3203  0.5112  0.0179
 2256SOL     OW18403   0.516   1.352   6.104 -0.5851  0.0048 -0.2014
 2256SOL    HW118404   0.501   1.280   6.043  0.5759  0.2516 -0.7876
 2256SOL    HW218405   0.460   1.332   6.178  1.4347 -2.3682  0.6846
 2257SOL     OW18406   1.726   0.852   7.481  0.4434 -0.2593  0.0004
 2257SOL    HW118407   1.649   0.886   7.526  0.6968 -1.3700  1.2348
 2257SOL    HW218408   1.744   0.931   7.430  2.1622  0.5368  1.8533
 2258SOL     OW18409   4.664   0.956   1.991 -0.4558  0.7840 -0.5217
 2258SOL    HW118410   4.615   0.893   1.939  0.4470  0.4349 -0.9402
 2258SOL    HW218411   4.602   1.027   2.008 -0.3192  0.6859  0.4276
 2259SOL     OW18412   3.450   0.880   2.608  0.2153 -0.6436 -0.2664
 2259SOL    HW118413   3.499   0.930   2.673  0.3753  1.6450 -2.1660
 2259SOL    HW218414   3.403   0.945   2.556  1.8496  0.6031 -0.1640
 2260SOL     OW18415   1.097   0.984   6.371 -0.4469 -0.2016  0.5467
 2260SOL    HW118416   1.090   1.072   6.408  0.2735 -0.7692  2.0385
 2260SOL    HW218417   1.191   0.970   6.364 -0.8324 -1.1390 -2.7789
 2261SOL     OW18418   3.867   0.850  13.121  0.6276  0.6710  0.4377
 2261SOL    HW118419   3.947   0.849  13.068  0.6575 -0.3440  0.5159
 2261SOL    HW218420   3.885   0.766  13.162 -0.6956  0.7177  1.0799
 2262SOL     OW18421   1.081   2.760  12.434 -0.1506 -0.4339 -0.1431
 2262SOL    HW118422   1.048   2.710  12.509  1.7110 -1.5162 -0.0500
 2262SOL    HW218423   1.002   2.807  12.407  0.9294  0.9191 -0.9432
 2263SOL     OW18424   1.885   0.082   2.771  0.2659  0.1978 -0.1416
 2263SOL    HW118425   1.891   4.727   2.745 -2.2046  0.1605 -0.6173
 2263SOL    HW218426   1.948   0.114   2.707  1.0121 -0.7275  0.1194
 2264SOL     OW18427   3.586   0.043   8.361 -0.2828  0.1805 -0.0409
 2264SOL    HW118428   3.509   0.006   8.403  1.0736 -0.9498  1.4512
 2264SOL    HW218429   3.629   4.701   8.331 -0.7199 -0.4273  0.9324
 2265SOL     OW18430   1.923   1.759  15.712  0.2103 -0.1950  0.0504
 2265SOL    HW118431   1.832   1.788  15.710  0.9402  2.0152 -0.6104
 2265SOL    HW218432   1.921   1.675  15.665 -0.6009  0.2262 -0.6739
 2266SOL     OW18433   0.359   3.530  17.549 -0.0052 -0.8045 -0.0637
 2266SOL    HW118434   0.343   3.516  17.455  0.0281 -0.3256 -0.1390
 2266SOL    HW218435   0.372   3.439  17.577  1.1571 -0.5998  0.0218
 2267SOL     OW18436   4.062   1.891  10.732 -0.2743  0.0334  0.2335
 2267SOL    HW118437   4.145   1.860  10.695 -0.7617 -0.8797 -0.1136
 2267SOL    HW218438   4.099   1.943  10.803 -0.7072  2.1102 -1.0859
 2268SOL     OW18439   3.203   2.450   2.639  0.1102  0.2756  0.0592
 2268SOL    HW118440   3.170   2.494   2.717 -1.2056  2.2716 -1.6018
 2268SOL    HW218441   3.220   2.524   2.580 -1.8102  0.3990 -0.3344
 2269SOL     OW18442   3.925   0.487   8.251  0.3176 -0.3012 -0.3242
 2269SOL    HW118443   3.902   0.412   8.195 -0.3968  0.0504 -0.5043
 2269SOL    HW218444   4.018   0.468   8.260 -0.1575 -1.1224  3.0484
 2270SOL     OW18445   3.220   1.693  15.269 -0.0298 -0.0385  0.1631
 2270SOL    HW118446   3.302   1.743  15.265  0.9782 -1.6163  1.1566
 2270SOL    HW218447   3.216   1.691  15.365 -1.3807  1.2551  0.1431
 2271SOL     OW18448   1.065   2.306   4.976  0.1243 -0.4026  0.4366
 2271SOL    HW118449   1.086   2.398   4.960 -0.2417 -0.6411 -1.4198
 2271SOL    HW218450   0.978   2.314   5.016  0.3121 -0.9126  0.9502
 2272SOL     OW18451   3.991   0.231   6.724 -0.1611 -0.4399  0.2185
 2272SOL    HW118452   4.029   0.171   6.788  0.0606 -1.3464 -0.7608
 2272SOL    HW218453   4.046   0.310   6.718 -2.2687  1.0785  0.7020
 2273SOL     OW18454   0.769   0.708   6.442  0.2848 -0.0608 -0.0842
 2273SOL    HW118455   0.680   0.672   6.443  0.0351  0.5728  0.7948
 2273SOL    HW218456   0.820   0.641   6.488  1.0009  0.5037 -0.0502
 2274SOL     OW18457   4.475   0.265   6.051 -0.0592  0.2027 -0.0016
 2274SOL    HW118458   4.471   0.170   6.063 -3.1187  0.3643  0.2207
 2274SOL    HW218459   4.389   0.292   6.084 -1.0037 -2.1957 -0.4648
 2275SOL     OW18460   4.543   2.405   2.587  0.2390 -0.1082 -0.2890
 2275SOL    HW118461   4.608   2.412   2.657 -1.3827  0.4650  1.1431
 2275SOL    HW218462   4.579   2.325   2.547 -0.0900 -1.8561  2.9103
 2276SOL     OW18463   0.376   3.528   6.910 -0.1107 -0.4225  0.2114
 2276SOL    HW118464   0.352   3.466   6.841  0.5994 -1.1249  0.5946
 2276SOL    HW218465   0.389   3.464   6.980 -1.2544 -0.4037  0.4473
 2277SOL     OW18466   3.018   3.408   5.687  0.1593  0.0284 -0.6136
 2277SOL    HW118467   3.048   3.328   5.731  2.0848  0.7261 -0.6602
 2277SOL    HW218468   3.092   3.417   5.627 -0.0868  0.2487 -0.8812
 2278SOL     OW18469   1.512   3.761   1.659 -0.2496 -0.1814  0.3610
 2278SOL    HW118470   1.596   3.806   1.656 -0.1907 -0.3396 -0.2478
 2278SOL    HW218471   1.453   3.836   1.667 -1.1826 -0.9163  0.4199
 2279SOL     OW18472   2.149   3.561  15.281  0.5665  0.4583 -0.3872
 2279SOL    HW118473   2.113   3.618  15.349 -1.3263  1.1357 -1.9495
 2279SOL    HW218474   2.086   3.566  15.209 -1.8717  0.8423  1.8015
 2280SOL     OW18475   4.121   0.435   6.511  0.2044  0.4138 -0.0349
 2280SOL    HW118476   4.059   0.499   6.477 -1.9155 -2.3645 -1.4090
 2280SOL    HW218477   4.169   0.492   6.571 -0.2952  1.4423 -0.6342
 2281SOL     OW18478   3.278   3.883   3.605 -0.1734 -0.2009  0.2146
 2281SOL    HW118479   3.329   3.893   3.525 -1.8202  1.2683 -0.6445
 2281SOL    HW218480   3.320   3.801   3.633 -0.0861  0.0345  0.7819
 2282SOL     OW18481   2.465   0.032   2.779  1.0880 -0.1775  0.0946
 2282SOL    HW118482   2.402   4.728   2.838  2.8107 -0.8505  1.4498
 2282SOL    HW218483   2.441   0.002   2.692  1.1473  0.0686 -0.0069
 2283SOL     OW18484   2.488   0.983   6.725 -0.5632  0.3575 -0.0928
 2283SOL    HW118485   2.408   0.940   6.754  0.4284 -0.8671  0.8259
 2283SOL    HW218486   2.485   0.950   6.635  1.0758  0.9516 -0.3629
 2284SOL     OW18487   3.936   1.988   4.086  0.0623 -0.4120  0.4202
 2284SOL    HW118488   3.870   2.039   4.133 -0.6684 -0.3933 -0.6360
 2284SOL    HW218489   3.942   2.033   4.001  0.1688 -0.3203  0.4752
 2285SOL     OW18490   2.045   0.993   5.162 -0.1167  0.0416 -0.2195
 2285SOL    HW118491   2.049   1.067   5.223 -1.0980  0.6168 -0.8501
 2285SOL    HW218492   2.015   1.042   5.085 -0.8870 -0.9548 -0.5520
 2286SOL     OW18493   4.655   2.922   5.322 -0.5255  0.0744  0.5843
 2286SOL    HW118494   4.716   2.995   5.322 -2.1925  1.4581  0.0238
 2286SOL    HW218495   4.649   2.891   5.413 -0.1807  0.2873  0.6806
 2287SOL     OW18496   1.170   1.030   7.976  0.4841  0.3775  0.1254
 2287SOL    HW118497   1.219   1.074   7.906  1.5413 -0.5021  0.3251
 2287SOL    HW218498   1.115   1.101   8.010 -0.5025  0.3156 -1.3230
 2288SOL     OW18499   0.859   0.953   8.217  0.1004 -0.3653 -0.0545
 2288SOL    HW118500   0.904   0.873   8.243  1.3896 -0.5138 -2.8135
 2288SOL    HW218501   0.917   0.984   8.147  3.1126  1.6027  3.2832
 2289SOL     OW18502   2.112   2.130   1.998 -0.4709  0.0323 -0.6378
 2289SOL    HW118503   2.087   2.116   2.089 -0.9000  1.6950 -0.5025
 2289SOL    HW218504   2.170   2.054   1.990  1.1049  1.1164  0.6137
 2290SOL     OW18505   3.176   3.121   1.972  0.5363  0.4963 -0.5057
 2290SOL    HW118506   3.190   3.088   1.883 -0.9631  1.5061 -1.1315
 2290SOL    HW218507   3.193   3.215   1.963  1.4347  0.3609 -0.1263
 2291SOL     OW18508   3.568   1.502   8.200 -0.2237  0.3084  0.6274
 2291SOL    HW118509   3.611   1.418   8.186 -0.2171  0.1753  1.4727
 2291SOL    HW218510   3.493   1.480   8.255  0.0623 -1.2155  0.4070
 2292SOL     OW18511   3.491   1.174   8.151 -0.7275 -0.1248  0.0614
 2292SOL    HW118512   3.455   1.129   8.075 -1.5215  1.1185 -0.3028
 2292SOL    HW218513   3.573   1.125   8.158 -0.6677  0.0389  0.4851
 2293SOL     OW18514   2.375   2.360   1.776 -0.1530 -0.6842 -0.3094
 2293SOL    HW118515   2.369   2.318   1.690  0.2349 -0.1928 -0.5735
 2293SOL    HW218516   2.365   2.451   1.747  1.5596 -0.0420  1.1335
 2294SOL     OW18517   3.569   1.800  15.083  0.5646 -0.7269  0.4939
 2294SOL    HW118518   3.656   1.804  15.041 -0.1777 -0.4280 -1.0377
 2294SOL    HW218519   3.516   1.851  15.022 -0.1929  1.5317  3.0780
 2295SOL     OW18520   2.440   4.259   4.252  0.3345 -0.1505  0.1146
 2295SOL    HW118521   2.413   4.345   4.220 -2.0495 -0.6665  0.7349
 2295SOL    HW218522   2.386   4.198   4.201 -0.6442  0.3474  0.5693
 2296SOL     OW18523   4.291   1.184   1.340  0.1783  0.0163  0.1982
 2296SOL    HW118524   4.265   1.102   1.297  2.2801 -0.7848  0.4786
 2296SOL    HW218525   4.349   1.144   1.404  0.1594 -0.7809 -0.2791
 2297SOL     OW18526   4.455   3.437  10.077  0.2123 -0.0810  0.4392
 2297SOL    HW118527   4.376   3.479  10.044  1.5225  1.0326 -1.2338
 2297SOL    HW218528   4.452   3.477  10.164  1.6744  2.2364 -0.5825
 2298SOL     OW18529   3.909   1.178   0.250 -0.3691  0.6766  0.3207
 2298SOL    HW118530   3.876   1.185   0.161 -1.4384 -1.0907  0.5723
 2298SOL    HW218531   3.913   1.270   0.275  0.7261  0.2027  1.9499
 2299SOL     OW18532   0.036   4.029  14.655  0.0014 -0.4778 -0.1321
 2299SOL    HW118533   0.072   4.013  14.743  0.5045 -0.3224 -0.3059
 2299SOL    HW218534   4.679   4.015  14.662 -0.3287  0.9302 -1.6552
 2300SOL     OW18535   1.471   4.183   8.411  0.6468 -0.2117 -0.3337
 2300SOL    HW118536   1.478   4.279   8.418 -1.6243  0.1229 -2.6604
 2300SOL    HW218537   1.405   4.169   8.344 -0.0703 -0.1662  0.3629
 2301SOL     OW18538   3.022   3.961  13.364 -0.0755 -0.2443  0.4760
 2301SOL    HW118539   2.990   3.892  13.423 -1.2336 -0.5840 -0.5374
 2301SOL    HW218540   3.108   3.981  13.399 -0.0171  3.9643 -2.0136
 2302SOL     OW18541   1.116   1.124   8.414  0.1775  0.0057  0.0585
 2302SOL    HW118542   1.204   1.118   8.378 -0.2000  1.9654 -1.2001
 2302SOL    HW218543   1.113   1.212   8.451  2.0416  0.0108  0.1891
 2303SOL     OW18544   0.199   3.784  10.913 -0.2778  0.7281 -0.3060
 2303SOL    HW118545   0.240   3.793  10.999 -1.4928 -2.8749  0.6709
 2303SOL    HW218546   0.229   3.868  10.878 -0.6249  1.6481  1.5722
 2304SOL     OW18547   4.551   3.200   9.962  0.0005  0.1908 -0.0513
 2304SOL    HW118548   4.610   3.184  10.036  1.9243  2.5414 -1.0861
 2304SOL    HW218549   4.502   3.277   9.990  2.6987  2.0372 -0.3653
 2305SOL     OW18550   3.694   2.103  13.910 -0.0677  0.4664 -0.9396
 2305SOL    HW118551   3.725   2.020  13.874 -0.7554  0.1631 -0.8510
 2305SOL    HW218552   3.663   2.074  13.996  2.2363  0.9502  0.0402
 2306SOL     OW18553   0.011   1.329   4.876  0.3629 -0.0043 -0.3106
 2306SOL    HW118554   4.663   1.337   4.920  0.0529 -0.5057 -0.8339
 2306SOL    HW218555   0.052   1.414   4.892  0.5534 -0.4239  1.4617
 2307SOL     OW18556   2.263   3.829  11.479  0.1825 -0.4112  0.3300
 2307SOL    HW118557   2.356   3.843  11.498  0.4193 -0.5699 -0.7659
 2307SOL    HW218558   2.267   3.772  11.402  1.2363 -0.7466  0.6194
 2308SOL     OW18559   2.669   1.258   0.215  0.8120 -0.2143 -0.4873
 2308SOL    HW118560   2.759   1.274   0.188  1.4063  0.1108  1.6696
 2308SOL    HW218561   2.685   1.238   0.308 -1.9961 -1.5602 -0.3107
 2309SOL     OW18562   1.571   1.552   2.642  0.3412  0.5904 -0.4251
 2309SOL    HW118563   1.590   1.579   2.552  0.4237  1.3071 -0.2002
 2309SOL    HW218564   1.652   1.516   2.679  0.8701  0.0575 -2.1196
 2310SOL     OW18565   2.250   4.658   7.220  0.0131 -0.5376  0.1260
 2310SOL    HW118566   2.263   4.727   7.155 -0.0478  0.3163  1.0218
 2310SOL    HW218567   2.289   4.691   7.300 -0.3566 -0.0634  0.1107
 2311SOL     OW18568   0.905   3.354   6.846 -0.5026  0.1489 -0.4293
 2311SOL    HW118569   0.997   3.336   6.824 -0.3072  1.3467 -0.5664
 2311SOL    HW218570   0.900   3.439   6.890 -0.8127 -0.6591  1.0916
 2312SOL     OW18571   1.060   1.170   6.614  0.0044 -0.2548 -0.4710
 2312SOL    HW118572   1.027   1.092   6.658 -1.0604 -0.1935 -1.1572
 2312SOL    HW218573   1.153   1.151   6.600 -0.3547 -0.7991 -2.0831
 2313SOL     OW18574   0.256   2.108   1.109 -0.2682  0.2273  0.0012
 2313SOL    HW118575   0.172   2.152   1.098 -1.5771 -2.2888 -0.2385
 2313SOL    HW218576   0.298   2.121   1.024 -3.8334  0.3605 -1.7481
 2314SOL     OW18577   0.209   2.643   4.747  0.2941  0.2688  0.3308
 2314SOL    HW118578   0.135   2.632   4.687  0.3617  1.4739  0.0353
 2314SOL    HW218579   0.285   2.635   4.690  1.6041  2.6736  1.7504
 2315SOL     OW18580   4.456   0.776  12.842 -0.2658 -0.1292 -0.0929
 2315SOL    HW118581   4.372   0.731  12.854 -0.9519  0.9336 -0.8000
 2315SOL    HW218582   4.486   0.798  12.930 -3.4701 -1.6036  1.3457
 2316SOL     OW18583   2.309   2.110   5.959  0.7266 -0.3480 -0.5638
 2316SOL    HW118584   2.308   2.204   5.941  0.2668 -0.2973 -0.2784
 2316SOL    HW218585   2.326   2.121   6.052  1.1646  1.8378 -0.9114
 2317SOL     OW18586   2.072   2.899   8.377 -0.4837  0.2685  0.1521
 2317SOL    HW118587   2.082   2.886   8.471  0.2071 -1.5031 -0.1462
 2317SOL    HW218588   1.984   2.935   8.371 -0.0683  0.7247 -3.1210
 2318SOL     OW18589   0.580   0.690   5.549  0.3024  0.6252  0.0747
 2318SOL    HW118590   0.642   0.749   5.590  0.4842  1.2658 -1.1025
 2318SOL    HW218591   0.620   0.692   5.462  1.1567  0.1901  0.4585
 2319SOL     OW18592   2.395   1.679   7.203  0.4528  0.7957 -0.3474
 2319SOL    HW118593   2.458   1.676   7.275 -0.6062  0.8975  0.5714
 2319SOL    HW218594   2.447   1.676   7.123  1.8327 -1.5479  0.6434
 2320SOL     OW18595   1.672   2.336   5.841  0.0737 -0.1061 -0.0136
 2320SOL    HW118596   1.751   2.371   5.798 -0.4396  0.5127 -0.4582
 2320SOL    HW218597   1.670   2.252   5.795  0.5337 -0.3644  0.4452
 2321SOL     OW18598   0.175   3.866  14.486 -0.5764 -0.9747  0.3095
 2321SOL    HW118599   0.149   3.929  14.553 -1.8524 -3.0390  1.7782
 2321SOL    HW218600   0.268   3.886  14.478 -1.1569  1.5499  0.0438
 2322SOL     OW18601   4.225   2.299   5.914 -0.5325 -0.0727  0.3745
 2322SOL    HW118602   4.131   2.318   5.915 -0.4370  0.4686 -1.3822
 2322SOL    HW218603   4.240   2.211   5.879 -1.6392 -0.0106 -0.2573
 2323SOL     OW18604   3.198   1.649  11.043 -0.6420  0.3512  0.4646
 2323SOL    HW118605   3.186   1.715  11.111  0.9616  0.2495  0.8523
 2323SOL    HW218606   3.124   1.592  11.062  0.7475 -0.7690  2.4995
 2324SOL     OW18607   1.495   2.090   7.843 -0.3026  0.0448  0.1574
 2324SOL    HW118608   1.449   2.173   7.838  0.3671  0.3517 -0.8041
 2324SOL    HW218609   1.574   2.115   7.796 -0.3020  0.8344  0.5790
 2325SOL     OW18610   2.873   0.264   2.202 -0.3296 -0.3502 -0.2645
 2325SOL    HW118611   2.781   0.245   2.220 -0.3923 -0.5367 -0.7761
 2325SOL    HW218612   2.909   0.175   2.206 -0.8707 -0.7568 -4.5918
 2326SOL     OW18613   4.096   4.205   6.430  0.5963  0.2052  0.7261
 2326SOL    HW118614   4.014   4.168   6.396  0.9730  0.0275  0.0145
 2326SOL    HW218615   4.075   4.233   6.519  1.0340  2.3306  0.1719
 2327SOL     OW18616   2.187   0.789   5.005 -0.1615 -0.5608  0.2705
 2327SOL    HW118617   2.282   0.786   5.008 -0.1149  0.6338 -0.0650
 2327SOL    HW218618   2.165   0.866   5.057 -0.1288 -0.9970  0.9439
 2328SOL     OW18619   2.841   0.111   6.309  0.0644 -0.2050 -0.2663
 2328SOL    HW118620   2.891   0.031   6.322  1.4792  0.9246  1.1465
 2328SOL    HW218621   2.771   0.108   6.374 -0.0677  0.4246 -0.3781
 2329SOL     OW18622   0.518   1.910   1.873 -0.0571 -0.0352  0.3196
 2329SOL    HW118623   0.605   1.935   1.842  0.2135  1.0772  1.9625
 2329SOL    HW218624   0.547   1.854   1.945 -0.5384 -1.2954 -0.4911
 2330SOL     OW18625   1.013   2.850   5.518 -0.1162  0.1367  0.3700
 2330SOL    HW118626   0.930   2.874   5.558 -1.1609  1.4255 -2.5157
 2330SOL    HW218627   1.056   2.814   5.595  0.7168 -0.0360 -0.1751
 2331SOL     OW18628   3.455   3.285   3.072 -0.4376  0.1794 -0.8979
 2331SOL    HW118629   3.525   3.337   3.111  0.1443 -1.3598  0.1118
 2331SOL    HW218630   3.503   3.206   3.048  0.3043  0.2755  0.2304
 2332SOL     OW18631   1.255   2.891   8.475  0.0559  0.1263 -0.0994
 2332SOL    HW118632   1.290   2.959   8.418  0.0747 -1.2776 -1.7543
 2332SOL    HW218633   1.256   2.820   8.410  0.6053 -0.1880  0.2445
 2333SOL     OW18634   1.677   0.101   4.336  0.2134  0.5280  0.1507
 2333SOL    HW118635   1.638   0.188   4.337  1.4769  1.1301 -2.5491
 2333SOL    HW218636   1.714   0.086   4.249  0.9113 -1.5915  0.8005
 2334SOL     OW18637   0.561   1.705  11.176  0.4924  0.3388 -0.1552
 2334SOL    HW118638   0.519   1.748  11.102  2.1239 -1.1604 -1.9672
 2334SOL    HW218639   0.636   1.655  11.143 -0.2439  0.3770 -1.8920
 2335SOL     OW18640   2.881   0.784   5.586 -0.1070  0.8079  0.2736
 2335SOL    HW118641   2.863   0.769   5.679  2.1011  0.9501  0.7395
 2335SOL    HW218642   2.805   0.835   5.557 -0.3686 -1.1994 -2.5560
 2336SOL     OW18643   3.625   0.561   1.106 -0.1029 -0.1509 -0.0010
 2336SOL    HW118644   3.602   0.498   1.174  1.4382 -1.0800 -0.3412
 2336SOL    HW218645   3.561   0.550   1.036  2.5545  0.0877 -2.4584
 2337SOL     OW18646   3.311   3.526   3.110 -0.1120  0.4581  0.1775
 2337SOL    HW118647   3.346   3.442   3.080  0.5933  1.0132 -0.5607
 2337SOL    HW218648   3.338   3.580   3.036 -1.5793  1.4970  0.3924
 2338SOL     OW18649   1.290   3.528   3.840 -0.8941 -0.5958 -0.3936
 2338SOL    HW118650   1.384   3.533   3.822 -0.6080  1.2361  1.6259
 2338SOL    HW218651   1.280   3.581   3.919  0.4102 -1.2768  0.2191
 2339SOL     OW18652   3.022   2.151   7.939 -0.1526 -0.0630  0.0579
 2339SOL    HW118653   3.107   2.175   7.975 -0.1681  1.3193 -0.8513
 2339SOL    HW218654   3.044   2.079   7.880 -0.5954 -1.0555  1.0916
 2340SOL     OW18655   0.420   1.295   4.964  0.0984  0.3180 -0.2215
 2340SOL    HW118656   0.512   1.269   4.975 -1.5200 -4.9511  0.7741
 2340SOL    HW218657   0.391   1.272   5.053 -3.8455 -0.7910 -1.7867
 2341SOL     OW18658   1.498   4.452   2.494 -0.4013  0.7814 -0.4779
 2341SOL    HW118659   1.523   4.536   2.533  0.7215  0.4937 -0.5889
 2341SOL    HW218660   1.413   4.461   2.450  0.2792  2.5538 -1.3990
 2342SOL     OW18661   2.810   2.221   6.645  0.0066  0.6552 -0.0579
 2342SOL    HW118662   2.797   2.295   6.586  1.0901  0.1390 -0.9251
 2342SOL    HW218663   2.753   2.242   6.719 -0.6352  0.3094 -0.4570
 2343SOL     OW18664   4.616   0.813   3.227  0.1461  0.0381 -0.3317
 2343SOL    HW118665   4.618   0.741   3.164 -2.0423  1.4754 -2.0591
 2343SOL    HW218666   4.671   0.780   3.297  1.7856  0.3784 -1.4509
 2344SOL     OW18667   1.645   0.231   7.433 -0.2032  0.7095 -0.5046
 2344SOL    HW118668   1.613   0.154   7.386 -0.1030  1.8944 -2.4753
 2344SOL    HW218669   1.571   0.251   7.491  2.6871  1.7882  2.8552
 2345SOL     OW18670   4.360   2.592   6.734 -0.6952  0.8098 -0.5612
 2345SOL    HW118671   4.450   2.571   6.710 -0.4128 -1.9465  2.9190
 2345SOL    HW218672   4.358   2.688   6.738  0.5421  0.8042  0.1704
 2346SOL     OW18673   4.248   0.358   2.089  0.4848 -0.1066 -0.2328
 2346SOL    HW118674   4.317   0.412   2.126 -0.3235 -0.6343  2.0431
 2346SOL    HW218675   4.178   0.415   2.121  0.6267 -0.7992  1.3090
 2347SOL     OW18676   2.313   1.615  11.325 -0.2627  0.2548  0.2798
 2347SOL    HW118677   2.361   1.554  11.269 -0.4660 -1.0430  1.5381
 2347SOL    HW218678   2.378   1.646  11.387 -1.5157 -0.5504  2.0055
 2348SOL     OW18679   3.929   3.305   0.871  0.1761 -0.2960  0.0515
 2348SOL    HW118680   3.874   3.233   0.839  0.5630 -0.9326  0.8307
 2348SOL    HW218681   3.908   3.373   0.807  1.8982 -0.0119 -0.2008
 2349SOL     OW18682   3.724   3.595   5.513 -0.2247 -0.2452 -0.5272
 2349SOL    HW118683   3.767   3.519   5.475 -0.6271 -1.0607  0.6168
 2349SOL    HW218684   3.634   3.585   5.480 -1.2121 -0.5402  2.1891
 2350SOL     OW18685   4.233   3.339   8.870 -0.0678 -0.0370 -0.7815
 2350SOL    HW118686   4.230   3.361   8.776 -1.6624  2.5993 -0.1048
 2350SOL    HW218687   4.149   3.363   8.909  0.5534  2.9647 -1.2768
 2351SOL     OW18688   2.539   3.456   4.551  0.7599  0.3418 -1.0462
 2351SOL    HW118689   2.545   3.475   4.645 -0.3229  2.5444 -1.4090
 2351SOL    HW218690   2.598   3.517   4.506  1.6132  1.0990  1.0442
 2352SOL     OW18691   3.222   2.444   0.296  0.5002  0.3510 -0.3959
 2352SOL    HW118692   3.182   2.501   0.231 -2.4414 -3.0878 -1.5743
 2352SOL    HW218693   3.230   2.361   0.250  1.3905  1.4020 -2.1539
 2353SOL     OW18694   1.524   0.526   2.126 -0.0016  0.0266 -0.0453
 2353SOL    HW118695   1.520   0.467   2.052  0.5040  1.4301 -1.1847
 2353SOL    HW218696   1.441   0.572   2.112 -0.3783 -1.0004 -1.1702
 2354SOL     OW18697   4.695   3.939   6.843  0.7052  0.2051 -0.0009
 2354SOL    HW118698   4.725   3.985   6.921 -0.6568  0.3184  0.4501
 2354SOL    HW218699   0.025   3.967   6.780  2.9950 -2.0726  1.4265
 2355SOL     OW18700   3.334   2.718   8.315  0.2228 -0.4837  0.2199
 2355SOL    HW118701   3.356   2.711   8.407 -2.0857 -0.1055  0.8070
 2355SOL    HW218702   3.245   2.749   8.331 -0.7461 -2.7867 -0.7313
 2356SOL     OW18703   1.119   2.288   1.802  0.1012  0.3122 -0.3250
 2356SOL    HW118704   1.149   2.364   1.753 -1.5070 -0.3246 -2.3363
 2356SOL    HW218705   1.156   2.217   1.749 -3.1037  0.7771 -3.2464
 2357SOL     OW18706   4.340   1.820   7.056  0.7433  0.1727 -0.0568
 2357SOL    HW118707   4.379   1.827   6.969  0.8478  1.3206  0.0843
 2357SOL    HW218708   4.390   1.744   7.086 -1.9354 -0.9558  1.5048
 2358SOL     OW18709   1.259   4.605   5.132  0.0416 -0.5876 -0.1563
 2358SOL    HW118710   1.291   4.619   5.221  1.3091  0.0476 -0.7154
 2358SOL    HW218711   1.196   4.535   5.150  0.6017 -0.7331  1.2343
 2359SOL     OW18712   3.699   2.568   8.404 -0.0572 -0.1767  0.0977
 2359SOL    HW118713   3.717   2.528   8.319  1.3437 -2.1807  1.3496
 2359SOL    HW218714   3.756   2.516   8.460 -1.3270 -0.8782  0.7261
 2360SOL     OW18715   0.043   3.891   8.037 -0.8896 -0.2159  0.5120
 2360SOL    HW118716   0.078   3.825   7.977  0.4110  1.8231 -0.9902
 2360SOL    HW218717   0.022   3.956   7.969  1.0169 -1.6985 -1.4850
 2361SOL     OW18718   3.904   2.567  16.997  0.3320 -0.0330 -0.2702
 2361SOL    HW118719   3.965   2.636  17.021 -0.9606  0.7150  0.8934
 2361SOL    HW218720   3.932   2.547  16.908  1.8426 -0.3672  0.2873
 2362SOL     OW18721   0.517   3.032   1.397 -0.1149  0.5988 -0.2661
 2362SOL    HW118722   0.506   2.947   1.355  1.1616 -0.0288  0.6740
 2362SOL    HW218723   0.591   3.061   1.344  0.4405 -2.0469 -0.9346
 2363SOL     OW18724   3.831   4.405  14.323  0.8004  0.0525  0.0290
 2363SOL    HW118725   3.750   4.414  14.273  1.3781  3.1274 -0.3483
 2363SOL    HW218726   3.798   4.426  14.411 -1.6182 -3.0469 -0.1350
 2364SOL     OW18727   0.818   2.351   3.293  0.4086  0.2204 -0.5447
 2364SOL    HW118728   0.754   2.344   3.223  0.3728 -0.4805 -0.4400
 2364SOL    HW218729   0.819   2.446   3.309 -0.2825  0.2152 -0.4838
 2365SOL     OW18730   0.853   3.314   9.112 -0.7295  0.6176 -0.0618
 2365SOL    HW118731   0.812   3.261   9.044 -1.1288 -2.3716  2.4795
 2365SOL    HW218732   0.884   3.381   9.051 -0.6497  1.2904  0.7215
 2366SOL     OW18733   1.097   3.064   6.263  0.0021  0.4274 -0.2823
 2366SOL    HW118734   1.096   2.993   6.199  0.4353 -0.3498  0.5726
 2366SOL    HW218735   1.154   3.015   6.323  1.0643  0.8652 -0.9297
 2367SOL     OW18736   0.330   2.931   0.535 -0.0767  0.3258  0.9398
 2367SOL    HW118737   0.360   2.900   0.621  1.4218  0.1545  0.3485
 2367SOL    HW218738   0.238   2.904   0.532  0.8572 -2.4884 -2.0592
 2368SOL     OW18739   2.725   3.780   8.077  0.0683  0.2192 -0.7004
 2368SOL    HW118740   2.773   3.767   7.995  0.0960 -1.4398 -0.4304
 2368SOL    HW218741   2.683   3.695   8.089  0.6101  0.1916  0.9965
 2369SOL     OW18742   3.741   0.264  11.767  0.3816 -0.3024 -0.1420
 2369SOL    HW118743   3.836   0.266  11.772  0.2432  2.3013  1.2901
 2369SOL    HW218744   3.721   0.310  11.849 -2.3305 -1.5731 -0.0740
 2370SOL     OW18745   3.952   3.708   1.748 -0.0922 -0.5009 -0.3481
 2370SOL    HW118746   3.891   3.680   1.679 -0.6248  2.1630 -0.9529
 2370SOL    HW218747   3.894   3.716   1.824  0.1421 -1.5212 -0.0713
 2371SOL     OW18748   4.602   2.863  11.200 -0.1266  0.0680 -0.0575
 2371SOL    HW118749   4.610   2.913  11.281  0.0646 -0.7640  0.4406
 2371SOL    HW218750   4.530   2.803  11.222 -0.9323  1.1724  0.2829
 2372SOL     OW18751   2.317   1.269  10.186 -0.5217  0.0312  0.2031
 2372SOL    HW118752   2.381   1.326  10.229  2.2352 -1.8891 -1.3558
 2372SOL    HW218753   2.357   1.252  10.100  1.3155 -0.3320  1.1226
 2373SOL     OW18754   3.655   2.878   6.688 -0.6801  0.2963 -0.2271
 2373SOL    HW118755   3.704   2.898   6.608  1.6861 -0.5960  0.9747
 2373SOL    HW218756   3.727   2.849   6.745 -1.2376  1.3197  1.0143
 2374SOL     OW18757   4.058   2.373   2.731  0.1652 -0.2640 -0.1736
 2374SOL    HW118758   3.978   2.323   2.749  0.3840 -1.0521 -1.4477
 2374SOL    HW218759   4.026   2.411   2.649 -0.0563  1.7601  0.8498
 2375SOL     OW18760   3.150   0.667   6.293  0.1284  0.1237 -0.1954
 2375SOL    HW118761   3.144   0.750   6.338 -0.3874 -0.8784  1.5760
 2375SOL    HW218762   3.237   0.634   6.316  0.3459  1.3851  0.7309
 2376SOL     OW18763   2.173   4.470  15.821 -0.4781 -0.1296  0.8396
 2376SOL    HW118764   2.145   4.441  15.735 -0.3002 -0.5820  0.9357
 2376SOL    HW218765   2.107   4.538  15.836  0.5533  0.8261  1.0979
 2377SOL     OW18766   1.344   2.178  11.063 -0.0541 -0.0295  0.1868
 2377SOL    HW118767   1.385   2.095  11.039  2.6443  0.8973  1.5543
 2377SOL    HW218768   1.396   2.246  11.019 -2.1642  1.3730 -0.1414
 2378SOL     OW18769   3.237   4.184   2.493  0.4139  0.2284  0.0984
 2378SOL    HW118770   3.172   4.199   2.561  1.5484  1.1846  0.9701
 2378SOL    HW218771   3.303   4.228   2.547  0.0019  0.7566  0.1704
 2379SOL     OW18772   2.455   0.620   7.891  1.0455 -0.1025  0.6547
 2379SOL    HW118773   2.364   0.599   7.910  1.4446 -2.9898 -0.5356
 2379SOL    HW218774   2.445   0.619   7.796 -1.0917  1.2348  0.8847
 2380SOL     OW18775   2.660   3.469   8.240  0.2801  0.5596 -0.1439
 2380SOL    HW118776   2.750   3.499   8.253  1.9292 -4.7977  0.5779
 2380SOL    HW218777   2.610   3.517   8.306  0.1114  0.9978 -0.5917
 2381SOL     OW18778   4.477   1.856   7.911  0.1886  0.0119  0.1387
 2381SOL    HW118779   4.492   1.827   7.821 -1.5810 -2.2269  0.5657
 2381SOL    HW218780   4.535   1.931   7.925  0.3851 -0.1627  0.2581
 2382SOL     OW18781   3.071   1.029   7.628  0.5422  0.4151  0.3694
 2382SOL    HW118782   2.977   1.030   7.611  1.1272  2.0384 -2.7090
 2382SOL    HW218783   3.095   0.936   7.631  0.3481  0.3658  0.3749
 2383SOL     OW18784   2.105   1.632   6.046  0.3741 -0.1763 -0.2063
 2383SOL    HW118785   2.157   1.622   5.967  1.9715  1.7552  0.5852
 2383SOL    HW218786   2.019   1.604   6.014  0.4591 -0.9776  0.2551
 2384SOL     OW18787   3.268   4.053  13.509  0.3366  0.3726  0.0769
 2384SOL    HW118788   3.359   4.082  13.499 -0.0014  2.1171  2.0888
 2384SOL    HW218789   3.287   3.979  13.568  0.1435  1.5102  1.5690
 2385SOL     OW18790   2.384   4.426   4.548  0.0295  0.3196  0.1950
 2385SOL    HW118791   2.356   4.442   4.638  1.1866 -1.3674  0.8455
 2385SOL    HW218792   2.300   4.403   4.508  1.0876  0.2287 -2.0020
 2386SOL     OW18793   2.057   0.981   1.628  0.0550 -0.2686 -0.0879
 2386SOL    HW118794   1.971   0.946   1.654  0.4243 -1.0870  0.0311
 2386SOL    HW218795   2.032   1.073   1.628 -1.9393 -0.8000  0.8399
 2387SOL     OW18796   4.084   0.126   8.984  0.2170 -0.1744 -0.4136
 2387SOL    HW118797   3.997   0.105   8.949 -0.0969 -1.7392  1.3030
 2387SOL    HW218798   4.116   0.187   8.917 -0.4864  0.2655 -0.3494
 2388SOL     OW18799   2.213   2.851   5.897 -0.0626 -0.4239 -0.3362
 2388SOL    HW118800   2.235   2.760   5.920  0.6529 -0.1566  0.0300
 2388SOL    HW218801   2.144   2.874   5.960  0.0587 -0.7344 -0.0906
 2389SOL     OW18802   2.324   3.994  12.906 -0.4840  0.3044 -0.4434
 2389SOL    HW118803   2.410   4.015  12.870 -0.8380  1.1692 -0.7787
 2389SOL    HW218804   2.259   4.053  12.867 -2.0916 -1.5325 -0.5567
 2390SOL     OW18805   1.862   3.335   3.329  0.1783  0.3130  0.3610
 2390SOL    HW118806   1.858   3.400   3.398  1.2395  1.6379 -0.8229
 2390SOL    HW218807   1.811   3.381   3.263 -0.6446 -1.1752 -0.0432
 2391SOL     OW18808   4.037   2.237   8.688  0.1892 -0.0251 -0.2166
 2391SOL    HW118809   3.954   2.238   8.735  0.8942  0.6988  1.0171
 2391SOL    HW218810   4.028   2.155   8.640  0.0861 -0.8260  1.1669
 2392SOL     OW18811   1.360   3.859   2.194 -0.4126  0.5895 -0.3156
 2392SOL    HW118812   1.340   3.921   2.264  0.6609 -0.3429  0.8208
 2392SOL    HW218813   1.277   3.829   2.156  0.4654 -0.7202 -1.1613
 2393SOL     OW18814   4.604   4.119   3.964  0.5149 -0.1393  0.6125
 2393SOL    HW118815   4.627   4.211   3.955  2.1397 -0.3979  2.3065
 2393SOL    HW218816   4.688   4.087   3.933 -0.4420 -1.5781 -0.5120
 2394SOL     OW18817   4.012   0.956   4.855  0.0885 -0.2170 -0.0636
 2394SOL    HW118818   3.966   0.974   4.936 -0.2346 -0.4927 -0.1850
 2394SOL    HW218819   4.012   1.038   4.806  0.9207  0.7117  1.5085
 2395SOL     OW18820   0.435   3.981   4.600 -0.0825  0.4212  0.9431
 2395SOL    HW118821   0.376   3.986   4.676 -0.8950 -1.7027  0.4364
 2395SOL    HW218822   0.448   3.887   4.591 -1.5971  0.2193  0.7439
 2396SOL     OW18823   2.826   1.622   3.462  0.5124  0.0435 -0.0667
 2396SOL    HW118824   2.865   1.654   3.543  1.7616  1.2934 -1.1382
 2396SOL    HW218825   2.733   1.619   3.482  0.8763 -3.9088  1.0533
 2397SOL     OW18826   0.385   1.737   3.485 -0.2750 -0.0248  0.5032
 2397SOL    HW118827   0.401   1.705   3.574 -1.6606 -2.2021 -0.0148
 2397SOL    HW218828   0.458   1.702   3.435 -0.3575  2.1734 -1.1612
 2398SOL     OW18829   1.930   4.244   8.417 -0.0789  0.2389 -0.3801
 2398SOL    HW118830   1.849   4.207   8.383  0.9653 -2.2406 -0.1098
 2398SOL    HW218831   1.975   4.280   8.341  2.3216  0.7928  1.2722
 2399SOL     OW18832   0.920   1.177   3.215  0.0023  0.3757  0.2235
 2399SOL    HW118833   0.956   1.265   3.230 -0.9968  0.5673  1.4323
 2399SOL    HW218834   0.832   1.203   3.242 -0.5933 -1.5369  0.1109
 2400SOL     OW18835   3.428   4.226   4.121  0.0122  0.1233  0.5823
 2400SOL    HW118836   3.356   4.164   4.108  0.1337  0.2803 -0.9233
 2400SOL    HW218837   3.403   4.295   4.059 -1.7384 -2.0483 -1.1364
 2401SOL     OW18838   2.407   0.003   7.906  0.2047 -0.3914 -0.1868
 2401SOL    HW118839   2.438   0.080   7.857  1.1315 -1.0387 -0.6124
 2401SOL    HW218840   2.478   0.001   7.970  2.5782  0.0164 -2.7841
 2402SOL     OW18841   3.650   0.016   5.505 -0.1420  0.1887  0.6582
 2402SOL    HW118842   3.744   4.736   5.504 -0.3129 -0.7669  0.2880
 2402SOL    HW218843   3.637   4.713   5.591 -1.4202 -2.2448 -0.6625
 2403SOL     OW18844   3.400   0.938   5.351 -0.7250 -0.0165  0.4925
 2403SOL    HW118845   3.311   0.962   5.375 -0.3858  2.7271 -0.9856
 2403SOL    HW218846   3.392   0.936   5.255 -2.6173 -1.2424  0.6936
 2404SOL     OW18847   3.793   1.648  15.639 -0.8894 -0.0018  0.4115
 2404SOL    HW118848   3.829   1.731  15.672  0.1759  0.0159 -0.7917
 2404SOL    HW218849   3.758   1.666  15.551 -0.9430 -0.6642  0.3021
 2405SOL     OW18850   2.188   0.011   3.339 -0.6068 -0.0056  0.1541
 2405SOL    HW118851   2.249   4.697   3.393  1.6516  2.0383 -0.4906
 2405SOL    HW218852   2.144   4.671   3.303  0.2993  0.0752 -1.1291
 2406SOL     OW18853   4.660   4.436  17.459  0.0146 -0.0699 -0.1574
 2406SOL    HW118854   4.675   4.513  17.513  0.1217 -0.8361  0.8881
 2406SOL    HW218855   4.588   4.461  17.400  1.2236 -0.6391 -1.8897
 2407SOL     OW18856   0.969   3.543   8.138  0.8324 -0.1524 -0.1482
 2407SOL    HW118857   0.958   3.598   8.215  1.1449  0.4824 -0.5619
 2407SOL    HW218858   0.957   3.456   8.177 -0.4660 -0.3388 -0.9590
 2408SOL     OW18859   3.008   2.784   8.918 -0.1215  0.0710 -0.3712
 2408SOL    HW118860   2.961   2.860   8.883 -1.1110 -0.8677 -1.0676
 2408SOL    HW218861   2.938   2.728   8.950  0.4062  0.3046  1.1674
 2409SOL     OW18862   2.786   1.808   5.654 -0.0918 -0.0439 -0.6337
 2409SOL    HW118863   2.736   1.808   5.572  0.2259 -1.8349 -0.8244
 2409SOL    HW218864   2.844   1.884   5.654  0.4130 -0.4252 -2.1473
 2410SOL     OW18865   2.535   3.079  16.511 -0.4124 -0.0485  0.5169
 2410SOL    HW118866   2.466   3.145  16.516 -0.2128  0.3165 -1.5678
 2410SOL    HW218867   2.478   3.003  16.523 -1.8484  0.8577 -0.4579
 2411SOL     OW18868   4.259   2.406   6.153  0.2603  0.0885  0.2708
 2411SOL    HW118869   4.244   2.324   6.200 -1.9484  0.4099  0.1098
 2411SOL    HW218870   4.246   2.369   6.065  0.5791  0.8887 -0.1140
 2412SOL     OW18871   2.593   1.743  11.953 -0.1759 -0.5711 -0.4333
 2412SOL    HW118872   2.525   1.675  11.960 -0.1164 -0.3911  2.0084
 2412SOL    HW218873   2.636   1.731  11.869  0.3105  1.2232 -0.4381
 2413SOL     OW18874   2.186   2.906   2.114  0.0582 -0.0855 -0.0281
 2413SOL    HW118875   2.129   2.848   2.063 -0.7210 -0.3553  1.1482
 2413SOL    HW218876   2.272   2.865   2.110  0.2649  0.4043 -0.6076
 2414SOL     OW18877   3.483   0.304   5.935  0.1624  0.4417 -0.4596
 2414SOL    HW118878   3.443   0.256   5.862 -0.9415  1.8110 -0.7740
 2414SOL    HW218879   3.477   0.395   5.903 -0.4091  1.0464  1.3850
 2415SOL     OW18880   1.953   2.861   6.850  0.5475  0.1087 -0.7457
 2415SOL    HW118881   1.887   2.798   6.821  1.5307 -1.7887  1.1253
 2415SOL    HW218882   2.026   2.848   6.791 -0.2192 -1.4466 -1.3326
 2416SOL     OW18883   0.273   0.703   8.821  0.4589  0.1101  0.0850
 2416SOL    HW118884   0.324   0.720   8.900 -0.7107 -0.7785  1.0312
 2416SOL    HW218885   0.222   0.783   8.808 -2.0309 -1.2919  1.1194
 2417SOL     OW18886   3.906   2.234  15.849 -0.3457 -0.1718  0.5520
 2417SOL    HW118887   3.943   2.147  15.861 -1.1762 -0.7521 -1.1519
 2417SOL    HW218888   3.984   2.284  15.826 -0.9979  0.7800  0.4129
 2418SOL     OW18889   2.811   3.163  12.531 -0.2512  0.2124 -0.5127
 2418SOL    HW118890   2.791   3.079  12.489  0.0947  0.5843 -1.4072
 2418SOL    HW218891   2.735   3.214  12.504 -0.4494 -1.0267 -2.2731
 2419SOL     OW18892   1.219   2.023  15.235  0.1010  0.6070  0.3629
 2419SOL    HW118893   1.210   2.023  15.139 -3.3807 -1.6054  0.6947
 2419SOL    HW218894   1.220   2.117  15.251 -1.2857  0.4510  1.3899
 2420SOL     OW18895   0.209   1.485   9.945 -0.1137  0.0799  0.1938
 2420SOL    HW118896   0.258   1.403   9.944 -0.6990 -0.2349 -2.1155
 2420SOL    HW218897   0.199   1.486   9.850 -0.5494 -0.0470  0.2401
 2421SOL     OW18898   3.230   0.169   3.980 -0.3479  0.3858  0.6213
 2421SOL    HW118899   3.151   0.179   4.035 -0.5222  3.6446 -0.2155
 2421SOL    HW218900   3.293   0.239   3.997 -1.0302  1.3152 -0.6092
 2422SOL     OW18901   0.600   1.796   2.109 -0.4729  0.5561  0.2402
 2422SOL    HW118902   0.690   1.777   2.133 -1.6405 -1.9812  2.5704
 2422SOL    HW218903   0.559   1.710   2.102 -1.5098  0.9167  1.8737
 2423SOL     OW18904   4.574   1.247   4.378 -0.2724  0.3732  0.5087
 2423SOL    HW118905   4.500   1.191   4.403 -0.9930 -0.3395 -3.1414
 2423SOL    HW218906   4.611   1.261   4.464  2.2887  3.4860 -1.1244
 2424SOL     OW18907   0.834   3.509   7.407  0.0073  0.0652 -0.6044
 2424SOL    HW118908   0.832   3.597   7.371  0.3770  0.8291  1.2389
 2424SOL    HW218909   0.777   3.523   7.483  2.0317  1.6806  0.6244
 2425SOL     OW18910   0.817   0.400   5.410  0.3323  0.0505 -0.3625
 2425SOL    HW118911   0.874   0.453   5.466 -0.3740  2.3892 -1.8498
 2425SOL    HW218912   0.744   0.462   5.404  0.6917  0.2888 -2.2591
 2426SOL     OW18913   2.212   0.928  17.182 -0.3685 -0.4515  0.8806
 2426SOL    HW118914   2.285   0.985  17.159  0.2010 -1.6880 -0.3990
 2426SOL    HW218915   2.168   0.922  17.097  0.0398  1.4166  0.5500
 2427SOL     OW18916   4.346   3.735  11.464  0.0604  0.3635  0.1935
 2427SOL    HW118917   4.354   3.769  11.554  0.5637  1.0007 -0.0902
 2427SOL    HW218918   4.438   3.723  11.440 -0.5467 -1.5775 -1.1548
 2428SOL     OW18919   3.647   3.610   2.001  0.1061 -0.4160  0.5124
 2428SOL    HW118920   3.683   3.698   1.993  1.4409 -1.1279 -1.2753
 2428SOL    HW218921   3.553   3.620   2.016 -0.1998 -1.6476 -0.5446
 2429SOL     OW18922   3.108   4.692  15.866  0.5038 -0.3871  0.1516
 2429SOL    HW118923   3.079   0.039  15.833 -1.0951 -1.5360 -1.3804
 2429SOL    HW218924   3.097   4.635  15.790  1.2571  0.1083 -0.3292
 2430SOL     OW18925   4.365   3.962   5.452 -0.3952  0.4359 -0.8035
 2430SOL    HW118926   4.394   4.013   5.377  1.5943 -0.2319 -0.4703
 2430SOL    HW218927   4.436   3.994   5.508 -1.2184  2.6442 -1.0169
 2431SOL     OW18928   3.969   4.290   7.242 -0.1389 -1.0483  0.1599
 2431SOL    HW118929   4.023   4.213   7.260  2.0492  0.5895  0.5332
 2431SOL    HW218930   4.030   4.354   7.206 -1.8209 -0.2454 -1.2670
 2432SOL     OW18931   0.881   1.957   2.132 -0.4188  0.4677  0.4443
 2432SOL    HW118932   0.859   1.919   2.047 -2.0645 -1.6101  1.7959
 2432SOL    HW218933   0.957   2.014   2.121 -0.2646 -0.0679 -1.2354
 2433SOL     OW18934   3.109   1.049   6.225  0.2136 -0.2950 -0.1780
 2433SOL    HW118935   3.109   1.110   6.299 -1.4287 -0.6539  0.1347
 2433SOL    HW218936   3.016   1.032   6.209 -0.2105  1.8689 -0.0002
 2434SOL     OW18937   1.281   2.579   0.040  0.8375 -0.5418  0.0033
 2434SOL    HW118938   1.336   2.502   0.024  1.5845  0.1159 -0.5690
 2434SOL    HW218939   1.204   2.546   0.087  0.7111  1.9912  1.5589
 2435SOL     OW18940   3.183   4.164   7.944  0.0719  0.0868  0.5055
 2435SOL    HW118941   3.109   4.203   7.990  0.1786  0.2486  0.5413
 2435SOL    HW218942   3.214   4.106   8.014  0.7113 -0.4423 -0.2191
 2436SOL     OW18943   2.935   2.301   7.498 -0.5405 -0.5533 -0.3662
 2436SOL    HW118944   2.941   2.208   7.521 -1.5336 -0.6098 -0.3482
 2436SOL    HW218945   2.889   2.330   7.577 -1.0237 -0.1863 -0.7890
 2437SOL     OW18946   0.234   4.523   6.553  0.1128 -0.1585 -0.0510
 2437SOL    HW118947   0.226   4.476   6.470 -2.5641  0.2878 -0.0621
 2437SOL    HW218948   0.210   4.611   6.526  1.1249  0.1707  0.1319
 2438SOL     OW18949   2.431   0.935   3.531  0.4701 -0.0969  0.2710
 2438SOL    HW118950   2.397   0.878   3.462 -1.6488  1.2841  0.1789
 2438SOL    HW218951   2.351   0.923   3.583  0.5999 -0.7324  0.3223
 2439SOL     OW18952   3.968   3.350  15.475  0.0713 -0.0435 -0.6237
 2439SOL    HW118953   4.038   3.380  15.533  0.8519 -1.5225 -0.7838
 2439SOL    HW218954   3.969   3.258  15.503  0.3304 -0.6858 -2.7222
 2440SOL     OW18955   3.206   3.799  13.659  0.0362  0.1482 -0.1663
 2440SOL    HW118956   3.139   3.867  13.675 -0.5584 -0.7302  1.1206
 2440SOL    HW218957   3.274   3.840  13.713 -0.9761  1.1334  0.3670
 2441SOL     OW18958   1.593   4.030   7.925 -0.4419  0.5073  0.2504
 2441SOL    HW118959   1.576   3.960   7.862 -0.0853 -0.7419  1.5557
 2441SOL    HW218960   1.657   3.982   7.978  0.2833  1.7556  0.5129
 2442SOL     OW18961   3.477   4.671   6.780 -1.1977  0.4727  0.5051
 2442SOL    HW118962   3.540   4.617   6.827 -0.9309 -0.5450 -0.9900
 2442SOL    HW218963   3.399   4.616   6.769 -1.2903  0.6386  0.3282
 2443SOL     OW18964   4.657   1.653   3.298  0.4049  0.1702 -0.0148
 2443SOL    HW118965   4.675   1.576   3.244 -0.1079  0.5736 -0.7704
 2443SOL    HW218966   4.623   1.711   3.230 -1.7154 -2.3266 -1.0718
 2444SOL     OW18967   2.864   3.815  16.465  0.0775 -0.7237 -0.5031
 2444SOL    HW118968   2.793   3.874  16.441 -0.0810 -0.8659 -0.3830
 2444SOL    HW218969   2.864   3.828  16.559 -0.9562  0.5915 -0.6885
 2445SOL     OW18970   1.856   1.004   9.741  0.0604  0.4503 -0.2001
 2445SOL    HW118971   1.775   1.055   9.738 -0.4097 -0.3514 -1.3688
 2445SOL    HW218972   1.925   1.067   9.721 -0.6222  1.0594 -0.6413
 2446SOL     OW18973   0.390   3.939   6.030  0.5278  0.0559 -0.3048
 2446SOL    HW118974   0.350   3.977   5.952  2.4041  1.8351 -0.3932
 2446SOL    HW218975   0.447   3.873   5.992  0.7203 -1.2692  2.2908
 2447SOL     OW18976   1.014   3.521   4.827  0.5252 -0.2247  0.3085
 2447SOL    HW118977   1.047   3.556   4.910 -1.2890  2.2202 -0.0049
 2447SOL    HW218978   0.959   3.454   4.868  1.8874 -0.5320  1.6256
 2448SOL     OW18979   1.675   3.697   5.574  0.0270  0.2045  0.2352
 2448SOL    HW118980   1.664   3.608   5.606  1.2563  0.3012  0.9668
 2448SOL    HW218981   1.761   3.721   5.609 -0.7889  2.0650  0.9918
 2449SOL     OW18982   2.864   3.760   8.380 -0.0451  0.0834 -0.0574
 2449SOL    HW118983   2.773   3.766   8.350  0.8372 -0.6332 -2.8591
 2449SOL    HW218984   2.898   3.682   8.336 -1.7087 -0.6006 -0.1194
 2450SOL     OW18985   2.145   4.590   9.723 -0.0365  0.7704 -0.2057
 2450SOL    HW118986   2.088   4.611   9.797 -0.9291  0.3614 -0.7783
 2450SOL    HW218987   2.138   4.495   9.720  0.8595  0.7607 -2.5033
 2451SOL     OW18988   2.156   2.052   9.478 -0.1439 -0.2629 -0.1144
 2451SOL    HW118989   2.208   2.099   9.413 -0.3718  0.8714  0.5318
 2451SOL    HW218990   2.107   2.123   9.519  0.1951  0.4235 -0.9208
 2452SOL     OW18991   2.548   0.697   5.616 -0.1703 -0.1950 -0.0977
 2452SOL    HW118992   2.492   0.772   5.596  1.2880  0.4531 -1.7025
 2452SOL    HW218993   2.603   0.736   5.684 -1.1031 -0.9834  1.1183
 2453SOL     OW18994   4.287   2.852   3.180  0.1048 -0.5296  0.1631
 2453SOL    HW118995   4.336   2.799   3.117 -0.3561 -2.7275  1.6474
 2453SOL    HW218996   4.360   2.865   3.240 -0.3499  0.6382  0.4620
 2454SOL     OW18997   1.969   4.407   8.626 -0.1284 -0.0093 -0.2588
 2454SOL    HW118998   1.964   4.363   8.541 -0.8193 -0.5866  0.0749
 2454SOL    HW218999   1.915   4.485   8.614 -0.8207 -0.3406  0.7236
 2455SOL     OW19000   4.009   4.294   0.668  0.7389  0.2072 -0.0975
 2455SOL    HW119001   3.978   4.384   0.677  1.9703  0.7293 -1.3000
 2455SOL    HW219002   3.923   4.258   0.645 -0.1363  1.2912  1.4784
 2456SOL     OW19003   3.635   4.136   7.778  0.4584  0.0168  0.1664
 2456SOL    HW119004   3.592   4.077   7.839  1.7049 -2.0949 -0.9825
 2456SOL    HW219005   3.568   4.203   7.766  0.0917 -0.5495 -0.9690
 2457SOL     OW19006   0.245   0.688   7.033 -0.0768  0.0407 -0.1926
 2457SOL    HW119007   0.206   0.746   7.098  1.4082 -1.4762  2.0976
 2457SOL    HW219008   0.202   0.605   7.053  0.8955 -0.4568 -0.1297
 2458SOL     OW19009   2.844   1.833   2.909  0.3750  0.8261 -0.1226
 2458SOL    HW119010   2.873   1.868   2.825 -0.1370 -1.1368 -1.1335
 2458SOL    HW219011   2.752   1.858   2.910  0.1565  0.0537 -0.4375
 2459SOL     OW19012   1.378   0.349   9.410  0.4666 -0.3863  0.1287
 2459SOL    HW119013   1.318   0.315   9.477 -0.7537  0.7823 -0.3651
 2459SOL    HW219014   1.342   0.312   9.329  0.6007  0.6765 -0.4129
 2460SOL     OW19015   0.957   4.081   1.827  0.1777  0.2041 -0.3641
 2460SOL    HW119016   0.944   4.011   1.891 -1.4085  0.3595 -0.5136
 2460SOL    HW219017   0.868   4.089   1.792 -0.1021  1.2559  0.5870
 2461SOL     OW19018   2.031   4.036  13.245 -0.1203 -0.4811  0.3901
 2461SOL    HW119019   1.943   4.011  13.274 -0.7571  0.7475 -0.4661
 2461SOL    HW219020   2.025   4.019  13.151 -0.1224 -0.8859  0.4646
 2462SOL     OW19021   4.204   4.287   2.918  0.3481  0.0564  0.2108
 2462SOL    HW119022   4.217   4.288   3.013 -0.2173  3.0910  0.2728
 2462SOL    HW219023   4.269   4.354   2.896  1.6981 -0.6078  2.1821
 2463SOL     OW19024   4.643   3.010   8.887 -0.1640  0.3755 -0.0509
 2463SOL    HW119025   4.598   3.078   8.938  0.2245  0.3335  0.3474
 2463SOL    HW219026   4.674   2.952   8.956  0.2222  0.6609  0.0181
 2464SOL     OW19027   3.275   1.883   4.604  0.1875  0.4379  0.6513
 2464SOL    HW119028   3.324   1.857   4.527  0.5039 -0.4717  1.1567
 2464SOL    HW219029   3.339   1.858   4.671  0.7168 -2.0281 -0.8050
 2465SOL     OW19030   2.889   0.246   7.274 -0.0903  0.0205 -0.0816
 2465SOL    HW119031   2.799   0.226   7.298  0.3789 -2.3213 -0.3179
 2465SOL    HW219032   2.945   0.184   7.320  1.0880  0.4365 -0.9273
 2466SOL     OW19033   4.661   3.950   9.206 -0.0829  0.0071  0.0503
 2466SOL    HW119034   4.633   3.948   9.298  1.1560 -1.6386  0.4059
 2466SOL    HW219035   4.690   3.859   9.203  0.2177  0.1008  0.1614
 2467SOL     OW19036   3.592   3.496   7.785  0.3595 -0.1304 -1.0070
 2467SOL    HW119037   3.597   3.458   7.697 -1.0693 -0.0996 -1.0937
 2467SOL    HW219038   3.639   3.429   7.833  2.8506  0.1799 -2.9946
 2468SOL     OW19039   1.062   4.506   4.872  0.4494 -0.0767  0.0247
 2468SOL    HW119040   0.974   4.470   4.861  0.4014 -0.1401  0.6519
 2468SOL    HW219041   1.042   4.557   4.950  0.1213 -1.7508  1.0478
 2469SOL     OW19042   0.209   3.817  15.225 -0.0398 -0.3260  0.4718
 2469SOL    HW119043   0.165   3.801  15.142  1.3654  0.0485 -0.3527
 2469SOL    HW219044   0.130   3.821  15.278 -0.8427 -0.6140 -0.7090
 2470SOL     OW19045   4.006   1.689   4.480  0.1511 -0.2535  0.4830
 2470SOL    HW119046   4.027   1.751   4.410  0.5334 -0.0460  0.7792
 2470SOL    HW219047   3.973   1.749   4.547  1.1466 -0.1100  0.8598
 2471SOL     OW19048   0.621   4.407  10.241  0.5901  0.4169  0.3839
 2471SOL    HW119049   0.622   4.370  10.153  1.3101 -1.2689  1.1004
 2471SOL    HW219050   0.585   4.494  10.226 -1.3299 -0.4136  0.2068
 2472SOL     OW19051   0.832   0.319   8.175  0.4567 -0.1030  0.2823
 2472SOL    HW119052   0.839   0.258   8.248  3.5449 -0.5855 -0.3924
 2472SOL    HW219053   0.818   0.393   8.234 -0.8099  0.9419 -1.3490
 2473SOL     OW19054   0.705   3.898  11.495  0.3293  0.0372 -0.6424
 2473SOL    HW119055   0.654   3.902  11.576 -1.3607 -0.3481 -1.7075
 2473SOL    HW219056   0.771   3.831  11.517 -1.1925  0.1515  4.3003
 2474SOL     OW19057   1.983   3.389   5.662  0.2802  0.4209 -0.1827
 2474SOL    HW119058   1.927   3.350   5.595  0.6791  0.6562 -0.6543
 2474SOL    HW219059   2.068   3.382   5.618  0.2302 -1.7730  0.0659
 2475SOL     OW19060   2.299   3.892   9.922  0.3867  0.1772  0.2126
 2475SOL    HW119061   2.287   3.976   9.966  1.5207  0.9348 -0.9340
 2475SOL    HW219062   2.387   3.875   9.954  0.6886  0.9854 -0.2116
 2476SOL     OW19063   3.463   0.747   4.696  0.2481  0.0614  0.4700
 2476SOL    HW119064   3.475   0.823   4.639 -2.2174  0.4220  0.3889
 2476SOL    HW219065   3.406   0.694   4.640  2.2268 -1.4079 -0.1238
 2477SOL     OW19066   4.080   1.323   7.739  0.0141  0.2826 -0.1474
 2477SOL    HW119067   4.013   1.376   7.696  0.8101  2.0713  0.8280
 2477SOL    HW219068   4.152   1.386   7.738  1.4108 -1.3094 -0.1362
 2478SOL     OW19069   2.124   0.164   2.213 -0.1545 -0.1783  0.0071
 2478SOL    HW119070   2.152   0.227   2.280  0.5719 -0.8372  0.3214
 2478SOL    HW219071   2.094   0.234   2.155 -0.0565  0.7789  1.1193
 2479SOL     OW19072   2.800   3.651  17.621  0.1490  0.2338  0.2563
 2479SOL    HW119073   2.804   3.737  17.580 -0.5633  1.0845  1.9940
 2479SOL    HW219074   2.752   3.610  17.549 -1.3755  2.6853 -0.1457
 2480SOL     OW19075   2.255   1.849   8.592 -0.1983  0.2323 -0.6295
 2480SOL    HW119076   2.198   1.834   8.517 -0.4420 -0.5556 -0.2867
 2480SOL    HW219077   2.281   1.939   8.574  0.1951  0.3505  0.5350
 2481SOL     OW19078   2.472   3.179   5.555 -0.2943  0.4572  0.1869
 2481SOL    HW119079   2.392   3.200   5.603 -0.2621  1.3870 -0.1667
 2481SOL    HW219080   2.508   3.266   5.537  0.1216  0.0521 -0.9563
 2482SOL     OW19081   1.216   3.692   2.661 -0.0191 -0.6882  0.3041
 2482SOL    HW119082   1.171   3.643   2.730 -2.9244  1.2996 -0.1971
 2482SOL    HW219083   1.153   3.684   2.590 -1.7044 -1.0972  1.8600
 2483SOL     OW19084   1.367   3.583  10.864  0.0156  0.0879 -0.3297
 2483SOL    HW119085   1.381   3.623  10.950  0.5179  1.4846 -1.0585
 2483SOL    HW219086   1.319   3.657  10.827 -0.8937 -1.0928 -1.5353
 2484SOL     OW19087   0.239   0.531   8.299  0.2632  0.1846 -0.7095
 2484SOL    HW119088   0.196   0.483   8.370  1.5561  0.6032  0.3512
 2484SOL    HW219089   0.234   0.453   8.244  0.9711  0.4511 -1.1401
 2485SOL     OW19090   2.629   3.459   6.291 -0.1926 -0.4325 -0.3152
 2485SOL    HW119091   2.584   3.432   6.371  1.9451  1.0955  1.4126
 2485SOL    HW219092   2.699   3.510   6.332 -0.9461 -0.2154  0.7025
 2486SOL     OW19093   0.714   1.271  13.333  0.5315 -0.0626  0.1690
 2486SOL    HW119094   0.775   1.303  13.400 -1.2124  1.2424  1.1316
 2486SOL    HW219095   0.650   1.219  13.383 -1.0500  0.3387 -1.4518
 2487SOL     OW19096   0.372   1.866  11.821 -0.1655 -0.0882 -0.3331
 2487SOL    HW119097   0.464   1.860  11.849 -0.1029  1.8552 -0.1353
 2487SOL    HW219098   0.332   1.925  11.886 -1.3338 -0.8386 -0.3785
 2488SOL     OW19099   0.118   2.342   7.565  0.2233  0.3382 -0.4403
 2488SOL    HW119100   0.071   2.308   7.489  0.1941 -3.1785  1.1787
 2488SOL    HW219101   0.101   2.276   7.631  0.2500  1.0866  0.3095
 2489SOL     OW19102   2.122   1.143   2.461 -0.0513 -0.6320 -0.2164
 2489SOL    HW119103   2.108   1.078   2.530  2.5438  0.2217  1.1155
 2489SOL    HW219104   2.194   1.100   2.414 -0.0193 -0.8069 -0.0089
 2490SOL     OW19105   1.816   4.286  16.128 -0.0621 -0.0068  0.0730
 2490SOL    HW119106   1.901   4.331  16.133 -0.8210  0.9987  3.3828
 2490SOL    HW219107   1.763   4.362  16.154  0.0525  0.3486 -0.7202
 2491SOL     OW19108   2.092   1.281   6.267 -0.0930 -0.1026 -0.2975
 2491SOL    HW119109   2.066   1.350   6.329 -1.4421 -0.8675 -0.0287
 2491SOL    HW219110   2.181   1.304   6.239 -0.6538  0.1772 -1.8688
 2492SOL     OW19111   2.997   1.745   8.762  0.3001  0.2912  0.3889
 2492SOL    HW119112   2.967   1.748   8.671  1.2672  0.6140  0.0744
 2492SOL    HW219113   2.977   1.654   8.784 -3.7800  1.2609  0.5819
 2493SOL     OW19114   2.166   1.182  12.817  0.2965 -0.1239  0.8403
 2493SOL    HW119115   2.076   1.212  12.805  0.0634 -0.5986  1.4205
 2493SOL    HW219116   2.149   1.093  12.785  0.0749  0.5044 -0.8113
 2494SOL     OW19117   1.266   3.784   7.848  0.3518  0.9121 -0.0407
 2494SOL    HW119118   1.308   3.788   7.762  1.7073 -0.3928  0.5560
 2494SOL    HW219119   1.207   3.710   7.832 -0.0760  0.8967  1.5593
 2495SOL     OW19120   3.114   0.465   8.333  0.2252  0.6705 -0.3621
 2495SOL    HW119121   3.068   0.549   8.324  1.1975  1.2903  0.4149
 2495SOL    HW219122   3.192   0.494   8.284  0.7532 -0.2495 -0.0652
 2496SOL     OW19123   1.294   3.200   3.186  0.3953  0.0831 -0.0298
 2496SOL    HW119124   1.265   3.110   3.167  2.6824 -0.3563 -1.4991
 2496SOL    HW219125   1.320   3.185   3.277  0.9019 -0.2623 -0.2289
 2497SOL     OW19126   0.707   4.469   9.673 -0.3665  0.6195  0.6585
 2497SOL    HW119127   0.802   4.457   9.664 -0.1617  0.8120  2.4801
 2497SOL    HW219128   0.680   4.417   9.749  0.1718 -0.4818  0.0893
 2498SOL     OW19129   4.230   0.512  11.119 -0.4569  0.2514  0.2850
 2498SOL    HW119130   4.273   0.431  11.092 -0.8556 -0.4006  1.6412
 2498SOL    HW219131   4.294   0.579  11.091  0.6241 -0.9774 -0.1959
 2499SOL     OW19132   2.080   2.969   7.161  0.2495 -0.5117 -0.1289
 2499SOL    HW119133   2.114   2.916   7.090  1.2399 -1.8270  1.3257
 2499SOL    HW219134   2.004   2.916   7.187 -0.4263 -0.1160 -1.3104
 2500SOL     OW19135   0.479   3.278   1.203 -0.5732 -0.3082  0.2343
 2500SOL    HW119136   0.404   3.218   1.200 -1.1105  0.4439 -1.3792
 2500SOL    HW219137   0.486   3.300   1.296 -1.8411  3.2779 -0.5249
 2501SOL     OW19138   0.167   1.192  17.276 -0.3258 -0.1166  0.0330
 2501SOL    HW119139   0.141   1.174  17.185 -1.0525 -0.4457  0.3059
 2501SOL    HW219140   0.090   1.242  17.304  0.1260  1.9391 -2.3778
 2502SOL     OW19141   4.143   1.053   8.505  0.5581  0.5190 -0.5321
 2502SOL    HW119142   4.079   1.123   8.514 -1.7142 -1.4739 -1.2171
 2502SOL    HW219143   4.196   1.045   8.585  1.4142  1.3936 -1.0124
 2503SOL     OW19144   3.219   1.375   1.543 -0.0479 -0.1660  0.1096
 2503SOL    HW119145   3.143   1.325   1.512 -0.5510  0.3206  0.5455
 2503SOL    HW219146   3.200   1.457   1.499  0.7825 -0.2777 -0.4418
 2504SOL     OW19147   0.417   2.682   3.406 -0.2372 -0.2495  0.3425
 2504SOL    HW119148   0.345   2.718   3.353  0.0806 -0.3596 -0.1601
 2504SOL    HW219149   0.411   2.587   3.395  1.9104 -0.4952  1.2829
 2505SOL     OW19150   3.845   4.445   8.536  0.0173 -0.1523 -0.5308
 2505SOL    HW119151   3.857   4.387   8.611 -0.1323 -0.2343 -0.5714
 2505SOL    HW219152   3.857   4.527   8.584  2.2288 -1.0997  0.5218
 2506SOL     OW19153   0.622   3.554   6.063 -0.2761 -0.4838  0.1340
 2506SOL    HW119154   0.602   3.532   6.154 -1.8370  0.1561 -0.0624
 2506SOL    HW219155   0.716   3.561   6.080 -0.4136 -0.4714  0.8940
 2507SOL     OW19156   2.659   2.972   2.074 -0.7357 -0.0666  0.8437
 2507SOL    HW119157   2.679   3.035   2.144 -1.4955  1.8639 -0.7108
 2507SOL    HW219158   2.737   2.917   2.066  0.5143  1.3902  2.9346
 2508SOL     OW19159   1.741   2.243   2.289  0.1274 -0.4221  0.0072
 2508SOL    HW119160   1.714   2.295   2.365  0.9467  1.2227 -0.8350
 2508SOL    HW219161   1.685   2.165   2.298  1.5902 -1.3895  0.9245
 2509SOL     OW19162   3.483   0.865   6.647 -0.1206 -0.1448  0.0742
 2509SOL    HW119163   3.491   0.960   6.637  0.7229 -0.2068  0.2108
 2509SOL    HW219164   3.421   0.855   6.720  0.4971  0.5835  0.6937
 2510SOL     OW19165   1.963   2.431   7.263  0.0307 -0.3894  0.1695
 2510SOL    HW119166   2.038   2.487   7.286 -0.5900  0.1944  0.7536
 2510SOL    HW219167   1.896   2.486   7.303  2.3101  1.7031  1.1570
 2511SOL     OW19168   0.484   1.719   6.533 -0.1198 -0.4255  0.1447
 2511SOL    HW119169   0.570   1.704   6.494 -0.5210  1.5886 -1.5134
 2511SOL    HW219170   0.477   1.813   6.515  0.1689 -0.5617 -0.6825
 2512SOL     OW19171   1.567   2.047   4.010 -0.0773 -0.5668  0.0089
 2512SOL    HW119172   1.595   2.135   3.985  2.1499 -0.6301  2.3078
 2512SOL    HW219173   1.588   2.051   4.103  0.3734 -0.4991 -0.0931
 2513SOL     OW19174   1.278   3.014  15.934  0.3158  0.1362  0.1555
 2513SOL    HW119175   1.342   3.006  15.863  0.0922 -0.7908  0.0570
 2513SOL    HW219176   1.270   3.109  15.948 -2.8077 -0.2279  0.9249
 2514SOL     OW19177   1.842   1.725   3.322  0.1758  0.0088 -0.1971
 2514SOL    HW119178   1.856   1.630   3.317  0.9047  0.0600  0.9260
 2514SOL    HW219179   1.747   1.715   3.315  0.5265 -2.3102 -1.6864
 2515SOL     OW19180   1.320   4.209   5.220  0.0311  0.1449 -0.0982
 2515SOL    HW119181   1.337   4.195   5.127  0.8586 -0.6162  0.1653
 2515SOL    HW219182   1.391   4.152   5.251 -0.1197 -0.6212 -1.1737
 2516SOL     OW19183   1.812   1.210   9.486  0.0235 -0.0785  0.2543
 2516SOL    HW119184   1.803   1.286   9.428 -1.0077 -0.4498 -0.0710
 2516SOL    HW219185   1.863   1.256   9.553  0.5933 -1.7783  0.9831
 2517SOL     OW19186   4.413   3.199   6.468  0.0462 -0.1171  0.5445
 2517SOL    HW119187   4.503   3.203   6.437 -0.0399 -1.7457  0.0801
 2517SOL    HW219188   4.390   3.291   6.477 -5.0781 -1.0832 -2.2493
 2518SOL     OW19189   0.344   4.165   6.952 -0.3064 -0.2879 -0.5108
 2518SOL    HW119190   0.294   4.126   6.879  0.5134 -1.0592 -0.6645
 2518SOL    HW219191   0.426   4.118   6.937 -0.1519  0.6213 -2.4855
 2519SOL     OW19192   4.515   4.099   0.426 -0.0186  0.0950  0.0783
 2519SOL    HW119193   4.450   4.062   0.367  0.8297 -0.0422 -0.7589
 2519SOL    HW219194   4.597   4.069   0.386 -0.0518 -2.1165  1.6040
 2520SOL     OW19195   0.122   0.030  15.913  0.2737 -0.0779  0.3325
 2520SOL    HW119196   0.091   4.677  15.907 -2.4124  1.1091 -3.0640
 2520SOL    HW219197   0.048   0.076  15.953  0.7024  1.0249 -0.1254
 2521SOL     OW19198   0.030   1.242   3.806  0.3091  0.1310  0.1824
 2521SOL    HW119199   0.066   1.314   3.857  1.5230 -0.4943  0.1926
 2521SOL    HW219200   4.705   1.197   3.863  0.2615 -0.2590 -0.1747
 2522SOL     OW19201   0.535   3.728   5.478 -0.4488  0.2127  0.1880
 2522SOL    HW119202   0.462   3.746   5.419 -1.2441  1.3722  1.5465
 2522SOL    HW219203   0.571   3.817   5.475  1.6872 -0.6838 -1.3746
 2523SOL     OW19204   4.036   2.862   4.262  0.2851  0.0978  0.2064
 2523SOL    HW119205   4.113   2.909   4.293  0.7812  1.3778 -2.9480
 2523SOL    HW219206   3.986   2.916   4.200 -1.0195  0.3526  1.4790
 2524SOL     OW19207   1.369   2.136  10.139 -0.7722 -0.0497 -0.4145
 2524SOL    HW119208   1.429   2.208  10.120  0.9945 -1.3922  0.1075
 2524SOL    HW219209   1.288   2.186  10.131 -0.0101  1.0792 -0.9501
 2525SOL     OW19210   1.626   4.239   2.369 -0.1402 -0.8700  0.5732
 2525SOL    HW119211   1.577   4.302   2.421 -0.5201  2.4500 -3.7661
 2525SOL    HW219212   1.712   4.278   2.382  0.0687 -1.3806  0.7128
 2526SOL     OW19213   1.489   4.212  16.987  0.7039  0.8089 -0.1152
 2526SOL    HW119214   1.485   4.183  17.078 -1.0335  0.7650 -0.1999
 2526SOL    HW219215   1.561   4.274  16.989 -0.7844  2.5479 -1.0029
 2527SOL     OW19216   0.232   0.571   4.379  0.4585  0.3116  0.4386
 2527SOL    HW119217   0.257   0.479   4.368  1.2224  0.7943 -1.8027
 2527SOL    HW219218   0.214   0.598   4.289  1.2336  0.5196  0.3419
 2528SOL     OW19219   4.104   4.213   2.688  0.0677 -0.3676 -0.2972
 2528SOL    HW119220   4.023   4.262   2.685 -0.0365 -0.6738 -2.8986
 2528SOL    HW219221   4.132   4.223   2.779 -1.5167 -0.2209  0.1682
 2529SOL     OW19222   4.110   0.664  14.967  0.1743  0.2564  0.1334
 2529SOL    HW119223   4.030   0.716  14.981 -1.0405 -0.6613 -3.4364
 2529SOL    HW219224   4.075   0.607  14.899 -0.1432  0.9220 -0.2631
 2530SOL     OW19225   2.341   0.018  12.074 -0.3802  0.8602 -0.0729
 2530SOL    HW119226   2.340   4.737  12.168 -2.7131 -1.7940 -0.6323
 2530SOL    HW219227   2.394   4.677  12.057  0.9171  1.2307  2.1880
 2531SOL     OW19228   4.545   4.083   1.832  0.6918  0.3629 -0.4157
 2531SOL    HW119229   4.455   4.083   1.865  1.1519 -1.7098  0.8281
 2531SOL    HW219230   4.583   4.027   1.899 -0.8022  0.1145  0.2187
 2532SOL     OW19231   1.094   2.352   2.064  0.5476  0.8915 -0.2349
 2532SOL    HW119232   1.066   2.383   1.978  0.5209  1.0338 -0.1736
 2532SOL    HW219233   1.097   2.259   2.040 -1.7986  0.6800  0.2252
 2533SOL     OW19234   0.929   1.247  13.509 -0.2849  0.7681 -0.0208
 2533SOL    HW119235   0.984   1.293  13.572  1.2873 -0.5165 -0.4393
 2533SOL    HW219236   0.862   1.199  13.557  1.6893 -3.0104 -0.9796
 2534SOL     OW19237   4.580   0.093  10.756 -0.2575 -0.0457 -0.2324
 2534SOL    HW119238   4.666   0.062  10.786  1.4891  2.5442 -2.5017
 2534SOL    HW219239   4.521   0.028  10.793 -0.5700 -1.2584 -2.9293
 2535SOL     OW19240   2.505   2.120   2.072 -0.2235 -0.1699  0.3199
 2535SOL    HW119241   2.460   2.063   2.134  0.4397 -0.6126  0.4006
 2535SOL    HW219242   2.583   2.142   2.123  1.8382  2.2793 -3.9111
 2536SOL     OW19243   1.323   1.412   5.217  0.1590 -0.4871 -0.0622
 2536SOL    HW119244   1.249   1.379   5.166  0.0613 -1.0906  0.4717
 2536SOL    HW219245   1.291   1.502   5.226 -0.9750 -0.9579  0.5852
 2537SOL     OW19246   3.376   2.306  16.543  0.1284  0.7465 -0.1192
 2537SOL    HW119247   3.343   2.385  16.585 -1.0742  0.1065  0.1290
 2537SOL    HW219248   3.321   2.239  16.584 -0.2977  0.9243 -0.4017
 2538SOL     OW19249   1.272   1.874   2.048 -0.4632  0.2331  0.1093
 2538SOL    HW119250   1.292   1.791   2.004  0.2716 -0.0214  0.9245
 2538SOL    HW219251   1.355   1.888   2.092 -0.4333 -0.7925  0.3852
 2539SOL     OW19252   1.363   0.150   6.275 -0.1771  0.4001  0.1054
 2539SOL    HW119253   1.319   0.146   6.360  1.3767 -0.8568  0.8663
 2539SOL    HW219254   1.290   0.158   6.214 -0.1304  1.4915  0.1959
 2540SOL     OW19255   1.392   2.323   0.008 -0.7563 -0.3544 -0.1878
 2540SOL    HW119256   1.423   2.268  17.682 -0.9617 -1.0051  0.2185
 2540SOL    HW219257   1.347   2.261   0.065 -0.4656 -0.2754  0.1265
 2541SOL     OW19258   2.504   4.246   5.155  0.5918 -0.2843  0.0082
 2541SOL    HW119259   2.460   4.287   5.081  2.1294  1.0556 -0.1503
 2541SOL    HW219260   2.435   4.189   5.189 -0.9665  1.6281  0.0390
 2542SOL     OW19261   2.042   2.587   5.259  0.1499  0.1492  0.4392
 2542SOL    HW119262   2.032   2.667   5.208  2.0031 -0.6320 -1.1384
 2542SOL    HW219263   2.104   2.532   5.211 -1.8582 -2.1019  0.4430
 2543SOL     OW19264   2.488   4.660  17.300  0.0983  0.4118 -0.1528
 2543SOL    HW119265   2.407   4.670  17.249  0.9514  0.5323 -1.4977
 2543SOL    HW219266   2.513   4.568  17.302  1.6179  0.8100 -1.3167
 2544SOL     OW19267   4.040   1.464   8.235  0.6089  0.1293 -0.1897
 2544SOL    HW119268   4.044   1.432   8.145  0.5196 -2.6575  0.8203
 2544SOL    HW219269   4.131   1.485   8.255  1.5931 -3.3274 -1.0676
 2545SOL     OW19270   3.125   1.427  15.377  0.0978 -0.3219 -0.2930
 2545SOL    HW119271   3.208   1.421  15.424 -0.1049 -1.4124 -0.0886
 2545SOL    HW219272   3.130   1.493  15.308 -0.1655 -0.0698 -0.0702
 2546SOL     OW19273   4.674   3.699   6.983  0.2384 -0.8308  0.2626
 2546SOL    HW119274   4.589   3.657   6.994 -0.2843  0.1315 -0.0977
 2546SOL    HW219275   4.646   3.785   6.953 -1.6767 -0.3249  3.4944
 2547SOL     OW19276   4.362   1.133   8.126 -0.1256 -0.6627  0.6998
 2547SOL    HW119277   4.370   1.228   8.122 -0.2726 -0.6519  0.6550
 2547SOL    HW219278   4.447   1.097   8.102 -0.4447 -1.5945  0.9706
 2548SOL     OW19279   3.874   4.517   3.710  0.1044  0.4698 -0.1548
 2548SOL    HW119280   3.873   4.421   3.705 -3.7438  0.5537 -1.2288
 2548SOL    HW219281   3.793   4.549   3.751  0.1999 -2.4757  2.3297
 2549SOL     OW19282   0.330   0.577   9.155  0.0426  0.6329  0.7447
 2549SOL    HW119283   0.375   0.556   9.237  1.3924 -1.2160 -0.4566
 2549SOL    HW219284   0.347   0.671   9.148 -0.5445  0.6281 -0.7413
 2550SOL     OW19285   1.916   2.537   1.652 -0.2613 -0.3906 -0.6280
 2550SOL    HW119286   1.925   2.444   1.672  2.5723  0.6745  3.0893
 2550SOL    HW219287   2.009   2.560   1.657 -0.2075 -0.6747 -0.3354
 2551SOL     OW19288   1.405   1.929   1.628  0.2136 -0.7623 -0.6606
 2551SOL    HW119289   1.454   1.985   1.568 -1.4537 -0.5122 -1.7769
 2551SOL    HW219290   1.336   1.991   1.650  0.6390  0.0811 -1.7136
 2552SOL     OW19291   3.160   1.006   4.076 -0.4198  0.4060 -0.9212
 2552SOL    HW119292   3.068   1.033   4.070 -0.8830 -0.7799  1.0282
 2552SOL    HW219293   3.184   1.090   4.036  3.1412  1.1938  2.8951
 2553SOL     OW19294   3.030   3.073  10.751  0.3777 -0.4518  0.2719
 2553SOL    HW119295   2.941   3.039  10.738  0.6382 -1.0809  0.1547
 2553SOL    HW219296   3.067   3.037  10.671 -0.1968 -5.3958  2.2482
 2554SOL     OW19297   2.131   4.643   2.611  0.4660 -0.3044  0.3959
 2554SOL    HW119298   2.125   4.734   2.580 -0.9031 -0.3745  0.4593
 2554SOL    HW219299   2.127   4.606   2.523 -0.2799  0.9976 -0.1241
 2555SOL     OW19300   2.523   4.674   0.994  0.2561 -0.0717  0.3823
 2555SOL    HW119301   2.531   4.729   0.916  2.4783  0.6061  1.0839
 2555SOL    HW219302   2.468   4.736   1.041 -0.5835  0.3846 -1.2296
 2556SOL     OW19303   3.041   0.098  12.668 -0.2551 -0.1277  0.0325
 2556SOL    HW119304   3.021   0.096  12.574 -1.6133  1.0182  0.2916
 2556SOL    HW219305   2.990   0.169  12.705 -0.8643 -0.7245  0.3488
 2557SOL     OW19306   3.775   3.897  10.040 -0.0571  0.2079  0.2409
 2557SOL    HW119307   3.778   3.917   9.946 -2.4396 -1.0272 -0.0829
 2557SOL    HW219308   3.683   3.871  10.049  0.0119 -0.3607 -0.7483
 2558SOL     OW19309   4.194   0.686  15.587  0.2223 -0.2720  0.2438
 2558SOL    HW119310   4.167   0.763  15.638 -1.1113 -2.3156  2.6427
 2558SOL    HW219311   4.281   0.675  15.625 -0.6562  0.2790  2.4297
 2559SOL     OW19312   0.846   1.459   9.197 -0.4958 -0.2205  0.8108
 2559SOL    HW119313   0.929   1.410   9.199 -0.0303  0.4956 -0.9403
 2559SOL    HW219314   0.805   1.422   9.275 -0.3541 -2.6454 -0.2682
 2560SOL     OW19315   3.917   3.257   4.383 -0.3454  0.7413  0.2705
 2560SOL    HW119316   3.925   3.217   4.296 -0.0162  0.8233  0.2637
 2560SOL    HW219317   4.010   3.271   4.399 -0.2483  0.4560 -0.0167
 2561SOL     OW19318   0.246   2.408  11.581 -0.2402  0.1662 -0.4050
 2561SOL    HW119319   0.338   2.413  11.555 -0.8782  2.0963 -2.3194
 2561SOL    HW219320   0.268   2.397  11.673 -0.7670 -1.1049 -0.4373
 2562SOL     OW19321   0.674   3.280   7.822  0.0502 -0.0505  0.0946
 2562SOL    HW119322   0.664   3.196   7.777  2.2579 -0.1800 -0.1802
 2562SOL    HW219323   0.761   3.269   7.861  0.8919 -0.4557 -1.9076
 2563SOL     OW19324   2.557   2.742   0.053 -0.0834 -0.1155  0.1354
 2563SOL    HW119325   2.648   2.714   0.049 -0.9357 -2.7807 -0.7070
 2563SOL    HW219326   2.523   2.683   0.120 -1.6990  1.7404  0.9477
 2564SOL     OW19327   0.740   1.300  16.746 -0.1415  0.3186 -0.4789
 2564SOL    HW119328   0.682   1.290  16.822 -2.1056  0.6758 -1.9427
 2564SOL    HW219329   0.742   1.211  16.711 -1.2674 -0.2230  0.8388
 2565SOL     OW19330   2.021   1.985  11.207 -0.0101  0.2221  0.3124
 2565SOL    HW119331   2.029   2.080  11.196  2.3311 -0.0095 -0.0484
 2565SOL    HW219332   2.113   1.960  11.194  0.0171  0.3664  0.2188
 2566SOL     OW19333   3.980   0.016  16.986 -0.2602  0.3740  0.0037
 2566SOL    HW119334   3.909   4.732  17.047  1.5331 -2.8326  0.9397
 2566SOL    HW219335   4.033   4.674  16.981  1.5202  1.4960  1.2691
 2567SOL     OW19336   1.651   2.853   9.934  0.3502 -0.0301  0.2083
 2567SOL    HW119337   1.612   2.778   9.979  1.5729 -0.6819  0.1837
 2567SOL    HW219338   1.701   2.891  10.005  1.8180  1.4667 -1.6177
 2568SOL     OW19339   3.597   0.848  17.044 -0.7016  0.1799  0.4046
 2568SOL    HW119340   3.627   0.757  17.044 -0.0368  0.4078  2.2105
 2568SOL    HW219341   3.568   0.857  16.953  1.3046 -1.0268 -0.3649
 2569SOL     OW19342   1.856   3.350   2.641 -0.1729 -0.5104 -0.0896
 2569SOL    HW119343   1.897   3.330   2.725  1.3810  2.4111 -0.1577
 2569SOL    HW219344   1.767   3.362   2.675 -0.3185  0.7593 -0.9180
 2570SOL     OW19345   1.771   0.982   5.293 -0.2270 -0.1637  0.1987
 2570SOL    HW119346   1.777   0.899   5.339 -0.5483 -0.3322 -0.0623
 2570SOL    HW219347   1.801   0.952   5.207 -0.5030  2.7698 -0.9200
 2571SOL     OW19348   3.009   1.265   2.860  0.0933  0.1096  0.6864
 2571SOL    HW119349   2.942   1.301   2.803 -0.1067 -1.8509 -0.3126
 2571SOL    HW219350   3.079   1.238   2.801 -0.1480 -0.8588  0.8560
 2572SOL     OW19351   1.416   3.866   3.373 -0.1583  0.2974 -0.5190
 2572SOL    HW119352   1.503   3.842   3.343 -0.0053 -0.1186  0.2685
 2572SOL    HW219353   1.401   3.821   3.456  0.2618  0.3213 -0.4324
 2573SOL     OW19354   1.654   4.266   1.287  0.2197 -0.4361 -0.1674
 2573SOL    HW119355   1.573   4.288   1.331  1.4579 -0.7829  2.3059
 2573SOL    HW219356   1.716   4.248   1.358  0.4858 -2.9204 -1.0255
 2574SOL     OW19357   3.875   1.124   9.908  0.4085  0.1803  0.2243
 2574SOL    HW119358   3.882   1.196   9.846  0.7356 -0.1578 -0.1288
 2574SOL    HW219359   3.943   1.062   9.881 -0.6142 -1.4328  1.3484
 2575SOL     OW19360   2.771   4.247   8.207 -0.0896 -0.2871  0.1542
 2575SOL    HW119361   2.733   4.161   8.191 -0.8186 -0.1302  1.0753
 2575SOL    HW219362   2.746   4.284   8.122 -1.1855  0.8662  0.9856
 2576SOL     OW19363   0.019   3.702   4.205  0.4309  0.3919 -0.1846
 2576SOL    HW119364   4.713   3.788   4.203  0.8396  0.5440 -2.6696
 2576SOL    HW219365   0.109   3.715   4.177  0.4623 -0.9656 -0.7167
 2577SOL     OW19366   3.309   4.122   6.930  0.2234  0.4760 -0.5258
 2577SOL    HW119367   3.227   4.110   6.978 -0.4384  0.6914 -1.5970
 2577SOL    HW219368   3.272   4.129   6.842  2.1920 -1.7350 -1.5283
 2578SOL     OW19369   2.537   4.427   7.239  0.3707  0.3083  0.0380
 2578SOL    HW119370   2.574   4.359   7.183 -0.4473  2.2439 -2.8976
 2578SOL    HW219371   2.620   4.472   7.258 -0.3862  0.8255  2.0820
 2579SOL     OW19372   1.896   4.186  17.355  0.2057 -0.2751 -0.0897
 2579SOL    HW119373   1.925   4.097  17.376  1.6836  0.1425 -0.4006
 2579SOL    HW219374   1.829   4.192  17.423  0.5989 -0.1994  0.2864
 2580SOL     OW19375   4.098   0.487   5.169 -0.0154  0.8811 -0.0565
 2580SOL    HW119376   4.169   0.497   5.107 -1.5419  1.0498 -1.7849
 2580SOL    HW219377   4.053   0.417   5.122  0.2159  1.8532 -1.6879
 2581SOL     OW19378   0.608   2.669  11.320 -0.6072  0.6473  0.3367
 2581SOL    HW119379   0.654   2.590  11.348 -0.4465  0.9657  0.9631
 2581SOL    HW219380   0.598   2.714  11.404 -0.9926  0.6238  0.3029
 2582SOL     OW19381   0.036   2.163   9.154  0.0969 -0.3740  0.1620
 2582SOL    HW119382   4.710   2.103   9.192  1.0091 -1.2904  0.2341
 2582SOL    HW219383   0.118   2.135   9.196  1.4405  1.2275 -1.3608
 2583SOL     OW19384   1.634   1.886  10.245 -0.1034  0.2176  0.1233
 2583SOL    HW119385   1.635   1.940  10.325 -2.5126  0.0112  0.2821
 2583SOL    HW219386   1.623   1.799  10.282  1.5413 -1.0577 -2.4191
 2584SOL     OW19387   0.520   0.465   4.665  0.3973  0.7161 -0.1238
 2584SOL    HW119388   0.434   0.501   4.686  0.5215  0.8288  0.1803
 2584SOL    HW219389   0.549   0.525   4.595 -1.1231 -0.9584 -2.1860
 2585SOL     OW19390   1.746   2.229   6.336  0.0335 -0.3131 -0.1913
 2585SOL    HW119391   1.772   2.139   6.317  1.5094 -0.1326  0.9302
 2585SOL    HW219392   1.754   2.269   6.250 -0.2241 -1.1208 -0.5840
 2586SOL     OW19393   0.131   0.394   6.941 -0.1366  0.4769 -0.0712
 2586SOL    HW119394   0.181   0.313   6.928 -0.6095 -0.0776  1.4885
 2586SOL    HW219395   0.144   0.432   6.854  2.1964 -0.4278 -0.1284
 2587SOL     OW19396   2.380   3.472   8.701 -0.2215 -0.0855 -0.0513
 2587SOL    HW119397   2.422   3.491   8.785  1.1793 -0.6900 -0.6141
 2587SOL    HW219398   2.293   3.498   8.731 -1.0193 -0.5861 -1.9018
 2588SOL     OW19399   0.836   1.086   2.434  0.2676 -0.0218 -0.2512
 2588SOL    HW119400   0.829   1.169   2.480 -0.9311  0.7811 -1.8881
 2588SOL    HW219401   0.925   1.080   2.400  0.5291 -1.0368  0.6216
 2589SOL     OW19402   1.806   3.274   3.775  0.3558 -0.0892 -0.6475
 2589SOL    HW119403   1.714   3.299   3.783  0.0966 -1.3192  0.2064
 2589SOL    HW219404   1.836   3.254   3.864 -0.9224 -1.6847 -0.5733
 2590SOL     OW19405   2.037   1.506  13.887 -0.2487 -0.6159 -0.3773
 2590SOL    HW119406   1.973   1.495  13.957 -0.5440 -0.9593 -0.6997
 2590SOL    HW219407   2.062   1.418  13.860  1.4429 -1.0127  2.4096
 2591SOL     OW19408   2.758   2.371  15.587  0.1576  0.0756 -0.4889
 2591SOL    HW119409   2.707   2.402  15.662 -2.2308  0.6920 -2.3543
 2591SOL    HW219410   2.844   2.374  15.627 -0.5900 -0.8158  1.1823
 2592SOL     OW19411   0.706   0.648   5.299  0.0948 -0.6180  0.2201
 2592SOL    HW119412   0.753   0.613   5.224  0.2745  0.3463 -0.1241
 2592SOL    HW219413   0.774   0.700   5.343 -0.2828 -0.6997  0.9088
 2593SOL     OW19414   3.906   1.966  13.611 -0.4619 -0.0400 -1.2073
 2593SOL    HW119415   3.981   2.016  13.644 -1.8366  1.3336 -0.1824
 2593SOL    HW219416   3.862   2.043  13.574  1.6048  1.5843 -0.3356
 2594SOL     OW19417   3.410   2.831   4.350  0.0951 -0.6328  0.0830
 2594SOL    HW119418   3.460   2.909   4.327 -2.2951  1.5979  2.3707
 2594SOL    HW219419   3.367   2.867   4.427  0.0100 -0.6856  0.0605
 2595SOL     OW19420   3.301   3.203   6.334  0.0154  0.5324 -0.0929
 2595SOL    HW119421   3.299   3.298   6.340  1.1947  0.6170 -0.8355
 2595SOL    HW219422   3.381   3.191   6.282 -0.8667  0.5575 -1.4584
 2596SOL     OW19423   0.208   2.205   4.166 -0.5628  0.1825  0.7973
 2596SOL    HW119424   0.265   2.258   4.222 -0.9296  4.0554 -2.5205
 2596SOL    HW219425   0.215   2.117   4.204  0.7159  0.9041  2.2523
 2597SOL     OW19426   2.988   0.987  12.754  0.5435 -0.4570  0.3404
 2597SOL    HW119427   2.994   1.065  12.700 -0.5780 -1.2257 -0.8617
 2597SOL    HW219428   2.926   0.939  12.701  0.6528 -2.1235  1.7104
 2598SOL     OW19429   1.020   1.372  16.750  0.0284  0.1824  0.6165
 2598SOL    HW119430   0.925   1.368  16.759 -0.1016 -2.8714 -2.2158
 2598SOL    HW219431   1.037   1.292  16.800 -1.2515 -0.2236  0.3819
 2599SOL     OW19432   2.107   0.933   7.392 -0.0833  0.2074  0.3769
 2599SOL    HW119433   2.091   0.940   7.487  1.1213 -2.6931  0.7813
 2599SOL    HW219434   2.094   1.024   7.365 -0.2836  0.5337  1.5429
 2600SOL     OW19435   1.880   1.557   2.166 -0.2730  0.2688  0.4062
 2600SOL    HW119436   1.917   1.627   2.112 -1.0393 -0.2013 -0.7309
 2600SOL    HW219437   1.929   1.580   2.245 -0.9537  0.6623  0.7161
 2601SOL     OW19438   1.491   3.707  15.070 -0.1679  0.2166  0.5327
 2601SOL    HW119439   1.520   3.674  14.984  1.1220  0.9027  0.7003
 2601SOL    HW219440   1.399   3.723  15.048 -0.2397 -1.6846 -0.5718
 2602SOL     OW19441   1.627   4.531   3.562 -0.6351 -0.2747 -0.6304
 2602SOL    HW119442   1.564   4.603   3.553 -3.1891 -2.4957 -0.5094
 2602SOL    HW219443   1.709   4.570   3.592 -0.3513 -1.8081  0.5714
 2603SOL     OW19444   2.739   2.483  15.322  0.0746 -0.4142  0.0010
 2603SOL    HW119445   2.692   2.499  15.404 -3.1586 -0.9025 -1.7269
 2603SOL    HW219446   2.818   2.440  15.353  1.4292  0.7002 -1.9069
 2604SOL     OW19447   3.315   2.068   7.713 -0.2856 -0.7915 -0.3929
 2604SOL    HW119448   3.358   2.135   7.766  2.4441 -2.3471 -0.6801
 2604SOL    HW219449   3.317   1.993   7.771  0.8359 -0.1888  0.3447
 2605SOL     OW19450   2.319   0.634   7.134 -0.2373  0.2751 -0.1632
 2605SOL    HW119451   2.397   0.676   7.098  2.4039 -1.2502  3.8141
 2605SOL    HW219452   2.250   0.701   7.144  1.5489  2.3581 -1.7613
 2606SOL     OW19453   4.239   3.100  16.904  0.0308 -0.4450  0.2017
 2606SOL    HW119454   4.222   3.186  16.943  1.4751  0.0652 -0.3070
 2606SOL    HW219455   4.225   3.044  16.981 -2.0588 -0.7370 -0.3920
 2607SOL     OW19456   2.839   3.980   6.652  0.5221  0.0933 -0.4077
 2607SOL    HW119457   2.755   3.964   6.608 -0.2184  0.2358  0.9724
 2607SOL    HW219458   2.815   4.044   6.718 -3.1817 -0.3845 -1.2910
 2608SOL     OW19459   0.938   1.412   4.401  0.1164  0.0530  0.0401
 2608SOL    HW119460   0.863   1.423   4.460 -0.3772  1.9042 -0.9089
 2608SOL    HW219461   1.012   1.382   4.453 -0.3748 -0.7093  0.2930
 2609SOL     OW19462   0.739   0.435  12.889  0.2991  0.5191 -0.3068
 2609SOL    HW119463   0.684   0.401  12.818 -2.9954  3.8055  0.6655
 2609SOL    HW219464   0.784   0.355  12.917  0.3774 -0.4923 -3.3309
 2610SOL     OW19465   3.582   3.966  17.260  0.0428  0.0705 -0.0404
 2610SOL    HW119466   3.607   3.986  17.350 -2.0510 -1.0392  0.7912
 2610SOL    HW219467   3.511   3.904  17.277 -0.8622  0.6744 -1.6245
 2611SOL     OW19468   0.262   1.466   5.927  0.1748  0.2264 -0.2423
 2611SOL    HW119469   0.206   1.391   5.946 -0.3820  0.0577 -2.5265
 2611SOL    HW219470   0.187   1.525   5.935  2.2226  2.5908  1.1230
 2612SOL     OW19471   2.815   4.079   9.000  0.6151  0.0366  0.3209
 2612SOL    HW119472   2.815   4.169   9.033 -0.9183  0.4900 -0.9062
 2612SOL    HW219473   2.723   4.070   8.973  1.0601 -0.7815 -0.9312
 2613SOL     OW19474   2.409   2.374   2.115 -0.2582 -0.6139  0.0564
 2613SOL    HW119475   2.325   2.357   2.073  0.3221 -1.3300 -0.8041
 2613SOL    HW219476   2.458   2.297   2.086 -0.6099 -0.0502 -2.0110
 2614SOL     OW19477   0.078   4.416   0.816  0.2924 -0.3186  0.2073
 2614SOL    HW119478   4.724   4.388   0.805  0.5719 -0.3585 -1.9606
 2614SOL    HW219479   0.123   4.338   0.783  1.6871  0.1970  0.8850
 2615SOL     OW19480   3.941   1.574  17.442  0.0761  0.0237 -0.0997
 2615SOL    HW119481   3.968   1.618  17.362  0.2545 -0.1741 -0.1496
 2615SOL    HW219482   4.009   1.600  17.504  0.5549  1.2032 -1.1293
 2616SOL     OW19483   2.838   0.834   2.290  0.3418 -0.4107  0.1742
 2616SOL    HW119484   2.832   0.806   2.381 -2.5500 -0.3761  0.0030
 2616SOL    HW219485   2.766   0.897   2.286  2.2762  1.6640 -2.5440
 2617SOL     OW19486   0.209   0.289   4.279 -0.3820 -0.2433  0.6075
 2617SOL    HW119487   0.162   0.236   4.343 -0.9621 -2.3625 -1.5451
 2617SOL    HW219488   0.297   0.297   4.315 -0.0035  0.5591 -0.4995
 2618SOL     OW19489   3.178   0.497   8.884  0.2674 -0.3434 -0.5405
 2618SOL    HW119490   3.113   0.536   8.943 -0.6172  0.3861 -2.0051
 2618SOL    HW219491   3.185   0.575   8.829 -1.5371  0.6472  0.6318
 2619SOL     OW19492   0.268   0.008   9.683 -0.4700  0.0631 -0.3854
 2619SOL    HW119493   0.253   4.714   9.593 -0.7874  1.1895 -0.7274
 2619SOL    HW219494   0.337   4.690   9.718  0.1294  0.6428 -0.6461
 2620SOL     OW19495   2.491   0.417   5.748  0.3706  0.1679  0.4715
 2620SOL    HW119496   2.585   0.425   5.766  1.1253 -0.7060 -3.0744
 2620SOL    HW219497   2.490   0.502   5.704  0.9685  0.2133  0.5482
 2621SOL     OW19498   0.136   1.162   1.926  0.3241  0.3465 -0.0112
 2621SOL    HW119499   0.077   1.160   2.001  1.4479 -1.0561  0.8288
 2621SOL    HW219500   0.135   1.074   1.890  1.1973  0.2924  0.0856
 2622SOL     OW19501   2.100   0.056   8.058 -0.1303 -0.0512 -0.2162
 2622SOL    HW119502   2.049   0.102   7.992 -0.8278 -2.1983 -1.1630
 2622SOL    HW219503   2.184   0.101   8.043 -0.9257  1.3606 -0.4012
 2623SOL     OW19504   0.756   2.695   5.586 -0.0015  0.3434 -0.7434
 2623SOL    HW119505   0.746   2.784   5.619 -2.4587 -0.2605  0.1754
 2623SOL    HW219506   0.698   2.698   5.510  1.0970 -3.5488 -1.7651
 2624SOL     OW19507   0.626   2.572   9.358  0.4171 -0.3844  0.3089
 2624SOL    HW119508   0.604   2.591   9.267 -0.1111  0.1671  0.5573
 2624SOL    HW219509   0.554   2.603   9.413  1.2413  0.9184  0.6524
 2625SOL     OW19510   4.617   0.467   9.704 -0.0186  0.4662 -0.2564
 2625SOL    HW119511   4.666   0.412   9.766 -1.7500 -1.8371 -0.9254
 2625SOL    HW219512   4.541   0.414   9.680 -0.2050 -0.0522  1.4720
 2626SOL     OW19513   4.702   4.363   6.082  0.1085 -0.2739 -0.4947
 2626SOL    HW119514   0.057   4.366   6.056 -0.8877 -0.4678 -4.0726
 2626SOL    HW219515   4.670   4.445   6.045 -0.8281 -1.4296 -2.2968
 2627SOL     OW19516   0.429   0.172  16.474 -0.1663 -0.0907  0.0872
 2627SOL    HW119517   0.459   0.146  16.387 -1.3669  1.5023 -0.8060
 2627SOL    HW219518   0.480   0.114  16.532 -1.4204 -0.9182  0.3673
 2628SOL     OW19519   2.191   1.203   0.148  0.0216 -0.4374 -0.2038
 2628SOL    HW119520   2.273   1.154   0.152  1.2197  1.5479 -0.4175
 2628SOL    HW219521   2.195   1.240   0.059 -4.1402 -2.1791 -1.1107
 2629SOL     OW19522   1.510   1.934  15.117  0.5489  0.1693  0.3803
 2629SOL    HW119523   1.577   2.001  15.105  1.8698 -1.0785  0.7834
 2629SOL    HW219524   1.426   1.978  15.109  0.2248 -0.7010 -1.0288
 2630SOL     OW19525   3.294   1.540  14.005 -0.4770 -0.1549  0.1220
 2630SOL    HW119526   3.219   1.503  13.960 -0.6957  1.9075 -1.1920
 2630SOL    HW219527   3.309   1.622  13.958  0.5855 -0.5683 -0.2581
 2631SOL     OW19528   1.446   1.730   1.795  0.0412  0.3998 -0.2712
 2631SOL    HW119529   1.421   1.817   1.763  0.4816  0.7023  0.2086
 2631SOL    HW219530   1.533   1.711   1.762 -0.9772 -1.6252 -1.7375
 2632SOL     OW19531   1.099   2.041   0.618 -0.1527 -0.1047 -0.3352
 2632SOL    HW119532   1.074   2.057   0.709 -0.5146 -0.9916 -0.2836
 2632SOL    HW219533   1.182   1.995   0.632 -0.3058 -0.2486  0.1236
 2633SOL     OW19534   2.907   0.728   7.339 -0.0436  0.0348  0.2811
 2633SOL    HW119535   2.903   0.704   7.246 -0.3942 -1.2006  0.6206
 2633SOL    HW219536   2.924   0.821   7.324  2.3294 -0.5069 -0.4265
 2634SOL     OW19537   0.887   0.193   7.199 -0.1903 -0.5898 -0.0671
 2634SOL    HW119538   0.866   0.100   7.199 -0.5805 -0.5018  0.6518
 2634SOL    HW219539   0.815   0.222   7.255 -0.1355  0.4800 -0.5478
 2635SOL     OW19540   1.180   3.811   6.939  0.4136  0.2023  0.5881
 2635SOL    HW119541   1.255   3.791   6.994 -0.0922 -1.2360  0.7476
 2635SOL    HW219542   1.194   3.750   6.866  0.8020 -0.5682  1.3026
 2636SOL     OW19543   0.179   0.697   6.084 -0.2217 -0.3481  0.5515
 2636SOL    HW119544   0.165   0.663   5.995  0.6126  0.1387  0.2264
 2636SOL    HW219545   0.122   0.644   6.139  4.0481 -2.7174  2.6326
 2637SOL     OW19546   0.213   4.382   1.102 -0.1213 -0.6274 -0.2030
 2637SOL    HW119547   0.192   4.289   1.097  1.1142 -0.9509  0.7396
 2637SOL    HW219548   0.171   4.419   1.025 -2.4520 -0.7144  1.0125
 2638SOL     OW19549   3.311   2.169   8.011 -0.4007 -0.0733  0.2406
 2638SOL    HW119550   3.281   2.089   8.052  0.9092 -0.4624  0.4261
 2638SOL    HW219551   3.406   2.157   8.013 -0.8295 -3.1402  1.1680
 2639SOL     OW19552   1.003   2.041   2.921  0.1066  0.2208  0.3148
 2639SOL    HW119553   1.007   1.964   2.865  1.4947  0.3460  0.2403
 2639SOL    HW219554   0.953   2.098   2.863  0.7963  1.2934  0.7830
 2640SOL     OW19555   0.870   0.799   3.505  0.0293  0.3914 -0.0365
 2640SOL    HW119556   0.865   0.704   3.500  1.3191  0.5131 -3.9274
 2640SOL    HW219557   0.930   0.800   3.579 -0.6586  0.4527  0.5148
 2641SOL     OW19558   0.980   4.196   9.152  0.1688  0.4538  0.0185
 2641SOL    HW119559   0.996   4.286   9.179 -1.7582  1.0448 -0.8676
 2641SOL    HW219560   0.916   4.155   9.210  1.3597  2.7467  2.9235
 2642SOL     OW19561   4.475   1.383   1.866  0.0951  0.1979  0.1304
 2642SOL    HW119562   4.545   1.349   1.811 -0.7936 -0.2201 -0.7301
 2642SOL    HW219563   4.406   1.399   1.802  0.4849  0.0404 -0.3277
 2643SOL     OW19564   1.489   0.489   6.243  0.0291  0.5104  0.3779
 2643SOL    HW119565   1.395   0.501   6.227  0.0791  2.1378  1.3079
 2643SOL    HW219566   1.509   0.444   6.161  1.2243  0.4234  0.7148
 2644SOL     OW19567   3.480   2.284   7.010  0.1409 -0.4748  0.8002
 2644SOL    HW119568   3.494   2.327   6.926 -1.1350 -1.1122  0.2668
 2644SOL    HW219569   3.385   2.287   7.014  0.2744  0.1081  3.7850
 2645SOL     OW19570   2.222   2.515  16.367  0.0980  0.8964  0.6749
 2645SOL    HW119571   2.194   2.477  16.284 -2.2337 -0.0730  1.9062
 2645SOL    HW219572   2.266   2.594  16.336 -1.4255  1.1837 -0.7524
 2646SOL     OW19573   1.603   3.013   8.649  0.0913  0.5960 -0.9197
 2646SOL    HW119574   1.582   2.929   8.608 -0.4826 -0.2602  1.1534
 2646SOL    HW219575   1.513   3.044   8.651  0.1619  0.7525  0.0071
 2647SOL     OW19576   0.116   1.155  17.010  0.4201  0.5828 -0.2788
 2647SOL    HW119577   0.061   1.229  16.986 -1.0764  0.4320  2.7243
 2647SOL    HW219578   0.130   1.115  16.924 -2.1671 -0.8549 -0.0281
 2648SOL     OW19579   0.524   1.989  10.383  0.4739 -0.3484  0.4060
 2648SOL    HW119580   0.487   1.991  10.295  1.1431  3.5828  0.2317
 2648SOL    HW219581   0.540   1.897  10.403  1.9234 -0.0574  0.5696
 2649SOL     OW19582   0.697   3.617   7.645 -0.5030 -0.4743 -0.6097
 2649SOL    HW119583   0.642   3.693   7.666  3.7699  2.3062  0.4995
 2649SOL    HW219584   0.672   3.561   7.718  0.6313 -0.2041 -0.0196
 2650SOL     OW19585   2.862   0.973  14.588 -0.8619  0.0927 -0.4864
 2650SOL    HW119586   2.919   1.008  14.520  0.5653 -1.6493 -0.1946
 2650SOL    HW219587   2.893   0.883  14.593 -0.9871  0.1261  0.8486
 2651SOL     OW19588   3.561   2.076   2.775 -0.2348  0.5785 -0.6998
 2651SOL    HW119589   3.605   2.120   2.702 -0.7333  1.4969 -0.4464
 2651SOL    HW219590   3.478   2.123   2.777 -0.8444 -0.5474  0.2823
 2652SOL     OW19591   1.747   4.372   7.644  0.0920  0.4276 -0.0452
 2652SOL    HW119592   1.707   4.314   7.708 -0.7935  0.9861 -0.0861
 2652SOL    HW219593   1.735   4.452   7.695  0.2600 -0.0751  0.7786
 2653SOL     OW19594   1.175   2.095   6.454  0.0606  0.6876 -0.1386
 2653SOL    HW119595   1.212   2.048   6.529 -1.8549  0.3261  0.5956
 2653SOL    HW219596   1.147   2.182   6.483  0.6000  0.7339  0.2342
 2654SOL     OW19597   3.900   0.632   4.476  0.1609  0.1729 -0.3748
 2654SOL    HW119598   3.939   0.574   4.540  0.0819 -1.2768 -1.6517
 2654SOL    HW219599   3.971   0.639   4.412  0.5789  0.5696  0.1385
 2655SOL     OW19600   2.474   2.017  16.010  0.4754 -0.3721  0.5784
 2655SOL    HW119601   2.449   1.973  15.929 -0.6393 -0.4630  0.9665
 2655SOL    HW219602   2.483   1.943  16.071 -3.2953 -1.8746 -0.7013
 2656SOL     OW19603   0.459   0.643   1.403 -0.1931  0.2662  0.3767
 2656SOL    HW119604   0.416   0.703   1.464 -1.7648  1.8619 -2.3124
 2656SOL    HW219605   0.532   0.607   1.455 -0.0030  0.0073 -0.0718
 2657SOL     OW19606   3.618   1.172  12.339 -0.1719 -0.0979  0.1891
 2657SOL    HW119607   3.659   1.258  12.353  1.0280 -0.7151  0.4666
 2657SOL    HW219608   3.673   1.124  12.401  2.0756  0.4781 -1.3295
 2658SOL     OW19609   2.977   4.624   6.351  0.0147 -0.1340 -0.1251
 2658SOL    HW119610   3.057   4.634   6.401  1.3583 -0.8673 -2.1281
 2658SOL    HW219611   3.012   4.655   6.267 -0.7363  1.8874  0.3230
 2659SOL     OW19612   1.416   4.427   7.599  0.4072  0.3129  0.1108
 2659SOL    HW119613   1.409   4.362   7.669 -2.8158 -0.2365 -0.7385
 2659SOL    HW219614   1.427   4.509   7.648 -0.5687  0.0869  0.7111
 2660SOL     OW19615   3.411   0.668   6.436 -0.0583 -0.3273  0.1236
 2660SOL    HW119616   3.419   0.756   6.474  0.7336  0.2732 -1.4263
 2660SOL    HW219617   3.422   0.677   6.341  0.0158 -2.6387 -0.0734
 2661SOL     OW19618   3.439   4.080   6.272 -0.4741 -0.1994  0.0403
 2661SOL    HW119619   3.496   4.065   6.197 -0.3973  1.0602 -0.1686
 2661SOL    HW219620   3.372   4.128   6.224 -1.1891 -1.2808 -0.0181
 2662SOL     OW19621   0.861   1.789  10.221  0.2953 -0.0740 -0.1240
 2662SOL    HW119622   0.839   1.805  10.313  1.0169  3.0134 -0.4960
 2662SOL    HW219623   0.943   1.740  10.223 -0.3734 -1.2650 -2.4045
 2663SOL     OW19624   1.523   2.557   3.930 -0.1725  0.5296  0.3862
 2663SOL    HW119625   1.455   2.621   3.910  0.2069  0.2950 -1.6939
 2663SOL    HW219626   1.553   2.540   3.841 -1.5211 -0.0975  0.0520
 2664SOL     OW19627   3.589   4.225   2.930 -0.0660  0.0552  0.6907
 2664SOL    HW119628   3.584   4.204   3.023 -2.0707 -1.4608  0.2345
 2664SOL    HW219629   3.633   4.309   2.931 -1.7355  0.9472 -1.3015
 2665SOL     OW19630   3.720   4.003   4.496  0.5748 -0.4705 -1.1276
 2665SOL    HW119631   3.715   3.992   4.591  3.1880  0.0212 -0.9405
 2665SOL    HW219632   3.811   4.025   4.479  0.2237 -1.4097 -4.2006
 2666SOL     OW19633   3.173   4.721  12.143 -0.5136 -0.0082  0.0440
 2666SOL    HW119634   3.165   4.666  12.066  2.1144 -0.7281  0.3103
 2666SOL    HW219635   3.254   0.033  12.128 -0.5662  0.2422  0.5669
 2667SOL     OW19636   3.941   2.038  10.386 -0.1683  0.1294 -0.1186
 2667SOL    HW119637   3.909   1.995  10.465  0.9566 -1.0990 -0.3252
 2667SOL    HW219638   3.893   2.001  10.312 -0.2649  0.8520 -0.4178
 2668SOL     OW19639   2.621   4.081   4.344  0.0967 -0.0543 -0.2163
 2668SOL    HW119640   2.552   4.145   4.331 -0.4675 -0.5547  0.3177
 2668SOL    HW219641   2.702   4.131   4.358  0.1329  0.0898 -0.9090
 2669SOL     OW19642   0.387   4.483   3.229  0.2794  0.4389 -0.5511
 2669SOL    HW119643   0.458   4.447   3.175  1.7400  1.6627  0.5477
 2669SOL    HW219644   0.341   4.514   3.151 -1.9570 -0.6906  0.3334
 2670SOL     OW19645   1.195   0.371   9.820  0.0271  0.2363  0.2599
 2670SOL    HW119646   1.102   0.391   9.812  0.2172  0.8147 -0.4960
 2670SOL    HW219647   1.201   0.327   9.735  2.3361  2.1710 -0.5701
 2671SOL     OW19648   2.661   4.654   1.706 -0.7814  0.0018  0.1876
 2671SOL    HW119649   2.637   4.606   1.626 -3.0263  1.3241  0.0763
 2671SOL    HW219650   2.756   4.649   1.695 -0.5251  1.9709  1.5789
 2672SOL     OW19651   1.604   2.905   4.359  0.1468  0.8785  0.5242
 2672SOL    HW119652   1.679   2.943   4.314  1.3089 -1.2042  0.7297
 2672SOL    HW219653   1.593   2.828   4.303  0.0819  1.0138  0.3508
 2673SOL     OW19654   1.773   0.460   2.738 -0.2109 -0.3152 -1.3657
 2673SOL    HW119655   1.816   0.457   2.824 -1.5622  1.1206 -0.6147
 2673SOL    HW219656   1.798   0.548   2.709 -2.1582  0.2230 -1.4555
 2674SOL     OW19657   1.645   1.470   2.014  0.5879  0.0932  0.4189
 2674SOL    HW119658   1.736   1.454   2.039  0.2781 -0.5072  1.1582
 2674SOL    HW219659   1.592   1.398   2.048  1.9848 -0.5698  1.1769
 2675SOL     OW19660   0.164   1.512   2.332  0.4990 -0.3311  0.0667
 2675SOL    HW119661   0.253   1.544   2.318  0.8867 -1.5394 -0.2858
 2675SOL    HW219662   0.110   1.581   2.294  1.1641  0.3524  0.3571
 2676SOL     OW19663   2.399   0.003   3.966  0.1245 -0.1084 -0.1991
 2676SOL    HW119664   2.357   0.058   3.900 -1.9710  0.5380  1.6352
 2676SOL    HW219665   2.342   0.013   4.043  0.2983 -5.3048  0.6439
 2677SOL     OW19666   0.311   0.713   2.221 -0.3340  0.1901  0.2802
 2677SOL    HW119667   0.357   0.713   2.305  0.2907  0.9448 -0.0567
 2677SOL    HW219668   0.286   0.622   2.203 -0.2904  0.2774 -0.1990
 2678SOL     OW19669   0.323   0.512  14.855  0.0694 -0.2863 -0.0230
 2678SOL    HW119670   0.237   0.540  14.886 -0.3188 -0.5344 -0.8709
 2678SOL    HW219671   0.294   0.478  14.771  0.3299 -1.1104  0.2238
 2679SOL     OW19672   4.334   4.024  15.482  0.0577  0.3654 -0.2433
 2679SOL    HW119673   4.340   4.119  15.471 -0.6762  0.3224 -1.0643
 2679SOL    HW219674   4.287   4.011  15.399  0.6163 -2.1517 -0.1594
 2680SOL     OW19675   3.200   2.573   4.385  0.4691 -0.1359 -0.1615
 2680SOL    HW119676   3.134   2.547   4.321  0.6940  1.1984 -0.9264
 2680SOL    HW219677   3.213   2.667   4.373 -2.4234  0.0493 -1.8490
 2681SOL     OW19678   0.770   2.836   7.491 -0.1118 -0.1000 -0.2655
 2681SOL    HW119679   0.855   2.800   7.514  0.1643  1.0392  0.5403
 2681SOL    HW219680   0.778   2.931   7.503 -1.7116  0.1795 -1.2649
 2682SOL     OW19681   4.332   0.196  15.640 -0.3543  0.3679 -0.1685
 2682SOL    HW119682   4.265   0.172  15.576  0.6581  0.8120 -1.3878
 2682SOL    HW219683   4.289   0.267  15.688  1.2637 -0.2740  2.2242
 2683SOL     OW19684   2.494   3.113   4.054  0.3187 -0.1482  0.7393
 2683SOL    HW119685   2.518   3.202   4.029 -0.4188 -0.4803 -1.1833
 2683SOL    HW219686   2.535   3.108   4.140  1.7533 -2.5386 -0.0735
 2684SOL     OW19687   1.126   2.678   7.669  0.7058  0.2781  0.6377
 2684SOL    HW119688   1.159   2.612   7.607  0.6088 -0.5294  1.4474
 2684SOL    HW219689   1.052   2.626   7.699  0.9804 -0.0931  0.6775
 2685SOL     OW19690   1.875   2.665   2.525  0.3342 -0.6323 -0.3881
 2685SOL    HW119691   1.971   2.666   2.525  0.3050  2.2233 -1.8196
 2685SOL    HW219692   1.846   2.692   2.613 -0.4914 -0.1404 -0.8171
 2686SOL     OW19693   0.304   3.183   1.499  0.0832  0.3465  0.6065
 2686SOL    HW119694   0.238   3.124   1.534  3.3966 -3.0592  1.1394
 2686SOL    HW219695   0.368   3.119   1.466 -0.4071  1.1765 -1.9541
 2687SOL     OW19696   0.743   4.249   6.241  0.0624 -0.0007  0.1794
 2687SOL    HW119697   0.655   4.229   6.208  1.2572 -2.1018 -1.7750
 2687SOL    HW219698   0.740   4.344   6.247  0.4283  0.1924 -2.4861
 2688SOL     OW19699   1.495   3.575   9.380  0.3827 -0.2536 -0.1303
 2688SOL    HW119700   1.408   3.563   9.418  0.7857 -0.8245  0.6058
 2688SOL    HW219701   1.501   3.664   9.345  1.1644 -0.3070 -0.1287
 2689SOL     OW19702   1.065   2.740   4.388 -0.2966 -0.1285  0.2447
 2689SOL    HW119703   1.159   2.747   4.372 -0.2015 -0.9286  0.4499
 2689SOL    HW219704   1.027   2.774   4.306  0.2461 -0.5557 -0.1847
 2690SOL     OW19705   1.390   2.387  16.816 -1.0779  0.3466  0.4215
 2690SOL    HW119706   1.343   2.470  16.821  0.6464  1.2970  0.6659
 2690SOL    HW219707   1.372   2.363  16.907 -1.3164  0.6728  0.4631
 2691SOL     OW19708   3.459   3.854   4.656  0.2258  0.4958  0.1679
 2691SOL    HW119709   3.524   3.922   4.672  0.8416 -0.5200  2.0792
 2691SOL    HW219710   3.515   3.780   4.633  0.5256  1.6713 -2.7718
 2692SOL     OW19711   3.619   2.438   4.967  0.2713  0.3093  0.4235
 2692SOL    HW119712   3.552   2.410   4.904  1.5523  2.1061 -1.7222
 2692SOL    HW219713   3.571   2.460   5.047 -0.5961 -0.6347  0.1591
 2693SOL     OW19714   2.546   0.248   2.251 -0.1826 -0.0355  0.1717
 2693SOL    HW119715   2.557   0.153   2.252 -1.6433 -0.2221 -1.5861
 2693SOL    HW219716   2.493   0.260   2.172  0.2466  3.0666  0.3465
 2694SOL     OW19717   1.210   3.084   2.569  0.1013 -0.0848 -0.4343
 2694SOL    HW119718   1.157   3.163   2.565 -0.1881 -0.2855 -0.5552
 2694SOL    HW219719   1.182   3.023   2.501 -1.0759 -3.1383  2.7664
 2695SOL     OW19720   0.477   1.163   5.467 -0.2867  0.1431 -0.1002
 2695SOL    HW119721   0.549   1.118   5.422 -1.8859 -1.2760 -1.2185
 2695SOL    HW219722   0.475   1.118   5.551 -0.1255 -0.8340 -0.6215
 2696SOL     OW19723   2.112   3.331   6.980 -0.2345  0.3373  0.2394
 2696SOL    HW119724   2.159   3.298   6.904 -1.3519  0.4537 -0.4942
 2696SOL    HW219725   2.023   3.338   6.944 -1.2406 -0.6699  2.4840
 2697SOL     OW19726   3.415   2.337  17.693  0.4312 -0.2776 -0.0274
 2697SOL    HW119727   3.397   2.431  17.691 -2.2020 -0.8033 -1.5006
 2697SOL    HW219728   3.339   2.305  17.742  0.4267  0.4110  0.4108
 2698SOL     OW19729   0.624   3.483   7.140 -0.2530  0.4095  0.3492
 2698SOL    HW119730   0.667   3.563   7.109 -1.7254  1.2055  0.3037
 2698SOL    HW219731   0.647   3.430   7.064  0.3092 -0.6370  1.2610
 2699SOL     OW19732   2.899   1.889   8.976 -0.3049  0.4113 -0.0235
 2699SOL    HW119733   2.951   1.969   8.970 -0.6125  0.7287  1.5598
 2699SOL    HW219734   2.917   1.842   8.895 -2.4102 -2.5875  1.2210
 2700SOL     OW19735   0.893   1.006   3.852  0.6142  0.9359  0.3616
 2700SOL    HW119736   0.924   1.058   3.778 -1.5474  0.9403 -0.5553
 2700SOL    HW219737   0.960   0.939   3.863 -0.3921 -0.1451 -0.1326
 2701SOL     OW19738   1.802   3.961   5.011 -0.1876 -0.2333  0.1403
 2701SOL    HW119739   1.730   4.021   5.032  1.0217  1.4286 -0.4485
 2701SOL    HW219740   1.780   3.888   5.069 -1.2283  0.6773  0.8721
 2702SOL     OW19741   1.143   2.395   6.506  0.4077  0.1879  0.1276
 2702SOL    HW119742   1.089   2.464   6.468 -1.2081  0.2647  2.5580
 2702SOL    HW219743   1.226   2.398   6.458 -0.1522 -1.1141 -0.9197
 2703SOL     OW19744   3.139   1.225   8.455 -0.0878 -0.5784 -0.2657
 2703SOL    HW119745   3.071   1.259   8.397  0.6596 -1.2116 -1.5208
 2703SOL    HW219746   3.176   1.155   8.400 -0.7466 -1.8273  0.8763
 2704SOL     OW19747   2.700   0.120   7.973 -0.0246  0.0581  0.8338
 2704SOL    HW119748   2.722   0.191   7.912  0.3843 -0.9708 -0.2091
 2704SOL    HW219749   2.711   0.167   8.055  1.7599 -1.4899  1.4979
 2705SOL     OW19750   4.145   1.046   8.017  0.2216  0.2654 -0.9574
 2705SOL    HW119751   4.164   0.965   7.970  2.3488  0.5738 -0.6495
 2705SOL    HW219752   4.231   1.069   8.052 -1.2494  3.5538  0.5225
 2706SOL     OW19753   2.433   2.591  17.375  0.0091 -0.2260 -0.2250
 2706SOL    HW119754   2.421   2.606  17.468  3.0136  0.6569  0.0199
 2706SOL    HW219755   2.466   2.502  17.384  2.6348  0.6585 -1.1805
 2707SOL     OW19756   3.576   2.855   7.256  0.3447  0.1383 -0.1263
 2707SOL    HW119757   3.569   2.835   7.163  0.3105 -4.7681  0.9083
 2707SOL    HW219758   3.668   2.836   7.274 -0.0819  0.6517  2.5500
 2708SOL     OW19759   2.389   3.701   5.658  0.0728 -0.3121  0.8403
 2708SOL    HW119760   2.384   3.698   5.754  1.4885  2.1494  0.9913
 2708SOL    HW219761   2.300   3.674   5.638  0.1258 -0.3818  0.6988
 2709SOL     OW19762   2.738   3.504   9.120 -0.6216 -0.0908  0.2879
 2709SOL    HW119763   2.721   3.598   9.112 -0.5823 -0.1247 -0.1930
 2709SOL    HW219764   2.663   3.467   9.167 -2.2305  2.4045 -0.3081
 2710SOL     OW19765   1.106   0.035   1.748  0.0662 -0.6645 -0.2053
 2710SOL    HW119766   1.038   4.706   1.737 -0.2451 -0.5634  1.0299
 2710SOL    HW219767   1.142   0.000   1.830  0.8741 -1.7396 -1.0111
 2711SOL     OW19768   0.410   1.166  16.170  0.5735  0.4864  0.1963
 2711SOL    HW119769   0.430   1.185  16.078  0.3365 -1.4593 -0.2692
 2711SOL    HW219770   0.365   1.082  16.178  1.9388 -0.4131 -1.5504
 2712SOL     OW19771   1.804   4.116  16.330 -0.4970 -0.4634 -0.0669
 2712SOL    HW119772   1.804   4.195  16.275  0.8438  1.1682  2.2830
 2712SOL    HW219773   1.778   4.146  16.417 -2.1872 -1.2801 -0.3034
 2713SOL     OW19774   2.708   0.652   8.482  0.3183 -0.0216  0.7609
 2713SOL    HW119775   2.717   0.679   8.391 -3.4653 -1.2045  0.0389
 2713SOL    HW219776   2.646   0.711   8.523 -1.5367  1.5437 -4.3449
 2714SOL     OW19777   2.302   2.757   1.403  0.3093 -0.0548 -0.2364
 2714SOL    HW119778   2.322   2.750   1.310  1.4068 -0.2634  0.0162
 2714SOL    HW219779   2.207   2.750   1.406  0.2398  0.8348 -0.3190
 2715SOL     OW19780   3.917   2.317   4.714  0.0466 -0.5298 -0.3907
 2715SOL    HW119781   3.838   2.370   4.704  0.2084 -0.1705  0.2535
 2715SOL    HW219782   3.967   2.354   4.641 -0.4895  0.4303 -0.2820
 2716SOL     OW19783   1.000   4.637  12.515 -0.0600  0.3433  0.1783
 2716SOL    HW119784   0.998   4.718  12.465  0.5477  0.4270  0.2838
 2716SOL    HW219785   0.968   4.574  12.451 -0.4274  0.4229  0.2848
 2717SOL     OW19786   3.566   2.182   3.199  0.0648 -0.1912 -0.1696
 2717SOL    HW119787   3.544   2.127   3.125  0.6454 -0.6575  0.0002
 2717SOL    HW219788   3.564   2.118   3.271 -1.5546  0.1900  0.1160
 2718SOL     OW19789   1.121   3.392   6.605 -0.1865  0.5339 -0.0684
 2718SOL    HW119790   1.054   3.326   6.584 -1.8300  1.1915  3.1288
 2718SOL    HW219791   1.192   3.342   6.645 -1.0409  0.7497  1.7204
 2719SOL     OW19792   1.177   0.379  15.910 -0.0835 -0.3366  0.4469
 2719SOL    HW119793   1.125   0.459  15.901 -0.9205 -0.8908  0.3588
 2719SOL    HW219794   1.108   0.319  15.938  0.9344 -1.7864 -0.1271
 2720SOL     OW19795   3.834   1.308   9.710 -0.5503 -0.2893 -0.1696
 2720SOL    HW119796   3.904   1.290   9.648  2.0742  1.0341  2.4116
 2720SOL    HW219797   3.764   1.265   9.661 -2.0159  0.9861  0.7750
 2721SOL     OW19798   4.034   2.507   5.683 -0.3659  0.3182  0.4072
 2721SOL    HW119799   3.976   2.494   5.759 -2.0441 -1.0305 -1.1049
 2721SOL    HW219800   4.072   2.419   5.685  0.2714  0.5594 -1.9404
 2722SOL     OW19801   2.367   1.032   4.661 -0.1360  0.2184  0.0972
 2722SOL    HW119802   2.342   1.123   4.675  1.3890  0.6803 -0.2646
 2722SOL    HW219803   2.429   1.035   4.588 -0.2993 -0.8120 -0.0912
 2723SOL     OW19804   0.752   1.114  13.107  0.0645 -0.0731 -0.0213
 2723SOL    HW119805   0.751   1.177  13.179 -0.3904  1.0282 -0.9877
 2723SOL    HW219806   0.824   1.061  13.142 -0.7961  0.0828  2.0271
 2724SOL     OW19807   4.555   1.603  14.598  0.3301  0.5081 -0.6432
 2724SOL    HW119808   4.490   1.611  14.529 -0.4119 -0.5960 -0.0859
 2724SOL    HW219809   4.630   1.609  14.539  1.6383 -0.0783  0.9649
 2725SOL     OW19810   2.691   2.286  12.343  0.2384 -0.1289 -0.4021
 2725SOL    HW119811   2.631   2.258  12.273 -1.2753 -2.0186  1.6566
 2725SOL    HW219812   2.768   2.299  12.288  1.6931 -2.3625  1.0887
 2726SOL     OW19813   0.481   1.267  11.708 -0.3202 -0.2284 -0.4434
 2726SOL    HW119814   0.415   1.293  11.772 -0.0244  0.3974 -0.3967
 2726SOL    HW219815   0.461   1.332  11.641  1.9392 -0.6279 -1.5258
 2727SOL     OW19816   3.957   1.423   3.720 -0.0782  0.1664 -0.2565
 2727SOL    HW119817   3.874   1.460   3.750  1.2327  1.1885  2.1244
 2727SOL    HW219818   3.997   1.402   3.804 -0.6670  2.3940  0.5803
 2728SOL     OW19819   3.323   4.604   7.102 -0.0181 -0.0444  0.0092
 2728SOL    HW119820   3.266   4.559   7.040 -0.3177 -0.2692  0.4557
 2728SOL    HW219821   3.386   4.532   7.108  2.2334  1.9245  0.0427
 2729SOL     OW19822   1.627   1.647  11.209 -0.0637  0.1058  0.9127
 2729SOL    HW119823   1.653   1.602  11.289 -0.4067 -1.5512  0.0794
 2729SOL    HW219824   1.703   1.701  11.186 -0.4062  0.8373  1.5034
 2730SOL     OW19825   1.329   1.121   5.118  0.0796 -0.2843  0.3503
 2730SOL    HW119826   1.278   1.159   5.188 -0.4500 -0.0194 -0.1817
 2730SOL    HW219827   1.396   1.075   5.169  0.9187  0.8923  0.2894
 2731SOL     OW19828   4.482   4.048   9.024  0.1374  0.2535  0.2470
 2731SOL    HW119829   4.396   4.008   9.030  0.5191 -0.6450 -0.2981
 2731SOL    HW219830   4.526   3.993   9.089  0.1250  0.5934  0.5406
 2732SOL     OW19831   4.551   0.918  13.298 -0.0929 -0.3394  0.4162
 2732SOL    HW119832   4.606   0.997  13.295 -1.3424  0.4107 -2.8302
 2732SOL    HW219833   4.623   0.856  13.287 -1.5592 -1.6963 -1.5628
 2733SOL     OW19834   2.102   1.914   3.270 -0.0807 -0.1036 -0.1118
 2733SOL    HW119835   2.016   1.888   3.301  0.4865 -1.4356  0.3207
 2733SOL    HW219836   2.096   2.010   3.271 -0.9535 -0.1694  0.9576
 2734SOL     OW19837   2.258   1.261   1.568  0.3298 -0.0532 -0.2057
 2734SOL    HW119838   2.279   1.303   1.485  0.5189  1.6319  0.6917
 2734SOL    HW219839   2.163   1.257   1.558  0.3214 -0.4107  0.0238
 2735SOL     OW19840   1.194   0.319   3.665  1.0762 -0.0396 -0.2386
 2735SOL    HW119841   1.139   0.336   3.588 -0.1121 -0.3207  0.5551
 2735SOL    HW219842   1.271   0.368   3.637 -0.7802  2.9491 -0.1783
 2736SOL     OW19843   3.032   4.563   3.612 -0.1757  0.0479 -0.6862
 2736SOL    HW119844   2.997   4.477   3.586  0.3592  0.0200 -1.3241
 2736SOL    HW219845   2.948   4.588   3.649 -1.9381 -2.9360 -2.5962
 2737SOL     OW19846   0.072   2.331   2.771 -0.2126 -0.1007 -0.1754
 2737SOL    HW119847   0.081   2.426   2.761 -1.2640 -0.0919 -0.9546
 2737SOL    HW219848   0.164   2.303   2.775 -0.4107 -0.6579  0.5227
 2738SOL     OW19849   0.103   3.124   5.313  0.0737 -0.3980  0.4605
 2738SOL    HW119850   0.140   3.129   5.224  0.7563 -0.2664  0.7485
 2738SOL    HW219851   0.150   3.193   5.360 -2.0971  0.0465  1.9591
 2739SOL     OW19852   3.769   1.848  13.843 -0.0665 -0.6171 -0.2192
 2739SOL    HW119853   3.828   1.885  13.777  0.2152 -0.6909 -0.0067
 2739SOL    HW219854   3.816   1.850  13.927 -2.0254 -0.6728  0.8703
 2740SOL     OW19855   1.648   3.268  10.654  0.1551 -0.4638 -0.1292
 2740SOL    HW119856   1.629   3.358  10.678 -0.0406 -0.1948 -1.2717
 2740SOL    HW219857   1.595   3.243  10.578 -0.1396 -0.8782  0.2140
 2741SOL     OW19858   0.281   2.575   7.281 -0.1764  0.5242 -0.6518
 2741SOL    HW119859   0.248   2.490   7.254  1.4912 -0.2503 -0.2407
 2741SOL    HW219860   0.201   2.612   7.320  0.1765  1.7669 -1.0863
 2742SOL     OW19861   0.849   1.477   2.348  0.2511 -0.3569 -0.6645
 2742SOL    HW119862   0.915   1.520   2.293 -0.9495  0.5790 -1.3638
 2742SOL    HW219863   0.784   1.458   2.280 -0.4497  0.5891 -0.2375
 2743SOL     OW19864   3.867   1.720   6.249  0.3007  0.5689 -0.2211
 2743SOL    HW119865   3.921   1.736   6.172 -1.2608  1.0303 -1.2284
 2743SOL    HW219866   3.780   1.749   6.220  0.8621  1.2283 -1.2235
 2744SOL     OW19867   0.272   1.553   1.210 -0.2139 -0.0458 -0.4343
 2744SOL    HW119868   0.198   1.519   1.160 -1.6830  0.3840  1.4506
 2744SOL    HW219869   0.252   1.529   1.300  2.5837  2.3541  0.8475
 2745SOL     OW19870   3.826   4.566  12.439 -0.0845 -0.1859 -0.7829
 2745SOL    HW119871   3.789   4.546  12.525 -1.5428 -2.0906 -1.8562
 2745SOL    HW219872   3.904   4.617  12.460  1.3327 -2.2852 -0.9645
 2746SOL     OW19873   2.530   2.355  12.551  0.0869 -0.1228  0.2224
 2746SOL    HW119874   2.528   2.263  12.578  1.4773 -0.2517 -0.1089
 2746SOL    HW219875   2.598   2.349  12.484 -0.4599 -1.5511 -0.1979
 2747SOL     OW19876   4.262   0.249   0.025 -0.5968  0.0121 -0.4657
 2747SOL    HW119877   4.283   0.173  17.718  1.4373 -0.1997  0.6365
 2747SOL    HW219878   4.306   0.321  17.726 -1.4436 -0.0192 -1.3156
 2748SOL     OW19879   4.211   1.801   8.488  0.0742 -0.1539  0.4054
 2748SOL    HW119880   4.254   1.799   8.403  1.9054 -4.9535  1.4353
 2748SOL    HW219881   4.119   1.787   8.464  0.0359  0.5943  0.0968
 2749SOL     OW19882   1.952   1.034   8.374 -0.3279  0.5234  0.3178
 2749SOL    HW119883   1.915   1.116   8.341 -1.4391  0.5488  1.6296
 2749SOL    HW219884   1.887   1.016   8.442 -2.2524 -0.5396 -1.8410
 2750SOL     OW19885   0.439   0.701   0.914 -0.7532 -0.0475  0.0439
 2750SOL    HW119886   0.466   0.650   0.990  0.3743 -0.3223 -0.5372
 2750SOL    HW219887   0.520   0.753   0.911  0.3565 -1.8311 -0.9402
 2751SOL     OW19888   4.539   0.234  11.167  0.0621  0.5657 -0.2423
 2751SOL    HW119889   4.547   0.330  11.164  2.0649  0.5203  2.8145
 2751SOL    HW219890   4.488   0.225  11.087  0.5967  1.6540 -0.6999
 2752SOL     OW19891   2.832   3.178   0.630  0.2521  0.4258 -0.1248
 2752SOL    HW119892   2.787   3.253   0.667  1.0545 -0.0299  1.7894
 2752SOL    HW219893   2.918   3.216   0.609  0.9104  0.4577  2.6267
 2753SOL     OW19894   2.344   1.705   5.172 -0.4913  0.3685  0.4243
 2753SOL    HW119895   2.297   1.763   5.113  0.6545 -0.2702 -1.1135
 2753SOL    HW219896   2.421   1.694   5.115 -1.4129  2.0746 -1.1459
 2754SOL     OW19897   0.388   4.723   3.407  0.4040  0.0718 -0.2231
 2754SOL    HW119898   0.313   0.006   3.350  0.3800  0.3415 -0.0959
 2754SOL    HW219899   0.402   4.632   3.380 -0.2458 -0.6003  1.6910
 2755SOL     OW19900   3.310   2.395   2.168  0.6124  0.3228 -0.1006
 2755SOL    HW119901   3.231   2.423   2.214 -0.1142  0.4804 -1.4585
 2755SOL    HW219902   3.362   2.469   2.200  3.0231 -1.8242  0.8898
 2756SOL     OW19903   4.581   2.903   4.946 -0.3433  0.5791 -0.9224
 2756SOL    HW119904   4.514   2.968   4.965  0.8929  1.4009  0.6624
 2756SOL    HW219905   4.603   2.882   5.037  0.1263 -0.2837 -1.2393
 2757SOL     OW19906   1.327   1.632   2.215 -0.6272 -0.3325 -0.3069
 2757SOL    HW119907   1.358   1.542   2.225  0.2535 -0.0810 -0.7825
 2757SOL    HW219908   1.405   1.672   2.177 -1.5297  4.0799  2.4113
 2758SOL     OW19909   2.598   4.482   9.477 -0.0954  0.2779 -0.5925
 2758SOL    HW119910   2.621   4.523   9.393 -2.6071 -0.4881 -1.6617
 2758SOL    HW219911   2.534   4.548   9.501  0.8899  0.7012  0.8692
 2759SOL     OW19912   2.277   2.217   4.669 -0.1098 -0.4086 -0.4265
 2759SOL    HW119913   2.334   2.293   4.675 -0.4623 -0.2883  1.3487
 2759SOL    HW219914   2.285   2.176   4.756  2.0011  0.6650 -0.1386
 2760SOL     OW19915   3.339   3.192   3.529  0.1184  1.0999  0.0930
 2760SOL    HW119916   3.341   3.287   3.518  0.9020  1.0448 -0.2507
 2760SOL    HW219917   3.318   3.165   3.440  1.2669 -2.1474  0.8038
 2761SOL     OW19918   2.067   3.077   4.171 -0.2594 -0.1153 -0.5685
 2761SOL    HW119919   2.149   3.120   4.196  0.0685  0.0359 -1.9194
 2761SOL    HW219920   2.041   3.123   4.092 -0.5534  1.0577  0.2152
 2762SOL     OW19921   2.716   0.911  15.043 -0.4060  0.3833  0.3284
 2762SOL    HW119922   2.806   0.897  15.072 -1.0212 -0.7917  1.6485
 2762SOL    HW219923   2.685   0.989  15.088 -1.9712  0.2293 -0.4690
 2763SOL     OW19924   3.007   1.807   8.446 -0.2298  0.4132 -0.0073
 2763SOL    HW119925   2.971   1.799   8.358  1.7507  1.2334 -0.9059
 2763SOL    HW219926   2.977   1.892   8.479 -1.2349 -0.7506  2.0828
 2764SOL     OW19927   3.272   0.840  13.331  0.1455  0.6665  0.8891
 2764SOL    HW119928   3.272   0.795  13.416  0.0327 -1.6783 -0.3664
 2764SOL    HW219929   3.336   0.911  13.341  1.2348  0.0036 -1.3491
 2765SOL     OW19930   1.908   2.982  15.733 -0.1389  0.2497 -0.2809
 2765SOL    HW119931   1.831   3.009  15.783  0.8982 -1.2858  2.1903
 2765SOL    HW219932   1.860   2.930  15.669 -1.3050 -0.9540  1.5733
 2766SOL     OW19933   2.751   3.416   2.121 -0.0582  0.0340 -0.1248
 2766SOL    HW119934   2.689   3.489   2.126 -1.1590 -1.3319  6.2066
 2766SOL    HW219935   2.714   3.364   2.049  1.1094  0.5629 -1.1112
 2767SOL     OW19936   3.673   0.520  15.090  0.0496  0.3728 -0.2191
 2767SOL    HW119937   3.627   0.493  15.011 -0.2153  0.9438 -0.2536
 2767SOL    HW219938   3.656   0.445  15.148 -1.6927 -0.0667 -1.3141
 2768SOL     OW19939   4.124   3.842  10.315 -0.0493 -0.2563 -0.0190
 2768SOL    HW119940   4.181   3.820  10.241 -0.0112  0.8492 -0.3118
 2768SOL    HW219941   4.192   3.840  10.382  0.7186  0.6763 -0.7747
 2769SOL     OW19942   0.844   2.143   5.182  0.2544  0.0644 -0.0786
 2769SOL    HW119943   0.753   2.146   5.153  0.7575 -0.2650 -1.7345
 2769SOL    HW219944   0.859   2.236   5.203  3.9036 -0.6758  0.5866
 2770SOL     OW19945   1.069   1.337   9.288  0.4686  0.3656  0.0274
 2770SOL    HW119946   1.079   1.368   9.378 -1.0999 -0.1765  0.3853
 2770SOL    HW219947   1.142   1.380   9.243 -0.0003  3.7462  2.4787
 2771SOL     OW19948   0.908   3.254   7.945 -0.1283 -0.5930 -0.3270
 2771SOL    HW119949   0.912   3.159   7.935  2.2187 -0.7097  1.6201
 2771SOL    HW219950   0.920   3.262   8.040  1.6214 -2.5239 -0.3653
 2772SOL     OW19951   2.155   4.304   8.839 -0.3148  0.2001  0.4379
 2772SOL    HW119952   2.142   4.382   8.893  0.8259 -1.4622  3.1038
 2772SOL    HW219953   2.176   4.354   8.760  0.4155 -0.4087  0.2483
 2773SOL     OW19954   2.117   0.004   0.620 -0.1365  0.1348 -0.2289
 2773SOL    HW119955   2.121   0.021   0.526 -2.1908 -1.8203 -0.6639
 2773SOL    HW219956   2.027   4.714   0.640 -0.5281  0.5437 -1.4793
 2774SOL     OW19957   4.383   2.065   4.000 -0.0554 -0.2083  0.2168
 2774SOL    HW119958   4.437   2.104   4.068 -0.5275  1.6728 -0.4928
 2774SOL    HW219959   4.331   2.144   3.992 -0.8398 -0.7768 -0.2542
 2775SOL     OW19960   3.524   0.771  14.715 -0.1811 -0.2679  0.6380
 2775SOL    HW119961   3.607   0.755  14.761  0.6010  1.5988 -0.1453
 2775SOL    HW219962   3.534   0.708  14.643  1.0094 -0.4109  0.9196
 2776SOL     OW19963   0.559   4.049  10.992 -0.1228  0.0616 -0.1258
 2776SOL    HW119964   0.601   4.011  11.069  0.2794  1.8063  0.5088
 2776SOL    HW219965   0.595   4.137  10.995 -0.6173  0.3531 -2.4557
 2777SOL     OW19966   0.984   3.599   2.807 -0.1593  0.2864  0.3805
 2777SOL    HW119967   0.952   3.687   2.787 -1.8421 -0.8135 -1.8030
 2777SOL    HW219968   0.909   3.539   2.797  0.2414 -0.1642  0.0890
 2778SOL     OW19969   3.419   2.188   8.408 -0.9603  0.1809  0.1850
 2778SOL    HW119970   3.450   2.207   8.497 -1.9728  0.6282  0.4405
 2778SOL    HW219971   3.402   2.280   8.386 -0.7908  0.6282  1.8567
 2779SOL     OW19972   1.866   3.980   3.574 -0.3878  0.2700 -0.1838
 2779SOL    HW119973   1.825   3.997   3.659 -0.0556  1.2614 -0.2232
 2779SOL    HW219974   1.863   3.884   3.574  1.4830  0.2124 -2.1446
 2780SOL     OW19975   1.116   2.204   0.387  0.3690  0.8960  0.4909
 2780SOL    HW119976   1.117   2.149   0.466 -0.4029  0.1201 -0.0452
 2780SOL    HW219977   1.105   2.142   0.316  2.2155 -0.6292  1.5338
 2781SOL     OW19978   4.251   0.503  17.168  0.6009  0.0477  0.4194
 2781SOL    HW119979   4.256   0.460  17.254 -1.0720 -0.0658  0.4596
 2781SOL    HW219980   4.304   0.581  17.185  0.4873  0.2289 -0.0715
 2782SOL     OW19981   3.781   4.737  14.243  0.4988 -0.2947 -0.5742
 2782SOL    HW119982   3.773   4.642  14.234 -0.2168 -0.3033  0.1624
 2782SOL    HW219983   3.691   0.028  14.229 -0.2378 -1.8451  0.9483
 2783SOL     OW19984   1.841   2.105   3.767  0.8909  0.3424  0.1800
 2783SOL    HW119985   1.858   2.046   3.694 -0.6976  0.5173 -0.3301
 2783SOL    HW219986   1.796   2.177   3.722  0.7031 -0.0625 -0.2769
 2784SOL     OW19987   0.461   0.914   6.165  0.1097 -0.2618  0.2191
 2784SOL    HW119988   0.402   0.987   6.145  0.7627  0.7855  2.1761
 2784SOL    HW219989   0.530   0.961   6.211  0.2609 -0.1215 -0.1530
 2785SOL     OW19990   0.341   1.124   9.081  0.1111  0.0474  0.0931
 2785SOL    HW119991   0.250   1.154   9.085 -0.7365 -2.5491  0.3570
 2785SOL    HW219992   0.375   1.175   9.008  1.7452 -2.1851 -0.6859
 2786SOL     OW19993   3.946   0.771   2.519 -0.2754  0.1824  0.1532
 2786SOL    HW119994   3.912   0.860   2.509 -0.4667  0.1677  0.6492
 2786SOL    HW219995   3.904   0.732   2.443 -1.0408  2.0010 -0.3405
 2787SOL     OW19996   4.489   0.800  15.214  0.2596 -0.7846 -0.1185
 2787SOL    HW119997   4.441   0.830  15.291 -0.1342 -1.5055 -0.0760
 2787SOL    HW219998   4.429   0.732  15.183  0.6423 -1.6899  1.1322
 2788SOL     OW19999   0.390   3.797   8.591 -0.0273  0.3002 -0.3740
 2788SOL    HW120000   0.421   3.881   8.558  1.4353 -0.6366 -1.3715
 2788SOL    HW220001   0.449   3.780   8.665 -0.4349  2.7983  0.5428
 2789SOL     OW20002   2.734   3.217   3.802 -0.2305  0.1798  0.0496
 2789SOL    HW120003   2.823   3.249   3.784  1.0333 -2.2933  1.9569
 2789SOL    HW220004   2.681   3.272   3.744 -0.6241  0.6549  0.8627
 2790SOL     OW20005   0.320   4.062  10.864  0.2993 -0.5919  0.2593
 2790SOL    HW120006   0.360   4.052  10.778  0.3828 -1.2030  0.3738
 2790SOL    HW220007   0.394   4.044  10.923  1.9574  0.1234 -1.6130
 2791SOL     OW20008   4.605   1.428   1.482  0.0984  0.5630 -0.3355
 2791SOL    HW120009   4.622   1.374   1.559 -0.0182  0.8033 -0.1381
 2791SOL    HW220010   4.509   1.424   1.475  0.1293 -0.6440  0.0438
 2792SOL     OW20011   4.165   2.783   2.533 -0.4342  0.4026 -0.8058
 2792SOL    HW120012   4.239   2.723   2.531 -1.3307 -0.7400 -0.0632
 2792SOL    HW220013   4.105   2.714   2.502  1.2457 -1.7800  0.7830
 2793SOL     OW20014   3.106   2.106   2.347  0.2015 -0.3663  0.1494
 2793SOL    HW120015   3.182   2.103   2.405  0.9141 -0.1148 -0.7704
 2793SOL    HW220016   3.050   2.172   2.387 -0.3103 -0.2629 -0.7497
 2794SOL     OW20017   0.355   3.383   7.751 -0.4997 -0.2039 -0.0643
 2794SOL    HW120018   0.450   3.389   7.742 -0.3078  2.0003  3.5400
 2794SOL    HW220019   0.322   3.421   7.670 -2.3354 -0.8893  0.3662
 2795SOL     OW20020   2.351   0.145   4.487  0.1487 -0.6246 -0.1219
 2795SOL    HW120021   2.423   0.134   4.425  1.1483  1.8286  0.6237
 2795SOL    HW220022   2.381   0.076   4.546 -0.7116 -0.3180  0.6723
 2796SOL     OW20023   4.689   1.645   5.176 -0.2679 -0.5416  0.2360
 2796SOL    HW120024   4.614   1.666   5.231 -1.4232  0.1224 -1.6172
 2796SOL    HW220025   4.709   1.728   5.133  2.1989  0.0275  2.4764
 2797SOL     OW20026   1.016   0.571  12.853  0.0025 -0.0841 -0.4103
 2797SOL    HW120027   1.020   0.503  12.786  1.4882  1.2970 -1.7006
 2797SOL    HW220028   0.933   0.610  12.826  1.6375  3.0257 -0.8861
 2798SOL     OW20029   0.924   2.505   4.686 -0.3008  0.0622 -0.2863
 2798SOL    HW120030   0.874   2.515   4.767  1.7515  0.5906  0.9120
 2798SOL    HW220031   0.891   2.583   4.642  1.1358 -0.5066 -2.3738
 2799SOL     OW20032   3.443   1.130  15.679  0.2320  0.5686  0.1768
 2799SOL    HW120033   3.381   1.172  15.739  1.3261 -1.5577  2.8166
 2799SOL    HW220034   3.379   1.137  15.609 -0.9081 -0.8270  1.0771
 2800SOL     OW20035   2.402   2.642   2.989 -0.0266 -0.2469  1.0686
 2800SOL    HW120036   2.348   2.702   2.938  2.0709  1.4918  0.9137
 2800SOL    HW220037   2.425   2.581   2.919 -0.7675  0.6005  0.0931
 2801SOL     OW20038   3.720   0.699   7.983 -0.2397 -0.2281  0.4143
 2801SOL    HW120039   3.694   0.643   7.910  0.2963 -1.1064  0.9060
 2801SOL    HW220040   3.813   0.700   8.009  0.3881 -0.8627 -1.8459
 2802SOL     OW20041   0.397   2.335   7.581 -0.2053 -0.0585 -0.8761
 2802SOL    HW120042   0.308   2.335   7.544 -1.2127 -0.4934  1.5609
 2802SOL    HW220043   0.401   2.265   7.646  1.1805 -0.2658 -1.1814
 2803SOL     OW20044   1.093   0.392   2.037  0.3691 -0.3635  0.1255
 2803SOL    HW120045   1.100   0.302   2.070  0.2835  0.6978  3.0135
 2803SOL    HW220046   1.000   0.396   2.012  0.8398  2.5694 -1.1261
 2804SOL     OW20047   2.996   1.148   4.695 -0.0502  0.3980 -0.3624
 2804SOL    HW120048   2.915   1.124   4.740 -0.6083 -1.9479 -2.6647
 2804SOL    HW220049   3.021   1.061   4.665 -0.0862  0.1790  0.2392
 2805SOL     OW20050   1.295   2.746   9.670  0.3915 -0.0918  0.3193
 2805SOL    HW120051   1.266   2.761   9.760  0.0234  1.3813 -0.0298
 2805SOL    HW220052   1.279   2.834   9.634  2.7379 -0.8008 -2.4583
 2806SOL     OW20053   2.769   4.190  12.877 -0.8314  0.1110 -0.3058
 2806SOL    HW120054   2.850   4.141  12.891 -0.2768  1.1298  0.0359
 2806SOL    HW220055   2.803   4.268  12.833  0.2831  0.2639  0.8355
 2807SOL     OW20056   0.955   4.715   6.639 -0.3046 -0.1216  0.4346
 2807SOL    HW120057   1.040   0.003   6.674 -0.8075  0.0113  1.5979
 2807SOL    HW220058   0.965   4.651   6.569 -2.0985 -1.5873  1.5111
 2808SOL     OW20059   0.841   2.471   9.159 -0.4713  0.0585 -0.4312
 2808SOL    HW120060   0.909   2.537   9.176  0.7818 -1.4158  0.2713
 2808SOL    HW220061   0.815   2.466   9.251 -1.2565 -2.0636 -0.7813
 2809SOL     OW20062   3.252   2.735   3.040 -0.2326  0.3193 -0.0323
 2809SOL    HW120063   3.265   2.649   3.000 -2.8556 -0.0258 -0.1940
 2809SOL    HW220064   3.343   2.746   3.066 -0.1549 -0.8771  0.1767
 2810SOL     OW20065   4.671   4.288   1.670  0.1374 -0.1126  0.5412
 2810SOL    HW120066   4.623   4.216   1.712  0.8232 -0.2115  1.1719
 2810SOL    HW220067   4.607   4.309   1.603 -1.4340 -0.5306  1.9284
 2811SOL     OW20068   4.145   0.781   2.211  0.0160  0.1243  0.7575
 2811SOL    HW120069   4.219   0.831   2.176  2.2819 -1.5590  3.1471
 2811SOL    HW220070   4.118   0.845   2.278  0.2431 -0.3422  1.2949
 2812SOL     OW20071   4.723   2.666   2.219 -0.0583  0.0499 -0.5002
 2812SOL    HW120072   0.006   2.710   2.302 -0.7779  0.1041 -0.3449
 2812SOL    HW220073   0.055   2.601   2.223 -0.5331 -0.3220  1.3460
 2813SOL     OW20074   1.526   2.150   9.358 -0.1982  0.7331  0.9206
 2813SOL    HW120075   1.445   2.201   9.353  0.0571  1.0252 -0.4256
 2813SOL    HW220076   1.575   2.179   9.281 -1.2945 -0.0514 -0.0811
 2814SOL     OW20077   3.227   3.516   2.734 -0.1212  0.3286  0.0820
 2814SOL    HW120078   3.175   3.595   2.752  0.3875  0.9499 -1.1335
 2814SOL    HW220079   3.306   3.550   2.691  0.8497 -0.0945  1.5522
 2815SOL     OW20080   3.747   3.955   7.173 -0.0927 -0.5956  0.2170
 2815SOL    HW120081   3.653   3.960   7.189  0.0748 -0.3798  1.1499
 2815SOL    HW220082   3.763   4.042   7.135 -2.6736 -0.0405  0.3561
 2816SOL     OW20083   0.789   1.103  17.347 -0.6194  0.0674  0.0913
 2816SOL    HW120084   0.759   1.158  17.274 -1.1277 -0.2542  0.0590
 2816SOL    HW220085   0.796   1.021  17.299  0.8637  0.7475 -0.8632
 2817SOL     OW20086   1.384   4.412   2.743 -0.0617  0.2367 -0.2990
 2817SOL    HW120087   1.316   4.346   2.726  0.5403  0.2300 -2.5992
 2817SOL    HW220088   1.416   4.417   2.653  4.1116 -0.2308  1.1867
 2818SOL     OW20089   4.224   2.982   2.035 -0.1477 -0.3172  0.2336
 2818SOL    HW120090   4.217   2.908   1.975  0.7092 -0.5541  0.4438
 2818SOL    HW220091   4.288   3.034   1.987 -0.2155 -0.7499 -0.3227
 2819SOL     OW20092   0.791   2.858   9.026  0.6475  0.2487 -0.2428
 2819SOL    HW120093   0.707   2.812   9.035 -0.1714  1.4530 -1.7277
 2819SOL    HW220094   0.828   2.841   9.112  1.0922  2.0752 -0.0794
 2820SOL     OW20095   4.413   0.350   3.017  0.1895 -0.2234 -0.3757
 2820SOL    HW120096   4.465   0.429   3.009 -1.1961  0.5789 -1.4472
 2820SOL    HW220097   4.425   0.320   3.107 -1.9339  2.0349  0.6905
 2821SOL     OW20098   0.912   3.009   1.873  0.3986 -0.4908 -0.6188
 2821SOL    HW120099   0.947   2.964   1.950 -2.6186  1.0907  1.6750
 2821SOL    HW220100   0.878   2.937   1.819  1.1905  0.7246 -2.7616
 2822SOL     OW20101   3.675   1.232   1.573  0.0305  0.4773 -0.1056
 2822SOL    HW120102   3.646   1.219   1.482  1.5400 -2.0087 -0.2045
 2822SOL    HW220103   3.601   1.284   1.606 -2.0493 -1.2432 -2.0232
 2823SOL     OW20104   2.650   3.751   8.854  0.1040  0.2948  0.4510
 2823SOL    HW120105   2.712   3.763   8.926  0.3645  1.3315  0.0463
 2823SOL    HW220106   2.599   3.677   8.886  0.7288 -0.1964  0.3129
 2824SOL     OW20107   1.391   1.949  15.947  0.3292  0.0467 -0.1766
 2824SOL    HW120108   1.470   2.003  15.945  0.8553 -0.6934  0.3820
 2824SOL    HW220109   1.397   1.891  15.870 -1.2659 -2.0970  1.3007
 2825SOL     OW20110   0.755   0.165  16.993  0.0779  0.0847  0.1561
 2825SOL    HW120111   0.788   0.153  17.082  2.7043  0.2797 -0.7780
 2825SOL    HW220112   0.666   0.131  17.002  0.0130  0.3302  0.4521
 2826SOL     OW20113   2.399   4.683   2.525 -0.1805 -0.3213 -0.0860
 2826SOL    HW120114   2.316   4.647   2.492 -0.5435 -0.0959  0.5927
 2826SOL    HW220115   2.460   4.650   2.459 -0.7787 -0.9691 -0.3192
 2827SOL     OW20116   2.820   0.071   9.197  0.1691  0.0526 -0.2261
 2827SOL    HW120117   2.865   0.063   9.113  1.1199 -1.3539  0.4161
 2827SOL    HW220118   2.848   0.158   9.226 -0.0498 -0.0495  0.2887
 2828SOL     OW20119   0.085   2.325   0.710 -0.3566 -0.0896 -0.0201
 2828SOL    HW120120   0.146   2.305   0.780 -1.2900 -1.8424  0.2824
 2828SOL    HW220121   0.074   2.419   0.727 -1.5501 -0.4000  0.9641
 2829SOL     OW20122   1.012   2.610   0.256  0.4229  0.1694 -0.4606
 2829SOL    HW120123   0.963   2.631   0.177  0.0977 -1.6131 -0.7446
 2829SOL    HW220124   0.960   2.666   0.313  1.4113  1.7580 -1.1293
 2830SOL     OW20125   1.723   1.457   3.652  0.2922 -0.4504 -0.0400
 2830SOL    HW120126   1.728   1.488   3.742  1.3013  0.4872 -0.4211
 2830SOL    HW220127   1.633   1.428   3.636  0.7298 -0.7713 -1.9044
 2831SOL     OW20128   1.803   1.259   6.122  0.0045 -0.2715 -0.0465
 2831SOL    HW120129   1.776   1.183   6.174  0.2309 -0.3732 -0.0811
 2831SOL    HW220130   1.883   1.286   6.166 -1.4443  3.3983  0.3526
 2832SOL     OW20131   0.864   3.062   3.794  0.0394  0.1337 -0.5470
 2832SOL    HW120132   0.811   3.076   3.716  0.0852  2.5624 -0.1451
 2832SOL    HW220133   0.797   3.024   3.851 -1.8684  1.5165 -1.8842
 2833SOL     OW20134   3.435   0.547   5.835 -0.3309  0.3134 -0.2521
 2833SOL    HW120135   3.344   0.567   5.854 -0.5656 -0.2536 -0.7803
 2833SOL    HW220136   3.448   0.589   5.750 -0.3845 -1.3458 -1.0795
 2834SOL     OW20137   2.721   2.409   5.987  0.4717  0.5153  1.0176
 2834SOL    HW120138   2.794   2.451   5.941 -0.5283 -0.4503 -1.4631
 2834SOL    HW220139   2.731   2.425   6.081 -0.8472 -4.5894  2.0130
 2835SOL     OW20140   2.763   2.630   9.055  0.4192  0.3136  0.2834
 2835SOL    HW120141   2.679   2.609   9.015  0.6704  2.5718 -1.4906
 2835SOL    HW220142   2.738   2.670   9.138  0.3923  1.2427 -0.1588
 2836SOL     OW20143   4.355   4.581   7.526  0.2515 -0.1787  0.4183
 2836SOL    HW120144   4.325   4.604   7.614  2.1731 -1.5850  1.4323
 2836SOL    HW220145   4.291   4.514   7.502  1.7279 -1.8461  1.1573
 2837SOL     OW20146   1.747   4.547   1.867  0.5472 -0.3203 -0.6454
 2837SOL    HW120147   1.739   4.464   1.821  1.0472 -0.1662 -1.0099
 2837SOL    HW220148   1.842   4.557   1.871  0.4028  0.6274  0.7287
 2838SOL     OW20149   4.179   3.531   3.884  0.0451 -0.3604 -0.5389
 2838SOL    HW120150   4.111   3.469   3.908  1.2266 -1.2716  0.4718
 2838SOL    HW220151   4.123   3.572   3.819  0.6881 -0.1249 -0.9501
 2839SOL     OW20152   1.632   1.594   6.160  0.6669  0.2027 -0.5267
 2839SOL    HW120153   1.695   1.564   6.226  0.5927  1.5455  0.1586
 2839SOL    HW220154   1.613   1.510   6.118 -0.1620  0.3331 -0.4142
 2840SOL     OW20155   0.323   3.744   3.294 -0.8171  0.5182  0.1218
 2840SOL    HW120156   0.318   3.819   3.235  2.0043  0.2083 -0.5204
 2840SOL    HW220157   0.258   3.677   3.275 -0.3205  0.2678 -0.6767
 2841SOL     OW20158   2.297   2.522   9.628 -0.8084 -0.0011 -0.0038
 2841SOL    HW120159   2.281   2.584   9.557 -2.8027 -0.0616  0.4105
 2841SOL    HW220160   2.298   2.578   9.706  1.7773 -0.0050 -0.0052
 2842SOL     OW20161   0.867   3.295   6.324  0.3450  0.3411  0.2505
 2842SOL    HW120162   0.921   3.280   6.402  1.3666  1.5908 -0.2110
 2842SOL    HW220163   0.877   3.209   6.284  1.1613  1.2472 -1.4702
 2843SOL     OW20164   3.382   3.429   4.371  0.3651  0.0190  0.7292
 2843SOL    HW120165   3.470   3.468   4.373  0.5153 -0.3362  1.0551
 2843SOL    HW220166   3.357   3.436   4.463  0.9556 -1.9134  1.0379
 2844SOL     OW20167   0.105   0.940   5.140 -0.0253 -0.1343  1.2913
 2844SOL    HW120168   0.200   0.934   5.133 -0.3131  0.6969 -3.0115
 2844SOL    HW220169   0.096   1.008   5.074  1.4783  0.1985  1.4229
 2845SOL     OW20170   1.520   3.297  14.447  0.0896  0.2018  0.3213
 2845SOL    HW120171   1.482   3.282  14.360  0.3545 -0.2934  0.2895
 2845SOL    HW220172   1.445   3.268  14.498 -0.7765  2.4129  0.3220
 2846SOL     OW20173   4.087   0.448   1.372 -0.2738 -0.0784  0.1141
 2846SOL    HW120174   4.108   0.411   1.458 -1.0433 -2.8834 -0.9062
 2846SOL    HW220175   4.032   0.377   1.339 -0.9922 -0.4305  2.0308
 2847SOL     OW20176   4.317   3.135   3.391  0.1266 -0.1284 -0.0357
 2847SOL    HW120177   4.256   3.102   3.325 -0.8277  3.0470 -0.7239
 2847SOL    HW220178   4.286   3.091   3.470 -1.1583  0.9374  0.0676
 2848SOL     OW20179   4.261   3.689  12.895 -0.0082 -0.5257  0.5177
 2848SOL    HW120180   4.216   3.607  12.915 -3.0929  0.8647 -0.8487
 2848SOL    HW220181   4.308   3.700  12.978  0.7950  0.0769 -0.0166
 2849SOL     OW20182   1.065   1.779   5.384  0.1178 -0.7461 -0.0972
 2849SOL    HW120183   1.054   1.713   5.453  0.8761 -1.2719 -0.4747
 2849SOL    HW220184   0.983   1.828   5.380  0.9370  0.6507  0.3083
 2850SOL     OW20185   1.896   3.761   9.390 -0.4015 -0.1869  0.4272
 2850SOL    HW120186   1.845   3.803   9.459 -1.9239 -2.0428  0.4419
 2850SOL    HW220187   1.858   3.802   9.312 -0.4417  0.5617  0.8350
 2851SOL     OW20188   3.391   3.170  10.805  0.3449  0.1259  0.3941
 2851SOL    HW120189   3.421   3.168  10.714 -1.7130  0.6813 -0.2867
 2851SOL    HW220190   3.461   3.219  10.848  0.7168  0.2527 -0.3584
 2852SOL     OW20191   3.549   1.966  17.717  0.3324  0.0311 -0.1752
 2852SOL    HW120192   3.503   2.016  17.650 -2.8686 -0.4477  1.6849
 2852SOL    HW220193   3.492   1.889  17.723 -0.4718  0.5330 -1.3080
 2853SOL     OW20194   3.264   2.943   5.443  1.0217 -0.0039  0.2620
 2853SOL    HW120195   3.234   3.012   5.383  0.5575  0.0988  0.6122
 2853SOL    HW220196   3.286   2.996   5.519 -1.2271  1.2611  0.0555
 2854SOL     OW20197   3.619   4.463   3.077  0.5647 -0.4896 -0.3875
 2854SOL    HW120198   3.534   4.485   3.114  0.5125  0.8300 -1.3126
 2854SOL    HW220199   3.663   4.547   3.078  0.4770 -0.4366 -1.6507
 2855SOL     OW20200   1.164   3.077   5.419  0.2508  0.3640 -0.1926
 2855SOL    HW120201   1.245   3.048   5.376  1.4672  2.1528  0.9154
 2855SOL    HW220202   1.127   2.990   5.434 -0.0073  0.4421 -0.3838
 2856SOL     OW20203   4.539   1.655   7.483  0.0393  0.2835 -0.3284
 2856SOL    HW120204   4.488   1.700   7.551 -2.3981 -0.2654 -1.7800
 2856SOL    HW220205   4.536   1.721   7.415 -0.5339 -0.4905 -1.0523
 2857SOL     OW20206   1.863   2.653  15.614 -0.2758  0.0848  0.4619
 2857SOL    HW120207   1.924   2.725  15.629 -0.9809  0.5120  1.2482
 2857SOL    HW220208   1.828   2.634  15.700 -0.0705  0.3871  0.6103
 2858SOL     OW20209   2.857   2.793   2.063  0.0324  0.1127  0.1217
 2858SOL    HW120210   2.939   2.747   2.047  1.4809  2.0678  2.0094
 2858SOL    HW220211   2.796   2.751   2.002  1.0230 -1.1416 -0.0019
 2859SOL     OW20212   0.734   3.413   9.890 -0.0579 -0.6770 -0.4471
 2859SOL    HW120213   0.703   3.333   9.933 -0.1848 -1.0711 -1.2870
 2859SOL    HW220214   0.665   3.435   9.827  4.0667  2.2932 -3.8849
 2860SOL     OW20215   2.784   0.083   8.303 -0.8688 -0.3865 -0.1969
 2860SOL    HW120216   2.876   0.083   8.276 -0.2556  2.0541  1.9238
 2860SOL    HW220217   2.762   0.174   8.285 -1.2100 -0.5765 -0.7611
 2861SOL     OW20218   1.206   1.491   6.019  0.6484 -0.1131 -0.0599
 2861SOL    HW120219   1.230   1.400   6.033 -0.7488 -0.6707 -1.3074
 2861SOL    HW220220   1.188   1.494   5.925 -0.4563  1.5162  0.2197
 2862SOL     OW20221   1.637   1.384   7.288 -0.1851  0.2944 -0.6181
 2862SOL    HW120222   1.572   1.391   7.218  1.0216  1.8223 -1.5819
 2862SOL    HW220223   1.704   1.447   7.260  0.7109  0.0205  0.9647
 2863SOL     OW20224   2.203   1.511   2.048 -0.3419 -0.2249  0.1365
 2863SOL    HW120225   2.202   1.478   1.958 -0.0182 -0.4795  0.2298
 2863SOL    HW220226   2.157   1.595   2.040 -1.8559 -1.1096 -0.5046
 2864SOL     OW20227   0.850   3.919  16.987  0.3069 -0.6000  0.6742
 2864SOL    HW120228   0.919   3.984  16.971  1.2658 -1.3445  1.8181
 2864SOL    HW220229   0.784   3.934  16.920 -0.2267  0.5472  1.4647
 2865SOL     OW20230   2.307   2.913  17.340  0.3920 -0.2282  0.5262
 2865SOL    HW120231   2.300   2.861  17.421  2.1738  1.2620  1.6233
 2865SOL    HW220232   2.365   2.861  17.285  0.9194  0.2373  0.6422
 2866SOL     OW20233   2.140   3.987   6.278 -0.2837 -0.5048  0.1645
 2866SOL    HW120234   2.062   4.028   6.315  0.7158 -0.2356  1.9607
 2866SOL    HW220235   2.113   3.895   6.274  0.5287 -0.5675 -3.7482
 2867SOL     OW20236   3.201   0.319  12.948  0.2430 -0.2025 -0.0841
 2867SOL    HW120237   3.255   0.398  12.955  0.4648 -0.1263 -2.5214
 2867SOL    HW220238   3.157   0.344  12.867  2.2559 -1.0901 -1.4610
 2868SOL     OW20239   3.940   1.522  13.271  0.0734 -0.1235 -0.4167
 2868SOL    HW120240   4.035   1.521  13.264  0.1390  0.2228  0.4630
 2868SOL    HW220241   3.926   1.588  13.339  2.3591  1.0819 -1.1191
 2869SOL     OW20242   3.396   1.440  11.385 -0.8568  0.0671 -0.7039
 2869SOL    HW120243   3.404   1.479  11.298  0.2645 -1.6880 -1.3824
 2869SOL    HW220244   3.474   1.387  11.401 -0.1133  1.7655  1.3847
 2870SOL     OW20245   4.070   0.256   7.107 -0.2099  0.2665  0.7475
 2870SOL    HW120246   4.143   0.302   7.148 -0.9753  1.7103  0.4746
 2870SOL    HW220247   4.007   0.323   7.080  0.2140  0.1801 -0.4641
 2871SOL     OW20248   3.683   1.754   5.940  0.0271 -0.0396  0.1974
 2871SOL    HW120249   3.646   1.789   5.859  2.2086 -1.2128 -1.3163
 2871SOL    HW220250   3.679   1.829   6.000  0.3607  0.5597 -0.5324
 2872SOL     OW20251   3.603   0.571  17.150  0.1384 -0.5771  0.1460
 2872SOL    HW120252   3.686   0.549  17.107 -0.0425 -0.8699 -0.0546
 2872SOL    HW220253   3.633   0.590  17.239  1.6738 -0.2471 -0.4408
 2873SOL     OW20254   1.898   0.215   0.802 -0.2654  0.6243  0.5100
 2873SOL    HW120255   1.877   0.146   0.738  0.9560 -0.5403  1.3658
 2873SOL    HW220256   1.944   0.284   0.755  1.8863 -2.1456 -1.4060
 2874SOL     OW20257   4.539   3.778   8.113  0.2154 -0.2610 -0.6049
 2874SOL    HW120258   4.505   3.857   8.156 -0.5075 -0.8921 -0.0225
 2874SOL    HW220259   4.633   3.798   8.115 -0.0186  0.7689  0.3354
 2875SOL     OW20260   4.438   3.792  10.655  0.6704  0.8540  0.3915
 2875SOL    HW120261   4.509   3.825  10.710 -0.1893  2.3133  0.6538
 2875SOL    HW220262   4.363   3.842  10.688  0.1481  0.7537 -0.6567
 2876SOL     OW20263   3.196   1.327   0.218  0.1443  0.2241  0.0446
 2876SOL    HW120264   3.125   1.313   0.280  0.2022 -1.3586 -0.2346
 2876SOL    HW220265   3.277   1.348   0.265 -0.2752 -0.3894  1.0285
 2877SOL     OW20266   0.523   4.034   8.139 -0.2613  0.1116  0.4601
 2877SOL    HW120267   0.558   4.111   8.093 -1.3461 -0.6350 -1.6266
 2877SOL    HW220268   0.433   4.055   8.113  0.6311  2.0209 -1.1444
 2878SOL     OW20269   4.208   1.598   2.402  0.2869 -0.2514  0.3619
 2878SOL    HW120270   4.179   1.635   2.486 -2.2586  1.1544 -1.1162
 2878SOL    HW220271   4.184   1.677   2.353 -2.3496 -0.2304  1.7035
 2879SOL     OW20272   2.634   3.204  13.987  0.0181 -0.0895  0.4278
 2879SOL    HW120273   2.555   3.151  13.999 -0.3488  0.8919  2.3452
 2879SOL    HW220274   2.606   3.280  14.039 -0.7891 -0.3395  0.3585
 2880SOL     OW20275   4.514   3.431  10.454 -0.5823  0.2061  0.2016
 2880SOL    HW120276   4.589   3.451  10.398  0.4167 -2.1443  0.7021
 2880SOL    HW220277   4.467   3.367  10.402  0.0785  0.6313 -0.9226
 2881SOL     OW20278   0.779   1.571   6.352 -0.1668  0.3655 -0.9464
 2881SOL    HW120279   0.872   1.555   6.339  0.3060  2.4942 -0.1532
 2881SOL    HW220280   0.772   1.618   6.435  1.1473  2.3418 -1.9565
 2882SOL     OW20281   0.821   0.823   6.209 -0.0048 -0.3386 -0.1328
 2882SOL    HW120282   0.778   0.905   6.234 -0.4143 -0.7334  0.4569
 2882SOL    HW220283   0.802   0.775   6.289  0.1823  2.8914  1.8446
 2883SOL     OW20284   0.135   3.355  15.301 -0.8757 -0.0428  0.2117
 2883SOL    HW120285   0.123   3.401  15.384 -0.8476 -1.1088  0.8021
 2883SOL    HW220286   0.097   3.424  15.245  1.8544  0.5755 -0.8908
 2884SOL     OW20287   0.825   0.178   2.223  0.2671  0.1364  0.0798
 2884SOL    HW120288   0.876   0.232   2.284 -0.4198 -1.0169  1.6539
 2884SOL    HW220289   0.758   0.242   2.197 -0.3000 -0.7601 -0.6654
 2885SOL     OW20290   4.585   2.662   2.784  0.1293 -0.1143  0.1096
 2885SOL    HW120291   4.680   2.666   2.771 -0.3465 -0.9649 -3.8545
 2885SOL    HW220292   4.550   2.676   2.695 -0.4017 -0.7746  0.2141
 2886SOL     OW20293   2.424   3.729   8.105 -0.1135 -0.5057  0.1283
 2886SOL    HW120294   2.441   3.811   8.059 -2.5848 -1.0514 -1.8189
 2886SOL    HW220295   2.423   3.757   8.197 -2.0157 -0.1513  0.0031
 2887SOL     OW20296   1.626   0.849   2.063 -0.0881  0.2183  0.2901
 2887SOL    HW120297   1.636   0.766   2.110  2.0402  1.6700  2.4106
 2887SOL    HW220298   1.718   0.865   2.045  0.0238 -1.6379 -0.8244
 2888SOL     OW20299   4.077   1.361   6.533  0.2459 -0.2584 -0.1632
 2888SOL    HW120300   4.024   1.436   6.560  1.4963  0.1963  1.0178
 2888SOL    HW220301   4.044   1.289   6.587 -1.4256  1.0211  0.5335
 2889SOL     OW20302   1.687   1.213   3.840  0.1553  0.6094  0.1006
 2889SOL    HW120303   1.639   1.291   3.869  0.1236  0.6326 -0.0132
 2889SOL    HW220304   1.770   1.241   3.879  0.9824 -0.0094 -1.2275
 2890SOL     OW20305   3.763   2.031   4.595 -0.4925  0.3095 -0.3346
 2890SOL    HW120306   3.811   2.108   4.626  0.0470  0.3497 -1.2616
 2890SOL    HW220307   3.797   1.960   4.650  0.5848  1.4697  0.4935
 2891SOL     OW20308   0.681   4.054   6.435  0.4198 -0.1020 -0.4165
 2891SOL    HW120309   0.708   4.095   6.353 -0.6316 -1.5431 -1.4731
 2891SOL    HW220310   0.768   4.067   6.475  0.8861  1.8035 -2.0477
 2892SOL     OW20311   4.282   2.892  14.232  0.3917  0.0189 -0.0482
 2892SOL    HW120312   4.256   2.896  14.140 -1.0591  0.0776  0.3661
 2892SOL    HW220313   4.300   2.984  14.251 -0.0421 -0.1814  1.3095
 2893SOL     OW20314   3.965   2.088   6.536 -0.3518 -0.4348  0.0234
 2893SOL    HW120315   3.969   2.051   6.624  0.6319  1.9855  1.0043
 2893SOL    HW220316   3.989   2.179   6.556 -1.6213 -0.3036  0.9093
 2894SOL     OW20317   2.457   3.119  14.783 -0.3570 -0.1914  0.2172
 2894SOL    HW120318   2.384   3.113  14.845 -0.5690  2.3542  0.1738
 2894SOL    HW220319   2.533   3.134  14.839  0.1577  1.7058 -0.9937
 2895SOL     OW20320   4.585   1.791   3.104 -0.1761  0.0988 -0.1518
 2895SOL    HW120321   4.544   1.715   3.062  0.1807 -0.5310  0.6298
 2895SOL    HW220322   4.626   1.839   3.032  0.7048 -0.6378 -0.1386
 2896SOL     OW20323   1.117   0.649   6.663 -0.4969  0.4013 -0.4901
 2896SOL    HW120324   1.075   0.589   6.601 -1.3290 -0.4450  0.9015
 2896SOL    HW220325   1.149   0.588   6.730  0.8558  1.6263 -0.0040
 2897SOL     OW20326   4.166   3.071   7.178  0.1615 -0.1475  0.6932
 2897SOL    HW120327   4.109   3.148   7.177 -0.5567 -0.7021 -0.5650
 2897SOL    HW220328   4.179   3.050   7.086 -0.0611  1.7586  0.2372
 2898SOL     OW20329   0.338   2.582   9.617 -0.7433 -0.5863 -0.1386
 2898SOL    HW120330   0.269   2.647   9.604 -1.5128 -1.5483 -0.8302
 2898SOL    HW220331   0.422   2.628   9.610 -1.3344  0.4066 -0.8276
 2899SOL     OW20332   0.355   2.085  16.690  0.1779 -0.1443 -0.1816
 2899SOL    HW120333   0.351   2.047  16.602  1.4706  1.2641 -0.8408
 2899SOL    HW220334   0.301   2.164  16.694  1.2288  0.4723  1.9978
 2900SOL     OW20335   4.707   2.280   4.469  0.5275  0.0323 -0.2357
 2900SOL    HW120336   4.708   2.363   4.422 -0.3358 -1.4547 -2.8897
 2900SOL    HW220337   0.048   2.292   4.523 -0.4616  1.5232  0.8627
 2901SOL     OW20338   3.143   1.459   1.860  0.2741  0.4434 -0.4440
 2901SOL    HW120339   3.132   1.554   1.861  2.3235  0.6621  1.0050
 2901SOL    HW220340   3.154   1.467   1.766 -0.6747 -0.7673 -0.6624
 2902SOL     OW20341   3.188   4.436   8.618  0.7215  0.5335  0.1693
 2902SOL    HW120342   3.260   4.373   8.622 -0.1743 -0.4927  0.1980
 2902SOL    HW220343   3.175   4.434   8.523 -1.6192  2.5380  0.4464
 2903SOL     OW20344   4.374   2.089   8.250  0.4894 -0.6616  0.6889
 2903SOL    HW120345   4.278   2.091   8.256  0.3975 -0.8723 -0.7544
 2903SOL    HW220346   4.393   1.996   8.254  1.6383 -0.4699 -0.3312
 2904SOL     OW20347   2.318   1.546   4.787  0.5657  0.4373  0.1656
 2904SOL    HW120348   2.386   1.600   4.827  0.1316  1.4036 -0.3964
 2904SOL    HW220349   2.246   1.551   4.849 -0.1137  1.0181 -0.6570
 2905SOL     OW20350   1.014   1.474   1.826  0.4060 -0.3261  0.2621
 2905SOL    HW120351   1.089   1.517   1.867  0.2799 -1.1975  1.4133
 2905SOL    HW220352   1.012   1.532   1.750 -2.4363  1.3430  1.6205
 2906SOL     OW20353   2.074   2.473  17.158  0.5030  0.1674  0.0877
 2906SOL    HW120354   2.037   2.428  17.082 -0.3577 -0.8932  1.1327
 2906SOL    HW220355   2.161   2.501  17.130  0.6044  0.8124  1.0417
 2907SOL     OW20356   1.088   3.768   1.776  0.2971  0.3624 -0.2846
 2907SOL    HW120357   1.115   3.854   1.745  1.8419 -0.6763 -1.7746
 2907SOL    HW220358   1.021   3.743   1.713 -1.3168  0.8800  1.2140
 2908SOL     OW20359   4.082   4.052   9.343 -0.0077  0.2495  0.0527
 2908SOL    HW120360   4.145   4.100   9.396 -0.8606  0.6819  0.6734
 2908SOL    HW220361   4.000   4.099   9.361 -1.1204 -1.8327  0.3773
 2909SOL     OW20362   1.553   3.325   9.770 -0.2936 -0.5762 -0.2015
 2909SOL    HW120363   1.585   3.282   9.850  0.1923  0.3353  0.0954
 2909SOL    HW220364   1.585   3.413   9.789  0.4053 -0.7755 -0.4475
 2910SOL     OW20365   1.129   2.114   9.515 -0.0232 -0.2387  0.0714
 2910SOL    HW120366   1.087   2.198   9.536  0.0759 -0.5399  1.4356
 2910SOL    HW220367   1.168   2.128   9.428 -1.8234  1.5196 -0.4837
 2911SOL     OW20368   2.966   0.431   5.543 -0.0326  0.7289 -0.0318
 2911SOL    HW120369   2.919   0.458   5.464 -0.3348 -0.5667 -0.2974
 2911SOL    HW220370   2.949   0.508   5.597  0.4171  0.9873 -0.2514
 2912SOL     OW20371   2.990   3.999  10.748 -0.4717 -0.1768 -0.0657
 2912SOL    HW120372   2.949   4.071  10.700  0.0478  0.2419  0.1200
 2912SOL    HW220373   2.952   4.019  10.833 -1.3576  1.5122 -0.8671
 2913SOL     OW20374   3.078   2.476   2.269 -0.2941  0.3880  0.1091
 2913SOL    HW120375   3.051   2.451   2.357  0.8533 -0.0153  0.3527
 2913SOL    HW220376   3.015   2.427   2.216 -2.6769  2.8563  0.6489
 2914SOL     OW20377   1.327   1.280   0.761  0.2201  0.3860  0.2192
 2914SOL    HW120378   1.383   1.355   0.783 -0.0530  0.6044  0.1682
 2914SOL    HW220379   1.384   1.204   0.750  0.9574  0.9303  0.2216
 2915SOL     OW20380   3.761   0.352   3.768  0.0058  0.2668 -0.0954
 2915SOL    HW120381   3.686   0.411   3.767  0.0480  0.3210  0.0028
 2915SOL    HW220382   3.831   0.401   3.725  0.0498 -0.7583 -1.2019
 2916SOL     OW20383   3.464   1.993  16.945  0.3121  0.2922  0.5341
 2916SOL    HW120384   3.493   1.950  16.864  0.1741  1.1441  0.0362
 2916SOL    HW220385   3.429   1.921  16.996 -0.8343  0.5324  0.0915
 2917SOL     OW20386   2.326   0.512   5.492 -0.1412 -0.1125  0.2123
 2917SOL    HW120387   2.329   0.534   5.399  2.3712  2.9431  1.0333
 2917SOL    HW220388   2.414   0.479   5.508  0.1609 -0.0862 -1.3834
 2918SOL     OW20389   0.882   1.157   9.211 -0.3086  0.0745  0.1297
 2918SOL    HW120390   0.952   1.175   9.148 -0.6296  0.8178 -0.0108
 2918SOL    HW220391   0.916   1.200   9.289 -0.7871 -1.6425  1.2940
 2919SOL     OW20392   0.712   1.897   6.866  0.1232  0.5178 -0.0795
 2919SOL    HW120393   0.698   1.861   6.778 -2.4745  1.3181 -0.0104
 2919SOL    HW220394   0.784   1.958   6.853  0.8432 -0.5297 -1.0210
 2920SOL     OW20395   0.003   4.728  17.238 -0.4706  0.1113  0.0742
 2920SOL    HW120396   4.693   4.722  17.155  3.0757  0.2034 -1.9439
 2920SOL    HW220397   0.001   4.641  17.278  1.9807  0.7439  1.5949
 2921SOL     OW20398   2.858   4.499   8.482 -0.1113  0.6751 -0.2031
 2921SOL    HW120399   2.842   4.567   8.547 -1.1640  0.0762  0.1688
 2921SOL    HW220400   2.774   4.455   8.465  0.0563  1.0808 -2.1443
 2922SOL     OW20401   0.542   4.636   9.298 -0.2916  0.6575 -0.8866
 2922SOL    HW120402   0.450   4.646   9.323  0.6459 -0.3200  2.8666
 2922SOL    HW220403   0.539   4.560   9.239 -1.3859 -0.2939  0.4004
 2923SOL     OW20404   4.021   1.554  15.008  0.2985  0.7773 -0.1636
 2923SOL    HW120405   4.096   1.495  15.016 -0.7857 -0.5610  0.1326
 2923SOL    HW220406   4.061   1.631  14.967  3.2012 -0.9311 -0.5446
 2924SOL     OW20407   3.662   0.286   3.473 -0.8752  0.0826  0.0640
 2924SOL    HW120408   3.683   0.246   3.389  1.6211 -3.2835  2.2691
 2924SOL    HW220409   3.741   0.334   3.498 -1.8440  1.2434  0.9085
 2925SOL     OW20410   1.345   0.627   7.300 -0.3519  0.2938 -0.1191
 2925SOL    HW120411   1.351   0.562   7.230 -1.6470 -1.5627  1.4920
 2925SOL    HW220412   1.430   0.622   7.344  0.3153 -1.2902 -1.5705
 2926SOL     OW20413   4.226   2.424   6.457  0.1429 -0.6167 -0.3770
 2926SOL    HW120414   4.298   2.410   6.518 -0.3512 -0.6069  0.2063
 2926SOL    HW220415   4.228   2.339   6.412  0.1268 -0.8165 -0.0040
 2927SOL     OW20416   0.533   0.245  17.315 -0.0331 -0.4219  0.5346
 2927SOL    HW120417   0.558   0.321  17.368  0.5531 -1.1445  1.3051
 2927SOL    HW220418   0.437   0.246  17.321 -0.0923  0.6706 -0.9106
 2928SOL     OW20419   0.281   0.977   7.159  0.4201 -0.8277  0.1114
 2928SOL    HW120420   0.346   0.916   7.126  2.0903  0.1114  1.5972
 2928SOL    HW220421   0.324   1.063   7.154  0.4081 -0.8675 -0.6760
 2929SOL     OW20422   2.534   4.266  10.084  0.1779 -0.0011 -0.3872
 2929SOL    HW120423   2.549   4.319  10.005 -0.4117  0.7996  0.0401
 2929SOL    HW220424   2.456   4.301  10.126 -0.5469 -1.6849 -0.3145
 2930SOL     OW20425   1.377   3.588   5.094 -0.3601 -0.6017 -0.7066
 2930SOL    HW120426   1.398   3.509   5.143 -1.4710 -0.7725 -0.5130
 2930SOL    HW220427   1.382   3.548   5.007  1.8068 -0.2182 -0.7729
 2931SOL     OW20428   1.980   1.798   8.718  0.8517 -0.2217 -0.1003
 2931SOL    HW120429   1.941   1.853   8.649 -0.2973  2.2066  2.4985
 2931SOL    HW220430   2.070   1.828   8.728  0.5829  0.1409  1.2060
 2932SOL     OW20431   0.820   1.687   6.663  0.0579 -0.2758 -0.2060
 2932SOL    HW120432   0.880   1.652   6.728 -0.8685 -0.7693  0.3814
 2932SOL    HW220433   0.880   1.736   6.607  1.7616 -0.5426  1.3971
 2933SOL     OW20434   4.473   0.464  16.944 -0.1884 -0.0767  0.0492
 2933SOL    HW120435   4.423   0.514  17.010  0.9871 -0.5595  1.2961
 2933SOL    HW220436   4.560   0.482  16.981  0.1455  1.3320 -1.4170
 2934SOL     OW20437   2.040   2.023   6.347 -0.2732  0.1219 -0.2082
 2934SOL    HW120438   2.092   1.944   6.328  0.1040  0.5784 -1.0861
 2934SOL    HW220439   1.958   1.998   6.304  0.2337 -0.6894 -0.7224
 2935SOL     OW20440   2.655   2.655   6.992 -0.5816 -0.2439 -0.3160
 2935SOL    HW120441   2.619   2.711   6.924  1.0468 -1.5718 -2.2436
 2935SOL    HW220442   2.734   2.705   7.009 -0.6921  0.0332 -0.6283
 2936SOL     OW20443   0.736   3.370   0.786 -0.1466 -0.2407 -0.3547
 2936SOL    HW120444   0.672   3.368   0.857  0.2917  1.7616  0.0777
 2936SOL    HW220445   0.685   3.426   0.727  0.7250  0.7574 -0.1624
 2937SOL     OW20446   3.752   2.900   5.934  0.5563 -0.5232 -0.1494
 2937SOL    HW120447   3.700   2.881   6.012 -1.0773 -1.3743 -1.4485
 2937SOL    HW220448   3.840   2.920   5.967  1.8684 -0.4730 -3.5837
 2938SOL     OW20449   2.227   3.337   8.305  0.1480 -0.3437 -0.3200
 2938SOL    HW120450   2.260   3.404   8.364 -1.1435  1.2295 -1.3892
 2938SOL    HW220451   2.200   3.278   8.375 -1.2421  1.3403  0.5677
 2939SOL     OW20452   3.028   3.740  11.326  0.4320  0.5677 -0.1300
 2939SOL    HW120453   3.000   3.823  11.366  1.5629  0.0958  1.6411
 2939SOL    HW220454   3.110   3.767  11.284  2.7850 -0.3720  3.8360
 2940SOL     OW20455   2.450   2.357   5.920 -0.0934 -0.1799 -0.0902
 2940SOL    HW120456   2.537   2.388   5.947 -0.1225  0.4353 -0.7187
 2940SOL    HW220457   2.405   2.439   5.905  0.3939  0.3879  1.5884
 2941SOL     OW20458   4.562   3.376   1.154  0.2554  0.3594 -0.7545
 2941SOL    HW120459   4.616   3.451   1.132  0.2050  0.9339  1.0700
 2941SOL    HW220460   4.478   3.397   1.113 -0.4737  1.0760  1.0991
 2942SOL     OW20461   3.857   2.078  11.101  0.2415  0.0856  0.0044
 2942SOL    HW120462   3.867   2.032  11.185  1.8341  1.5851  0.6335
 2942SOL    HW220463   3.799   2.153  11.117  0.3982 -0.0890  1.4013
 2943SOL     OW20464   3.507   4.660   6.486 -0.0439  0.3934  0.0257
 2943SOL    HW120465   3.569   4.712   6.435 -2.7102  1.0494 -2.5305
 2943SOL    HW220466   3.559   4.652   6.566  0.6479 -1.0998 -0.5666
 2944SOL     OW20467   1.433   0.732   4.334 -0.3532 -0.4452  0.7824
 2944SOL    HW120468   1.445   0.700   4.245  0.0986  1.2236  0.2522
 2944SOL    HW220469   1.522   0.754   4.362 -0.7678  1.4670  0.5855
 2945SOL     OW20470   2.065   4.266   9.408  0.1509  0.4039 -0.4229
 2945SOL    HW120471   2.063   4.180   9.449 -0.6119  1.0751  0.9721
 2945SOL    HW220472   2.132   4.258   9.341  0.0732 -1.7356 -0.2408
 2946SOL     OW20473   2.201   3.881   7.160 -0.1913 -0.1481 -0.2528
 2946SOL    HW120474   2.156   3.804   7.125 -1.2127 -0.1780  1.1123
 2946SOL    HW220475   2.195   3.931   7.079  3.0909 -2.2749 -1.8262
 2947SOL     OW20476   2.321   2.885   7.321  0.2949 -0.1496  0.2152
 2947SOL    HW120477   2.228   2.886   7.300  0.6316 -0.1650 -1.3191
 2947SOL    HW220478   2.359   2.917   7.239 -1.6369  2.2151  0.2392
 2948SOL     OW20479   3.972   1.259  13.348  0.2360  0.3167 -0.1980
 2948SOL    HW120480   3.951   1.348  13.320  0.1809 -0.4705 -2.7304
 2948SOL    HW220481   3.884   1.221  13.350 -0.1295  1.2074  0.5327
 2949SOL     OW20482   3.490   0.310   3.136  0.6840  0.6962  0.2987
 2949SOL    HW120483   3.514   0.260   3.214 -0.7903 -2.4051 -1.2109
 2949SOL    HW220484   3.399   0.280   3.135  0.4462  1.3192  2.3887
 2950SOL     OW20485   0.388   1.736  13.447  0.2699 -0.3712 -0.3758
 2950SOL    HW120486   0.470   1.782  13.464 -0.4916  0.8191  0.0086
 2950SOL    HW220487   0.401   1.684  13.367  3.2793 -0.1799 -0.0272
 2951SOL     OW20488   1.047   0.234  13.198 -0.6906  0.1041  0.3959
 2951SOL    HW120489   1.061   0.328  13.187  3.1247 -0.5951 -0.7987
 2951SOL    HW220490   1.132   0.203  13.229 -1.4526 -0.1008  2.2370
 2952SOL     OW20491   3.915   2.541   3.996 -0.0835  0.2870 -1.0748
 2952SOL    HW120492   3.871   2.608   4.047 -0.2534  1.1403 -2.3493
 2952SOL    HW220493   3.853   2.482   3.954 -0.3473 -1.1424  1.3205
 2953SOL     OW20494   0.181   4.227  10.550  0.4867  0.2421 -0.1723
 2953SOL    HW120495   0.261   4.194  10.592 -0.2080 -0.6414  0.4385
 2953SOL    HW220496   0.125   4.152  10.569 -1.7850  1.8314 -0.6319
 2954SOL     OW20497   3.387   4.688  11.413 -0.3714 -0.4114 -0.1070
 2954SOL    HW120498   3.397   4.612  11.470  1.4278  0.2734  0.4823
 2954SOL    HW220499   3.476   4.723  11.404 -0.2704 -0.4631  0.6616
 2955SOL     OW20500   1.493   3.716   8.727 -0.1383  0.0449 -0.1481
 2955SOL    HW120501   1.495   3.808   8.701  2.1465  1.1794  4.0922
 2955SOL    HW220502   1.539   3.675   8.654  0.1764  1.2705 -0.6361
 2956SOL     OW20503   1.413   3.138   5.069  0.3762 -0.3667 -0.6419
 2956SOL    HW120504   1.419   3.043   5.058 -0.2421 -0.5273  0.3943
 2956SOL    HW220505   1.426   3.176   4.983  2.6335  0.4118  0.0341
 2957SOL     OW20506   1.233   1.780   1.482  0.4716  0.2973 -0.5458
 2957SOL    HW120507   1.245   1.801   1.390 -0.3462  1.9485 -0.2755
 2957SOL    HW220508   1.308   1.827   1.519 -1.1902  0.3458  2.7926
 2958SOL     OW20509   4.491   0.347   9.415 -0.6024  0.4963  0.2076
 2958SOL    HW120510   4.452   0.382   9.494 -0.0688  2.0315 -0.1995
 2958SOL    HW220511   4.490   0.252   9.425 -0.6541  0.3921 -0.8137
 2959SOL     OW20512   4.292   2.976   3.636  0.6341  0.1291 -0.0108
 2959SOL    HW120513   4.385   2.969   3.614  0.4680  0.6510 -0.8770
 2959SOL    HW220514   4.270   2.893   3.679 -2.0875  0.8077 -0.0790
 2960SOL     OW20515   2.524   2.006   4.883  0.2089  0.8053  0.1083
 2960SOL    HW120516   2.498   2.097   4.863 -0.3468  0.3711 -1.1599
 2960SOL    HW220517   2.433   1.977   4.893  0.8249 -1.6741 -1.6267
 2961SOL     OW20518   4.032   4.335   4.309  0.0651  0.4753  0.3827
 2961SOL    HW120519   3.976   4.406   4.341  0.1834 -0.3593  2.4611
 2961SOL    HW220520   3.985   4.309   4.230 -0.9413 -1.9679  1.7759
 2962SOL     OW20521   4.567   3.884   1.104 -0.1850  0.2076 -0.0628
 2962SOL    HW120522   4.547   3.961   1.156  0.9033  0.1966  0.3656
 2962SOL    HW220523   4.482   3.863   1.064 -0.7010  1.6867  0.2634
 2963SOL     OW20524   0.729   3.756   8.610 -0.0859  0.1026  0.1254
 2963SOL    HW120525   0.721   3.851   8.615  2.3146  0.1987  2.5019
 2963SOL    HW220526   0.678   3.727   8.685  0.2006 -0.8915 -0.0709
 2964SOL     OW20527   0.015   4.481   7.177 -0.8771  0.1156  0.1925
 2964SOL    HW120528   0.095   4.470   7.126 -0.0173  2.3066  1.0733
 2964SOL    HW220529   0.045   4.531   7.253 -0.0892 -0.4370  0.2399
 2965SOL     OW20530   0.150   0.870   9.119 -0.0963  0.4346  0.2162
 2965SOL    HW120531   0.244   0.887   9.110 -0.0507  1.1979  2.1479
 2965SOL    HW220532   0.149   0.886   9.213 -2.4470 -0.4710  0.3435
 2966SOL     OW20533   0.255   2.024  16.954  0.4483 -0.0390  0.3841
 2966SOL    HW120534   0.286   1.933  16.963  2.5345  0.6391  0.0473
 2966SOL    HW220535   0.291   2.050  16.870 -1.3186 -0.5616 -0.5298
 2967SOL     OW20536   3.023   3.556   5.059  1.1400  0.1025 -0.0720
 2967SOL    HW120537   2.942   3.507   5.045  0.4758  0.8007  1.3078
 2967SOL    HW220538   3.090   3.490   5.042  0.0711 -0.8795 -0.5026
 2968SOL     OW20539   4.308   4.720  16.623 -0.2168  0.3624  0.2333
 2968SOL    HW120540   4.300   0.005  16.530 -1.6010 -0.5205  0.1493
 2968SOL    HW220541   4.389   0.027  16.651  0.0976  0.5975 -1.0231
 2969SOL     OW20542   0.164   3.676   6.305 -0.6235 -0.6772 -0.2978
 2969SOL    HW120543   0.107   3.734   6.254 -0.6201 -1.3369 -1.0526
 2969SOL    HW220544   0.128   3.676   6.393 -0.9000 -1.6941 -0.4188
 2970SOL     OW20545   4.199   1.707  10.985  0.0378 -0.0356  0.3410
 2970SOL    HW120546   4.158   1.793  10.980 -0.0695 -0.1644 -0.8803
 2970SOL    HW220547   4.134   1.656  11.033  0.4270 -0.6712  0.1955
 2971SOL     OW20548   2.809   0.457   9.375  0.1792  0.6479 -0.1915
 2971SOL    HW120549   2.839   0.431   9.288  0.6404  0.0903  0.1331
 2971SOL    HW220550   2.716   0.434   9.374  0.5933 -1.1369  2.2353
 2972SOL     OW20551   0.700   2.394   8.418 -0.1361  0.4627 -0.2161
 2972SOL    HW120552   0.714   2.462   8.353  2.0173 -1.9256 -2.2454
 2972SOL    HW220553   0.787   2.389   8.458 -0.6405  0.7789  0.9169
 2973SOL     OW20554   2.303   1.028   1.694 -0.2693  0.3496  0.5874
 2973SOL    HW120555   2.298   1.118   1.662  0.4664  0.4417  0.7338
 2973SOL    HW220556   2.219   0.990   1.667  0.1942 -1.1111  1.2532
 2974SOL     OW20557   4.176   0.104   9.465  0.6308  0.2464 -0.2448
 2974SOL    HW120558   4.146   0.186   9.426  2.3292  0.3151 -1.3938
 2974SOL    HW220559   4.198   0.050   9.389 -0.4152  1.5379 -1.4662
 2975SOL     OW20560   4.710   3.355   4.785 -0.0606 -0.4916  0.5029
 2975SOL    HW120561   4.684   3.314   4.868  0.5301  0.3469  1.0981
 2975SOL    HW220562   4.658   3.435   4.788  0.8159  0.0748  0.5997
 2976SOL     OW20563   1.461   4.645   6.930 -0.4969 -0.3497  0.1341
 2976SOL    HW120564   1.549   4.615   6.908  0.5249  2.4609  0.3246
 2976SOL    HW220565   1.407   4.574   6.896 -2.1298  0.2431  1.4897
 2977SOL     OW20566   0.484   2.178   5.624  0.1202  0.0208 -0.9144
 2977SOL    HW120567   0.408   2.206   5.573  1.0075  2.8168 -0.6762
 2977SOL    HW220568   0.534   2.260   5.627  0.9643 -0.5357  0.6232
 2978SOL     OW20569   3.604   2.880   5.677  0.3568 -0.0660 -0.3898
 2978SOL    HW120570   3.543   2.937   5.724  1.2322  0.5708 -0.0239
 2978SOL    HW220571   3.675   2.903   5.737  0.0403  1.5177 -0.6278
 2979SOL     OW20572   4.430   2.239   1.090 -0.0143 -0.0768  0.3547
 2979SOL    HW120573   4.393   2.327   1.088  0.7804  0.2329 -0.8017
 2979SOL    HW220574   4.425   2.220   0.996  1.5241  1.7647 -0.0828
 2980SOL     OW20575   0.446   3.553   4.036 -0.2221 -0.1334  0.5968
 2980SOL    HW120576   0.506   3.563   3.962  0.5007  0.8206  1.3218
 2980SOL    HW220577   0.473   3.461   4.046  0.5140  0.3265  2.8943
 2981SOL     OW20578   1.905   4.636   8.947 -0.2147 -0.2377 -0.5505
 2981SOL    HW120579   1.855   4.568   8.901  1.2080 -0.1806 -2.1860
 2981SOL    HW220580   1.954   4.678   8.876  0.7039 -1.2290 -0.4952
 2982SOL     OW20581   2.058   1.655   5.542 -0.0439  0.1233 -0.4063
 2982SOL    HW120582   2.029   1.729   5.488  1.0079  2.8226  2.7269
 2982SOL    HW220583   1.977   1.621   5.580  1.1893  2.0878  3.9645
 2983SOL     OW20584   3.847   2.272   4.322 -0.4023 -0.0334 -0.0532
 2983SOL    HW120585   3.845   2.209   4.394 -4.3953 -1.2291 -1.1822
 2983SOL    HW220586   3.794   2.223   4.258  0.2945 -1.4100  0.4308
 2984SOL     OW20587   1.582   4.501   6.284  0.4113  0.0668 -0.1209
 2984SOL    HW120588   1.566   4.484   6.377  0.1625  0.5530 -0.0752
 2984SOL    HW220589   1.595   4.595   6.273  0.3309  0.0487 -0.3847
 2985SOL     OW20590   3.102   0.731  16.875 -0.3321 -0.0495  0.5001
 2985SOL    HW120591   3.174   0.714  16.815  0.7246  1.3204  1.3787
 2985SOL    HW220592   3.086   0.642  16.908  0.3132 -0.3197  0.0861
 2986SOL     OW20593   1.826   1.690   2.817  0.0010  0.1937  0.6186
 2986SOL    HW120594   1.747   1.742   2.833  0.5500  0.7378  1.5137
 2986SOL    HW220595   1.820   1.673   2.723  2.1024  1.7503  0.2248
 2987SOL     OW20596   3.425   3.091   4.001 -0.5943  0.1664  0.9560
 2987SOL    HW120597   3.450   3.006   4.037  1.4694  0.0347 -0.7651
 2987SOL    HW220598   3.330   3.080   4.004 -0.7253  1.4757  1.5127
 2988SOL     OW20599   2.818   2.739   0.892  0.1279 -0.2585 -0.3847
 2988SOL    HW120600   2.806   2.832   0.873 -0.6349  0.1615  2.0558
 2988SOL    HW220601   2.737   2.696   0.864  1.0252 -2.2086  0.0249
 2989SOL     OW20602   3.625   3.321   7.534  0.1867  0.2081  0.0468
 2989SOL    HW120603   3.699   3.333   7.476  0.9440  1.9169  1.3795
 2989SOL    HW220604   3.553   3.363   7.488  0.5414  0.8848  0.1181
 2990SOL     OW20605   2.596   1.283   4.295 -0.1079  0.9162  0.2843
 2990SOL    HW120606   2.646   1.353   4.253 -2.4559  2.7616  0.6149
 2990SOL    HW220607   2.510   1.316   4.273 -0.1068  1.7746  1.5417
 2991SOL     OW20608   4.219   4.264  17.628 -0.5454  0.1159 -0.1161
 2991SOL    HW120609   4.163   4.188  17.649 -1.2245  0.3524 -1.0905
 2991SOL    HW220610   4.161   4.327  17.671 -0.5133  1.3237 -1.8755
 2992SOL     OW20611   1.732   4.525   1.158 -0.0023  0.1378 -0.5480
 2992SOL    HW120612   1.742   4.439   1.198 -1.1391  1.0634  1.7143
 2992SOL    HW220613   1.773   4.519   1.071 -1.2249  2.2131 -1.2721
 2993SOL     OW20614   0.590   2.397   1.055 -0.4646 -0.5866  0.0478
 2993SOL    HW120615   0.588   2.305   1.083 -3.8564 -0.8238 -0.9799
 2993SOL    HW220616   0.685   2.408   1.050 -0.2975 -2.8942 -2.1308
 2994SOL     OW20617   4.720   2.443   1.151  0.9334  0.7901  0.5713
 2994SOL    HW120618   0.067   2.460   1.194  1.4219 -0.3277  0.0609
 2994SOL    HW220619   4.668   2.499   1.208 -2.7078 -0.9821 -0.9522
 2995SOL     OW20620   4.185   3.129  13.495 -0.4360 -0.4529 -0.4758
 2995SOL    HW120621   4.264   3.179  13.514  0.4450 -1.6154 -1.1118
 2995SOL    HW220622   4.148   3.132  13.583  0.7462  0.3328 -0.0192
 2996SOL     OW20623   0.098   1.045   7.742 -0.7878  0.0435  0.7652
 2996SOL    HW120624   0.152   0.974   7.708  0.4478  1.9185 -1.2008
 2996SOL    HW220625   0.045   1.060   7.663 -1.1773 -1.2148  0.7874
 2997SOL     OW20626   3.932   4.507  10.453 -0.1490 -0.3196  0.0541
 2997SOL    HW120627   3.990   4.455  10.509  0.5361 -0.0370 -0.4006
 2997SOL    HW220628   3.847   4.464  10.464  0.5398 -1.8456 -0.6142
 2998SOL     OW20629   4.091   2.879  14.731 -0.2050  0.1496  0.1038
 2998SOL    HW120630   4.175   2.838  14.750  0.4232  2.3556  2.1319
 2998SOL    HW220631   4.064   2.842  14.647 -0.4390  0.8014 -0.1088
 2999SOL     OW20632   3.499   0.594   5.349 -0.3649  0.5757  0.0093
 2999SOL    HW120633   3.510   0.684   5.380  0.8488  0.1979  0.6732
 2999SOL    HW220634   3.591   0.567   5.351 -0.4711  0.2303  0.2709
 3000SOL     OW20635   4.193   3.951  12.994  0.0298  0.0905 -0.6141
 3000SOL    HW120636   4.231   3.864  12.978  2.1833  1.3222 -2.2833
 3000SOL    HW220637   4.141   3.929  13.071 -0.0917 -1.5195 -1.1480
 3001SOL     OW20638   3.224   4.727   2.642 -0.5923  0.1765 -0.2283
 3001SOL    HW120639   3.166   0.058   2.607 -0.5213  0.6761  0.6278
 3001SOL    HW220640   3.243   0.013   2.733  3.1829  1.3000 -1.3006
 3002SOL     OW20641   2.157   0.912  17.660  0.1459  1.1942 -0.2499
 3002SOL    HW120642   2.205   0.985  17.621 -0.9802  1.6671 -0.7276
 3002SOL    HW220643   2.221   0.843  17.643 -0.1734  0.3707  1.9427
 3003SOL     OW20644   1.952   1.324   5.546 -0.5051  0.0009  0.0058
 3003SOL    HW120645   1.906   1.403   5.517  0.9746  0.8831  0.0496
 3003SOL    HW220646   1.991   1.350   5.629 -0.5503  0.0610  0.0084
 3004SOL     OW20647   4.408   2.437   3.082  1.0519  0.1640  0.1521
 3004SOL    HW120648   4.332   2.429   3.024  1.4687 -0.2998 -0.3372
 3004SOL    HW220649   4.374   2.412   3.168  0.9333  2.2760  0.7087
 3005SOL     OW20650   2.846   3.341   4.108 -0.7507 -0.5124 -0.5262
 3005SOL    HW120651   2.868   3.418   4.055  0.7792 -0.9294 -0.4902
 3005SOL    HW220652   2.849   3.383   4.194  0.0400 -0.1451 -0.7308
 3006SOL     OW20653   0.763   0.426   8.826 -0.7947  0.3932 -0.4683
 3006SOL    HW120654   0.722   0.486   8.764 -0.1315  1.1163 -0.2054
 3006SOL    HW220655   0.723   0.343   8.801 -0.7463  0.7851 -1.8571
 3007SOL     OW20656   0.299   0.792   6.532  0.4054  0.0130 -0.5946
 3007SOL    HW120657   0.391   0.810   6.512  0.7570 -1.0393  0.0524
 3007SOL    HW220658   0.287   0.822   6.623 -1.5530  1.0977 -1.2137
 3008SOL     OW20659   3.080   1.448   2.147  0.4988 -0.1386 -0.2280
 3008SOL    HW120660   3.084   1.451   2.051 -2.4647 -3.1370 -0.4093
 3008SOL    HW220661   2.998   1.401   2.158  0.6569 -0.5088 -0.6795
 3009SOL     OW20662   0.841   4.323   8.725 -0.3643 -0.0466  0.4797
 3009SOL    HW120663   0.808   4.404   8.686 -1.4594 -2.1262 -2.9683
 3009SOL    HW220664   0.848   4.267   8.647 -0.3274  0.0654  0.4021
 3010SOL     OW20665   0.764   4.056   7.854 -0.5847 -0.3280  0.5593
 3010SOL    HW120666   0.700   4.092   7.916 -1.5131  0.6489 -0.9915
 3010SOL    HW220667   0.775   4.133   7.798  0.8838 -1.8372 -1.2352
 3011SOL     OW20668   4.449   2.214   5.671  0.0627 -0.1358 -0.6765
 3011SOL    HW120669   4.523   2.187   5.726 -3.1504  1.6725  4.5658
 3011SOL    HW220670   4.416   2.132   5.635 -0.2728 -1.2685  2.2133
 3012SOL     OW20671   0.017   2.479   3.884  0.0087 -0.2846 -0.4008
 3012SOL    HW120672   0.015   2.436   3.969 -1.2391 -1.2071 -0.8974
 3012SOL    HW220673   0.018   2.407   3.821  0.2265 -1.8801  1.4465
 3013SOL     OW20674   3.860   4.043   0.224  0.4228  0.1356  0.1230
 3013SOL    HW120675   3.783   4.032   0.169  1.0582 -3.9833  0.0182
 3013SOL    HW220676   3.888   4.133   0.210  0.1908  0.4714  1.8740
 3014SOL     OW20677   4.035   3.445  10.794  0.0108  0.2026 -0.3598
 3014SOL    HW120678   4.108   3.383  10.805 -0.4932 -0.4303 -0.6056
 3014SOL    HW220679   4.022   3.445  10.699  0.2701 -0.0908 -0.3982
 3015SOL     OW20680   1.330   2.839   1.414 -0.1612 -0.7885  0.3047
 3015SOL    HW120681   1.387   2.845   1.337  0.6092 -0.5800  0.8891
 3015SOL    HW220682   1.316   2.928   1.444  0.4063 -0.5094 -0.2519
 3016SOL     OW20683   1.220   4.309   6.089 -0.0301 -0.1453 -0.3322
 3016SOL    HW120684   1.263   4.285   6.006  2.3153  0.4860  0.7008
 3016SOL    HW220685   1.290   4.365   6.123 -0.2799  1.5777 -2.6253
 3017SOL     OW20686   3.469   2.937  16.852 -0.2740 -0.2258 -0.0346
 3017SOL    HW120687   3.403   2.929  16.783  0.4731  2.8084 -1.0918
 3017SOL    HW220688   3.552   2.933  16.804 -1.1578 -0.8895 -1.4723
 3018SOL     OW20689   1.306   2.976   4.596  0.0957 -0.4504  0.0052
 3018SOL    HW120690   1.370   2.944   4.660  1.3586  0.4691 -0.7761
 3018SOL    HW220691   1.251   2.899   4.587  1.2513 -1.1614 -0.9914
 3019SOL     OW20692   1.378   1.159  10.054  0.1600 -0.0497  0.1316
 3019SOL    HW120693   1.469   1.186  10.047  0.3466 -0.7486 -0.1820
 3019SOL    HW220694   1.364   1.110   9.973  1.0711 -2.4761  1.4410
 3020SOL     OW20695   4.666   2.662   1.315 -0.1412  0.2534  0.2827
 3020SOL    HW120696   4.640   2.746   1.277  0.9505  0.1623 -0.6639
 3020SOL    HW220697   0.022   2.681   1.330  0.6163 -2.6011 -0.7993
 3021SOL     OW20698   3.868   4.483   3.318 -0.0202 -0.3937  0.2214
 3021SOL    HW120699   3.860   4.398   3.360  1.9160  0.8575  3.0798
 3021SOL    HW220700   3.794   4.532   3.355 -0.9336 -0.1809 -1.8606
 3022SOL     OW20701   2.021   1.604  12.293 -0.3951  0.3482  0.1439
 3022SOL    HW120702   2.051   1.632  12.379 -0.3594  1.2619 -0.1684
 3022SOL    HW220703   1.926   1.609  12.307 -0.4020 -0.3740  0.3471
 3023SOL     OW20704   4.540   1.729  16.362 -0.4280  0.0334  0.2323
 3023SOL    HW120705   4.535   1.793  16.433 -1.7210  1.5628 -1.2479
 3023SOL    HW220706   4.591   1.773  16.294 -2.6967 -2.1388 -2.8587
 3024SOL     OW20707   3.673   0.596   5.952  0.2060  0.2059  0.2663
 3024SOL    HW120708   3.657   0.688   5.974 -0.9206 -0.6372  2.8620
 3024SOL    HW220709   3.587   0.561   5.930  0.5965 -0.4762 -0.1559
 3025SOL     OW20710   3.506   0.448   3.700 -0.5586 -0.1921 -0.3852
 3025SOL    HW120711   3.462   0.496   3.629 -0.0647 -0.0818 -0.6114
 3025SOL    HW220712   3.468   0.361   3.687  0.7600 -0.7706 -0.3736
 3026SOL     OW20713   4.106   3.599  16.717  0.3433 -0.1752 -0.3108
 3026SOL    HW120714   4.087   3.613  16.810 -2.0628  0.6573 -0.9479
 3026SOL    HW220715   4.041   3.537  16.685  0.2485 -0.9870  1.4440
 3027SOL     OW20716   0.040   3.345   4.521  0.2673 -0.6493  0.3725
 3027SOL    HW120717   0.129   3.375   4.506  0.5695 -1.3426  0.7996
 3027SOL    HW220718   0.036   3.350   4.616  2.5337 -0.1063  0.4326
 3028SOL     OW20719   2.210   3.205   8.048 -0.0239  0.1742  0.1759
 3028SOL    HW120720   2.242   3.253   7.972 -1.1062 -0.7033 -0.8287
 3028SOL    HW220721   2.222   3.271   8.116  2.0161 -0.3306  0.3148
 3029SOL     OW20722   0.490   1.584   9.980 -0.5556  0.4923  0.2816
 3029SOL    HW120723   0.435   1.509   9.960  1.4617 -1.4272  2.0391
 3029SOL    HW220724   0.496   1.588  10.075  0.7143  2.3684  0.1347
 3030SOL     OW20725   0.981   0.617  15.898  0.3987 -0.5080  0.2788
 3030SOL    HW120726   1.024   0.668  15.967 -0.6092  0.8764 -0.1335
 3030SOL    HW220727   0.972   0.685  15.831 -1.7267 -2.2659 -1.2405
 3031SOL     OW20728   0.528   1.178   2.388 -0.4031 -0.2705  0.5056
 3031SOL    HW120729   0.618   1.157   2.361 -0.3362  1.7104 -0.8170
 3031SOL    HW220730   0.485   1.112   2.335  1.8675 -0.0482 -1.6377
 3032SOL     OW20731   0.777   3.559   4.355  0.3187  0.1327  0.3399
 3032SOL    HW120732   0.769   3.651   4.327 -1.0872  0.3350  1.4273
 3032SOL    HW220733   0.869   3.557   4.383  0.4575  0.3459 -0.0796
 3033SOL     OW20734   1.484   0.917   9.762 -0.1412  0.2788  0.4133
 3033SOL    HW120735   1.523   0.974   9.696  0.0637 -0.2885  0.0396
 3033SOL    HW220736   1.398   0.957   9.774 -0.6865 -0.3836 -1.3225
 3034SOL     OW20737   2.038   2.346   4.299 -0.5381  0.0027  0.0535
 3034SOL    HW120738   2.100   2.388   4.239 -0.9749  2.0868  1.0682
 3034SOL    HW220739   2.079   2.262   4.319  0.2163  0.2447 -0.4627
 3035SOL     OW20740   4.646   2.300  13.604 -0.5846 -0.3591 -0.1991
 3035SOL    HW120741   4.595   2.334  13.678  0.6247  1.9107 -0.3999
 3035SOL    HW220742   4.728   2.261  13.635  0.3913  1.8905  0.1000
 3036SOL     OW20743   4.366   0.275   5.721  0.5391  0.1492  0.4711
 3036SOL    HW120744   4.335   0.339   5.785  0.3631 -0.2708  0.8051
 3036SOL    HW220745   4.306   0.204   5.740 -2.2469  2.2645 -0.3522
 3037SOL     OW20746   0.257   3.291  16.063 -0.2311  0.4280 -0.1574
 3037SOL    HW120747   0.237   3.227  16.131  0.6355  0.5249  0.1859
 3037SOL    HW220748   0.200   3.364  16.085 -0.8714  0.4632 -1.9532
 3038SOL     OW20749   3.046   2.907   3.568  0.4577 -0.5187  0.5738
 3038SOL    HW120750   2.992   2.911   3.489  0.4904  1.3360  0.6402
 3038SOL    HW220751   2.998   2.844   3.621  1.2558 -1.1288  0.5624
 3039SOL     OW20752   0.936   3.305   3.930  0.2766 -0.2442 -0.1545
 3039SOL    HW120753   0.879   3.241   3.887  2.2998 -0.6609 -2.2170
 3039SOL    HW220754   0.914   3.282   4.020 -0.0506 -0.2219 -0.2293
 3040SOL     OW20755   1.217   1.688   5.707  0.6919  0.1523 -0.1959
 3040SOL    HW120756   1.311   1.671   5.704  1.0671  1.7489  2.8981
 3040SOL    HW220757   1.193   1.671   5.616  0.2778  1.0425 -0.2508
 3041SOL     OW20758   3.033   3.557  14.486  0.2292 -0.3197  0.0617
 3041SOL    HW120759   2.947   3.599  14.486  0.1101 -0.5546  1.1247
 3041SOL    HW220760   3.030   3.510  14.403 -0.7795 -0.9789  0.4692
 3042SOL     OW20761   2.665   2.510  17.183  0.2230 -0.7780 -0.6855
 3042SOL    HW120762   2.662   2.536  17.091 -0.2941 -1.2926 -0.8175
 3042SOL    HW220763   2.738   2.557  17.223  0.6331 -0.3599 -1.9262
 3043SOL     OW20764   1.808   2.240   8.416  0.0741 -0.0435  0.2264
 3043SOL    HW120765   1.764   2.177   8.474  2.8804 -1.8967  0.3301
 3043SOL    HW220766   1.898   2.208   8.412 -0.1608 -0.7046  0.2137
 3044SOL     OW20767   0.322   0.449   2.879 -0.3480  0.6037 -0.4452
 3044SOL    HW120768   0.278   0.455   2.794  1.4326 -0.5180 -1.4442
 3044SOL    HW220769   0.313   0.357   2.901  0.4970  0.7651  0.5740
 3045SOL     OW20770   1.857   1.683  16.541 -0.0369 -0.0616 -0.4644
 3045SOL    HW120771   1.827   1.736  16.466 -2.6564 -4.2773 -2.4089
 3045SOL    HW220772   1.786   1.620  16.547  1.0475 -1.4867 -2.5217
 3046SOL     OW20773   0.801   3.839   4.706  0.1652  0.4462  0.5018
 3046SOL    HW120774   0.731   3.778   4.727 -0.4313  0.9766  0.0687
 3046SOL    HW220775   0.803   3.886   4.790  2.0785  1.6751 -0.2169
 3047SOL     OW20776   2.375   1.652   8.717 -0.1654 -0.1764  0.2704
 3047SOL    HW120777   2.313   1.719   8.688 -0.0991 -1.2988 -2.4557
 3047SOL    HW220778   2.336   1.594   8.782 -2.9326  0.4344 -0.8151
 3048SOL     OW20779   0.493   0.192   3.942  0.8108  0.2878  0.2992
 3048SOL    HW120780   0.557   0.256   3.910  0.1068  0.6132 -0.4740
 3048SOL    HW220781   0.421   0.247   3.973  0.7657  0.3716  0.0475
 3049SOL     OW20782   1.696   1.453  16.724 -0.2597 -0.6118  0.5532
 3049SOL    HW120783   1.658   1.493  16.646 -2.0286 -1.1471  1.1417
 3049SOL    HW220784   1.627   1.480  16.785  1.6326 -1.4517  3.0670
 3050SOL     OW20785   4.052   0.178  14.144  0.2156 -0.1299 -0.0915
 3050SOL    HW120786   4.050   0.244  14.075  0.0736  0.2619  0.2896
 3050SOL    HW220787   4.145   0.181  14.167  0.7557 -0.1151 -2.2454
 3051SOL     OW20788   1.273   1.721   4.087 -0.2832 -0.4254  0.6749
 3051SOL    HW120789   1.193   1.762   4.056  0.9645  1.1750 -0.4280
 3051SOL    HW220790   1.240   1.637   4.120  0.7101 -0.1131  2.4678
 3052SOL     OW20791   3.905   0.895   3.391  0.3153  0.0844 -0.0853
 3052SOL    HW120792   3.897   0.846   3.473 -1.3751 -0.1994 -0.4247
 3052SOL    HW220793   3.886   0.984   3.418 -0.1519  0.3525 -1.2949
 3053SOL     OW20794   0.276   2.556   5.287  0.1106  0.3427  0.3839
 3053SOL    HW120795   0.261   2.649   5.303  1.5023  0.6567 -0.1811
 3053SOL    HW220796   0.214   2.538   5.216  0.8164 -2.0022  0.3538
 3054SOL     OW20797   4.257   0.012  15.877 -0.0756 -0.3241  0.2450
 3054SOL    HW120798   4.172   0.022  15.834 -0.0452 -2.4003 -0.3018
 3054SOL    HW220799   4.314   0.004  15.801  1.4261 -0.1081  1.3521
 3055SOL     OW20800   0.175   1.496  10.819 -0.4186 -0.3905  0.1018
 3055SOL    HW120801   0.154   1.555  10.891 -0.8331 -0.7071  0.2408
 3055SOL    HW220802   0.217   1.425  10.867  1.0029  0.5714  0.2946
 3056SOL     OW20803   2.295   3.414   1.835  0.4069 -0.0705 -0.5538
 3056SOL    HW120804   2.339   3.499   1.839 -0.0824  0.2715 -2.3106
 3056SOL    HW220805   2.341   3.361   1.899  2.0919  1.6889 -0.2915
 3057SOL     OW20806   1.069   4.609   7.060 -0.1621 -0.1010 -0.3149
 3057SOL    HW120807   1.143   4.589   7.117 -1.7913  0.0076  1.8093
 3057SOL    HW220808   1.016   4.663   7.118 -2.4032 -1.1429 -1.3871
 3058SOL     OW20809   1.598   3.286   9.175 -0.4648  0.5013 -0.3885
 3058SOL    HW120810   1.574   3.352   9.110  0.7640  0.4453 -0.8995
 3058SOL    HW220811   1.535   3.307   9.244  0.1854  1.6460 -0.1388
 3059SOL     OW20812   4.621   1.840  14.716  0.0409 -0.2013  0.0590
 3059SOL    HW120813   4.566   1.762  14.710 -0.1148 -0.0819 -0.0573
 3059SOL    HW220814   4.696   1.814  14.662 -1.2840 -0.3891 -1.6988
 3060SOL     OW20815   4.658   2.210   4.786 -0.1774 -0.3288  0.6307
 3060SOL    HW120816   4.567   2.224   4.811  0.5343 -0.9457  3.6367
 3060SOL    HW220817   4.649   2.168   4.700 -0.7223 -0.4655  0.7562
 3061SOL     OW20818   4.538   3.941   9.460  0.0096 -0.4326  0.0770
 3061SOL    HW120819   4.548   4.026   9.503 -3.1988  0.0197 -0.0612
 3061SOL    HW220820   4.607   3.893   9.507  0.5352 -0.9445 -1.2092
 3062SOL     OW20821   3.035   3.079   4.336  0.4153 -0.4011  0.1534
 3062SOL    HW120822   3.119   3.121   4.317  0.3274 -0.5904 -0.6379
 3062SOL    HW220823   2.977   3.155   4.342 -0.6346 -1.0940 -1.3577
 3063SOL     OW20824   4.048   2.492   7.325 -0.1917  0.0463  0.3829
 3063SOL    HW120825   3.990   2.504   7.250  1.6659 -0.4853 -1.1280
 3063SOL    HW220826   3.985   2.518   7.393  0.0964 -0.9729  1.0342
 3064SOL     OW20827   4.333   0.449  14.809 -0.6676 -0.0997  0.4158
 3064SOL    HW120828   4.361   0.390  14.738 -0.9834  2.3467 -1.7498
 3064SOL    HW220829   4.314   0.386  14.878  2.5448 -0.4389  0.9970
 3065SOL     OW20830   3.664   2.249   3.531  0.2969  0.4639 -0.6730
 3065SOL    HW120831   3.744   2.292   3.562 -0.2806 -0.2139  1.8142
 3065SOL    HW220832   3.694   2.174   3.480 -1.2330  0.1383 -1.0949
 3066SOL     OW20833   2.581   2.063   7.212  0.0666  0.4899  0.7457
 3066SOL    HW120834   2.621   2.033   7.131 -0.3804  1.9430 -0.0227
 3066SOL    HW220835   2.637   2.029   7.282  0.7070 -1.9799 -0.9640
 3067SOL     OW20836   3.253   0.401   4.974  0.0373  0.4211  0.0221
 3067SOL    HW120837   3.317   0.446   5.029  2.2951 -2.6480 -0.0450
 3067SOL    HW220838   3.222   0.338   5.038  0.2613  0.2993  0.0120
 3068SOL     OW20839   4.221   2.601   0.229  0.5024 -0.5612 -0.2066
 3068SOL    HW120840   4.239   2.602   0.135  1.0104 -1.7996 -0.1233
 3068SOL    HW220841   4.282   2.672   0.246 -3.1098  2.5737 -0.3043
 3069SOL     OW20842   2.618   0.133   0.808  0.8881  0.1622  0.8099
 3069SOL    HW120843   2.667   0.215   0.815 -0.6134  1.1062  0.1494
 3069SOL    HW220844   2.563   0.154   0.733  1.7646  0.4987  0.2587
 3070SOL     OW20845   3.297   0.538   4.551  0.2025 -0.1577  0.4827
 3070SOL    HW120846   3.272   0.586   4.472  0.1097  0.6916  1.0357
 3070SOL    HW220847   3.353   0.470   4.513  2.4275  1.1197  1.5135
 3071SOL     OW20848   3.548   4.023   6.023  0.0168  0.2848  0.1542
 3071SOL    HW120849   3.564   3.941   5.976  0.9197 -0.9320  2.6348
 3071SOL    HW220850   3.586   4.085   5.961  1.7263 -0.5406  0.4013
 3072SOL     OW20851   3.317   3.691   4.826  0.3164 -0.4018 -0.4679
 3072SOL    HW120852   3.345   3.750   4.755  1.3092 -0.2239  0.0726
 3072SOL    HW220853   3.312   3.763   4.889 -0.9659 -2.4809  1.7706
 3073SOL     OW20854   0.836   2.418   5.217  0.4283 -0.3169  0.2746
 3073SOL    HW120855   0.743   2.428   5.238  0.2084 -1.5526 -0.1368
 3073SOL    HW220856   0.873   2.437   5.303  0.4365 -0.0914  0.2219
 3074SOL     OW20857   0.342   4.705   5.592 -0.0253 -0.8312 -0.5720
 3074SOL    HW120858   0.367   4.627   5.543 -1.3186 -0.5764 -1.6389
 3074SOL    HW220859   0.338   0.036   5.524 -1.3552  1.4527  1.7921
 3075SOL     OW20860   3.124   0.797   8.476  0.0538  0.5987  0.1046
 3075SOL    HW120861   3.112   0.768   8.386  0.0364  0.4607  0.1521
 3075SOL    HW220862   3.219   0.808   8.472  0.4809 -2.7788  1.1647
 3076SOL     OW20863   1.819   2.186   8.096  0.4741  0.0159  0.4535
 3076SOL    HW120864   1.780   2.115   8.147  0.8745  0.4929  1.4224
 3076SOL    HW220865   1.763   2.174   8.020 -1.5662 -0.1815  1.9672
 3077SOL     OW20866   0.914   1.443   3.322  0.9180 -0.4633 -0.7213
 3077SOL    HW120867   0.931   1.470   3.413  1.9057 -1.6217 -0.5762
 3077SOL    HW220868   0.894   1.531   3.290  2.1756  0.5512  1.2647
 3078SOL     OW20869   0.152   2.274   3.557  0.9079  0.2520  0.2471
 3078SOL    HW120870   0.127   2.203   3.497  0.3192  0.9205 -0.2979
 3078SOL    HW220871   0.116   2.346   3.505 -0.2247  0.1158  0.8403
 3079SOL     OW20872   2.643   1.954  17.061  0.5249  0.6334 -0.3221
 3079SOL    HW120873   2.645   2.048  17.048  1.4121  0.5768 -0.6015
 3079SOL    HW220874   2.655   1.954  17.156 -0.7525 -2.2484 -0.1681
 3080SOL     OW20875   3.574   2.249   6.355 -0.1241 -0.6615 -0.1845
 3080SOL    HW120876   3.488   2.290   6.341 -0.7426 -2.2908 -1.1649
 3080SOL    HW220877   3.568   2.245   6.450  1.7541  0.1298 -0.0460
 3081SOL     OW20878   4.467   0.611   4.639  0.1566  0.5418 -0.4199
 3081SOL    HW120879   4.381   0.626   4.601 -0.4169  0.8297  0.9995
 3081SOL    HW220880   4.478   0.519   4.616 -0.0414  0.1265  1.1909
 3082SOL     OW20881   1.788   3.602   6.744  0.2992  0.8834 -0.5291
 3082SOL    HW120882   1.870   3.559   6.721 -0.6229 -1.2873  0.2595
 3082SOL    HW220883   1.789   3.606   6.840 -1.3393  2.1673 -0.5503
 3083SOL     OW20884   2.141   1.206   6.884  0.0003 -0.1399 -0.0225
 3083SOL    HW120885   2.105   1.184   6.798 -1.1363  2.3870 -0.1696
 3083SOL    HW220886   2.195   1.280   6.855 -4.0015  2.3204 -1.0990
 3084SOL     OW20887   1.573   2.942  10.516 -0.3788 -0.2753  0.7351
 3084SOL    HW120888   1.582   2.976  10.427 -2.1775  1.3652  1.1732
 3084SOL    HW220889   1.544   2.851  10.505  1.0631 -0.2066 -3.5348
 3085SOL     OW20890   4.098   4.692   8.647  0.0747 -0.0189  0.2358
 3085SOL    HW120891   4.010   4.720   8.670 -0.8573 -2.2073 -0.7270
 3085SOL    HW220892   4.103   4.621   8.712  0.3038  1.2938  1.6491
 3086SOL     OW20893   4.600   1.488   2.094 -0.4931  0.3150  0.4048
 3086SOL    HW120894   4.540   1.464   2.164  0.1569 -2.4948  0.0097
 3086SOL    HW220895   4.553   1.467   2.013  0.9338 -2.1279  0.2251
 3087SOL     OW20896   1.498   1.086   5.829 -0.2557  0.5872 -0.1187
 3087SOL    HW120897   1.527   1.051   5.745  1.2729  0.4253  0.4799
 3087SOL    HW220898   1.542   1.021   5.884  0.4187  2.1994  1.2449
 3088SOL     OW20899   3.424   0.358  11.765 -0.5084 -0.1246 -0.3736
 3088SOL    HW120900   3.435   0.279  11.818  1.2124  1.7326  2.0424
 3088SOL    HW220901   3.463   0.341  11.680  0.7674 -1.9147  0.5723
 3089SOL     OW20902   0.045   1.100   5.690 -0.7535 -0.3060  0.1099
 3089SOL    HW120903   4.725   1.097   5.766 -0.6142  0.5762  0.2544
 3089SOL    HW220904   4.716   1.146   5.639  0.4891  0.4894 -0.8067
 3090SOL     OW20905   2.298   4.383   6.230  0.1143 -0.2116 -0.0669
 3090SOL    HW120906   2.381   4.430   6.242 -0.7625  0.6915  2.4712
 3090SOL    HW220907   2.224   4.443   6.241  0.4115  0.1373  0.0498
 3091SOL     OW20908   2.454   0.348  15.185  0.1348 -0.3829 -0.6204
 3091SOL    HW120909   2.497   0.333  15.101  1.5221  1.9615 -0.3498
 3091SOL    HW220910   2.400   0.270  15.176 -0.7080  0.0879  0.4285
 3092SOL     OW20911   0.546   2.302   4.866 -0.4001  0.9288 -0.2249
 3092SOL    HW120912   0.546   2.396   4.880  4.1294  0.5084  2.6574
 3092SOL    HW220913   0.579   2.276   4.952  2.7476 -1.0104 -1.9941
 3093SOL     OW20914   3.151   1.963   9.284  1.0624 -0.0535  0.1368
 3093SOL    HW120915   3.130   1.897   9.349  0.3941 -1.4209 -1.4647
 3093SOL    HW220916   3.100   2.042   9.304 -0.3808 -0.7039 -0.9629
 3094SOL     OW20917   3.583   2.666  10.626 -0.2130  0.3308  0.0282
 3094SOL    HW120918   3.667   2.677  10.671 -1.0306  2.4130  1.0160
 3094SOL    HW220919   3.531   2.684  10.704 -0.1303  2.5896 -0.4496
 3095SOL     OW20920   3.117   3.362   1.337 -0.2141  0.1345  0.6492
 3095SOL    HW120921   3.101   3.338   1.429 -0.9749  0.7568  0.6856
 3095SOL    HW220922   3.070   3.288   1.298  1.8916 -0.2478 -1.1049
 3096SOL     OW20923   3.674   3.172   2.348 -0.2275 -0.7428  0.1298
 3096SOL    HW120924   3.594   3.223   2.360  0.1261 -0.1334 -0.1268
 3096SOL    HW220925   3.637   3.098   2.300 -3.2997  1.4587 -0.8865
 3097SOL     OW20926   3.884   0.347  14.289 -0.0663 -0.4146 -0.3622
 3097SOL    HW120927   3.933   0.426  14.266  2.0038 -0.7258  3.0824
 3097SOL    HW220928   3.933   0.282  14.238 -1.7089 -1.1715 -0.9682
 3098SOL     OW20929   2.891   3.682   6.239  0.5030  0.3203 -0.0638
 3098SOL    HW120930   2.940   3.763   6.251  1.7093 -0.5159  0.6986
 3098SOL    HW220931   2.859   3.671   6.329  0.1134  0.2189 -0.2141
 3099SOL     OW20932   2.695   0.909   3.597  0.0535  0.5609  0.2804
 3099SOL    HW120933   2.666   0.970   3.665  1.4942 -1.3057  2.5569
 3099SOL    HW220934   2.614   0.889   3.550  0.9216 -1.8178 -0.1858
 3100SOL     OW20935   4.469   3.714   4.281  0.0930 -0.1111  0.0586
 3100SOL    HW120936   4.532   3.686   4.347 -0.0906  0.4112  0.4575
 3100SOL    HW220937   4.468   3.809   4.294 -3.1630  0.3693 -3.4221
 3101SOL     OW20938   0.553   0.936   4.786  0.1315  0.3139  0.1893
 3101SOL    HW120939   0.471   0.977   4.812  0.2107 -0.9061  2.4049
 3101SOL    HW220940   0.564   0.952   4.692  1.3337  0.3258  0.3321
 3102SOL     OW20941   1.713   0.172  11.328  0.5656  0.0836 -0.3533
 3102SOL    HW120942   1.623   0.206  11.325  0.5238  0.0130  0.0763
 3102SOL    HW220943   1.731   0.214  11.412  1.4637  0.0669 -0.5381
 3103SOL     OW20944   3.277   1.351   7.396 -0.0884 -0.0111  0.3951
 3103SOL    HW120945   3.269   1.259   7.370 -0.3691 -0.0637  0.6675
 3103SOL    HW220946   3.229   1.341   7.478  1.9067  0.3017  1.6274
 3104SOL     OW20947   4.421   2.975   0.973  0.1497  0.4239 -0.1219
 3104SOL    HW120948   4.486   2.995   1.040 -1.3165  1.7979  0.8835
 3104SOL    HW220949   4.429   3.043   0.906  4.8363 -0.6955 -0.7135
 3105SOL     OW20950   1.830   0.788   1.542  0.3443 -0.2541  0.2436
 3105SOL    HW120951   1.802   0.722   1.478  0.7208 -0.7991  0.6361
 3105SOL    HW220952   1.879   0.736   1.605  1.6124  0.2081 -0.3726
 3106SOL     OW20953   3.455   3.562   5.426 -0.2762  0.5249 -0.4610
 3106SOL    HW120954   3.430   3.621   5.355  1.7482 -0.1605 -1.7411
 3106SOL    HW220955   3.411   3.482   5.398 -1.2463  1.6047 -2.0047
 3107SOL     OW20956   2.883   1.432   4.701  0.3619  0.2703  0.4364
 3107SOL    HW120957   2.977   1.449   4.705  0.3940  0.1539  0.1523
 3107SOL    HW220958   2.879   1.341   4.672 -0.9874 -0.0048  1.4830
 3108SOL     OW20959   1.706   4.318   4.436 -0.2410 -0.3888 -0.4465
 3108SOL    HW120960   1.641   4.319   4.366 -0.0303  0.6168 -0.6172
 3108SOL    HW220961   1.678   4.253   4.501  0.7059  1.7550  2.1279
 3109SOL     OW20962   1.597   0.982   8.690  0.2262  0.3909 -0.1473
 3109SOL    HW120963   1.644   0.902   8.713 -2.3963 -0.2112  3.0620
 3109SOL    HW220964   1.522   0.950   8.640  1.7108 -0.7929 -1.5788
 3110SOL     OW20965   1.767   3.194  10.257 -0.2931  0.7579 -0.0883
 3110SOL    HW120966   1.782   3.100  10.251 -1.3648  0.5551  0.4073
 3110SOL    HW220967   1.846   3.234  10.293 -0.8530 -0.1300  2.1613
 3111SOL     OW20968   4.150   3.505   2.820  0.5097 -1.0245  0.1990
 3111SOL    HW120969   4.105   3.529   2.739  3.1410  2.2356 -0.3248
 3111SOL    HW220970   4.129   3.412   2.815 -0.3192 -0.8594  0.5731
 3112SOL     OW20971   0.342   1.504  13.243  0.0957  0.5292  0.1654
 3112SOL    HW120972   0.291   1.543  13.172 -0.1919 -0.0019  0.0788
 3112SOL    HW220973   0.379   1.424  13.205  1.4128  0.5020  1.5271
 3113SOL     OW20974   4.237   1.719   3.542 -0.6272 -0.3550  0.4289
 3113SOL    HW120975   4.317   1.668   3.532 -0.7095 -0.5449  0.7192
 3113SOL    HW220976   4.256   1.782   3.612  0.3600  0.2593 -0.3979
 3114SOL     OW20977   1.250   2.845  10.867  0.0699  0.0177 -0.9163
 3114SOL    HW120978   1.269   2.768  10.813 -1.5245 -0.3954 -0.8858
 3114SOL    HW220979   1.340   2.863  10.893  0.1509  0.4389 -1.4927
 3115SOL     OW20980   3.719   2.005   6.829  0.0614 -0.4355  0.7779
 3115SOL    HW120981   3.718   1.913   6.801 -3.0859 -0.7106  1.7830
 3115SOL    HW220982   3.747   1.989   6.919 -0.4318 -2.3133  0.5982
 3116SOL     OW20983   2.367   3.642   5.906  0.4272  0.1357 -0.5559
 3116SOL    HW120984   2.432   3.574   5.923  0.7384  0.4018 -0.6873
 3116SOL    HW220985   2.336   3.661   5.995  0.5155 -0.4206 -0.4072
 3117SOL     OW20986   1.095   4.098   5.365 -0.2324 -0.2990 -0.2929
 3117SOL    HW120987   1.164   4.157   5.335 -0.0688 -0.1876  0.3025
 3117SOL    HW220988   1.052   4.162   5.421 -0.7232 -1.5394  0.7649
 3118SOL     OW20989   2.698   3.961   0.640  0.2808 -0.5050  0.4229
 3118SOL    HW120990   2.688   3.933   0.549 -0.6597  0.9446  0.0801
 3118SOL    HW220991   2.763   4.031   0.634  0.6562 -0.9835 -1.2613
 3119SOL     OW20992   4.683   2.382   6.088 -0.9084 -0.0211  0.3042
 3119SOL    HW120993   0.017   2.323   6.113  0.3250  1.3636  0.0338
 3119SOL    HW220994   4.734   2.436   6.028 -1.5469 -1.1610 -1.2518
 3120SOL     OW20995   0.305   0.350   5.421  0.4884 -0.3959 -0.1194
 3120SOL    HW120996   0.307   0.440   5.386 -0.9565 -0.6246 -0.7939
 3120SOL    HW220997   0.213   0.335   5.441  0.8155  0.4769  2.0361
 3121SOL     OW20998   4.638   1.569  13.291 -0.4729  0.2102 -0.3967
 3121SOL    HW120999   4.551   1.533  13.304 -0.2412 -0.7756 -1.5412
 3121SOL    HW221000   4.683   1.489  13.317  0.5519  0.7452 -0.4955
 3122SOL     OW21001   4.485   1.479  12.915 -0.6652 -0.3845 -0.2325
 3122SOL    HW121002   4.441   1.402  12.950 -0.0660 -0.8029 -0.4118
 3122SOL    HW221003   4.410   1.539  12.913 -1.1677 -1.1609 -3.9559
 3123SOL     OW21004   3.957   0.969   7.498  0.0693  0.4129  0.2266
 3123SOL    HW121005   3.995   0.977   7.410  3.4033  1.0695  1.7267
 3123SOL    HW221006   3.968   0.883   7.538 -0.5943  1.1270  1.9477
 3124SOL     OW21007   2.128   3.821   1.163 -0.3928 -1.0313 -0.2691
 3124SOL    HW121008   2.069   3.891   1.133 -0.4533 -0.7470  0.5231
 3124SOL    HW221009   2.208   3.873   1.165 -0.2738 -1.2423  0.2026
 3125SOL     OW21010   3.520   3.747   9.726 -0.1393  0.9946  0.0587
 3125SOL    HW121011   3.578   3.702   9.788 -0.3979 -0.1383 -0.5312
 3125SOL    HW221012   3.446   3.687   9.730 -0.4881  1.2907 -1.8277
 3126SOL     OW21013   1.687   3.604  15.442  0.2960  0.0009  0.1727
 3126SOL    HW121014   1.698   3.525  15.389 -0.6526 -0.2748  0.3748
 3126SOL    HW221015   1.778   3.631  15.431 -0.4655  2.7010  0.4752
 3127SOL     OW21016   0.574   2.670   6.528  1.1692 -0.3637 -0.0438
 3127SOL    HW121017   0.507   2.603   6.517  1.4700 -0.4648 -1.3161
 3127SOL    HW221018   0.552   2.737   6.463  0.3058 -0.6926 -0.0826
 3128SOL     OW21019   2.913   1.641   4.492 -0.1536  0.7061 -0.0610
 3128SOL    HW121020   2.989   1.624   4.436 -0.4966  1.1097 -0.6465
 3128SOL    HW221021   2.952   1.628   4.579 -1.4559  0.8218  0.5489
 3129SOL     OW21022   3.225   4.183   6.123  0.3063 -0.1133 -0.1730
 3129SOL    HW121023   3.242   4.261   6.070 -1.1053  0.5270  0.3161
 3129SOL    HW221024   3.137   4.166   6.089 -0.0106  0.3756  0.4077
 3130SOL     OW21025   0.758   3.365   5.845  0.1918  0.2156  0.4793
 3130SOL    HW121026   0.732   3.347   5.936 -2.2848  1.6667  0.0591
 3130SOL    HW221027   0.681   3.327   5.802 -0.3696  2.3456 -0.3628
 3131SOL     OW21028   0.362   4.333   0.126  0.0116  0.7187  0.3398
 3131SOL    HW121029   0.332   4.412   0.079  2.7189 -0.4095 -3.2343
 3131SOL    HW221030   0.454   4.330   0.102 -0.4742 -4.4415 -0.7900
 3132SOL     OW21031   1.334   3.789   8.495 -0.0761 -0.0257 -0.2407
 3132SOL    HW121032   1.400   3.724   8.473  0.0859 -0.0511  0.3325
 3132SOL    HW221033   1.257   3.734   8.506 -0.9564  1.1564 -0.4371
 3133SOL     OW21034   2.078   2.013   6.952 -0.1176  0.2575  1.0946
 3133SOL    HW121035   2.096   2.099   6.913 -2.4658  0.6834  0.9285
 3133SOL    HW221036   1.984   2.023   6.967 -0.5391  0.0152 -1.3535
 3134SOL     OW21037   2.552   3.678   8.396  0.3512 -0.0190 -0.5083
 3134SOL    HW121038   2.516   3.686   8.484  1.5239 -0.6132  0.0102
 3134SOL    HW221039   2.540   3.767   8.363 -0.9575 -0.1039 -0.2673
 3135SOL     OW21040   0.370   1.228  17.461  0.1699  0.3814 -0.0641
 3135SOL    HW121041   0.312   1.292  17.502  0.9616 -1.3203  3.6620
 3135SOL    HW221042   0.308   1.198  17.395 -2.4099  0.8886  2.1306
 3136SOL     OW21043   2.946   3.872  16.917 -0.4970 -0.0418 -1.1971
 3136SOL    HW121044   2.866   3.888  16.867  0.2986  0.7176 -2.2296
 3136SOL    HW221045   3.008   3.918  16.860 -1.3654 -0.6652 -2.6648
 3137SOL     OW21046   1.382   1.163   3.832  0.2179 -0.0552 -0.6092
 3137SOL    HW121047   1.417   1.098   3.772  2.8718  1.0710 -0.2780
 3137SOL    HW221048   1.449   1.231   3.839  0.6570 -0.5566 -0.0560
 3138SOL     OW21049   3.065   4.237   5.151  0.0854  0.1854  0.6324
 3138SOL    HW121050   3.099   4.226   5.240 -1.3434 -2.0781  0.9177
 3138SOL    HW221051   3.117   4.178   5.097 -0.8896  1.0459 -1.2145
 3139SOL     OW21052   0.813   2.898   8.246 -0.0902 -0.0402 -0.1771
 3139SOL    HW121053   0.801   2.975   8.303 -0.9512 -2.1837  2.5344
 3139SOL    HW221054   0.887   2.861   8.293  0.9924  1.0057 -1.0545
 3140SOL     OW21055   1.140   1.247   7.569  0.0489 -0.2229  0.4083
 3140SOL    HW121056   1.083   1.247   7.492  0.4461  1.6490  0.1044
 3140SOL    HW221057   1.213   1.296   7.531 -2.0117  2.1986 -0.4439
 3141SOL     OW21058   2.216   2.679   9.438  0.1721 -0.7995 -0.5459
 3141SOL    HW121059   2.204   2.772   9.420  0.5665 -0.3072  1.6725
 3141SOL    HW221060   2.123   2.657   9.434  0.0477 -0.0080 -1.8498
 3142SOL     OW21061   4.317   1.973  15.070  0.1100 -0.7360 -0.4323
 3142SOL    HW121062   4.271   1.951  15.151  0.5182 -1.2182 -0.3373
 3142SOL    HW221063   4.363   1.890  15.068  0.8524 -0.4130  3.1998
 3143SOL     OW21064   4.267   4.035  15.210 -0.2278 -0.0769 -0.0357
 3143SOL    HW121065   4.172   4.022  15.217  0.0851 -1.2376  2.2497
 3143SOL    HW221066   4.282   4.130  15.209  0.9069 -0.2632 -0.3246
 3144SOL     OW21067   0.050   4.532   8.450  0.2538  0.0016  0.0103
 3144SOL    HW121068   0.065   4.439   8.470  1.4814  0.2433  0.2496
 3144SOL    HW221069   4.715   4.563   8.504  1.0769 -0.3390  1.2997
 3145SOL     OW21070   4.583   0.703   0.613  0.1910 -0.0653  0.0763
 3145SOL    HW121071   4.521   0.680   0.544 -0.0682  0.8506 -0.0038
 3145SOL    HW221072   4.661   0.738   0.571  0.3538 -1.9910 -1.2281
 3146SOL     OW21073   1.544   1.010  13.564  0.2967  0.6881  0.1262
 3146SOL    HW121074   1.639   1.009  13.551  0.0007 -1.5459 -1.9728
 3146SOL    HW221075   1.534   0.918  13.587 -1.3525  0.7808 -0.2348
 3147SOL     OW21076   1.498   2.302   4.251 -0.3861  0.4557 -0.4284
 3147SOL    HW121077   1.592   2.319   4.257 -0.5596  1.4588 -0.6125
 3147SOL    HW221078   1.488   2.277   4.159 -2.3738 -0.3243 -0.0034
 3148SOL     OW21079   3.169   1.499   4.115  0.1971  0.6748 -0.2897
 3148SOL    HW121080   3.174   1.545   4.031  1.6790  1.7697  0.3798
 3148SOL    HW221081   3.213   1.415   4.101  1.0290  1.1281 -0.4421
 3149SOL     OW21082   4.668   0.270  16.517  0.1425  0.2657  0.0658
 3149SOL    HW121083   0.022   0.258  16.491  0.0609  2.9250 -1.4846
 3149SOL    HW221084   4.618   0.237  16.442 -1.1231  1.6827  0.2748
 3150SOL     OW21085   0.938   1.526   2.783  0.3118  0.0529  0.4972
 3150SOL    HW121086   0.974   1.613   2.766  0.1000  0.1756  0.6836
 3150SOL    HW221087   0.860   1.546   2.835  1.1482  1.6133  1.1586
 3151SOL     OW21088   3.340   2.459   7.564 -0.1041  0.1835 -0.2156
 3151SOL    HW121089   3.315   2.388   7.624 -1.0258  0.8558  0.1913
 3151SOL    HW221090   3.383   2.406   7.497 -0.3176  0.0729 -0.2650
 3152SOL     OW21091   1.706   2.688   9.137  0.1696  0.1445  0.4087
 3152SOL    HW121092   1.634   2.632   9.110  0.4499 -0.3821  0.7660
 3152SOL    HW221093   1.674   2.717   9.222  0.7725 -0.6704  0.9116
 3153SOL     OW21094   0.749   1.818   3.902  0.3005  0.1532 -0.3459
 3153SOL    HW121095   0.709   1.905   3.896 -1.2509 -0.3904  1.8828
 3153SOL    HW221096   0.714   1.772   3.827 -0.8294 -0.3799  0.5082
 3154SOL     OW21097   3.261   0.734   2.766  0.4512 -0.4737 -0.2724
 3154SOL    HW121098   3.338   0.787   2.749  0.7488 -0.9578 -0.4275
 3154SOL    HW221099   3.207   0.738   2.687 -0.0467 -1.1157  0.0331
 3155SOL     OW21100   0.360   3.670   1.965 -0.2323  0.1983 -0.2927
 3155SOL    HW121101   0.382   3.684   2.057 -0.9125 -3.0450  0.3830
 3155SOL    HW221102   0.272   3.707   1.966  0.0355  0.9086 -2.3416
 3156SOL     OW21103   2.635   0.575   7.055 -0.0222 -0.1322 -0.4360
 3156SOL    HW121104   2.728   0.565   7.074 -0.0949 -0.1306 -0.0811
 3156SOL    HW221105   2.618   0.660   7.097 -0.0726  0.4160 -1.5581
 3157SOL     OW21106   0.352   1.246  13.127  0.0949 -0.1727  0.5359
 3157SOL    HW121107   0.370   1.153  13.137  0.5752 -0.1519 -0.1856
 3157SOL    HW221108   0.274   1.236  13.072  0.0284  0.4699  0.5099
 3158SOL     OW21109   1.319   2.638  16.967  0.0948 -0.0808  0.3279
 3158SOL    HW121110   1.304   2.642  17.061  1.9157 -0.3037  0.6281
 3158SOL    HW221111   1.414   2.628  16.971  0.3445  2.2240  0.4010
 3159SOL     OW21112   2.777   1.920   1.358 -0.2324 -0.0453  0.0437
 3159SOL    HW121113   2.829   2.000   1.347 -1.9208  0.9979 -0.2814
 3159SOL    HW221114   2.731   1.941   1.439  1.1391  1.6736  0.3794
 3160SOL     OW21115   2.061   2.996   0.251  0.0054  0.0421 -0.0168
 3160SOL    HW121116   1.989   2.933   0.250 -0.1048  0.1623  0.8094
 3160SOL    HW221117   2.109   2.953   0.321  1.7488  1.3395 -0.4154
 3161SOL     OW21118   2.654   4.398   8.011 -0.8177 -0.0951  0.4063
 3161SOL    HW121119   2.664   4.474   8.069  0.0271 -0.3236  0.5529
 3161SOL    HW221120   2.571   4.433   7.980  0.3535  1.8661 -0.5307
 3162SOL     OW21121   0.208   1.535   1.703  0.3209  0.2021 -0.1073
 3162SOL    HW121122   0.299   1.538   1.731 -0.2363  2.1184  1.5363
 3162SOL    HW221123   0.168   1.587   1.773  1.1513  1.3006 -0.4498
 3163SOL     OW21124   1.387   1.535   8.605  0.2944 -0.0704  0.0808
 3163SOL    HW121125   1.369   1.586   8.526  0.0755  2.3301  1.6881
 3163SOL    HW221126   1.464   1.576   8.644  0.1933 -0.6983  0.9325
 3164SOL     OW21127   0.306   2.196   8.581 -0.1530  0.2324  0.8502
 3164SOL    HW121128   0.269   2.284   8.582  1.6736  1.0393 -2.2518
 3164SOL    HW221129   0.338   2.185   8.670  1.0724  1.5508  0.5732
 3165SOL     OW21130   3.132   0.703   3.007  0.7182 -0.1393  0.9463
 3165SOL    HW121131   3.194   0.767   3.042 -1.0678  2.2505 -0.2489
 3165SOL    HW221132   3.170   0.702   2.919 -0.9870  0.3429  0.1855
 3166SOL     OW21133   3.827   3.926   6.630  0.0588  0.7128 -0.6911
 3166SOL    HW121134   3.922   3.918   6.625 -0.0153 -2.3682  2.7107
 3166SOL    HW221135   3.812   3.940   6.723  0.6727 -1.3017 -0.2742
 3167SOL     OW21136   1.195   3.164   5.665 -0.2917  0.2427  0.1636
 3167SOL    HW121137   1.198   3.136   5.573 -0.6218 -1.5098  0.6791
 3167SOL    HW221138   1.268   3.118   5.707 -0.5659 -1.1160 -0.8400
 3168SOL     OW21139   1.466   2.525   7.994  0.2525 -0.0325 -0.0462
 3168SOL    HW121140   1.446   2.453   7.933 -0.9632  0.8704 -0.7033
 3168SOL    HW221141   1.545   2.565   7.957  0.6251 -1.1270 -0.4603
 3169SOL     OW21142   2.594   0.092   0.030 -0.4291  0.1819 -0.0695
 3169SOL    HW121143   2.601   0.186   0.011  1.9061 -0.0240 -0.1127
 3169SOL    HW221144   2.558   0.059  17.695  0.1859  0.5185 -0.4714
 3170SOL     OW21145   2.871   0.499   7.170 -0.7413 -0.0819 -0.8165
 3170SOL    HW121146   2.941   0.525   7.111 -1.2578  1.0200 -0.9462
 3170SOL    HW221147   2.884   0.406   7.186  1.1501  0.5631  1.2962
 3171SOL     OW21148   1.872   2.667   3.844 -0.5779  0.1921  0.2315
 3171SOL    HW121149   1.893   2.588   3.894 -0.8272  0.0565  0.1259
 3171SOL    HW221150   1.957   2.708   3.836 -0.7811  0.5986  0.1850
 3172SOL     OW21151   4.290   2.358   0.327 -0.5641  0.8256 -0.0272
 3172SOL    HW121152   4.262   2.446   0.305  0.4725  1.5157  1.3446
 3172SOL    HW221153   4.353   2.336   0.258  0.0238  3.5403 -0.3310
 3173SOL     OW21154   2.715   3.496   4.312  0.0840  0.4071 -0.0614
 3173SOL    HW121155   2.633   3.497   4.263  0.0651  2.7349 -0.0220
 3173SOL    HW221156   2.769   3.556   4.260  0.0900 -0.0998 -0.6327
 3174SOL     OW21157   2.861   1.540   5.307  0.1568 -0.1192 -0.4819
 3174SOL    HW121158   2.929   1.509   5.247  0.6341 -0.3667  0.1755
 3174SOL    HW221159   2.826   1.605   5.247  0.5828 -1.1370 -1.8284
 3175SOL     OW21160   3.272   2.715  14.765 -0.4998  0.5553  0.7475
 3175SOL    HW121161   3.211   2.658  14.718 -0.5360  0.1945  1.2311
 3175SOL    HW221162   3.254   2.800  14.725 -1.3009  0.4574  0.9035
 3176SOL     OW21163   3.451   3.335   2.394 -0.0909 -0.6984  0.1179
 3176SOL    HW121164   3.437   3.344   2.299  0.6275 -0.9927 -0.0116
 3176SOL    HW221165   3.366   3.350   2.435 -0.2270  1.5170 -0.9702
 3177SOL     OW21166   1.944   4.614  15.841  0.6021 -0.2279  0.0068
 3177SOL    HW121167   1.885   4.677  15.882  2.0131  1.4429 -0.5334
 3177SOL    HW221168   1.887   4.554  15.793  0.0499 -0.4270  0.9118
 3178SOL     OW21169   1.499   1.490   8.107  0.2829  0.1671  0.2310
 3178SOL    HW121170   1.412   1.502   8.070 -1.0930 -2.0426  2.8272
 3178SOL    HW221171   1.507   1.396   8.088  0.8631  0.8979 -3.3037
 3179SOL     OW21172   1.964   2.329   3.002  0.5617 -0.2100  0.2029
 3179SOL    HW121173   2.032   2.395   3.016 -0.3486  0.8439 -0.2841
 3179SOL    HW221174   1.998   2.292   2.920 -1.0653  1.0839 -1.0512
 3180SOL     OW21175   4.015   1.121   6.016 -0.2670 -0.3460 -0.4973
 3180SOL    HW121176   3.937   1.130   6.071  1.3369 -0.5973  1.7767
 3180SOL    HW221177   3.987   1.052   5.955 -0.5154 -1.8157  1.2960
 3181SOL     OW21178   2.160   2.187   9.176 -0.2397 -0.4527  0.1494
 3181SOL    HW121179   2.102   2.153   9.109  0.6671  0.4235 -1.0679
 3181SOL    HW221180   2.086   2.204   9.234 -1.1584  1.6657 -1.6529
 3182SOL     OW21181   2.575   0.937   1.998 -0.0916 -0.0592  0.0207
 3182SOL    HW121182   2.508   0.932   2.065  0.4000 -2.2574  0.3647
 3182SOL    HW221183   2.627   0.857   2.012 -0.3247 -0.1784  0.1917
 3183SOL     OW21184   2.273   4.070   4.119  0.3582 -0.0516  0.0135
 3183SOL    HW121185   2.244   4.001   4.178  0.6403 -0.7932 -0.7254
 3183SOL    HW221186   2.338   4.023   4.067 -1.5353 -0.1672 -2.2621
 3184SOL     OW21187   0.299   1.615   4.365 -0.1932  0.0093 -0.0895
 3184SOL    HW121188   0.392   1.598   4.351 -0.3401  0.4608 -1.6586
 3184SOL    HW221189   0.307   1.659   4.450  2.5704 -2.1805  0.7967
 3185SOL     OW21190   0.269   2.339   0.920 -0.3599  0.2121 -0.4028
 3185SOL    HW121191   0.228   2.407   0.974 -0.4993  0.0418 -0.2940
 3185SOL    HW221192   0.355   2.350   0.961  0.2250 -0.3563 -1.4562
 3186SOL     OW21193   0.391   1.112   9.444  0.2416  0.9255  0.1447
 3186SOL    HW121194   0.472   1.078   9.481  0.9693  1.1904 -1.1941
 3186SOL    HW221195   0.427   1.156   9.366 -2.0411  0.4781 -1.1698
 3187SOL     OW21196   4.085   3.696  17.020  0.1541  0.4946  0.0863
 3187SOL    HW121197   3.996   3.664  17.035  0.6429 -1.5129 -1.3857
 3187SOL    HW221198   4.125   3.673  17.104  1.0622  3.0739  0.3478
 3188SOL     OW21199   1.934   1.358   9.130  0.0568  0.0742  0.4554
 3188SOL    HW121200   1.976   1.307   9.199  0.8309  1.3894  0.9537
 3188SOL    HW221201   1.887   1.410   9.195  0.1740 -0.1630  0.7285
 3189SOL     OW21202   4.480   4.053  16.875  0.0803  0.7532 -0.1172
 3189SOL    HW121203   4.499   4.147  16.887  0.4674  0.7267 -0.5298
 3189SOL    HW221204   4.385   4.043  16.881  0.1094  0.0655 -0.9270
 3190SOL     OW21205   1.950   0.430   7.273  0.1425  0.0966  0.3576
 3190SOL    HW121206   1.961   0.525   7.273  0.4214  0.0681 -0.8084
 3190SOL    HW221207   1.937   0.420   7.179  0.6677  0.4304  0.2491
 3191SOL     OW21208   4.325   2.806  10.679 -0.0848  0.0999 -0.0721
 3191SOL    HW121209   4.361   2.762  10.601  2.1556  1.8216  0.0030
 3191SOL    HW221210   4.350   2.738  10.742  0.2255  0.2356 -0.0484
 3192SOL     OW21211   1.050   2.266   4.677 -0.0551  0.1190  0.8143
 3192SOL    HW121212   0.978   2.213   4.711  1.1834 -1.0505  1.5748
 3192SOL    HW221213   1.008   2.352   4.669 -2.4781 -1.2989 -2.1401
 3193SOL     OW21214   2.831   3.629  15.960 -0.1370  0.3230  0.0734
 3193SOL    HW121215   2.784   3.652  16.041 -0.2106  0.7502 -0.0936
 3193SOL    HW221216   2.840   3.534  15.964  1.9003  0.4771 -1.1441
 3194SOL     OW21217   3.304   0.556   6.697  0.4571 -0.3330 -0.8682
 3194SOL    HW121218   3.320   0.590   6.609  1.4878  0.5094 -0.3562
 3194SOL    HW221219   3.320   0.628   6.758 -0.2908 -1.2640  0.4231
 3195SOL     OW21220   1.226   3.349   9.989  0.4552 -0.3771  0.4616
 3195SOL    HW121221   1.144   3.384   9.954  1.8233  1.0064 -1.3580
 3195SOL    HW221222   1.291   3.377   9.925 -1.1149 -0.4259 -1.1742
 3196SOL     OW21223   0.066   3.025  13.458 -0.6577  0.1183 -0.6320
 3196SOL    HW121224   0.010   3.058  13.528  0.7462  0.5871  0.2724
 3196SOL    HW221225   0.150   3.002  13.498 -1.1108 -0.5956 -0.0879
 3197SOL     OW21226   3.994   2.133   3.087 -0.3770  0.0874 -0.4147
 3197SOL    HW121227   3.997   2.076   3.010 -1.3302  0.0959 -0.4565
 3197SOL    HW221228   3.989   2.063   3.152  0.5861 -0.1776 -0.6238
 3198SOL     OW21229   3.982   2.669   9.245  0.5869 -0.1003  0.3853
 3198SOL    HW121230   4.076   2.659   9.231  0.7259 -0.6454  1.7064
 3198SOL    HW221231   3.980   2.743   9.305  0.0798  1.2955 -1.3568
 3199SOL     OW21232   3.701   3.580  10.516  0.2892 -0.4306  0.1020
 3199SOL    HW121233   3.613   3.550  10.495  1.4868 -1.7089 -3.0956
 3199SOL    HW221234   3.703   3.642  10.442  0.6388 -1.5027 -0.7790
 3200SOL     OW21235   3.995   4.649  10.190  0.0141 -0.5355 -0.1914
 3200SOL    HW121236   3.904   4.649  10.162  0.6139 -1.9318 -2.1204
 3200SOL    HW221237   3.982   4.596  10.269  0.7778  0.4672  0.6126
 3201SOL     OW21238   0.011   2.760   6.104 -0.4544  0.4464 -0.1187
 3201SOL    HW121239   4.730   2.716   6.187  1.2090  2.1192  1.1545
 3201SOL    HW221240   0.093   2.810   6.115 -0.4343  0.2247  0.7205
 3202SOL     OW21241   3.238   0.448   3.287 -0.6428 -0.0830  0.5639
 3202SOL    HW121242   3.249   0.542   3.300  0.8968  0.1662 -2.6780
 3202SOL    HW221243   3.298   0.400   3.345 -1.5208 -2.7971 -0.7532
 3203SOL     OW21244   2.431   2.364   0.441  0.4639 -0.3646  0.2032
 3203SOL    HW121245   2.390   2.374   0.526 -0.3545  1.8118 -0.4499
 3203SOL    HW221246   2.471   2.277   0.440  2.4634  0.5519  1.3937
 3204SOL     OW21247   0.064   4.002  10.610 -0.2270 -0.2239 -0.5490
 3204SOL    HW121248   0.043   3.909  10.611 -0.7943 -0.0961 -0.5513
 3204SOL    HW221249   4.712   4.030  10.633  0.3505  0.3456  0.9768
 3205SOL     OW21250   0.063   3.526   9.732 -0.0930 -0.0875  0.3014
 3205SOL    HW121251   0.102   3.613   9.728  1.5376 -0.9372 -2.2551
 3205SOL    HW221252   4.708   3.551   9.733  0.2323  1.0427  1.2475
 3206SOL     OW21253   3.066   3.208   4.724  0.0474  0.3931 -0.4715
 3206SOL    HW121254   2.997   3.242   4.782  1.1858 -1.9286  2.2149
 3206SOL    HW221255   3.055   3.280   4.661  2.0631 -0.0151 -1.2970
 3207SOL     OW21256   1.061   4.239   6.374  0.0457  0.3989 -0.0234
 3207SOL    HW121257   1.058   4.310   6.438 -1.1488 -1.6711  2.2095
 3207SOL    HW221258   1.004   4.267   6.303  0.0916 -1.1925 -0.7022
 3208SOL     OW21259   1.415   4.391   9.635 -0.5949  0.3805  0.0269
 3208SOL    HW121260   1.506   4.363   9.633 -0.4057  0.8075  3.7732
 3208SOL    HW221261   1.439   4.483   9.626 -0.7748  0.4533  0.3021
 3209SOL     OW21262   4.084   2.509  13.623  0.0618 -0.2101  0.0067
 3209SOL    HW121263   4.096   2.545  13.712 -1.4317 -2.0629  0.9520
 3209SOL    HW221264   4.053   2.580  13.568 -0.0497 -0.3276 -0.0784
 3210SOL     OW21265   3.552   3.576  13.956 -0.0883 -0.2320  0.3475
 3210SOL    HW121266   3.534   3.659  13.913  1.4862  0.6279  1.3642
 3210SOL    HW221267   3.523   3.510  13.892 -1.3512  0.9222 -0.2719
 3211SOL     OW21268   3.088   0.132   7.580  0.6675  0.7376  0.1334
 3211SOL    HW121269   3.050   0.067   7.638 -0.1012  1.6416  0.6315
 3211SOL    HW221270   3.059   0.103   7.493  0.0750 -1.7498  1.1494
 3212SOL     OW21271   4.638   0.068   3.094  0.1632 -0.0527 -0.2719
 3212SOL    HW121272   4.568   0.117   3.137 -1.2692 -1.3526 -1.1643
 3212SOL    HW221273   4.660   0.138   3.031 -0.7605  0.1227 -0.4040
 3213SOL     OW21274   3.991   2.836   5.097 -0.2925 -0.2575  0.1025
 3213SOL    HW121275   3.970   2.849   5.005 -0.0939 -1.1732 -0.0745
 3213SOL    HW221276   4.034   2.751   5.089  1.1965  0.4873  0.1068
 3214SOL     OW21277   2.019   0.256   5.967  0.0433  0.1799 -0.0227
 3214SOL    HW121278   2.101   0.296   5.940  0.6049 -1.7600 -1.2055
 3214SOL    HW221279   2.000   0.289   6.055 -3.3508 -1.0507 -0.2906
 3215SOL     OW21280   4.228   3.974  14.947  0.4281  0.4965  0.4933
 3215SOL    HW121281   4.271   4.011  15.025  2.0496 -0.2189 -0.0506
 3215SOL    HW221282   4.264   3.886  14.957 -1.3939 -0.1197  1.7138
 3216SOL     OW21283   4.282   3.733  10.137  0.2188  0.4784  0.2055
 3216SOL    HW121284   4.273   3.676  10.060  1.3379  0.2355  0.2548
 3216SOL    HW221285   4.376   3.746  10.143  0.5556  0.0984 -4.0333
 3217SOL     OW21286   2.134   0.510   0.757 -0.0645  0.6440 -0.6778
 3217SOL    HW121287   2.134   0.579   0.823 -1.0597 -1.3223  1.3894
 3217SOL    HW221288   2.040   0.493   0.751 -0.1674  1.3296 -1.0720
 3218SOL     OW21289   4.513   0.185   6.915 -0.8157 -0.3201  0.1959
 3218SOL    HW121290   4.607   0.173   6.902 -0.9920 -2.4727  0.9609
 3218SOL    HW221291   4.481   0.205   6.827 -0.5337  0.1736  0.2095
 3219SOL     OW21292   3.774   0.226   6.944 -0.6371 -0.3707 -0.8718
 3219SOL    HW121293   3.790   0.306   6.994  1.0115  0.3366 -2.5552
 3219SOL    HW221294   3.824   0.240   6.864  1.3660 -0.9927  0.2520
 3220SOL     OW21295   3.599   4.681  10.571 -0.7878 -0.0185 -0.0960
 3220SOL    HW121296   3.625   4.671  10.479  1.6964 -3.0860  0.9424
 3220SOL    HW221297   3.529   4.617  10.572 -1.5167  0.7462 -2.6136
 3221SOL     OW21298   0.789   4.107   2.722 -0.3319 -0.4921 -0.5547
 3221SOL    HW121299   0.765   4.121   2.814  1.0027 -1.0525 -0.1185
 3221SOL    HW221300   0.704   4.111   2.678 -0.6703 -2.5630 -0.0692
 3222SOL     OW21301   2.915   0.687   7.598 -0.2943  0.1952 -0.4840
 3222SOL    HW121302   2.936   0.595   7.582  0.7344  0.3871 -0.2115
 3222SOL    HW221303   2.930   0.720   7.509  0.7220 -0.3604 -0.5170
 3223SOL     OW21304   0.139   2.898   3.636 -0.5405 -0.4941  0.1125
 3223SOL    HW121305   0.136   2.991   3.657  0.1265 -1.1832  3.1521
 3223SOL    HW221306   0.186   2.862   3.711 -1.2229 -2.8119 -0.5897
 3224SOL     OW21307   2.980   2.378   2.968  0.0185 -0.6610  0.9556
 3224SOL    HW121308   2.887   2.363   2.954 -0.4911  2.3916  0.9989
 3224SOL    HW221309   3.016   2.289   2.970  0.4732 -0.4492  2.1787
 3225SOL     OW21310   1.493   2.049   0.217 -0.7044 -0.4886  0.1887
 3225SOL    HW121311   1.447   2.017   0.294 -0.2098  1.0318  1.1179
 3225SOL    HW221312   1.495   2.139   0.249 -0.4061  0.0513 -1.3518
 3226SOL     OW21313   3.677   0.782   6.312  0.0517 -0.1823 -0.6585
 3226SOL    HW121314   3.653   0.729   6.236  0.1993 -1.7130  0.3678
 3226SOL    HW221315   3.637   0.728   6.380 -0.3688 -0.4408 -1.1087
 3227SOL     OW21316   3.816   4.458  17.617 -0.5907 -0.0902 -0.0347
 3227SOL    HW121317   3.852   4.400  17.550 -0.2661 -0.7738  0.7387
 3227SOL    HW221318   3.724   4.440  17.597 -0.5680 -1.6057  1.1936
 3228SOL     OW21319   2.400   1.070   4.134 -0.3200 -0.5098  0.7124
 3228SOL    HW121320   2.367   0.984   4.159 -2.6705 -0.2746 -1.6247
 3228SOL    HW221321   2.330   1.131   4.156 -0.5051 -0.6966  0.6400
 3229SOL     OW21322   4.172   2.435   3.342  0.1173  0.0646 -0.4084
 3229SOL    HW121323   4.125   2.517   3.323  2.5982  1.8528  1.1062
 3229SOL    HW221324   4.256   2.468   3.374 -0.9755  1.1506  1.2929
 3230SOL     OW21325   0.993   2.836   2.066  0.6750 -0.0690  0.1987
 3230SOL    HW121326   0.991   2.786   1.985 -0.8141  0.4163 -0.0728
 3230SOL    HW221327   0.956   2.768   2.121  1.0724 -2.0529 -1.9947
 3231SOL     OW21328   3.678   0.700   6.648  0.7828  0.4712  0.0426
 3231SOL    HW121329   3.651   0.665   6.733 -1.3805  2.3952  0.1609
 3231SOL    HW221330   3.615   0.769   6.630 -0.9915 -0.7301  1.6678
 3232SOL     OW21331   3.779   2.046   8.143 -0.0316 -0.0987 -0.5320
 3232SOL    HW121332   3.759   1.981   8.076  0.4303 -1.2960  0.4876
 3232SOL    HW221333   3.752   2.129   8.104  0.5607 -0.0187 -0.7694
 3233SOL     OW21334   3.475   3.404  12.026 -0.0894 -0.1149  0.7574
 3233SOL    HW121335   3.480   3.436  11.936 -1.7035 -0.6075  0.5004
 3233SOL    HW221336   3.451   3.312  12.011  1.0482  0.0117 -1.8310
 3234SOL     OW21337   3.133   1.228   7.026 -0.2272  0.2518 -0.3937
 3234SOL    HW121338   3.154   1.135   7.032  2.4298  0.8833  0.1744
 3234SOL    HW221339   3.208   1.269   6.984  2.0599 -2.7727  0.7592
 3235SOL     OW21340   1.029   4.498   8.092 -0.2457  0.3109 -0.0069
 3235SOL    HW121341   1.001   4.430   8.154  1.7295  0.5897  1.1943
 3235SOL    HW221342   1.104   4.542   8.131  1.4347 -2.1675 -0.4191
 3236SOL     OW21343   2.541   2.500   4.883 -0.1218 -0.0439  0.3086
 3236SOL    HW121344   2.503   2.466   4.802 -0.4053  0.6205  0.1594
 3236SOL    HW221345   2.625   2.454   4.880  1.2104  2.4584 -0.7505
 3237SOL     OW21346   3.241   3.532  16.608 -0.0075 -0.3992 -0.0010
 3237SOL    HW121347   3.223   3.598  16.542 -1.4277  1.2802  2.0938
 3237SOL    HW221348   3.175   3.561  16.671 -0.3461 -1.7711  0.2736
 3238SOL     OW21349   3.260   2.078  11.698 -0.0876 -0.0472 -0.2999
 3238SOL    HW121350   3.243   2.109  11.787  1.7758 -0.0192  0.0373
 3238SOL    HW221351   3.271   1.985  11.712 -0.8997 -0.5541 -2.9234
 3239SOL     OW21352   3.956   3.939   3.511 -0.1732 -0.0001  0.4434
 3239SOL    HW121353   3.974   3.983   3.429 -3.0881 -0.8769 -0.6689
 3239SOL    HW221354   3.887   3.996   3.545  0.4642  1.4987 -0.8358
 3240SOL     OW21355   3.188   3.569  17.566 -0.0698 -0.4607 -0.2632
 3240SOL    HW121356   3.201   3.558  17.660 -1.1436  2.4626  0.2384
 3240SOL    HW221357   3.166   3.482  17.532 -1.2995 -0.0456 -0.5185
 3241SOL     OW21358   0.628   2.790   3.021  0.9223  0.2803 -1.1830
 3241SOL    HW121359   0.629   2.786   3.117  2.0739  0.0515 -1.1970
 3241SOL    HW221360   0.612   2.880   2.993 -1.7643  0.4936  1.0185
 3242SOL     OW21361   0.510   3.520   7.370  0.0688 -0.4781 -0.1044
 3242SOL    HW121362   0.590   3.554   7.411 -0.3257  0.4376 -0.0924
 3242SOL    HW221363   0.544   3.508   7.281  1.0188  0.9234  0.0667
 3243SOL     OW21364   3.372   4.342   5.885  0.0392  0.6038  0.0968
 3243SOL    HW121365   3.410   4.264   5.925  0.6118 -0.2637 -2.1870
 3243SOL    HW221366   3.414   4.411   5.937  1.2557 -0.2613  0.2819
 3244SOL     OW21367   2.986   1.354   6.101 -0.2654  0.2678 -0.0176
 3244SOL    HW121368   2.949   1.359   6.013 -0.4929  2.0635  0.1672
 3244SOL    HW221369   2.972   1.262   6.119  1.6533 -0.1959 -0.8503
 3245SOL     OW21370   0.200   1.548   6.229  0.1601  0.5548 -0.4437
 3245SOL    HW121371   0.277   1.543   6.173  0.7636  1.1719  0.3368
 3245SOL    HW221372   0.146   1.474   6.200 -1.4987  2.0676 -1.2352
 3246SOL     OW21373   0.518   0.679  14.988 -0.5790 -0.3875  0.5711
 3246SOL    HW121374   0.463   0.619  14.937 -1.1293 -0.6101  1.4295
 3246SOL    HW221375   0.571   0.715  14.917  1.4157 -4.1398  0.1833
 3247SOL     OW21376   4.443   0.632  14.147 -0.0976  0.0683  0.1350
 3247SOL    HW121377   4.488   0.715  14.133 -1.5112  1.0495  1.3006
 3247SOL    HW221378   4.381   0.629  14.074  0.3536  0.2160 -0.2508
 3248SOL     OW21379   1.825   3.138   8.783  0.3282 -0.2500 -0.0090
 3248SOL    HW121380   1.800   3.137   8.875  0.0869  1.0250 -0.0573
 3248SOL    HW221381   1.760   3.077   8.749  0.5394 -0.4907  0.0219
 3249SOL     OW21382   4.645   3.670  12.602 -0.5568  0.0503 -0.2894
 3249SOL    HW121383   4.565   3.695  12.648  0.5319  0.3424  1.4109
 3249SOL    HW221384   4.712   3.708  12.659 -0.0199 -3.0983  1.1589
 3250SOL     OW21385   2.262   0.423   8.231 -0.0069  0.0291 -0.6447
 3250SOL    HW121386   2.299   0.412   8.144  1.0391  0.4557 -0.2531
 3250SOL    HW221387   2.325   0.478   8.276  1.2136 -1.4854 -0.4942
 3251SOL     OW21388   0.530   1.475   6.880  0.0240  0.9288  0.2189
 3251SOL    HW121389   0.498   1.390   6.850  0.8673  0.4503  0.6828
 3251SOL    HW221390   0.452   1.530   6.869 -0.6802 -0.2184 -0.5279
 3252SOL     OW21391   3.441   4.602   3.646  0.1063  1.0391 -0.3620
 3252SOL    HW121392   3.359   4.621   3.691  0.3944  0.7210  0.2892
 3252SOL    HW221393   3.498   4.677   3.663  0.2060  1.0616 -0.7891
 3253SOL     OW21394   4.080   3.909  13.224 -0.0763 -0.0106  0.1749
 3253SOL    HW121395   4.078   3.937  13.315 -1.5990 -1.2148  0.5040
 3253SOL    HW221396   3.987   3.891  13.211 -0.1619  1.0932 -0.7510
 3254SOL     OW21397   1.838   0.179   7.613 -0.5249  0.3515 -0.2251
 3254SOL    HW121398   1.906   0.167   7.547 -0.2035  0.3516  0.1037
 3254SOL    HW221399   1.760   0.191   7.559 -0.4755  0.6291 -0.2333
 3255SOL     OW21400   2.832   3.801  10.388  0.3644 -0.4918 -0.4688
 3255SOL    HW121401   2.848   3.719  10.341  0.9488 -0.5600 -0.1549
 3255SOL    HW221402   2.753   3.787  10.440 -0.2297  2.2162 -0.6864
 3256SOL     OW21403   3.322   0.327  17.453  0.1884  0.1324  0.0334
 3256SOL    HW121404   3.388   0.331  17.521 -1.2629 -0.9637  1.5088
 3256SOL    HW221405   3.298   0.419  17.441 -2.3641 -0.5893 -0.5137
 3257SOL     OW21406   0.993   1.880   1.654 -0.4737 -0.2278 -0.2139
 3257SOL    HW121407   1.007   1.938   1.579  0.5269 -0.8511 -0.5099
 3257SOL    HW221408   1.083   1.879   1.687 -0.2753 -0.9878 -0.7682
 3258SOL     OW21409   1.305   3.032   3.426 -0.0461  0.0331 -0.4064
 3258SOL    HW121410   1.230   3.027   3.486  1.9749  0.8690  2.2125
 3258SOL    HW221411   1.277   2.965   3.364  0.2172 -0.5118  0.0609
 3259SOL     OW21412   4.112   1.125   3.663 -0.1414  0.2095  0.2368
 3259SOL    HW121413   4.201   1.151   3.642 -0.9339  1.3740 -1.7268
 3259SOL    HW221414   4.102   1.149   3.755 -0.6183  0.7044  0.0565
 3260SOL     OW21415   0.861   3.825   9.771 -0.1688  0.5300  0.1104
 3260SOL    HW121416   0.772   3.790   9.772  0.5072 -1.2080 -1.3959
 3260SOL    HW221417   0.859   3.845   9.865  0.1184  1.0945  0.0025
 3261SOL     OW21418   1.216   4.230   2.168 -0.4546 -0.2292  0.2941
 3261SOL    HW121419   1.206   4.144   2.209  1.5860 -0.3734  0.4909
 3261SOL    HW221420   1.310   4.233   2.154 -0.4017 -4.2768 -0.2353
 3262SOL     OW21421   3.279   2.914   2.134 -0.6219 -0.2348 -0.7899
 3262SOL    HW121422   3.317   2.855   2.068  1.7089  1.6993 -1.1860
 3262SOL    HW221423   3.240   2.981   2.078  1.5521  0.1296 -1.8836
 3263SOL     OW21424   3.752   2.653   2.925  0.0836  0.2982  0.2769
 3263SOL    HW121425   3.815   2.611   2.982 -3.0828  1.4370  4.6310
 3263SOL    HW221426   3.801   2.724   2.883 -0.6647  2.0472  2.3684
 3264SOL     OW21427   0.927   1.659   9.583  0.2485 -0.3344  0.4193
 3264SOL    HW121428   0.975   1.586   9.544 -2.9335 -0.5211 -3.1126
 3264SOL    HW221429   0.919   1.615   9.668 -0.6491  0.0779  0.5436
 3265SOL     OW21430   0.586   1.178   9.244  0.1761  0.1822 -0.3649
 3265SOL    HW121431   0.541   1.169   9.159  0.5706  1.6363 -0.7287
 3265SOL    HW221432   0.677   1.194   9.217 -0.3589  2.0515 -1.0055
 3266SOL     OW21433   3.000   1.590   7.585  0.4321  0.3735  0.0828
 3266SOL    HW121434   3.029   1.500   7.568  0.5155  0.0991  1.7394
 3266SOL    HW221435   2.996   1.589   7.680  2.2694  0.2201  0.1701
 3267SOL     OW21436   0.313   3.311  13.806  0.5097 -0.1390  0.1063
 3267SOL    HW121437   0.299   3.388  13.751  2.4782  0.1286 -0.0377
 3267SOL    HW221438   0.234   3.320  13.859  0.4079  1.4787 -0.3110
 3268SOL     OW21439   1.701   1.112   7.329  0.4240 -0.0793 -0.0905
 3268SOL    HW121440   1.641   1.065   7.271  0.9880 -2.7466  1.4584
 3268SOL    HW221441   1.667   1.201   7.326 -1.4656 -0.7752  0.2274
 3269SOL     OW21442   4.007   0.685   8.001  0.3772  0.2214  0.5376
 3269SOL    HW121443   4.073   0.739   7.957 -0.0041 -0.7006 -1.1412
 3269SOL    HW221444   4.058   0.674   8.081  0.2575 -1.7546  0.3312
 3270SOL     OW21445   1.506   2.777  16.631  0.2748  0.1533 -0.0620
 3270SOL    HW121446   1.510   2.710  16.562  0.8246 -0.7802  0.8779
 3270SOL    HW221447   1.443   2.840  16.595  0.4612  1.2773  1.5826
 3271SOL     OW21448   0.097   4.714   9.017  0.5336 -0.1252 -0.1959
 3271SOL    HW121449   0.027   4.650   9.029 -1.2062  1.8741  0.3074
 3271SOL    HW221450   0.083   0.026   8.936  1.5139 -2.3696 -1.7272
 3272SOL     OW21451   2.914   4.382  11.625  0.4017  0.0353 -0.4426
 3272SOL    HW121452   2.893   4.457  11.569 -0.3253  0.4809  0.4188
 3272SOL    HW221453   2.826   4.346  11.632  0.2727  0.0754 -1.9931
 3273SOL     OW21454   2.766   0.235  16.619  0.2603  0.0734 -0.4279
 3273SOL    HW121455   2.716   0.311  16.647  2.4704 -0.5488  5.0699
 3273SOL    HW221456   2.775   0.235  16.523 -0.7237 -2.1761 -0.4988
 3274SOL     OW21457   1.881   0.790   8.837 -0.3317  0.4460 -0.5614
 3274SOL    HW121458   1.887   0.715   8.896 -3.1000  0.1291 -0.7130
 3274SOL    HW221459   1.917   0.853   8.900  1.1596 -1.1394  0.1807
 3275SOL     OW21460   4.342   1.672  14.783 -0.0856 -0.1918  0.3780
 3275SOL    HW121461   4.363   1.700  14.872  0.2384  2.7720 -0.6521
 3275SOL    HW221462   4.425   1.631  14.757  1.0297  1.8197  0.7565
 3276SOL     OW21463   2.631   2.704   9.309  0.5145  0.0869 -0.6264
 3276SOL    HW121464   2.631   2.735   9.400 -0.5482 -0.6478 -0.3764
 3276SOL    HW221465   2.587   2.778   9.268  0.4621  0.0734 -0.5943
 3277SOL     OW21466   1.642   2.301   8.825 -0.6725  0.0320  0.1747
 3277SOL    HW121467   1.724   2.350   8.831  0.1928 -1.3086 -0.7979
 3277SOL    HW221468   1.618   2.322   8.735  0.0136  2.5624  0.5838
 3278SOL     OW21469   2.197   0.353   2.388 -0.1504  0.4079  0.0992
 3278SOL    HW121470   2.239   0.395   2.313 -1.9065 -1.3885 -1.8773
 3278SOL    HW221471   2.184   0.433   2.439  2.0892  1.8787 -1.6499
 3279SOL     OW21472   3.815   0.257  10.812  0.1908 -0.5871 -0.1533
 3279SOL    HW121473   3.822   0.352  10.799 -2.0230 -0.4918 -0.5205
 3279SOL    HW221474   3.903   0.223  10.797 -0.2289 -0.7252 -2.3176
 3280SOL     OW21475   3.812   1.381   6.846 -0.1596 -0.2682 -0.6027
 3280SOL    HW121476   3.903   1.402   6.869 -0.5396 -0.5566  1.1471
 3280SOL    HW221477   3.839   1.319   6.778  0.2995  0.0736 -0.7323
 3281SOL     OW21478   4.400   1.166  13.163 -0.2690 -0.1776  0.2399
 3281SOL    HW121479   4.490   1.141  13.179 -0.6867  0.7177  4.0613
 3281SOL    HW221480   4.386   1.151  13.069 -2.8626  1.3360  0.3594
 3282SOL     OW21481   0.968   2.675  15.539 -0.2449  0.1107  0.3558
 3282SOL    HW121482   0.979   2.591  15.584  0.0856  2.1086  4.0169
 3282SOL    HW221483   0.923   2.649  15.459  0.4076  2.2657 -0.7295
 3283SOL     OW21484   4.614   0.379   8.254  0.2556  0.7502  0.2685
 3283SOL    HW121485   4.684   0.361   8.317 -0.7812  0.1535  1.2422
 3283SOL    HW221486   4.667   0.356   8.177 -0.6099 -2.4244  0.6132
 3284SOL     OW21487   3.892   3.386  10.184 -0.4512 -0.0125  0.1867
 3284SOL    HW121488   3.804   3.399  10.219 -1.1422 -2.2893 -0.7179
 3284SOL    HW221489   3.897   3.290  10.185 -0.9466 -0.0417 -0.0077
 3285SOL     OW21490   3.184   0.355  13.515  0.2493 -0.7502 -0.3859
 3285SOL    HW121491   3.121   0.320  13.578  0.6811 -1.0872 -0.1442
 3285SOL    HW221492   3.254   0.393  13.567 -0.8776  1.7913 -0.7242
 3286SOL     OW21493   1.706   1.124   2.877  0.0122 -0.1303 -0.1261
 3286SOL    HW121494   1.721   1.052   2.816 -1.2180  0.5774 -1.2625
 3286SOL    HW221495   1.633   1.090   2.929 -0.3410 -1.1675 -1.3067
 3287SOL     OW21496   1.122   1.423   2.510  0.4975  0.3832 -0.2875
 3287SOL    HW121497   1.173   1.504   2.507  0.6960  0.2451 -0.7003
 3287SOL    HW221498   1.065   1.430   2.433 -0.9872  1.0067  0.8776
 3288SOL     OW21499   1.853   4.628   2.475 -0.1430 -0.8151  0.3782
 3288SOL    HW121500   1.864   4.707   2.421 -0.6645 -0.9484  0.0749
 3288SOL    HW221501   1.774   4.645   2.526  0.9680  3.1160  0.8403
 3289SOL     OW21502   3.966   4.020   5.656  0.5325  0.1017 -0.1159
 3289SOL    HW121503   3.876   4.048   5.672  0.6827 -0.0001  0.9608
 3289SOL    HW221504   3.954   4.029   5.562  1.2476  0.1063 -0.2074
 3290SOL     OW21505   0.662   1.464  13.876  0.2032  0.3670 -0.0080
 3290SOL    HW121506   0.631   1.452  13.965  0.7223 -0.0644  0.1086
 3290SOL    HW221507   0.700   1.378  13.862  1.2877  0.8837 -0.2670
 3291SOL     OW21508   1.204   1.420   8.878 -0.1134 -0.0274 -0.3365
 3291SOL    HW121509   1.277   1.406   8.818 -1.0582 -0.3500 -1.4051
 3291SOL    HW221510   1.163   1.486   8.822 -1.6213  0.2011  1.0472
 3292SOL     OW21511   4.673   0.208   0.604 -0.0111 -0.4752 -0.1768
 3292SOL    HW121512   4.686   0.286   0.657  1.1494 -0.5163 -0.4158
 3292SOL    HW221513   0.024   0.171   0.612 -0.7517 -1.8233  1.9137
 3293SOL     OW21514   4.131   1.016   9.769  0.4201 -0.0279  0.2600
 3293SOL    HW121515   4.131   1.032   9.675  0.9733  0.9656  0.4243
 3293SOL    HW221516   4.203   0.953   9.781  1.3343  0.3561 -3.0401
 3294SOL     OW21517   3.603   1.751   7.416  0.3778 -0.3346  0.3845
 3294SOL    HW121518   3.660   1.674   7.413 -1.7360 -1.8679 -0.4058
 3294SOL    HW221519   3.553   1.745   7.335  2.1723  0.3665 -0.7649
 3295SOL     OW21520   0.204   1.937   4.254 -0.1104 -0.2253  0.1832
 3295SOL    HW121521   0.236   1.921   4.343  1.5665  0.4379 -0.2914
 3295SOL    HW221522   0.189   1.850   4.217 -1.0769  0.2786 -0.6133
 3296SOL     OW21523   1.730   0.394   4.173  0.2474  0.4195  0.4944
 3296SOL    HW121524   1.823   0.389   4.153  0.5257  3.6561  0.8856
 3296SOL    HW221525   1.705   0.335   4.103  0.5311  0.1417  0.6297
 3297SOL     OW21526   4.331   0.345   7.454 -0.4266 -0.1074 -0.2156
 3297SOL    HW121527   4.408   0.350   7.396  0.5910  0.8502  1.2057
 3297SOL    HW221528   4.323   0.250   7.462  2.5270 -0.4560 -1.3200
 3298SOL     OW21529   4.376   1.762   5.943  0.3263  0.0931  0.2362
 3298SOL    HW121530   4.429   1.839   5.927 -0.8792  0.8597 -0.0882
 3298SOL    HW221531   4.340   1.773   6.031  0.5965 -1.0262  0.4961
 3299SOL     OW21532   2.492   3.511   9.639  0.5013  0.7176 -0.2323
 3299SOL    HW121533   2.430   3.558   9.694  1.1219  1.9795 -0.6270
 3299SOL    HW221534   2.473   3.543   9.551 -1.7894 -2.5820 -0.9402
 3300SOL     OW21535   1.772   0.866  17.197 -0.0658  0.5210 -0.4643
 3300SOL    HW121536   1.728   0.950  17.179 -0.8491  0.3288  0.5685
 3300SOL    HW221537   1.838   0.892  17.261 -2.1627  2.4245  0.9199
 3301SOL     OW21538   4.114   0.145  16.693  0.4004  0.0454 -0.8673
 3301SOL    HW121539   4.183   0.095  16.650  2.0179  1.1921  0.3963
 3301SOL    HW221540   4.157   0.144  16.778 -2.9523  1.2658  0.8684
 3302SOL     OW21541   2.624   1.507   8.860 -0.2284  0.5764  0.0727
 3302SOL    HW121542   2.630   1.570   8.789  1.4023  1.0381  0.6145
 3302SOL    HW221543   2.708   1.463   8.855 -0.9803 -0.7870 -0.5633
 3303SOL     OW21544   1.690   1.720   0.558 -0.0579 -0.0284 -0.6100
 3303SOL    HW121545   1.618   1.781   0.572 -1.3694 -1.8414  0.4323
 3303SOL    HW221546   1.645   1.638   0.539  0.4408 -0.6662  0.9869
 3304SOL     OW21547   3.448   1.501   5.393  0.1948 -0.1368 -0.0137
 3304SOL    HW121548   3.499   1.423   5.373  0.7425  0.0996  0.4650
 3304SOL    HW221549   3.499   1.572   5.352  2.5213 -1.4293  0.6326
 3305SOL     OW21550   2.183   2.503   4.106 -0.0782 -0.1587  0.1610
 3305SOL    HW121551   2.102   2.519   4.059 -0.1951 -0.6143  0.2075
 3305SOL    HW221552   2.217   2.593   4.109 -0.0947 -0.1462 -0.0408
 3306SOL     OW21553   3.618   0.982   3.608 -0.5976 -0.2144  0.0408
 3306SOL    HW121554   3.530   0.995   3.643 -0.3344 -1.0600  1.0407
 3306SOL    HW221555   3.604   1.039   3.532 -0.2952  1.5515  1.3112
 3307SOL     OW21556   1.459   2.072   7.486 -0.1385 -0.3226 -0.6939
 3307SOL    HW121557   1.540   2.079   7.537 -0.5523  0.1889 -0.1068
 3307SOL    HW221558   1.471   2.143   7.422  2.3285 -0.0120  0.1027
 3308SOL     OW21559   3.386   2.935   6.371  0.3145  0.4870  0.0019
 3308SOL    HW121560   3.347   3.000   6.312  1.3767 -0.0548 -1.2891
 3308SOL    HW221561   3.357   2.854   6.331 -0.5176  0.8521 -0.1319
 3309SOL     OW21562   3.220   3.721   3.285  0.0619  0.1209  0.2070
 3309SOL    HW121563   3.303   3.767   3.294 -0.9108  2.0850 -0.8631
 3309SOL    HW221564   3.251   3.639   3.247  0.6876  0.6887 -0.4857
 3310SOL     OW21565   2.998   0.196   5.000  0.1938 -0.3462 -0.5265
 3310SOL    HW121566   3.057   0.169   5.070 -0.4019 -1.7071 -0.5365
 3310SOL    HW221567   2.935   0.245   5.053  0.4113  1.2057 -1.6979
 3311SOL     OW21568   3.634   1.237   5.570  0.1668 -0.1565  0.4511
 3311SOL    HW121569   3.585   1.154   5.569 -0.1552  0.0809 -2.4815
 3311SOL    HW221570   3.624   1.271   5.481 -1.7170 -0.1973  0.6348
 3312SOL     OW21571   4.075   1.031   0.436 -0.1972 -0.3429 -0.1923
 3312SOL    HW121572   4.062   0.943   0.403  0.0478 -0.9392  1.2831
 3312SOL    HW221573   4.007   1.077   0.387 -0.6935 -0.9785 -0.1018
 3313SOL     OW21574   1.540   4.152   6.524  0.1484  0.4338  0.4542
 3313SOL    HW121575   1.534   4.222   6.590  0.3208 -1.2661  2.2854
 3313SOL    HW221576   1.449   4.135   6.501  1.4216 -1.6459 -3.0632
 3314SOL     OW21577   2.279   2.568  10.567  0.1536 -0.2495 -0.3083
 3314SOL    HW121578   2.310   2.643  10.617  0.5283 -0.8236  0.3310
 3314SOL    HW221579   2.308   2.501  10.629 -2.5234 -0.0672  1.1649
 3315SOL     OW21580   2.394   0.219   6.396 -0.1823  0.0037  0.0954
 3315SOL    HW121581   2.308   0.249   6.428 -1.3147 -1.5862 -1.4793
 3315SOL    HW221582   2.360   0.147   6.343  0.7862  0.1515 -0.7042
 3316SOL     OW21583   1.869   3.375  13.991 -0.1186  0.0600  0.6039
 3316SOL    HW121584   1.846   3.289  13.956 -0.5793 -0.4116  2.0484
 3316SOL    HW221585   1.818   3.389  14.071  0.8221  1.0651  1.0298
 3317SOL     OW21586   0.874   4.667  11.786 -0.2688  0.1951 -0.2930
 3317SOL    HW121587   0.895   4.716  11.706 -0.6101  2.2932  0.8794
 3317SOL    HW221588   0.904   4.732  11.851 -0.7009 -0.2065  0.3127
 3318SOL     OW21589   1.101   2.943   8.155 -0.3143 -0.4476 -0.4562
 3318SOL    HW121590   1.072   2.853   8.160 -1.3017 -0.2468 -2.3159
 3318SOL    HW221591   1.019   2.989   8.135 -0.3588 -0.5785 -0.5691
 3319SOL     OW21592   2.803   0.515   2.181 -0.6879  0.2619  0.4989
 3319SOL    HW121593   2.849   0.431   2.188  1.6928  1.4859 -0.4292
 3319SOL    HW221594   2.877   0.574   2.190 -2.5187  2.5274  0.5058
 3320SOL     OW21595   0.959   3.904  11.281 -0.0812 -0.3331 -0.0990
 3320SOL    HW121596   1.027   3.897  11.347  0.3204  0.9660 -0.3772
 3320SOL    HW221597   0.886   3.948  11.325 -0.2728 -1.2639  0.5168
 3321SOL     OW21598   2.307   3.740   0.758 -0.1074 -0.0851  0.1364
 3321SOL    HW121599   2.347   3.815   0.802  0.2705  0.5450 -1.3016
 3321SOL    HW221600   2.349   3.749   0.672 -0.3197  1.2498  0.1680
 3322SOL     OW21601   3.109   2.382   5.041 -0.5032 -1.3070 -0.4755
 3322SOL    HW121602   3.062   2.362   4.960 -2.1719  1.1282 -0.1223
 3322SOL    HW221603   3.067   2.462   5.072 -0.9304 -1.6064 -0.2776
 3323SOL     OW21604   2.053   3.328   9.083 -0.5840 -0.2422 -0.2753
 3323SOL    HW121605   2.014   3.241   9.084  1.1463 -1.0073 -1.0244
 3323SOL    HW221606   2.004   3.368   9.156  1.2953 -1.1620  1.4840
 3324SOL     OW21607   3.385   3.944  13.799  0.1768 -0.2270 -0.4122
 3324SOL    HW121608   3.459   3.916  13.851 -1.9546 -0.9281  2.2470
 3324SOL    HW221609   3.427   3.992  13.728  0.0363  2.2009  1.1561
 3325SOL     OW21610   1.234   1.389  11.587 -0.4721  0.0776 -0.1388
 3325SOL    HW121611   1.160   1.348  11.541  0.1267 -1.0729 -0.0532
 3325SOL    HW221612   1.189   1.469  11.614  0.0732  0.2654  0.1865
 3326SOL     OW21613   3.423   3.374   6.664 -0.5343 -0.0560  0.1874
 3326SOL    HW121614   3.428   3.307   6.596 -2.3237  0.3888 -0.3956
 3326SOL    HW221615   3.495   3.349   6.722 -0.5288 -1.5356 -0.4746
 3327SOL     OW21616   3.941   2.598  16.692 -0.0262 -0.0043 -0.1510
 3327SOL    HW121617   3.956   2.671  16.632  0.7737 -0.4403 -0.4743
 3327SOL    HW221618   4.028   2.577  16.726  0.1185 -0.2636 -0.6823
 3328SOL     OW21619   4.446   2.153   7.000  0.1736 -0.7235  0.0568
 3328SOL    HW121620   4.375   2.133   6.938 -0.3453  1.8387 -0.1442
 3328SOL    HW221621   4.514   2.185   6.941 -0.6027 -0.7957 -0.8794
 3329SOL     OW21622   4.448   0.552   2.216 -0.6016  0.0459  0.2856
 3329SOL    HW121623   4.528   0.500   2.212 -0.0299  0.8420  1.1659
 3329SOL    HW221624   4.408   0.526   2.299  1.7666 -0.1179  1.3751
 3330SOL     OW21625   2.660   0.925  15.702 -0.0863 -0.1059  0.1812
 3330SOL    HW121626   2.656   0.977  15.622  1.7873 -0.2578  0.0027
 3330SOL    HW221627   2.754   0.922  15.718  0.2877  0.0731 -2.0110
 3331SOL     OW21628   1.208   0.522   9.066  0.4201  0.5857  0.3180
 3331SOL    HW121629   1.151   0.568   9.126  0.7019  1.4395 -0.0666
 3331SOL    HW221630   1.145   0.498   8.998  1.7794  0.0233 -0.7458
 3332SOL     OW21631   3.972   3.906   0.447  0.2674  0.2641 -0.5686
 3332SOL    HW121632   3.936   3.951   0.371 -2.4587 -1.5802 -0.3253
 3332SOL    HW221633   4.051   3.958   0.465  1.5008 -1.4621 -0.9933
 3333SOL     OW21634   0.405   4.244   3.357 -0.0462 -0.0311 -0.1247
 3333SOL    HW121635   0.481   4.273   3.408  0.5252  0.2708 -1.1487
 3333SOL    HW221636   0.379   4.329   3.322 -1.0166 -0.4901 -0.5145
 3334SOL     OW21637   3.251   2.891   4.562 -0.0373  0.5587  0.3316
 3334SOL    HW121638   3.162   2.871   4.589 -0.4551  2.3105  0.2829
 3334SOL    HW221639   3.290   2.903   4.649  1.7878 -0.0988 -0.3986
 3335SOL     OW21640   1.599   4.203   7.314 -0.1421 -0.2209 -0.9801
 3335SOL    HW121641   1.541   4.170   7.245 -2.0719  1.5341 -0.1793
 3335SOL    HW221642   1.681   4.216   7.267  1.0096  0.0695  1.1018
 3336SOL     OW21643   3.743   3.784   2.803  0.3814 -0.7063 -0.3034
 3336SOL    HW121644   3.753   3.877   2.781 -2.8301 -0.1591  0.4607
 3336SOL    HW221645   3.819   3.777   2.861 -2.3372 -0.9128  3.2532
 3337SOL     OW21646   1.788   0.443  10.757  0.3841 -0.1748  0.0173
 3337SOL    HW121647   1.719   0.400  10.807  0.1029  0.2700  0.0012
 3337SOL    HW221648   1.835   0.480  10.832  0.5589 -1.1941  0.4143
 3338SOL     OW21649   4.384   1.880   0.099  0.3042  0.2373  0.3018
 3338SOL    HW121650   4.433   1.958   0.124  2.1224 -0.9400  0.4382
 3338SOL    HW221651   4.422   1.810   0.152 -0.5032  1.2926  2.2754
 3339SOL     OW21652   0.846   2.987   7.986  0.2230  0.3299  0.6073
 3339SOL    HW121653   0.802   2.939   8.056  0.3475  0.1267  0.5463
 3339SOL    HW221654   0.782   2.977   7.915 -1.6509 -1.4466  2.5199
 3340SOL     OW21655   0.700   4.533  13.180  0.0144  0.5236 -0.1905
 3340SOL    HW121656   0.611   4.558  13.153  0.2815  0.9809 -0.6502
 3340SOL    HW221657   0.689   4.444  13.213 -4.6778  0.6129 -1.4786
 3341SOL     OW21658   1.803   3.854   4.775  0.8228  0.0812 -0.5008
 3341SOL    HW121659   1.755   3.780   4.813 -1.2374  1.8189  0.2956
 3341SOL    HW221660   1.823   3.898   4.857 -0.1637 -1.6017  0.6422
 3342SOL     OW21661   1.256   2.243   5.581  0.0630  0.5593  0.0562
 3342SOL    HW121662   1.206   2.247   5.500 -0.2366  1.3546  0.2770
 3342SOL    HW221663   1.204   2.308   5.630 -0.9614 -1.4280  1.6188
 3343SOL     OW21664   2.276   1.845  14.981  0.3050 -0.4243 -0.1775
 3343SOL    HW121665   2.371   1.846  14.994  0.4684 -0.7188 -1.4168
 3343SOL    HW221666   2.243   1.901  15.053  0.6913 -0.6042  0.1369
 3344SOL     OW21667   4.489   3.373  13.035  0.2870 -0.5535 -0.1048
 3344SOL    HW121668   4.448   3.320  13.103  0.3061 -1.4841 -0.8136
 3344SOL    HW221669   4.471   3.461  13.068 -0.4422 -1.4586  1.8663
 3345SOL     OW21670   1.091   3.096   0.185 -0.0094  0.1002 -0.0217
 3345SOL    HW121671   1.185   3.078   0.184 -0.3292 -1.6118  1.1200
 3345SOL    HW221672   1.078   3.122   0.277 -1.3529  0.9358 -0.4405
 3346SOL     OW21673   4.199   3.297  10.559 -0.3079  0.2152  0.1991
 3346SOL    HW121674   4.261   3.351  10.608 -2.3256  1.4165  1.4614
 3346SOL    HW221675   4.231   3.208  10.575  0.2609  0.4403  0.3108
 3347SOL     OW21676   3.765   2.310   8.792  0.3797  0.3079 -0.2654
 3347SOL    HW121677   3.741   2.300   8.884  0.7169 -0.3946 -0.2532
 3347SOL    HW221678   3.725   2.395   8.776 -0.7796 -0.3291 -0.7921
 3348SOL     OW21679   1.006   4.539   8.558  0.1604 -0.0145  0.6821
 3348SOL    HW121680   0.913   4.539   8.578  0.1375 -0.2718  0.5725
 3348SOL    HW221681   1.030   4.625   8.591  2.1020  0.0830 -1.0350
 3349SOL     OW21682   3.782   2.055   8.745  0.4419 -0.2058  0.1791
 3349SOL    HW121683   3.757   2.148   8.741 -1.2246 -0.6068  1.2680
 3349SOL    HW221684   3.705   2.012   8.707 -0.5691  0.6353  1.2560
 3350SOL     OW21685   0.390   0.989  10.922  0.6275  0.0480 -0.6852
 3350SOL    HW121686   0.473   1.036  10.926  1.0933 -0.6559 -2.0156
 3350SOL    HW221687   0.411   0.896  10.928  0.0627  0.0434  1.0354
 3351SOL     OW21688   2.925   2.363  11.352 -0.5214  0.3962  0.6894
 3351SOL    HW121689   2.830   2.360  11.365 -0.6594  0.3618 -0.3535
 3351SOL    HW221690   2.948   2.455  11.363 -1.8158  0.8964 -0.8409
 3352SOL     OW21691   1.704   1.100   1.926 -0.0049 -0.4079 -0.6878
 3352SOL    HW121692   1.631   1.054   1.968  0.5645 -0.7721 -0.0956
 3352SOL    HW221693   1.661   1.126   1.844  1.1998 -0.8867 -1.4743
 3353SOL     OW21694   2.001   2.889  10.029 -0.0440 -0.2372 -0.3091
 3353SOL    HW121695   2.027   2.797  10.020  0.6268 -0.2681  2.0328
 3353SOL    HW221696   2.082   2.935  10.048 -1.5067  0.1562  4.8582
 3354SOL     OW21697   0.674   0.977   2.936 -0.4137 -0.0576 -0.0180
 3354SOL    HW121698   0.721   1.057   2.912 -0.4781 -0.1433 -0.4401
 3354SOL    HW221699   0.701   0.931   2.856  0.3976 -1.1300  0.8881
 3355SOL     OW21700   0.550   1.757   7.067 -0.0575 -0.6856 -0.3721
 3355SOL    HW121701   0.638   1.778   7.099 -0.8345  2.6332 -0.3623
 3355SOL    HW221702   0.557   1.796   6.980 -0.5951 -0.1058 -0.1549
 3356SOL     OW21703   2.276   3.734  10.282 -0.0547 -0.4819  0.1561
 3356SOL    HW121704   2.273   3.733  10.186  0.5549  2.5950  0.1240
 3356SOL    HW221705   2.369   3.750  10.298 -0.0631  1.9581 -2.2712
 3357SOL     OW21706   3.139   0.200  13.290  0.3138 -0.6334 -0.3986
 3357SOL    HW121707   3.163   0.254  13.365  0.1048 -0.4623 -0.4533
 3357SOL    HW221708   3.101   0.126  13.337 -0.0907 -0.2305 -0.0922
 3358SOL     OW21709   0.935   0.842   9.593 -0.8839  0.4601  0.2374
 3358SOL    HW121710   0.985   0.760   9.600  0.7218  1.4294 -0.0425
 3358SOL    HW221711   0.921   0.856   9.686  0.6024  2.5449  0.1396
 3359SOL     OW21712   2.547   1.790   1.971  0.2379 -0.2499 -0.0388
 3359SOL    HW121713   2.629   1.825   2.005  0.8024  0.1854 -1.8447
 3359SOL    HW221714   2.522   1.717   2.028  0.7394 -1.2010 -1.0523
 3360SOL     OW21715   3.075   1.474   5.115 -0.3129  0.1161  0.4120
 3360SOL    HW121716   3.128   1.531   5.059  0.0801 -0.3792  0.2818
 3360SOL    HW221717   3.062   1.400   5.055  1.7459  0.8477 -0.9206
 3361SOL     OW21718   1.966   1.527   6.710 -0.0916 -0.0600  0.2999
 3361SOL    HW121719   2.007   1.564   6.631 -1.0448  2.1243  0.8294
 3361SOL    HW221720   1.990   1.587   6.780  2.9272  1.9353 -2.4176
 3362SOL     OW21721   2.744   0.043   8.699  0.4805  0.4978  0.8860
 3362SOL    HW121722   2.826   0.050   8.650  0.0453  0.1212  0.0891
 3362SOL    HW221723   2.753   4.693   8.739 -2.1033  0.3613  1.1955
 3363SOL     OW21724   4.281   1.633   5.350  0.1098  0.5276 -0.2032
 3363SOL    HW121725   4.340   1.557   5.353 -1.4262 -0.7637 -2.2604
 3363SOL    HW221726   4.237   1.628   5.435  2.4248 -1.8548  0.8512
 3364SOL     OW21727   4.121   1.707   2.666  0.3526 -0.2123 -0.1947
 3364SOL    HW121728   4.044   1.734   2.716  0.1282  1.7756 -1.6298
 3364SOL    HW221729   4.175   1.775   2.706  0.3423 -0.4590  0.2386
 3365SOL     OW21730   4.411   4.330  16.684  0.4330 -0.4873 -0.4117
 3365SOL    HW121731   4.506   4.328  16.675  0.4754 -1.6160  0.3587
 3365SOL    HW221732   4.380   4.360  16.599  0.4503  0.0313 -0.2383
 3366SOL     OW21733   4.084   1.327   4.968  0.3349  0.2881  0.2867
 3366SOL    HW121734   4.093   1.293   5.057 -2.0524  0.3284  0.5446
 3366SOL    HW221735   4.168   1.372   4.953 -0.1375 -0.0606 -3.3997
 3367SOL     OW21736   0.378   1.559   8.690 -0.1121  0.0744 -0.2718
 3367SOL    HW121737   0.329   1.499   8.746  2.5089  0.8667  2.9229
 3367SOL    HW221738   0.398   1.626   8.756  0.9896 -0.6441  0.1309
 3368SOL     OW21739   1.009   0.565   7.194 -0.1853  0.0359  0.0250
 3368SOL    HW121740   1.052   0.482   7.172  1.5974  1.3865 -1.5283
 3368SOL    HW221741   1.027   0.578   7.287 -0.3751 -1.4726  0.2804
 3369SOL     OW21742   4.118   3.663  10.597 -0.2822 -0.3883  0.0553
 3369SOL    HW121743   4.105   3.624  10.511  1.5372 -0.0826 -0.3642
 3369SOL    HW221744   4.192   3.615  10.635 -0.3129  0.5229  1.2716
 3370SOL     OW21745   0.354   4.140   5.320 -0.6833  0.0235 -0.8490
 3370SOL    HW121746   0.315   4.086   5.252  0.4149 -1.4464 -0.2959
 3370SOL    HW221747   0.348   4.223   5.272  0.1585  0.4825 -0.1743
 3371SOL     OW21748   4.357   2.477   4.634  0.3336 -0.1193 -0.4222
 3371SOL    HW121749   4.403   2.560   4.647  2.1397 -1.1869 -0.0865
 3371SOL    HW221750   4.274   2.500   4.677  1.0944 -0.1023  1.0372
 3372SOL     OW21751   1.488   4.049  14.436  0.3278  0.0252  0.3688
 3372SOL    HW121752   1.544   4.066  14.360 -0.0361 -0.5281 -0.0225
 3372SOL    HW221753   1.433   4.124  14.414  0.8608  0.8699  1.8782
 3373SOL     OW21754   1.748   1.417   9.317  0.1141  0.0526  0.1562
 3373SOL    HW121755   1.725   1.496   9.267 -0.0292  0.0353  0.1933
 3373SOL    HW221756   1.660   1.404   9.353  0.4424  2.0179  1.6621
 3374SOL     OW21757   1.284   2.084  14.972 -0.2178 -0.4551 -0.0825
 3374SOL    HW121758   1.233   2.031  14.910 -0.9776 -1.4914  1.4334
 3374SOL    HW221759   1.364   2.099  14.922 -0.0959  0.2414  0.3200
 3375SOL     OW21760   1.138   3.588   3.084  0.2908  0.1516 -0.0935
 3375SOL    HW121761   1.088   3.599   3.003  3.0783  0.4313 -1.7409
 3375SOL    HW221762   1.202   3.658   3.074  0.0089  0.4191 -0.0421
 3376SOL     OW21763   4.360   3.539  10.649  0.3668  0.4285  0.5226
 3376SOL    HW121764   4.397   3.627  10.644  0.0067  0.5006 -0.9333
 3376SOL    HW221765   4.429   3.497  10.597 -1.0105 -1.1566 -0.0188
 3377SOL     OW21766   1.928   3.801  12.541  0.2037  0.0004 -0.1388
 3377SOL    HW121767   1.943   3.717  12.497  1.1857 -0.5411  1.2016
 3377SOL    HW221768   1.940   3.772  12.632 -1.8788  0.1440  0.1950
 3378SOL     OW21769   1.631   0.283  16.037 -0.1399 -0.3138 -0.5575
 3378SOL    HW121770   1.591   0.330  15.964 -0.5744 -0.6051 -0.5032
 3378SOL    HW221771   1.553   0.252  16.081  1.8619  0.7554  3.7316
 3379SOL     OW21772   1.664   0.858  11.515 -0.1978 -0.7376  0.6471
 3379SOL    HW121773   1.601   0.849  11.444  0.7442 -3.8310  0.1553
 3379SOL    HW221774   1.683   0.951  11.514 -0.4887 -0.6736  1.0146
 3380SOL     OW21775   1.237   4.277   5.812 -0.8026 -0.4159 -0.3837
 3380SOL    HW121776   1.208   4.200   5.763  2.4263 -0.9082 -1.5580
 3380SOL    HW221777   1.329   4.280   5.787 -0.4116 -0.0783  1.0823
 3381SOL     OW21778   1.491   2.892  12.148  0.5248  0.1598 -0.1739
 3381SOL    HW121779   1.437   2.813  12.149  0.3365  0.2893 -0.1977
 3381SOL    HW221780   1.551   2.874  12.075 -0.9402  0.0302 -1.3514
 3382SOL     OW21781   0.631   3.249   5.530  0.2884 -0.2925 -0.2873
 3382SOL    HW121782   0.710   3.226   5.482  2.0852  1.3246  1.9013
 3382SOL    HW221783   0.598   3.317   5.472  1.5619  1.9237  1.5943
 3383SOL     OW21784   3.661   3.311   6.840 -0.3335  0.3673  0.0619
 3383SOL    HW121785   3.702   3.382   6.791  0.1986  0.5867  0.8378
 3383SOL    HW221786   3.724   3.243   6.864 -0.4036  0.5077  0.6209
 3384SOL     OW21787   4.025   0.912  12.314  0.2905  0.3969  0.1437
 3384SOL    HW121788   3.994   0.860  12.239 -1.0283  0.8873  0.3512
 3384SOL    HW221789   3.946   0.948  12.354 -0.1581  0.2872 -0.6488
 3385SOL     OW21790   1.540   1.854   6.148 -0.3615 -0.3450  0.6103
 3385SOL    HW121791   1.571   1.764   6.158  0.7776 -0.0673 -0.4039
 3385SOL    HW221792   1.453   1.847   6.108 -0.3207  1.3869  0.2308
 3386SOL     OW21793   2.357   3.560   6.213  0.1072  0.3162 -0.4516
 3386SOL    HW121794   2.443   3.585   6.245 -0.2127  1.2112 -0.2802
 3386SOL    HW221795   2.358   3.465   6.212  0.4406  0.3119  2.7236
 3387SOL     OW21796   1.989   1.306   0.610 -0.2822 -0.1211  0.0288
 3387SOL    HW121797   2.068   1.340   0.650  1.0107  0.8308 -3.3186
 3387SOL    HW221798   1.995   1.317   0.515 -3.0750 -1.8661 -0.3597
 3388SOL     OW21799   0.954   0.991   5.636  0.1898  0.0493  0.6464
 3388SOL    HW121800   1.047   0.981   5.615  0.7451  2.4480  2.0553
 3388SOL    HW221801   0.970   1.001   5.729  1.8524  0.6025  0.3071
 3389SOL     OW21802   3.374   2.253   8.714  0.6641  0.3833  0.0994
 3389SOL    HW121803   3.400   2.252   8.806 -3.0790 -0.3209  1.1543
 3389SOL    HW221804   3.333   2.340   8.709  0.5363  0.1128 -3.1507
 3390SOL     OW21805   2.598   2.474   3.745  0.2600  0.0729 -0.1070
 3390SOL    HW121806   2.528   2.431   3.794  0.5453  0.5036  0.6701
 3390SOL    HW221807   2.588   2.567   3.766 -0.6662 -0.3878  1.4798
 3391SOL     OW21808   4.402   1.013   3.273  0.7126  0.5171  0.3914
 3391SOL    HW121809   4.470   0.953   3.242  0.7403  1.6887 -1.8666
 3391SOL    HW221810   4.326   0.959   3.292  0.4081  1.9768  3.2346
 3392SOL     OW21811   2.946   4.301  12.626  0.1047  0.0016  0.3865
 3392SOL    HW121812   2.888   4.369  12.590 -0.7349 -0.7147  0.4095
 3392SOL    HW221813   3.029   4.340  12.596 -0.9757  2.1434  0.1732
 3393SOL     OW21814   1.451   4.148   4.558  0.2716  0.1346  0.5254
 3393SOL    HW121815   1.364   4.146   4.597  0.3283  0.6029  0.6705
 3393SOL    HW221816   1.456   4.055   4.534  0.4902  0.4900 -0.7837
 3394SOL     OW21817   4.204   4.380   6.855 -0.2939 -0.1535  0.7500
 3394SOL    HW121818   4.243   4.299   6.823  1.4224  0.6803  0.6985
 3394SOL    HW221819   4.247   4.389   6.940 -2.0703  0.1101  1.6201
 3395SOL     OW21820   4.005   1.149   5.563 -0.5438 -0.0501  0.6764
 3395SOL    HW121821   3.973   1.089   5.630 -1.7907  0.4147  0.4989
 3395SOL    HW221822   3.963   1.231   5.591  0.5552  0.2738  1.3831
 3396SOL     OW21823   4.303   3.227  13.200 -0.2239 -0.2536 -0.3045
 3396SOL    HW121824   4.267   3.225  13.289 -1.5093  1.4857 -0.8060
 3396SOL    HW221825   4.335   3.136  13.200 -2.4502 -1.0204 -0.9989
 3397SOL     OW21826   3.301   4.392   3.903  0.5758 -0.2029  0.1237
 3397SOL    HW121827   3.206   4.399   3.912  0.4757 -2.1069  0.4877
 3397SOL    HW221828   3.323   4.485   3.907  3.0591 -0.7951  0.1501
 3398SOL     OW21829   2.626   4.292   0.515  0.2118  0.4278  0.8100
 3398SOL    HW121830   2.570   4.219   0.543  0.1666  0.7956  1.6861
 3398SOL    HW221831   2.706   4.257   0.552 -0.0521  0.0392  1.0180
 3399SOL     OW21832   3.134   3.342  11.722  0.1223 -0.1861  0.0334
 3399SOL    HW121833   3.055   3.294  11.746  0.5224  0.3208  2.3890
 3399SOL    HW221834   3.134   3.399  11.799  0.0219 -0.3437  0.1525
 3400SOL     OW21835   1.694   3.567  15.733 -0.4280  0.6496  0.2121
 3400SOL    HW121836   1.746   3.495  15.768  0.6948  2.0824  1.5033
 3400SOL    HW221837   1.690   3.541  15.641  0.4063  1.0013  0.0767
 3401SOL     OW21838   3.724   1.408  11.911 -0.2722 -0.1195 -0.4893
 3401SOL    HW121839   3.710   1.315  11.893 -2.1166  0.1120 -0.2203
 3401SOL    HW221840   3.711   1.452  11.827 -1.9176  1.4625  0.6060
 3402SOL     OW21841   1.961   1.116   4.552  0.1771 -0.1895 -0.4427
 3402SOL    HW121842   1.925   1.152   4.471 -3.3262 -1.7674  0.4378
 3402SOL    HW221843   1.889   1.058   4.576 -0.7098  0.7637 -0.8375
 3403SOL     OW21844   3.809   3.482  15.694  0.2509 -0.6993 -0.4168
 3403SOL    HW121845   3.780   3.411  15.751  0.3426 -0.4127 -0.0111
 3403SOL    HW221846   3.808   3.435  15.611 -2.8418  1.3101 -1.5492
 3404SOL     OW21847   4.659   4.313  10.994 -0.0593 -0.0865 -0.4087
 3404SOL    HW121848   4.660   4.227  10.953 -0.5013 -0.1595 -0.2687
 3404SOL    HW221849   0.017   4.323  11.001 -0.1855  0.4607  0.6404
 3405SOL     OW21850   2.842   4.385   4.593 -0.4674  0.8537 -0.5608
 3405SOL    HW121851   2.850   4.434   4.674  0.0362  0.5647 -0.4327
 3405SOL    HW221852   2.782   4.316   4.618  1.1895 -0.9362 -1.4759
 3406SOL     OW21853   1.839   2.856   0.145  0.5639 -0.0317  0.6207
 3406SOL    HW121854   1.807   2.909   0.072  1.0554 -1.2238 -0.4542
 3406SOL    HW221855   1.758   2.807   0.158  0.9674 -0.8759 -0.0339
 3407SOL     OW21856   1.532   2.632   1.951  0.0356 -0.5713  0.8097
 3407SOL    HW121857   1.487   2.716   1.939 -2.1728 -1.8203  0.4129
 3407SOL    HW221858   1.581   2.642   1.870 -2.2817  1.1467 -0.3654
 3408SOL     OW21859   1.199   2.021   1.831 -0.6422  0.0696  0.2027
 3408SOL    HW121860   1.252   2.098   1.852  0.9090 -0.7384 -0.7786
 3408SOL    HW221861   1.239   1.959   1.892  0.1277  0.5650  0.1969
 3409SOL     OW21862   2.912   3.899   5.679  0.2248  0.2557  0.1795
 3409SOL    HW121863   2.913   3.981   5.630 -1.7256  1.1592  1.6644
 3409SOL    HW221864   2.840   3.907   5.741  1.9653 -0.0233  2.2459
 3410SOL     OW21865   2.767   3.792   6.916 -0.8570  0.4127  0.1358
 3410SOL    HW121866   2.693   3.812   6.973 -0.7123 -0.5060  0.6416
 3410SOL    HW221867   2.830   3.856   6.950 -0.8285 -0.3019  1.3921
 3411SOL     OW21868   0.128   3.121   6.834  0.0853 -0.2722 -0.0144
 3411SOL    HW121869   0.146   3.138   6.926  2.2011  1.2574 -0.7098
 3411SOL    HW221870   0.177   3.191   6.790  2.6846 -1.9294  0.2584
 3412SOL     OW21871   2.224   2.738   1.026  0.0739  0.2714 -0.1733
 3412SOL    HW121872   2.316   2.763   1.035  0.0590  0.1147  0.4246
 3412SOL    HW221873   2.177   2.814   0.993 -0.1607 -0.0815 -0.6572
 3413SOL     OW21874   4.324   1.442   1.461 -0.0139 -0.1596 -0.4313
 3413SOL    HW121875   4.295   1.365   1.412 -1.3939 -0.2572  0.5400
 3413SOL    HW221876   4.288   1.434   1.549 -0.2802 -2.0871 -0.7037
 3414SOL     OW21877   0.337   0.731   3.528  0.2238  0.1931  0.2083
 3414SOL    HW121878   0.371   0.671   3.594  0.7639  1.4681  1.1107
 3414SOL    HW221879   0.271   0.672   3.493 -0.6715  1.7940 -0.8356
 3415SOL     OW21880   3.380   4.695   5.797  0.1141  0.0413  0.3392
 3415SOL    HW121881   3.359   0.045   5.764 -3.7030 -0.8152  0.5412
 3415SOL    HW221882   3.473   4.683   5.776 -0.2483  0.1381 -1.2606
 3416SOL     OW21883   2.901   2.218  13.409 -0.3337  0.3479 -0.0193
 3416SOL    HW121884   2.818   2.205  13.363  0.3015 -0.6366 -0.8678
 3416SOL    HW221885   2.952   2.193  13.332 -2.3126 -0.3094 -1.1061
 3417SOL     OW21886   0.262   0.452   2.181 -0.4865 -0.1124 -0.1485
 3417SOL    HW121887   0.289   0.371   2.137 -1.4397 -1.2705  1.3969
 3417SOL    HW221888   0.216   0.425   2.260 -2.5492 -1.6259 -1.8598
 3418SOL     OW21889   2.268   3.661   9.802 -0.1856 -0.2787 -0.0124
 3418SOL    HW121890   2.206   3.685   9.733  0.2044 -0.8236 -0.5516
 3418SOL    HW221891   2.291   3.745   9.840  1.6084 -0.0729 -1.5351
 3419SOL     OW21892   1.442   1.877  10.062  0.7628 -0.4515  0.6246
 3419SOL    HW121893   1.512   1.887  10.127 -0.7110 -0.8086  2.2441
 3419SOL    HW221894   1.401   1.961  10.080 -0.4210 -0.5736 -1.4654
 3420SOL     OW21895   2.252   1.797   2.498 -0.3297  0.3244  0.9159
 3420SOL    HW121896   2.292   1.884   2.497 -0.0819  0.2425  2.7421
 3420SOL    HW221897   2.205   1.808   2.580 -1.2372  0.8362  0.3148
 3421SOL     OW21898   3.068   1.323   9.046  0.1193  0.4222 -0.2581
 3421SOL    HW121899   3.099   1.254   8.987 -0.0616  1.1526 -1.2210
 3421SOL    HW221900   3.074   1.282   9.132 -0.2170  1.0324  0.0542
 3422SOL     OW21901   3.317   1.663   7.075  0.1921 -0.0248 -0.3104
 3422SOL    HW121902   3.312   1.636   7.166 -1.2002 -1.1739 -0.7374
 3422SOL    HW221903   3.290   1.754   7.085 -3.1666 -1.3084  2.3141
 3423SOL     OW21904   1.275   3.070   8.704 -0.2843  0.1216 -0.4748
 3423SOL    HW121905   1.288   3.012   8.629  2.4714  1.8066 -1.3075
 3423SOL    HW221906   1.255   3.154   8.663  0.9023  0.0799 -1.1512
 3424SOL     OW21907   0.615   1.813   2.955  0.1651  0.1257  0.3266
 3424SOL    HW121908   0.658   1.827   2.870 -0.1012 -0.1574  0.1455
 3424SOL    HW221909   0.659   1.878   3.010 -0.2062 -0.2663  1.0824
 3425SOL     OW21910   1.896   4.328   3.121 -0.2851  0.8287  0.4029
 3425SOL    HW121911   1.940   4.253   3.082  2.0382  1.3392  2.0333
 3425SOL    HW221912   1.808   4.294   3.107  1.0491 -1.6521 -1.8905
 3426SOL     OW21913   1.335   3.771   2.993 -0.5744  0.4411  0.1015
 3426SOL    HW121914   1.327   3.856   3.036  0.5231  0.6925 -0.1963
 3426SOL    HW221915   1.323   3.802   2.904  1.0802  0.2058 -0.1934
 3427SOL     OW21916   2.215   0.344   9.330  0.2980 -0.2423 -0.0764
 3427SOL    HW121917   2.176   0.389   9.404 -0.5504  0.7059 -1.1011
 3427SOL    HW221918   2.141   0.288   9.307  0.4774 -0.1327 -0.9292
 3428SOL     OW21919   0.065   1.746   3.524  0.0799  0.1212  0.2374
 3428SOL    HW121920   0.154   1.767   3.496  1.3485 -1.7554  2.8475
 3428SOL    HW221921   0.024   1.731   3.439  0.2778  2.6889 -0.2825
 3429SOL     OW21922   1.501   0.731   0.964  0.3519 -0.2450  0.2265
 3429SOL    HW121923   1.477   0.822   0.980  2.2740 -0.1236  2.4230
 3429SOL    HW221924   1.596   0.738   0.958  0.3692 -1.1649 -0.5740
 3430SOL     OW21925   2.322   0.568   5.223  0.3933  1.1999 -0.0549
 3430SOL    HW121926   2.404   0.617   5.220  0.2390  1.3327 -1.9652
 3430SOL    HW221927   2.313   0.544   5.131  2.5089  1.1884 -0.2715
 3431SOL     OW21928   0.401   4.144   0.322  0.0098 -0.2482  0.3159
 3431SOL    HW121929   0.431   4.219   0.373  2.9550 -0.6003 -0.8997
 3431SOL    HW221930   0.391   4.178   0.233 -0.0857 -0.9525  0.0577
 3432SOL     OW21931   1.107   1.089   9.611  0.0441 -0.7086 -0.7647
 3432SOL    HW121932   1.040   1.156   9.596 -0.3489 -0.9151  0.0363
 3432SOL    HW221933   1.053   1.010   9.605  0.4888 -1.2091  1.6891
 3433SOL     OW21934   0.985   0.772   4.733  0.0027  0.0237 -0.0668
 3433SOL    HW121935   1.062   0.716   4.723  1.6185  2.1468  0.4712
 3433SOL    HW221936   0.902   0.724   4.724 -0.4447  0.6514  0.7143
 3434SOL     OW21937   2.509   0.919  15.334  0.1163  0.6240  0.5920
 3434SOL    HW121938   2.450   0.986  15.368 -0.8779 -0.5902  1.2415
 3434SOL    HW221939   2.483   0.837  15.375  0.5728  1.2980  2.2375
 3435SOL     OW21940   0.586   0.703   8.441  0.6487 -0.1441  0.8168
 3435SOL    HW121941   0.659   0.686   8.501  2.3771  2.2461 -0.5798
 3435SOL    HW221942   0.525   0.758   8.490  0.4179  1.4011 -1.1762
 3436SOL     OW21943   3.196   4.120   6.678 -0.4786  0.0695  0.3275
 3436SOL    HW121944   3.225   4.032   6.653 -0.0517  0.8157 -1.7516
 3436SOL    HW221945   3.201   4.161   6.592  1.5169 -0.5255  0.1548
 3437SOL     OW21946   3.941   2.181   7.375 -0.3912  0.0928 -0.1825
 3437SOL    HW121947   3.887   2.186   7.296 -0.0596 -3.2082 -0.6292
 3437SOL    HW221948   3.917   2.265   7.414 -2.4961  0.5397 -2.4255
 3438SOL     OW21949   2.594   0.206   3.465  0.0552  0.1978 -0.6191
 3438SOL    HW121950   2.601   0.125   3.413 -0.7316  1.1887 -2.2732
 3438SOL    HW221951   2.683   0.237   3.452 -0.6499  1.2968 -2.8462
 3439SOL     OW21952   1.592   0.445   5.983  0.1343  0.2891  0.5357
 3439SOL    HW121953   1.574   0.453   5.889 -0.9765 -1.1020  0.6124
 3439SOL    HW221954   1.632   0.358   5.984  3.7754  1.9568 -1.8762
 3440SOL     OW21955   4.149   3.253  12.324 -0.2701 -0.5001 -0.1046
 3440SOL    HW121956   4.225   3.218  12.279 -0.1493 -0.8597  0.3845
 3440SOL    HW221957   4.207   3.285  12.393 -2.1743 -0.7113  1.5959
 3441SOL     OW21958   2.411   0.588   7.619 -0.6265 -0.3894  0.4905
 3441SOL    HW121959   2.374   0.655   7.562 -0.3988  1.9478  3.0971
 3441SOL    HW221960   2.496   0.585   7.576  0.4669 -0.0753  2.6129
 3442SOL     OW21961   4.084   1.911  17.414 -0.7008  0.3959 -0.0469
 3442SOL    HW121962   4.014   1.909  17.480 -0.7431 -1.9116 -0.1628
 3442SOL    HW221963   4.023   1.875  17.349  1.4259 -1.5998 -0.9369
 3443SOL     OW21964   0.280   2.395   4.359  0.3958  0.2100 -0.0167
 3443SOL    HW121965   0.371   2.385   4.388  0.3684  0.5539  0.1844
 3443SOL    HW221966   0.235   2.365   4.438  0.7939  0.1274  0.1786
 3444SOL     OW21967   1.678   2.181   5.067 -0.3675 -0.0068  0.1612
 3444SOL    HW121968   1.719   2.196   5.152  0.4337  2.5575 -0.6841
 3444SOL    HW221969   1.727   2.109   5.027 -0.9226 -0.3399  0.0841
 3445SOL     OW21970   2.574   0.281   1.767  0.7890  0.1857 -0.2595
 3445SOL    HW121971   2.665   0.293   1.796  0.5884 -0.1772  0.5105
 3445SOL    HW221972   2.580   0.190   1.739 -0.9982 -0.1184  0.3597
 3446SOL     OW21973   1.642   0.118   0.450 -0.1194 -0.5597  0.2421
 3446SOL    HW121974   1.586   0.139   0.525 -0.3619  0.0138 -0.1004
 3446SOL    HW221975   1.574   0.095   0.388 -0.1564 -1.3704  0.5785
 3447SOL     OW21976   3.786   2.354   2.749  0.9050  0.4724 -0.8624
 3447SOL    HW121977   3.719   2.422   2.747 -0.8120 -1.2249 -0.6638
 3447SOL    HW221978   3.781   2.312   2.835  1.3961  1.5458 -0.2935
 3448SOL     OW21979   4.717   0.554  17.025  0.1438  0.0399 -0.2885
 3448SOL    HW121980   0.009   0.637  17.064  1.2250  0.2219 -1.4536
 3448SOL    HW221981   4.736   0.568  16.932 -1.7219 -1.0382 -0.8282
 3449SOL     OW21982   1.046   3.565   5.100  0.6517 -0.3523 -0.3480
 3449SOL    HW121983   0.991   3.554   5.178  0.4668  1.1872 -0.2637
 3449SOL    HW221984   1.124   3.609   5.133  0.7832 -1.7390  1.2369
 3450SOL     OW21985   0.157   2.615   2.723  0.2401 -0.3528  0.2333
 3450SOL    HW121986   0.173   2.692   2.778  0.4680  0.8648 -1.5347
 3450SOL    HW221987   0.243   2.607   2.681  0.7148 -4.8120  2.0610
 3451SOL     OW21988   0.604   2.369   9.586  0.4826  0.4149 -0.3593
 3451SOL    HW121989   0.601   2.321   9.668  0.7614 -0.5066 -0.8947
 3451SOL    HW221990   0.627   2.455   9.622 -2.1611  1.1554 -0.4510
 3452SOL     OW21991   4.298   0.456   4.967  0.4840  0.4157  0.4451
 3452SOL    HW121992   4.373   0.418   5.013  0.7458  0.3939 -0.0003
 3452SOL    HW221993   4.259   0.386   4.914 -0.6810  1.2392  0.2060
 3453SOL     OW21994   2.737   4.004   8.482 -0.2794  0.1822  0.7248
 3453SOL    HW121995   2.699   4.006   8.394 -0.2682  0.7735  0.7360
 3453SOL    HW221996   2.822   3.965   8.460 -0.2803  0.1268  0.8207
 3454SOL     OW21997   1.683   0.761   2.963  0.2705 -0.0561  0.4094
 3454SOL    HW121998   1.634   0.816   3.024 -1.9765 -0.4727 -1.0449
 3454SOL    HW221999   1.729   0.705   3.026  1.1735 -0.0897 -0.2695
 3455SOL     OW22000   3.695   1.058  15.311  0.3098 -1.3718  0.7284
 3455SOL    HW122001   3.682   1.103  15.395  0.0519  1.2930 -0.7273
 3455SOL    HW222002   3.777   1.010  15.320  0.6418 -1.1283 -0.9500
 3456SOL     OW22003   4.628   3.764   3.185  0.2554 -0.0340 -0.0016
 3456SOL    HW122004   4.553   3.743   3.129  0.2309  0.0773 -0.0096
 3456SOL    HW222005   4.596   3.804   3.265  1.9867  1.2577  0.0365
 3457SOL     OW22006   4.417   0.170   3.261  0.2130  0.1717 -0.1263
 3457SOL    HW122007   4.385   0.080   3.264  1.4422 -0.2503  0.5379
 3457SOL    HW222008   4.481   0.173   3.333  1.3053  1.8381 -1.1667
 3458SOL     OW22009   1.338   1.636   6.476  0.0254 -0.0229 -0.2832
 3458SOL    HW122010   1.344   1.611   6.568  2.5712 -0.4529 -0.5588
 3458SOL    HW222011   1.349   1.545   6.450 -0.9681  0.0044 -0.8005
 3459SOL     OW22012   3.095   2.508  17.568  0.0063 -0.4829 -0.0916
 3459SOL    HW122013   3.076   2.567  17.641  1.1337 -0.5326  0.2510
 3459SOL    HW222014   3.190   2.510  17.578 -0.1721  1.0249  1.2948
 3460SOL     OW22015   2.048   0.179   2.567  0.0848  0.2317 -0.1630
 3460SOL    HW122016   1.989   0.234   2.516  0.6717 -0.1827 -1.3052
 3460SOL    HW222017   2.123   0.238   2.556  0.1592  0.1999  0.1842
 3461SOL     OW22018   3.745   0.117   5.947 -0.3041  0.3148  0.0002
 3461SOL    HW122019   3.835   0.135   5.974  0.1555 -0.9996 -0.6594
 3461SOL    HW222020   3.697   0.189   5.987  1.3957  0.7675  1.2607
 3462SOL     OW22021   0.783   0.428   9.559 -0.1056  0.4148 -0.3185
 3462SOL    HW122022   0.829   0.423   9.475  1.6201  0.1314  0.6475
 3462SOL    HW222023   0.741   0.342   9.555  1.3730 -0.2983 -0.8301
 3463SOL     OW22024   4.380   2.577  13.950 -0.4943  0.1631  0.2878
 3463SOL    HW122025   4.327   2.611  13.878  0.9110  3.7675  0.9920
 3463SOL    HW222026   4.319   2.592  14.022 -1.8467  2.0040 -1.2659
 3464SOL     OW22027   0.479   0.349   1.450 -0.3564  0.5894 -0.2637
 3464SOL    HW122028   0.568   0.317   1.437  0.5013  1.3812  3.5176
 3464SOL    HW222029   0.485   0.418   1.517  0.0754 -1.4249  1.7855
 3465SOL     OW22030   4.048   0.284   3.927  0.4378  0.1387 -0.0274
 3465SOL    HW122031   4.128   0.316   3.969  0.2939  0.3586  0.0784
 3465SOL    HW222032   3.986   0.342   3.971  2.2301  2.3353 -0.3993
 3466SOL     OW22033   0.228   3.562   8.346 -0.1570 -0.2392  0.0782
 3466SOL    HW122034   0.192   3.638   8.300 -0.2942  0.4124  1.2599
 3466SOL    HW222035   0.198   3.586   8.434  0.5260  0.2599  0.1708
 3467SOL     OW22036   1.092   0.409   8.193  0.5905  0.1645 -0.7886
 3467SOL    HW122037   1.140   0.328   8.207 -0.9457 -0.7807 -0.9343
 3467SOL    HW222038   1.001   0.378   8.195  1.4941 -2.4533 -0.0452
 3468SOL     OW22039   2.028   2.827   4.674  0.0718  0.6741  0.1323
 3468SOL    HW122040   2.058   2.739   4.652  0.7552  0.6794  1.0389
 3468SOL    HW222041   2.083   2.869   4.740 -1.6391 -0.3989  2.2678
 3469SOL     OW22042   3.047   3.249  10.504 -0.1224 -0.1189  0.4065
 3469SOL    HW122043   3.017   3.209  10.586 -2.6975 -0.7840 -0.8751
 3469SOL    HW222044   2.965   3.280  10.467  0.7234  1.7186  0.0845
 3470SOL     OW22045   1.197   0.226   8.664  0.1444 -0.2770 -0.0284
 3470SOL    HW122046   1.162   0.255   8.749  1.5619 -0.5811  0.6540
 3470SOL    HW222047   1.253   0.154   8.692  2.6760  0.5494 -2.9832
 3471SOL     OW22048   3.514   3.422  11.323  0.2447  0.6884  0.6036
 3471SOL    HW122049   3.545   3.512  11.330  1.5756  0.3218 -0.5687
 3471SOL    HW222050   3.421   3.443  11.313  0.0623  0.1110  1.0945
 3472SOL     OW22051   0.273   2.532   6.969  0.2504 -1.2623  0.1299
 3472SOL    HW122052   0.365   2.509   6.971  0.6796  0.5148  0.8084
 3472SOL    HW222053   0.238   2.468   7.031 -2.9393  0.3238 -0.0017
 3473SOL     OW22054   0.269   4.255   4.603 -0.3444 -0.3828 -0.1986
 3473SOL    HW122055   0.210   4.222   4.671  0.0212 -0.0817  0.2654
 3473SOL    HW222056   0.337   4.189   4.606  1.0575  1.0380 -0.5535
 3474SOL     OW22057   3.813   1.776  14.945 -0.0057 -0.6387  0.1884
 3474SOL    HW122058   3.884   1.781  14.882 -0.0153 -0.8064  0.1651
 3474SOL    HW222059   3.856   1.720  15.009  1.0761 -0.0382 -0.0120
 3475SOL     OW22060   0.637   4.601   9.974 -0.4443  0.1208  0.0184
 3475SOL    HW122061   0.697   4.668   9.939 -1.4897  0.9120 -0.2723
 3475SOL    HW222062   0.631   4.633  10.064  2.7730  2.1077 -0.4348
 3476SOL     OW22063   2.298   1.277   4.714  0.0757  0.1209  0.1699
 3476SOL    HW122064   2.273   1.363   4.749 -1.4233 -0.2982  0.1010
 3476SOL    HW222065   2.204   1.267   4.698  0.3254 -3.4386  1.0352
 3477SOL     OW22066   2.878   3.539  10.993 -0.2097 -0.7531 -0.1360
 3477SOL    HW122067   2.866   3.617  10.940  0.7253 -0.1979  0.4723
 3477SOL    HW222068   2.945   3.495  10.942 -1.3560 -1.4156 -1.0555
 3478SOL     OW22069   3.516   2.815   5.443  0.1107 -0.0505 -0.0450
 3478SOL    HW122070   3.551   2.838   5.530  1.8886  0.3298 -0.8494
 3478SOL    HW222071   3.448   2.875   5.414  1.5827  0.6132 -2.1426
 3479SOL     OW22072   1.184   2.762   3.690 -0.7930  0.1460 -1.0076
 3479SOL    HW122073   1.178   2.856   3.706  2.4632  0.3036 -0.7280
 3479SOL    HW222074   1.274   2.745   3.661 -0.4717  2.5354 -1.3791
 3480SOL     OW22075   2.865   2.696   4.667  0.1822 -0.3860 -0.0050
 3480SOL    HW122076   2.866   2.783   4.625  3.2238 -1.2737 -1.7542
 3480SOL    HW222077   2.821   2.710   4.751 -1.1653 -0.2770 -0.7270
 3481SOL     OW22078   3.292   1.893   2.838 -0.0117 -0.1863 -0.0031
 3481SOL    HW122079   3.288   1.815   2.893  0.8940  0.9623  1.7150
 3481SOL    HW222080   3.300   1.857   2.750  1.8318 -0.9280  0.4664
 3482SOL     OW22081   4.167   3.474  12.041 -0.0002  0.0396  0.1091
 3482SOL    HW122082   4.078   3.441  12.048 -0.1426  0.6059  0.9801
 3482SOL    HW222083   4.165   3.526  12.121  0.2209 -0.9535  0.7595
 3483SOL     OW22084   0.500   2.558   4.841 -0.0550  1.0760 -0.3032
 3483SOL    HW122085   0.479   2.591   4.754  2.0745  2.3744 -0.3246
 3483SOL    HW222086   0.525   2.639   4.885 -0.5634  0.9745  0.1751
 3484SOL     OW22087   1.829   1.629  10.869  0.0040 -0.3051  0.2899
 3484SOL    HW122088   1.845   1.544  10.909  0.3662 -0.9685 -1.2390
 3484SOL    HW222089   1.811   1.682  10.947  1.2439  0.3630  0.1298
 3485SOL     OW22090   0.095   1.022   9.761 -0.5266 -0.0001 -0.0246
 3485SOL    HW122091   0.005   1.053   9.759 -0.3548  0.6319  2.2913
 3485SOL    HW222092   0.085   0.930   9.738  0.5757 -0.5129  1.5656
 3486SOL     OW22093   1.636   2.814   6.569  0.3408  0.0493 -0.6113
 3486SOL    HW122094   1.727   2.812   6.541  1.2122  1.8022  2.0563
 3486SOL    HW222095   1.652   2.777   6.656 -0.2558  1.0007 -0.0977
 3487SOL     OW22096   2.335   2.392  12.374  0.3670 -0.3894  0.3989
 3487SOL    HW122097   2.345   2.314  12.319 -0.8583  0.8391 -1.5643
 3487SOL    HW222098   2.402   2.387  12.442 -0.7531 -1.3947  1.4394
 3488SOL     OW22099   4.068   2.495   8.781  0.5350  0.0749  0.4687
 3488SOL    HW122100   4.072   2.465   8.872  2.2538 -0.0043  0.3646
 3488SOL    HW222101   4.047   2.414   8.734  0.0857 -0.0227  0.8335
 3489SOL     OW22102   2.591   1.122   2.606  0.7122  0.1639 -0.2715
 3489SOL    HW122103   2.507   1.165   2.622 -0.2768 -1.7145 -0.4025
 3489SOL    HW222104   2.575   1.044   2.660 -0.4090 -0.4957 -1.5441
 3490SOL     OW22105   4.150   3.497   6.808  0.4159  0.0538  0.3047
 3490SOL    HW122106   4.125   3.455   6.727 -1.3085 -1.5473  1.6882
 3490SOL    HW222107   4.069   3.534   6.843  0.1779  0.4854 -0.7303
 3491SOL     OW22108   0.756   1.934   7.205  0.2801 -0.1278  0.0560
 3491SOL    HW122109   0.800   1.989   7.270  0.3466 -0.2772  0.1379
 3491SOL    HW222110   0.750   1.995   7.131 -1.9088 -1.5926 -0.9740
 3492SOL     OW22111   0.551   4.140   8.580  0.2057  0.5353  0.2672
 3492SOL    HW122112   0.478   4.083   8.559 -1.6026  2.8715  0.2760
 3492SOL    HW222113   0.525   4.160   8.670 -1.5483  1.2843 -0.4165
 3493SOL     OW22114   4.419   3.813   0.183  0.2460 -0.6027 -0.6940
 3493SOL    HW122115   4.439   3.770   0.100 -0.2424 -0.7284 -0.7465
 3493SOL    HW222116   4.444   3.757   0.257 -1.0392  0.2942  0.4118
 3494SOL     OW22117   2.612   3.815   3.278 -0.3047  0.6421 -0.5852
 3494SOL    HW122118   2.662   3.886   3.238  0.7727 -0.5518 -1.3479
 3494SOL    HW222119   2.684   3.752   3.270 -2.3799 -1.8759  0.5896
 3495SOL     OW22120   0.668   0.585   4.423 -0.2143 -0.1455 -0.3937
 3495SOL    HW122121   0.583   0.628   4.430 -0.1011 -0.1211  0.8325
 3495SOL    HW222122   0.658   0.555   4.332  1.1948 -2.6276  0.2610
 3496SOL     OW22123   3.088   3.221   2.981 -0.2028 -0.2173 -0.0356
 3496SOL    HW122124   3.117   3.241   3.070 -2.7444 -0.3270  0.8426
 3496SOL    HW222125   2.994   3.238   2.975 -0.5047 -1.7610  0.2974
 3497SOL     OW22126   1.819   3.087   7.622 -0.0320  0.4979 -0.3919
 3497SOL    HW122127   1.896   3.077   7.565 -1.9158  0.5496 -2.9430
 3497SOL    HW222128   1.767   3.012   7.593 -0.7308  1.5637 -1.8815
 3498SOL     OW22129   0.085   2.772   2.452  0.0905 -0.4537 -0.6587
 3498SOL    HW122130   0.154   2.739   2.509  1.5882  1.5407 -1.2803
 3498SOL    HW222131   0.122   2.852   2.414  0.9507 -0.7218 -0.3806
 3499SOL     OW22132   2.671   3.571  11.843 -0.3295 -0.3414 -0.3317
 3499SOL    HW122133   2.637   3.614  11.765  0.7990  1.3399  0.0874
 3499SOL    HW222134   2.760   3.550  11.814 -1.1549 -0.7881 -2.5068
 3500SOL     OW22135   4.293   2.956   6.422 -0.3230  0.2482 -0.1786
 3500SOL    HW122136   4.330   3.030   6.470  0.0530 -0.7927  1.1371
 3500SOL    HW222137   4.368   2.913   6.380  0.8947  1.4356  0.7730
 3501SOL     OW22138   0.778   1.526   4.079 -0.8990  0.4702  0.4555
 3501SOL    HW122139   0.730   1.513   3.997  1.8816 -1.3700 -0.8625
 3501SOL    HW222140   0.843   1.456   4.080  0.0843  1.3836  0.0106
 3502SOL     OW22141   3.868   0.242  10.230  0.3831  0.9079  0.0066
 3502SOL    HW122142   3.827   0.324  10.258 -2.1241  0.2394 -1.7469
 3502SOL    HW222143   3.884   0.191  10.310  1.3291  0.2972 -0.5672
 3503SOL     OW22144   2.521   3.787  16.506  0.4751  0.2126  0.0869
 3503SOL    HW122145   2.556   3.873  16.481 -1.2093  0.8095 -0.2212
 3503SOL    HW222146   2.494   3.765  16.417 -1.3534  1.0826  0.4374
 3504SOL     OW22147   0.071   1.652   3.800 -0.6276  0.5601 -0.1091
 3504SOL    HW122148   0.164   1.672   3.800 -0.5121  0.0189  0.6672
 3504SOL    HW222149   0.046   1.681   3.712  1.6309 -1.9185 -1.5605
 3505SOL     OW22150   0.681   3.528   8.183 -0.2655  0.0003 -0.2042
 3505SOL    HW122151   0.776   3.529   8.196 -0.1865 -3.3883 -0.5176
 3505SOL    HW222152   0.653   3.548   8.272 -1.3691  1.4718 -0.8734
 3506SOL     OW22153   2.531   3.430  11.342  0.2584  0.1692  0.4352
 3506SOL    HW122154   2.626   3.422  11.334  0.0638 -2.8500  1.1531
 3506SOL    HW222155   2.506   3.393  11.427 -0.2169 -0.3146  0.0821
 3507SOL     OW22156   2.852   1.066  12.102  0.0275 -0.1887 -0.9109
 3507SOL    HW122157   2.906   1.048  12.024  0.9642 -1.0969 -0.0573
 3507SOL    HW222158   2.796   1.132  12.062 -0.8695 -1.5282 -1.8684
 3508SOL     OW22159   0.711   4.162   4.639  0.1743 -0.4394  0.4394
 3508SOL    HW122160   0.654   4.091   4.668  0.8576 -0.4964  1.6520
 3508SOL    HW222161   0.736   4.124   4.555  0.1472 -0.2595  0.3500
 3509SOL     OW22162   1.118   0.948   9.161  0.6400 -0.0192 -0.4643
 3509SOL    HW122163   1.111   1.039   9.133 -3.0364 -0.3092 -0.4454
 3509SOL    HW222164   1.211   0.943   9.183  1.1727  4.3491 -1.7261
 3510SOL     OW22165   3.003   3.660   8.938 -0.8596 -0.0764 -0.2326
 3510SOL    HW122166   2.987   3.623   8.852 -0.1326  0.1888 -0.4856
 3510SOL    HW222167   2.991   3.754   8.923 -0.7047  0.2760  1.8467
 3511SOL     OW22168   4.648   0.687   8.684  0.7739 -0.0695 -0.1829
 3511SOL    HW122169   4.610   0.603   8.659 -0.1895  0.3378 -0.0996
 3511SOL    HW222170   4.700   0.662   8.760  0.2658  0.8750  0.4824
 3512SOL     OW22171   0.527   4.669   8.764 -0.3275  0.4082  0.6014
 3512SOL    HW122172   0.504   4.701   8.851 -1.2376  1.2778  0.0456
 3512SOL    HW222173   0.447   4.664   8.712 -0.7046  1.0752  1.1211
 3513SOL     OW22174   1.230   0.247   9.132  0.0242 -0.0668  0.5114
 3513SOL    HW122175   1.217   0.329   9.085 -0.3469 -1.6451 -2.1535
 3513SOL    HW222176   1.259   0.182   9.067 -2.5354  0.2346 -0.9688
 3514SOL     OW22177   1.389   1.982  17.109  0.5715  0.1017 -0.4597
 3514SOL    HW122178   1.322   1.935  17.059  0.6283  0.3231 -0.7470
 3514SOL    HW222179   1.359   2.073  17.099  1.6499  0.6416  1.2278
 3515SOL     OW22180   1.112   1.156  12.216  0.3350  0.0746 -0.3756
 3515SOL    HW122181   1.029   1.201  12.226  0.1278 -0.4980  0.5185
 3515SOL    HW222182   1.167   1.210  12.273 -0.2054 -0.3388  0.5492
 3516SOL     OW22183   3.063   0.754   3.992  0.0808  0.7716 -0.0147
 3516SOL    HW122184   3.028   0.758   3.903  0.8178  0.9999 -0.2928
 3516SOL    HW222185   3.120   0.831   3.997 -0.5698  1.3541 -1.4709
 3517SOL     OW22186   1.963   3.838   8.254  0.0327  0.4613  0.6443
 3517SOL    HW122187   2.051   3.867   8.232 -0.1758 -1.5079 -2.7311
 3517SOL    HW222188   1.932   3.927   8.270 -0.9176  0.1570  0.5546
 3518SOL     OW22189   0.799   0.004   4.103 -0.0119 -0.2899  0.2244
 3518SOL    HW122190   0.783   0.098   4.111  0.7814 -0.2284  1.0974
 3518SOL    HW222191   0.872   0.001   4.165 -0.3245 -1.4685  0.5252
 3519SOL     OW22192   3.025   1.651  12.585  0.6366  0.0606 -0.1303
 3519SOL    HW122193   3.069   1.606  12.512  0.1836 -0.7485  0.0991
 3519SOL    HW222194   3.034   1.592  12.660  2.2011 -0.2553 -0.5670
 3520SOL     OW22195   3.508   1.239   5.303 -0.8822  0.5183 -0.3279
 3520SOL    HW122196   3.433   1.229   5.245 -0.1387  2.9159 -1.7082
 3520SOL    HW222197   3.580   1.226   5.241 -2.8034 -1.9963 -2.0246
 3521SOL     OW22198   3.325   4.504   4.684  0.5733  0.1528 -0.3859
 3521SOL    HW122199   3.408   4.504   4.638  0.5274  1.2824 -0.4513
 3521SOL    HW222200   3.320   4.596   4.708  1.2391 -0.4550  2.0656
 3522SOL     OW22201   1.473   1.689   9.495  0.5052 -0.9711  0.3787
 3522SOL    HW122202   1.562   1.690   9.529  0.7314  2.5552 -0.3292
 3522SOL    HW222203   1.459   1.782   9.509  1.9312 -0.5470 -0.9854
 3523SOL     OW22204   3.486   1.600  17.112 -0.6047 -0.7927 -0.2056
 3523SOL    HW122205   3.541   1.670  17.147 -0.8494 -1.6172  1.8242
 3523SOL    HW222206   3.398   1.639  17.105 -0.6920 -0.5493  2.4928
 3524SOL     OW22207   4.456   1.822   6.727  0.9861  0.3003 -0.6448
 3524SOL    HW122208   4.523   1.820   6.796  1.3389 -0.0520 -1.0034
 3524SOL    HW222209   4.512   1.857   6.659 -1.0301  3.9832 -0.4202
 3525SOL     OW22210   0.223   0.651   4.114  0.0485  0.4662 -0.3207
 3525SOL    HW122211   0.178   0.735   4.106  1.8291  1.4896  0.3826
 3525SOL    HW222212   0.310   0.677   4.082  0.2047  0.8501  0.4182
 3526SOL     OW22213   4.557   0.074   9.022 -0.2281 -0.3641  0.4844
 3526SOL    HW122214   4.507   4.733   9.003 -1.2915  0.1090  1.3459
 3526SOL    HW222215   4.646   0.044   9.038 -0.9333 -1.1099  2.9279
 3527SOL     OW22216   3.913   3.511   4.167  0.3630  0.4203 -0.1306
 3527SOL    HW122217   3.901   3.495   4.074 -0.1004  1.5071 -0.2518
 3527SOL    HW222218   4.006   3.498   4.188 -0.1112  1.1231  2.4396
 3528SOL     OW22219   1.755   1.411   0.591  0.1296  0.6135 -0.2355
 3528SOL    HW122220   1.751   1.372   0.503  3.5104  0.8100 -0.4615
 3528SOL    HW222221   1.839   1.376   0.618 -0.0199  0.9647  0.6719
 3529SOL     OW22222   4.200   0.726   4.646  0.0678  0.3252  0.2151
 3529SOL    HW122223   4.128   0.770   4.601 -2.1956 -1.1867  2.3585
 3529SOL    HW222224   4.163   0.640   4.669 -1.6086  1.0960  0.3926
 3530SOL     OW22225   2.689   0.788   8.254  0.3011 -0.1475 -0.2145
 3530SOL    HW122226   2.622   0.799   8.186  0.8318  1.2087 -0.5261
 3530SOL    HW222227   2.686   0.877   8.291  1.2642 -0.8600  1.6042
 3531SOL     OW22228   3.770   0.135   7.493  0.3222 -0.2263 -0.2376
 3531SOL    HW122229   3.841   0.191   7.462 -2.2526  1.7066 -2.6636
 3531SOL    HW222230   3.730   0.123   7.406  0.7127  3.8549 -0.9731
 3532SOL     OW22231   2.532   0.108   6.755  0.0165 -0.5679 -0.5840
 3532SOL    HW122232   2.448   0.155   6.763  1.0776  0.8559  1.9744
 3532SOL    HW222233   2.591   0.170   6.796  0.0556 -2.0560  1.5835
 3533SOL     OW22234   0.190   1.556   4.828  0.5689 -0.5011 -0.7580
 3533SOL    HW122235   0.264   1.527   4.775  0.9852  2.9293 -2.0908
 3533SOL    HW222236   0.226   1.596   4.907 -3.2446  1.8144 -0.2187
 3534SOL     OW22237   0.419   2.845   3.943  0.5437  0.3410  0.4385
 3534SOL    HW122238   0.419   2.760   3.988 -1.4334  1.9622  3.5058
 3534SOL    HW222239   0.375   2.815   3.864 -0.6852  0.7279  0.9784
 3535SOL     OW22240   1.194   1.944   3.742  0.7428 -0.2828  0.1404
 3535SOL    HW122241   1.123   1.882   3.725 -0.2658  1.7874 -3.0557
 3535SOL    HW222242   1.149   2.027   3.757 -0.7172 -1.2724  1.2775
 3536SOL     OW22243   2.241   0.586   5.777  0.4903 -0.3797 -0.5102
 3536SOL    HW122244   2.238   0.638   5.696 -0.1885 -0.5018 -0.5645
 3536SOL    HW222245   2.301   0.513   5.763  0.0997 -0.8715  0.4101
 3537SOL     OW22246   0.051   3.745   2.285 -0.2888  0.0197  0.1067
 3537SOL    HW122247   4.699   3.710   2.283 -0.1210 -0.5408  2.4393
 3537SOL    HW222248   0.096   3.717   2.205  0.5262  0.0234  0.5660
 3538SOL     OW22249   3.310   0.997   7.989  0.0529  0.1931  0.3015
 3538SOL    HW122250   3.285   0.905   7.999  0.2508 -0.0029 -1.0297
 3538SOL    HW222251   3.383   0.984   7.929  1.1496  0.9395  1.4645
 3539SOL     OW22252   0.813   1.513   4.985 -0.1913 -0.1549 -0.2474
 3539SOL    HW122253   0.747   1.532   4.919 -1.3366 -0.9766  0.6713
 3539SOL    HW222254   0.809   1.586   5.046  4.1086  1.0351 -1.3341
 3540SOL     OW22255   4.236   4.288   5.770  0.6394  0.3652  0.2266
 3540SOL    HW122256   4.197   4.201   5.762 -1.1076  1.1672 -0.0207
 3540SOL    HW222257   4.275   4.302   5.684 -0.9757 -0.5273 -0.6614
 3541SOL     OW22258   3.394   2.629   5.093  0.3034 -0.5702  0.1406
 3541SOL    HW122259   3.454   2.701   5.116  0.7374 -0.1025 -2.4913
 3541SOL    HW222260   3.364   2.615   5.183  1.0608 -1.5942  0.2371
 3542SOL     OW22261   3.236   1.494  17.663  0.3290 -0.4521  0.2531
 3542SOL    HW122262   3.177   1.567  17.682  0.9601  0.6331 -1.9673
 3542SOL    HW222263   3.257   1.461   0.004 -0.4589 -0.1925  0.5387
 3543SOL     OW22264   2.267   0.618   6.405  0.5308  0.1321  0.0259
 3543SOL    HW122265   2.340   0.578   6.451  1.8015  1.4932 -0.7641
 3543SOL    HW222266   2.313   0.660   6.331  1.2737 -0.2822  0.2569
 3544SOL     OW22267   3.469   1.812   5.459 -0.0834  0.7827 -0.4890
 3544SOL    HW122268   3.523   1.877   5.415 -0.1632  1.2768  0.1266
 3544SOL    HW222269   3.390   1.817   5.404 -0.5418 -2.1049 -0.1083
 3545SOL     OW22270   1.253   2.276  15.214  0.4359  0.0327  0.0087
 3545SOL    HW122271   1.239   2.369  15.231  1.3097  0.0761  0.4954
 3545SOL    HW222272   1.322   2.287  15.149  0.1482  0.2669 -0.2581
 3546SOL     OW22273   1.351   1.173  13.627  0.1412 -0.4255  0.3245
 3546SOL    HW122274   1.397   1.251  13.597 -0.4057 -0.0232  0.5427
 3546SOL    HW222275   1.422   1.112  13.607 -0.1369 -0.4876 -0.4910
 3547SOL     OW22276   3.788   2.332   3.828  0.3461 -0.0796  0.5942
 3547SOL    HW122277   3.697   2.339   3.797  0.3564  0.4418  0.6843
 3547SOL    HW222278   3.836   2.344   3.746  1.3377  0.7411  1.3024
 3548SOL     OW22279   0.143   1.578   1.997 -0.2548 -0.5608  0.0723
 3548SOL    HW122280   0.078   1.534   2.053 -1.6110  1.5085  0.1187
 3548SOL    HW222281   0.088   1.651   1.967 -0.6196 -1.1419 -0.6841
 3549SOL     OW22282   3.233   0.358   2.159  0.1186 -0.2842  0.3052
 3549SOL    HW122283   3.263   0.401   2.079 -1.4783  1.1311  0.4825
 3549SOL    HW222284   3.235   0.439   2.209  1.8538 -0.8202  1.0943
 3550SOL     OW22285   1.750   1.425   4.507  0.2579 -0.0646 -0.5878
 3550SOL    HW122286   1.694   1.379   4.569 -0.8047  2.2924  0.2064
 3550SOL    HW222287   1.699   1.498   4.471  0.3127  0.6458  0.7665
 3551SOL     OW22288   1.756   4.607   9.500 -0.2833  0.5533  0.0594
 3551SOL    HW122289   1.847   4.638   9.493 -0.0153 -0.4713 -1.0004
 3551SOL    HW222290   1.758   4.529   9.445 -1.8889 -0.4986  1.4942
 3552SOL     OW22291   3.373   1.135   3.620 -0.5663 -0.1623 -0.0269
 3552SOL    HW122292   3.407   1.163   3.705 -1.4866  1.0051 -0.0329
 3552SOL    HW222293   3.346   1.220   3.585 -2.9826 -1.1581 -0.5896
 3553SOL     OW22294   0.390   0.275   3.455 -0.3398  0.2162  0.1045
 3553SOL    HW122295   0.429   0.310   3.375  0.5296  1.4240  1.0553
 3553SOL    HW222296   0.407   0.181   3.460  1.7738  0.5081 -1.4227
 3554SOL     OW22297   1.191   4.304  12.224 -0.3087  0.1085  0.2010
 3554SOL    HW122298   1.187   4.391  12.264  0.0637 -0.7830  2.1906
 3554SOL    HW222299   1.167   4.325  12.134  0.7334  3.4714  0.6764
 3555SOL     OW22300   4.510   0.226   7.252  0.5805  0.3370 -0.5395
 3555SOL    HW122301   4.573   0.162   7.218  0.3804 -0.1212 -0.0463
 3555SOL    HW222302   4.443   0.164   7.283  0.2108 -0.0365 -2.0389
 3556SOL     OW22303   4.452   0.140  10.239 -0.1919  0.0405  0.2521
 3556SOL    HW122304   4.399   0.079  10.290 -1.2568  0.0776 -0.8191
 3556SOL    HW222305   4.415   0.119  10.154  2.4564  0.1615 -0.9445
 3557SOL     OW22306   2.402   1.638   6.742  0.2253  0.0923  0.3240
 3557SOL    HW122307   2.321   1.684   6.722 -0.2237 -0.8933 -0.1273
 3557SOL    HW222308   2.469   1.699   6.711 -0.8019  1.4004  0.6637
 3558SOL     OW22309   2.791   4.611   3.711  0.1832  0.4242 -0.5566
 3558SOL    HW122310   2.791   4.682   3.776  0.0108  0.4657 -0.6011
 3558SOL    HW222311   2.728   4.553   3.753  1.2510 -0.9098 -0.7875
 3559SOL     OW22312   1.156   3.493   7.234 -0.7234 -0.0529  0.6196
 3559SOL    HW122313   1.096   3.560   7.202 -0.2555 -0.0903 -0.3287
 3559SOL    HW222314   1.212   3.534   7.300 -0.0419 -1.0242  0.6537
 3560SOL     OW22315   3.525   2.798   6.982  0.1184 -0.5001 -0.1735
 3560SOL    HW122316   3.602   2.741   6.974 -0.7457 -1.0901 -4.0532
 3560SOL    HW222317   3.496   2.787   6.891 -0.4638 -1.6396  0.1435
 3561SOL     OW22318   3.888   3.164   5.245  0.0187  0.2703  0.0154
 3561SOL    HW122319   3.837   3.096   5.289  1.1467  1.3817  3.0445
 3561SOL    HW222320   3.821   3.225   5.215  0.9902  1.8956  1.1595
 3562SOL     OW22321   4.092   0.373   8.456 -0.1566 -0.4013  0.4056
 3562SOL    HW122322   4.127   0.373   8.367  1.7198 -4.5208  1.1256
 3562SOL    HW222323   4.079   0.465   8.476  1.9188 -0.8620  4.0143
 3563SOL     OW22324   0.945   0.130  11.588  0.1909  0.5474 -0.0344
 3563SOL    HW122325   0.873   0.177  11.546  1.2112  1.7164 -0.4693
 3563SOL    HW222326   0.984   0.204  11.634 -2.1899  0.5905  1.8848
 3564SOL     OW22327   2.310   4.132   2.268 -0.5274 -0.5036 -0.3586
 3564SOL    HW122328   2.264   4.104   2.189 -1.2286  0.0397 -0.1363
 3564SOL    HW222329   2.396   4.161   2.236  0.1290 -2.0521 -0.0312
 3565SOL     OW22330   2.967   3.413  14.960  0.4326 -0.4788  0.2461
 3565SOL    HW122331   3.015   3.346  14.911 -1.8747 -2.6482  0.9448
 3565SOL    HW222332   3.037   3.454  15.010  0.7018 -0.4270 -0.1738
 3566SOL     OW22333   3.909   2.869   2.824  0.1821 -0.1322 -0.1551
 3566SOL    HW122334   3.868   2.953   2.804  2.5930  1.5351  1.8583
 3566SOL    HW222335   3.996   2.893   2.856  0.1603  2.7813 -2.2718
 3567SOL     OW22336   4.382   0.123   0.615 -0.3038 -0.2288  0.4597
 3567SOL    HW122337   4.358   0.158   0.529  0.6548  0.0863  0.3179
 3567SOL    HW222338   4.471   0.157   0.625 -1.9662  3.6264  2.1868
 3568SOL     OW22339   1.458   1.356   3.277  0.3341 -0.1472 -0.0709
 3568SOL    HW122340   1.553   1.348   3.267  0.4773  0.5731  0.7238
 3568SOL    HW222341   1.429   1.385   3.190 -1.6009 -0.9569  0.3155
 3569SOL     OW22342   3.677   0.626   3.332  0.1804 -0.1459 -0.1185
 3569SOL    HW122343   3.709   0.597   3.247  1.3814  0.0803  0.2573
 3569SOL    HW222344   3.705   0.550   3.384  4.1897  1.1374 -0.4523
 3570SOL     OW22345   1.118   4.044   2.956  0.2308 -0.6500  0.4075
 3570SOL    HW122346   1.174   4.069   3.029 -0.2070 -1.2228  0.9491
 3570SOL    HW222347   1.183   4.004   2.899  0.0793  1.8243 -1.4732
 3571SOL     OW22348   3.553   1.894   7.673  0.4571 -0.3807  0.8587
 3571SOL    HW122349   3.534   1.927   7.586 -1.4518 -1.6000  0.8129
 3571SOL    HW222350   3.623   1.949   7.707 -1.1300  2.7654 -1.0110
 3572SOL     OW22351   2.786   4.246   5.749  0.3168  0.0090 -0.0210
 3572SOL    HW122352   2.844   4.216   5.680  1.0086  0.6607  0.2713
 3572SOL    HW222353   2.829   4.331   5.762  0.3726 -0.0766  0.3566
 3573SOL     OW22354   2.626   3.075   3.046  0.0128  0.8396  0.2761
 3573SOL    HW122355   2.559   3.029   3.097 -0.1600  0.3950 -0.3485
 3573SOL    HW222356   2.695   3.013   3.027 -0.3734  0.1426  1.1644
 3574SOL     OW22357   1.431   3.520   0.964  0.6975  0.2829 -0.4053
 3574SOL    HW122358   1.513   3.509   1.012 -0.0588 -0.8091  0.6474
 3574SOL    HW222359   1.364   3.503   1.030  0.6652  0.6291 -0.3482
 3575SOL     OW22360   3.463   2.057  12.234  0.3291  0.1696 -0.3152
 3575SOL    HW122361   3.535   2.105  12.194  1.3587  1.1618  2.6805
 3575SOL    HW222362   3.514   1.980  12.259  2.0491  1.7820  1.0965
 3576SOL     OW22363   0.501   4.025   3.976 -0.3711  0.6218  0.3495
 3576SOL    HW122364   0.468   4.114   3.984  2.6481  1.6727  1.3164
 3576SOL    HW222365   0.483   3.988   4.062  1.3466 -0.3778  0.2906
 3577SOL     OW22366   0.873   1.266   6.443  0.1157  0.4937 -0.6593
 3577SOL    HW122367   0.833   1.326   6.506  0.0870 -1.4779  1.1922
 3577SOL    HW222368   0.933   1.220   6.501  0.1195 -1.3689 -2.1323
 3578SOL     OW22369   4.508   1.171   2.050 -0.6095 -0.1011  0.2882
 3578SOL    HW122370   4.486   1.252   2.005 -0.8464 -0.7085 -0.6682
 3578SOL    HW222371   4.426   1.148   2.095  0.4495 -0.2843  2.1545
 3579SOL     OW22372   4.536   2.782   3.338  0.0515  0.5147 -0.0720
 3579SOL    HW122373   4.618   2.734   3.348 -1.1392 -1.6468 -0.6414
 3579SOL    HW222374   4.553   2.861   3.390 -1.2530  1.2057 -0.6922
 3580SOL     OW22375   3.052   0.542   1.367 -0.1153  0.0339  0.0095
 3580SOL    HW122376   2.972   0.546   1.314 -0.0828  1.4963  0.0791
 3580SOL    HW222377   3.115   0.492   1.315  0.0240  0.8658 -0.6237
 3581SOL     OW22378   1.740   4.690   5.594 -0.0027  0.8812  0.7041
 3581SOL    HW122379   1.816   4.659   5.642 -0.0405  0.3905  0.4442
 3581SOL    HW222380   1.784   4.730   5.518 -1.3059  1.2286  0.1313
 3582SOL     OW22381   2.986   3.805  11.665 -0.3154  0.0515 -0.4253
 3582SOL    HW122382   3.041   3.881  11.686  0.7908 -1.1378  0.9723
 3582SOL    HW222383   2.905   3.848  11.637 -0.2206  2.1238  2.3560
 3583SOL     OW22384   3.836   1.873  10.590 -0.2669  0.3062 -0.6121
 3583SOL    HW122385   3.773   1.937  10.622  0.8679  2.3208 -2.4370
 3583SOL    HW222386   3.895   1.867  10.665 -2.4689  1.0044  1.1538
 3584SOL     OW22387   4.631   3.794  15.949  0.7181 -0.0402  0.2136
 3584SOL    HW122388   4.576   3.841  16.010  0.2638 -0.7533  0.3583
 3584SOL    HW222389   4.717   3.805  15.990  1.3101 -0.0662 -0.9940
 3585SOL     OW22390   1.344   0.319   8.463 -0.3978  0.4865 -0.3736
 3585SOL    HW122391   1.327   0.413   8.475  2.1053  0.8190  0.6791
 3585SOL    HW222392   1.290   0.290   8.537 -0.3420  1.5716  0.0952
 3586SOL     OW22393   1.298   1.227   5.939  0.1690 -0.1954  0.2441
 3586SOL    HW122394   1.354   1.175   5.882  1.5335 -0.6606  1.9823
 3586SOL    HW222395   1.219   1.241   5.887  0.5467 -0.2783 -0.3483
 3587SOL     OW22396   3.788   3.141   6.223 -0.2385  0.2508  0.0183
 3587SOL    HW122397   3.820   3.185   6.144  0.2434  0.4788  0.3411
 3587SOL    HW222398   3.872   3.141   6.269  0.0652  1.3171 -0.5400
 3588SOL     OW22399   2.722   1.669   0.104 -0.5301 -0.3389 -0.2478
 3588SOL    HW122400   2.655   1.722   0.062 -1.4686 -1.1563  0.2255
 3588SOL    HW222401   2.677   1.587   0.087  1.2883 -1.3836 -0.0618
 3589SOL     OW22402   1.886   3.786   5.730  0.5509 -0.1199  0.7128
 3589SOL    HW122403   1.880   3.709   5.787  2.7225 -1.1683 -0.4909
 3589SOL    HW222404   1.924   3.851   5.789 -1.1927  0.5206  1.1612
 3590SOL     OW22405   2.957   1.559  11.164  0.1957 -0.5717 -0.0791
 3590SOL    HW122406   2.987   1.527  11.249 -0.6728 -0.9084  0.0987
 3590SOL    HW222407   2.937   1.650  11.184 -1.8204 -1.0648  0.0715
 3591SOL     OW22408   2.064   3.930   5.961 -0.1249  0.0853 -0.3120
 3591SOL    HW122409   1.985   3.977   5.985  0.1142  0.5980 -0.5247
 3591SOL    HW222410   2.091   3.867   6.028  0.4720 -0.0115 -0.6360
 3592SOL     OW22411   3.269   0.832   0.403 -0.0954 -0.5406  0.0558
 3592SOL    HW122412   3.352   0.862   0.367  0.9067  1.3520  3.9625
 3592SOL    HW222413   3.296   0.750   0.445  2.4135  0.2852  0.0452
 3593SOL     OW22414   3.223   0.025   9.985 -0.0773  0.3585 -0.0356
 3593SOL    HW122415   3.194   0.044   9.896  1.1608  2.8989  0.1091
 3593SOL    HW222416   3.302   0.078   9.990  0.0853  0.0658  0.5069
 3594SOL     OW22417   0.192   0.670   0.786  0.0399 -0.0736 -0.0612
 3594SOL    HW122418   0.268   0.692   0.839  0.3861  1.9384 -1.3583
 3594SOL    HW222419   0.145   0.750   0.812  2.1783  1.1224  0.1516
 3595SOL     OW22420   3.092   0.554   7.006 -0.4058 -1.1093 -0.1572
 3595SOL    HW122421   3.154   0.583   7.073 -1.0592 -1.0475  0.4214
 3595SOL    HW222422   3.143   0.481   6.970  0.9468 -0.7025  0.9315
 3596SOL     OW22423   2.350   2.072   6.734 -0.4993  0.0937 -0.6595
 3596SOL    HW122424   2.262   2.050   6.703 -1.3170 -2.6958  3.5744
 3596SOL    HW222425   2.398   1.989   6.726 -2.3768 -0.9681 -0.8274
 3597SOL     OW22426   2.912   3.937   1.877  0.2457  0.0180 -0.2502
 3597SOL    HW122427   2.925   3.842   1.885  0.2273  0.1175  0.9489
 3597SOL    HW222428   2.819   3.948   1.897  1.3292  0.2282  4.8637
 3598SOL     OW22429   0.171   0.855   1.985 -1.2453 -0.3509  0.0426
 3598SOL    HW122430   0.085   0.889   2.009 -1.4450  0.4923 -1.9401
 3598SOL    HW222431   0.199   0.787   2.047 -1.0870  0.0316  0.3896
 3599SOL     OW22432   3.880   4.177  10.733 -0.1006  0.0605 -0.0521
 3599SOL    HW122433   3.928   4.120  10.673  0.2356  1.1873 -0.8716
 3599SOL    HW222434   3.837   4.116  10.793 -4.0243  1.0593 -1.8082
 3600SOL     OW22435   3.380   4.077   5.343  0.4138  0.3364  0.0814
 3600SOL    HW122436   3.371   4.172   5.329 -2.5885  0.1871  0.9783
 3600SOL    HW222437   3.293   4.054   5.376  0.7047 -3.6332 -2.0841
 3601SOL     OW22438   4.036   2.959   5.372  0.0571 -0.5704 -0.3936
 3601SOL    HW122439   4.003   3.042   5.337 -0.2529 -0.9790 -1.0649
 3601SOL    HW222440   4.011   2.904   5.298 -0.9967 -0.8556  0.1740
 3602SOL     OW22441   2.381   2.256  15.946 -0.5351  0.0850  0.3042
 3602SOL    HW122442   2.342   2.288  16.027 -1.5421  0.5830 -0.3863
 3602SOL    HW222443   2.431   2.181  15.978  1.5601  1.6085  0.6142
 3603SOL     OW22444   0.123   2.108   6.376 -0.3033 -0.5980  0.2140
 3603SOL    HW122445   0.169   2.164   6.314 -1.3736  0.9591  0.8317
 3603SOL    HW222446   0.088   2.166   6.444 -0.4389 -1.5154  0.9266
 3604SOL     OW22447   1.531   2.336   8.569  0.0883 -0.2072  0.5501
 3604SOL    HW122448   1.485   2.419   8.565  0.0765 -0.2149  0.5254
 3604SOL    HW222449   1.484   2.286   8.502 -0.9506  0.7391  0.5726
 3605SOL     OW22450   2.874   2.341  16.087  0.4727 -0.3688  0.2121
 3605SOL    HW122451   2.876   2.345  16.182 -2.3273 -0.5461  0.2946
 3605SOL    HW222452   2.791   2.297  16.070  0.2261  1.0078 -2.1550
 3606SOL     OW22453   2.379   1.256   7.235 -0.6243 -0.1163 -0.6742
 3606SOL    HW122454   2.324   1.251   7.157  0.1135 -1.0850 -1.1250
 3606SOL    HW222455   2.409   1.166   7.245  1.5386  0.3504 -2.8209
 3607SOL     OW22456   4.330   0.728   7.191  0.0873  0.3475 -0.0647
 3607SOL    HW122457   4.307   0.667   7.262 -0.8033  0.4361 -0.2754
 3607SOL    HW222458   4.424   0.720   7.208  0.5971  1.6493 -2.2933
 3608SOL     OW22459   1.258   1.513   1.070 -0.4823 -0.9526 -0.4081
 3608SOL    HW122460   1.172   1.486   1.037 -1.4936  1.8973 -0.0847
 3608SOL    HW222461   1.241   1.533   1.162  0.5041 -1.9682 -0.0124
 3609SOL     OW22462   3.186   1.081   7.377  0.1476  0.5309 -0.1120
 3609SOL    HW122463   3.167   1.061   7.469  0.8493  2.2203  0.4029
 3609SOL    HW222464   3.099   1.099   7.343 -0.8632 -0.6592  1.8206
 3610SOL     OW22465   0.331   0.624   3.113  0.2875 -0.0129 -0.2841
 3610SOL    HW122466   0.290   0.591   3.033 -1.3857  0.0533  0.5381
 3610SOL    HW222467   0.382   0.696   3.075 -0.4038  2.3124  3.1741
 3611SOL     OW22468   4.135   1.933   8.927 -0.1908  0.3632  0.1339
 3611SOL    HW122469   4.141   1.938   9.022 -0.7482  0.4537  0.1670
 3611SOL    HW222470   4.229   1.922   8.917 -0.4174 -1.1397 -0.3911
 3612SOL     OW22471   2.766   2.305   4.871 -0.1542  0.0357 -0.3255
 3612SOL    HW122472   2.722   2.268   4.795 -0.3791 -1.1272  0.3726
 3612SOL    HW222473   2.856   2.286   4.848 -0.7887 -0.6720 -2.2042
 3613SOL     OW22474   4.552   1.235   5.575  0.4293  0.2051 -0.1113
 3613SOL    HW122475   4.458   1.232   5.592  0.0694 -0.4744 -2.1298
 3613SOL    HW222476   4.582   1.291   5.645 -1.8556  0.2662  0.8261
 3614SOL     OW22477   3.801   0.838  17.381  0.2837  0.1682  0.1732
 3614SOL    HW122478   3.778   0.830  17.288  0.8655  2.0726 -0.1465
 3614SOL    HW222479   3.788   0.750  17.417 -2.1616  0.6312  0.4135
 3615SOL     OW22480   2.669   2.054   3.934 -0.4542  0.6761  0.0250
 3615SOL    HW122481   2.695   2.103   3.856  1.4669 -0.2662  0.0686
 3615SOL    HW222482   2.739   2.089   3.990 -0.3497 -1.4138  1.2247
 3616SOL     OW22483   1.877   0.190   6.860  0.3158  0.0569  0.3700
 3616SOL    HW122484   1.953   0.161   6.809 -0.4737 -0.0837 -0.7225
 3616SOL    HW222485   1.917   0.247   6.926 -2.8757  0.4075  2.0265
 3617SOL     OW22486   0.061   4.189   6.610  0.1584 -0.2705 -0.1386
 3617SOL    HW122487   0.124   4.220   6.545 -0.6374  1.0859 -0.2515
 3617SOL    HW222488   0.116   4.141   6.672 -1.5977 -0.2515  1.4431
 3618SOL     OW22489   2.593   4.700  13.169  0.7627  0.5670 -0.0450
 3618SOL    HW122490   2.519   4.731  13.117  1.8219 -0.8934 -2.4117
 3618SOL    HW222491   2.659   4.725  13.104 -0.1483 -0.0837 -1.2136
 3619SOL     OW22492   0.792   3.473   9.357 -0.5986 -0.0054 -0.1024
 3619SOL    HW122493   0.838   3.442   9.280  0.3367 -0.1336  0.5069
 3619SOL    HW222494   0.702   3.460   9.326  0.2748 -2.2658 -1.6546
 3620SOL     OW22495   2.303   0.290   5.926  0.2006 -0.0691 -0.1495
 3620SOL    HW122496   2.387   0.325   5.894  1.0412 -1.6798  0.2583
 3620SOL    HW222497   2.315   0.198   5.901  3.3121  0.6341 -1.3056
 3621SOL     OW22498   1.599   0.006  10.829 -0.2311  0.3337 -0.7119
 3621SOL    HW122499   1.659   0.037  10.897  1.1057 -0.6249 -1.4693
 3621SOL    HW222500   1.537   4.696  10.884 -0.5494  0.8051 -0.6646
 3622SOL     OW22501   3.052   3.407   2.174  0.2903  0.2155 -0.2452
 3622SOL    HW122502   3.072   3.372   2.087 -0.0271  0.3365 -0.3644
 3622SOL    HW222503   2.964   3.371   2.177  0.1760  0.8286  4.4246
 3623SOL     OW22504   2.503   2.977  13.222  0.1604  0.0756  0.2799
 3623SOL    HW122505   2.425   2.975  13.167  1.4680 -1.2988 -1.5110
 3623SOL    HW222506   2.550   2.900  13.191  1.5592  1.0267  0.0341
 3624SOL     OW22507   0.019   2.657   0.203  0.3461 -0.4159  0.1276
 3624SOL    HW122508   0.060   2.717   0.141  2.8195 -1.7189  0.4770
 3624SOL    HW222509   4.667   2.657   0.169  0.9758  3.9261 -1.5381
 3625SOL     OW22510   1.937   0.028  12.826 -0.2700 -0.0410 -0.9136
 3625SOL    HW122511   2.019   4.732  12.789  0.0466 -0.7427  0.4061
 3625SOL    HW222512   1.977   0.058  12.908  0.0189  0.0510 -1.0894
 3626SOL     OW22513   1.984   0.209   9.317  0.3404 -0.0454  0.2599
 3626SOL    HW122514   1.940   0.142   9.264 -2.3951  1.4971  0.5859
 3626SOL    HW222515   2.005   0.151   9.390  0.5973 -0.5472 -0.2104
 3627SOL     OW22516   0.564   1.988  13.796 -0.2007  0.1121 -0.2364
 3627SOL    HW122517   0.586   1.904  13.837 -1.2892 -0.3790 -0.6529
 3627SOL    HW222518   0.557   1.971  13.702 -0.3981  1.2913 -0.4427
 3628SOL     OW22519   2.242   4.165  15.406 -0.1359  0.0502  0.8099
 3628SOL    HW122520   2.182   4.218  15.353  0.1225 -1.1776 -0.7015
 3628SOL    HW222521   2.309   4.228  15.432 -0.2438  0.3542  0.3388
 3629SOL     OW22522   4.057   2.751  16.489 -0.3129 -0.1272 -0.2990
 3629SOL    HW122523   4.062   2.765  16.394 -3.2151  0.2040 -0.3936
 3629SOL    HW222524   4.135   2.796  16.523 -0.0295 -2.2817  1.9408
 3630SOL     OW22525   2.606   0.115   5.984  0.2911 -0.3400 -0.0700
 3630SOL    HW122526   2.532   0.062   6.015  0.1169 -0.6476 -1.0183
 3630SOL    HW222527   2.634   0.072   5.903 -0.8930 -0.1001 -0.6137
 3631SOL     OW22528   3.611   4.505   7.815  0.5554  0.1607 -0.3641
 3631SOL    HW122529   3.677   4.515   7.747  1.8203 -0.6156  0.7436
 3631SOL    HW222530   3.537   4.506   7.753  0.3293 -1.1147 -0.1067
 3632SOL     OW22531   0.234   3.853   2.450  0.2809  0.3271 -0.4807
 3632SOL    HW122532   0.173   3.830   2.381 -2.0129 -1.4303  2.1488
 3632SOL    HW222533   0.169   3.874   2.517 -1.2364  0.7077 -2.0715
 3633SOL     OW22534   2.288   2.378   8.835  0.5870  0.1629  0.7184
 3633SOL    HW122535   2.275   2.404   8.926  0.0732  1.2998  0.3197
 3633SOL    HW222536   2.277   2.465   8.797  0.8796 -0.2671 -0.3551
 3634SOL     OW22537   4.627   0.216  10.446 -0.2965 -0.5862  0.2968
 3634SOL    HW122538   4.589   0.184  10.364 -2.5111  2.2770  0.2220
 3634SOL    HW222539   4.603   0.134  10.489 -0.9019  0.6779  2.3462
 3635SOL     OW22540   2.104   0.556   9.533 -0.3928 -0.2509  0.6341
 3635SOL    HW122541   2.092   0.650   9.547 -0.8998 -0.1615 -0.3829
 3635SOL    HW222542   2.106   0.525   9.623 -0.4815 -0.2053  0.6524
 3636SOL     OW22543   3.922   2.920   5.632 -0.0708 -1.0654 -0.0545
 3636SOL    HW122544   3.965   2.919   5.546  1.9193  1.0407  0.9361
 3636SOL    HW222545   3.899   2.827   5.625 -2.2692 -0.4763 -0.7057
 3637SOL     OW22546   2.507   2.637   7.389  0.0870  0.1183  0.7838
 3637SOL    HW122547   2.573   2.698   7.422  0.8213  1.1160 -2.5074
 3637SOL    HW222548   2.508   2.567   7.454  0.2003  0.2635  0.9364
 3638SOL     OW22549   2.138   1.271  16.360 -0.3258 -0.0375 -0.3127
 3638SOL    HW122550   2.208   1.238  16.305 -1.0981 -1.5954 -0.3640
 3638SOL    HW222551   2.103   1.193  16.404  0.5876 -1.0932 -1.4810
 3639SOL     OW22552   3.899   2.385   3.431  0.0016  1.0278  0.9447
 3639SOL    HW122553   3.990   2.373   3.459 -0.2486 -1.7111  0.5953
 3639SOL    HW222554   3.906   2.317   3.363 -0.9277 -0.1731  2.0351
 3640SOL     OW22555   2.629   0.934  17.173  0.2309 -0.7854  0.2115
 3640SOL    HW122556   2.627   0.856  17.119 -1.6726  0.9384 -2.1778
 3640SOL    HW222557   2.717   0.962  17.147 -1.4190  3.3524 -0.9534
 3641SOL     OW22558   0.811   3.907   2.003 -0.3564  0.7084 -0.0424
 3641SOL    HW122559   0.772   3.886   1.918 -0.7086  1.2338 -0.0132
 3641SOL    HW222560   0.753   3.866   2.068  1.1116 -2.5304 -0.7608
 3642SOL     OW22561   1.964   3.554   8.015 -0.4112 -0.1546 -1.1146
 3642SOL    HW122562   1.869   3.541   8.013 -0.4890  0.3488 -0.7521
 3642SOL    HW222563   1.970   3.635   7.965  2.2836 -0.0649 -0.6188
 3643SOL     OW22564   3.714   1.263   3.642  0.0282 -0.3883 -0.3767
 3643SOL    HW122565   3.725   1.174   3.610 -0.9425 -0.7224  0.2342
 3643SOL    HW222566   3.794   1.306   3.612  1.7027 -1.4854  2.4948
 3644SOL     OW22567   2.305   3.407   4.447 -0.0747  0.1584 -0.4050
 3644SOL    HW122568   2.395   3.432   4.464  0.1706 -0.4562 -0.7939
 3644SOL    HW222569   2.262   3.492   4.440 -0.1451  0.2067  0.6523
 3645SOL     OW22570   0.166   2.769   0.003  0.2176 -0.0430  0.3995
 3645SOL    HW122571   0.099   2.768  17.681  1.5541 -0.8533 -0.8980
 3645SOL    HW222572   0.242   2.772  17.692  0.3194  0.6686  0.5674
 3646SOL     OW22573   3.432   0.211   9.964  0.4743  0.1889 -0.1696
 3646SOL    HW122574   3.462   0.154   9.892  1.0201 -1.7789  1.6197
 3646SOL    HW222575   3.518   0.218  10.004  0.4924 -1.2941  0.0341
 3647SOL     OW22576   2.256   3.288   4.885  0.5657  0.1068 -0.8656
 3647SOL    HW122577   2.283   3.375   4.912  1.0010 -0.3918  0.3153
 3647SOL    HW222578   2.333   3.255   4.838  1.1086 -2.6430  1.9439
 3648SOL     OW22579   1.464   2.415  10.874 -0.6290 -0.7923 -0.3292
 3648SOL    HW122580   1.542   2.470  10.866  0.3452 -1.8065  2.1604
 3648SOL    HW222581   1.443   2.439  10.964  0.4134  2.2195 -0.8978
 3649SOL     OW22582   0.806   2.456   1.764  0.2422 -0.2216  0.3681
 3649SOL    HW122583   0.844   2.516   1.828  0.9881  1.3057 -1.4864
 3649SOL    HW222584   0.732   2.423   1.815 -1.3885 -0.3069 -2.0582
 3650SOL     OW22585   1.761   0.761   6.921 -0.1012 -0.1803 -0.0639
 3650SOL    HW122586   1.728   0.672   6.908  2.2517 -0.8144 -1.9047
 3650SOL    HW222587   1.819   0.737   6.994  1.5952 -0.3944 -1.4816
 3651SOL     OW22588   3.365   1.713   4.089 -0.0273 -0.2944 -0.3354
 3651SOL    HW122589   3.364   1.792   4.035  1.5741 -0.0811 -0.0447
 3651SOL    HW222590   3.361   1.749   4.178  1.8893 -1.3692  0.1873
 3652SOL     OW22591   4.375   1.784   9.457  0.2336 -0.0685  0.0052
 3652SOL    HW122592   4.344   1.758   9.370 -2.5144  0.1143  0.9504
 3652SOL    HW222593   4.470   1.794   9.445  0.3147 -1.0479 -0.1778
 3653SOL     OW22594   1.059   2.949   7.660  0.0430 -0.4544 -0.2449
 3653SOL    HW122595   1.076   2.963   7.753 -0.0482 -1.4028 -0.0900
 3653SOL    HW222596   1.067   2.854   7.652  2.0771 -0.1434 -1.9441
 3654SOL     OW22597   2.517   2.758   3.497  0.4618 -0.9141 -0.0289
 3654SOL    HW122598   2.435   2.773   3.449 -0.6559 -3.9018  0.9079
 3654SOL    HW222599   2.512   2.665   3.476  0.4140 -1.3496  1.9245
 3655SOL     OW22600   3.101   3.988   5.350 -0.2571 -0.4861  0.0693
 3655SOL    HW122601   3.123   3.914   5.407  1.4043 -0.9149 -1.1323
 3655SOL    HW222602   3.081   3.935   5.273  0.0628  1.8595 -1.5989
 3656SOL     OW22603   1.897   2.259   9.298 -0.5807  0.5646  0.2075
 3656SOL    HW122604   1.874   2.333   9.355  2.8995  1.6070  0.2736
 3656SOL    HW222605   1.837   2.274   9.225  2.2714 -0.2747 -2.2797
 3657SOL     OW22606   1.954   3.897   2.703 -1.1049 -0.5890 -0.2566
 3657SOL    HW122607   1.885   3.831   2.694 -0.9728 -0.6365 -0.9158
 3657SOL    HW222608   1.915   3.947   2.774  0.7410  0.5745 -0.0619
 3658SOL     OW22609   3.877   1.053   4.125 -0.1960 -0.4873 -0.2382
 3658SOL    HW122610   3.812   1.123   4.121  0.2489 -0.3752 -5.0974
 3658SOL    HW222611   3.879   1.032   4.219  0.0384  2.6515  0.4733
 3659SOL     OW22612   4.290   2.698  12.694 -0.1668  0.2953 -0.9514
 3659SOL    HW122613   4.345   2.620  12.699 -0.7839 -0.0579  0.2581
 3659SOL    HW222614   4.219   2.668  12.637 -0.0463  1.3392 -1.6601
 3660SOL     OW22615   2.566   0.784  11.615 -0.3368  0.2083  0.1696
 3660SOL    HW122616   2.571   0.821  11.703 -0.2766  0.2257  0.1583
 3660SOL    HW222617   2.484   0.735  11.625 -1.0705  2.0393  2.9523
 3661SOL     OW22618   1.027   1.195   1.814  0.2062 -0.0082  0.3724
 3661SOL    HW122619   0.991   1.283   1.827 -1.1041 -0.3276 -1.1173
 3661SOL    HW222620   1.113   1.223   1.783  0.9597 -1.3670  1.2722
 3662SOL     OW22621   2.799   3.766   4.524  0.4656 -0.4347  0.5230
 3662SOL    HW122622   2.740   3.836   4.553  0.9344  0.3350 -0.4039
 3662SOL    HW222623   2.782   3.760   4.431 -0.9515  1.8100  0.6143
 3663SOL     OW22624   0.947   1.507  10.618  0.5451 -0.2179 -0.7729
 3663SOL    HW122625   1.003   1.453  10.563  1.2806  1.0692 -1.2857
 3663SOL    HW222626   0.984   1.593  10.599 -1.8564  0.6157 -1.7033
 3664SOL     OW22627   0.622   1.206   8.529 -0.1728 -0.1779 -0.3702
 3664SOL    HW122628   0.531   1.237   8.520 -0.5416 -1.1375  0.0567
 3664SOL    HW222629   0.629   1.147   8.455 -0.1865  1.0578 -1.3522
 3665SOL     OW22630   0.739   3.857   8.141 -0.0256  0.6102  0.6687
 3665SOL    HW122631   0.674   3.927   8.131 -0.8929 -0.3739 -0.7238
 3665SOL    HW222632   0.677   3.785   8.130 -1.2668  1.8207 -0.3427
 3666SOL     OW22633   4.346   0.094   8.602  0.6202  0.5376  0.4736
 3666SOL    HW122634   4.275   0.039   8.635  0.4346  1.6817  1.9536
 3666SOL    HW222635   4.319   0.106   8.511  0.6822  0.7248  0.4803
 3667SOL     OW22636   1.312   0.669   4.696 -0.1307  0.5316 -0.5231
 3667SOL    HW122637   1.354   0.734   4.640 -1.1805  0.9864 -0.7844
 3667SOL    HW222638   1.385   0.653   4.756 -1.1761 -1.5612  0.2037
 3668SOL     OW22639   2.980   1.504   6.512  0.1457 -0.2759  0.3559
 3668SOL    HW122640   3.076   1.509   6.517  0.1955 -1.2675  0.3158
 3668SOL    HW222641   2.956   1.594   6.488 -0.7105 -1.5134 -3.4004
 3669SOL     OW22642   1.996   1.536   4.468  0.5000 -0.1379 -0.5012
 3669SOL    HW122643   1.970   1.607   4.528 -0.2492  0.6770 -1.7873
 3669SOL    HW222644   1.921   1.477   4.481  1.0430 -1.3028 -2.6767
 3670SOL     OW22645   0.284   4.578   4.620 -0.0138 -0.2588 -0.2377
 3670SOL    HW122646   0.300   4.484   4.614  0.8661 -0.2920  2.8815
 3670SOL    HW222647   0.277   4.596   4.526  1.9532 -1.5332 -0.6119
 3671SOL     OW22648   3.068   3.534   3.588  0.2204  0.0327 -0.0427
 3671SOL    HW122649   3.005   3.581   3.644  1.7698  0.2881  1.4901
 3671SOL    HW222650   3.070   3.578   3.503  2.7523 -0.8137 -0.4056
 3672SOL     OW22651   1.135   2.448   5.727  0.0560  0.3518  0.6955
 3672SOL    HW122652   1.044   2.474   5.743 -0.1365  1.1144 -1.7060
 3672SOL    HW222653   1.178   2.425   5.810 -0.6015 -0.6665  0.7496
 3673SOL     OW22654   2.541   3.208   1.590 -0.0369 -0.0846 -0.3578
 3673SOL    HW122655   2.554   3.115   1.572  0.1950 -0.1194 -0.0121
 3673SOL    HW222656   2.608   3.250   1.537  0.0353 -0.3858 -0.5028
 3674SOL     OW22657   3.291   2.396   7.830 -0.1607  0.0797 -0.2714
 3674SOL    HW122658   3.363   2.446   7.868 -1.3171  0.4867  1.3878
 3674SOL    HW222659   3.270   2.327   7.893  0.8002 -1.4643 -1.6461
 3675SOL     OW22660   1.349   4.715   8.981 -0.1638  0.6619 -0.5893
 3675SOL    HW122661   1.306   0.004   8.900 -0.4210 -1.0615 -1.0128
 3675SOL    HW222662   1.421   4.679   8.930  1.1293  2.0580  0.2557
 3676SOL     OW22663   0.445   1.427   5.412  0.4157  0.5675  0.1052
 3676SOL    HW122664   0.460   1.333   5.405  4.1403  1.0490  1.7789
 3676SOL    HW222665   0.390   1.430   5.490  1.7857 -0.0904  1.0853
 3677SOL     OW22666   2.393   3.854   3.910 -0.1646 -0.1525  0.1896
 3677SOL    HW122667   2.452   3.794   3.955  0.0880 -0.0886 -0.0558
 3677SOL    HW222668   2.430   3.859   3.821 -0.7845 -1.2451 -0.1328
 3678SOL     OW22669   3.236   4.359   8.349 -0.0370  0.3464  0.5505
 3678SOL    HW122670   3.170   4.320   8.292 -0.1639 -0.5127  1.2843
 3678SOL    HW222671   3.260   4.437   8.299 -1.4850  1.8006  2.1077
 3679SOL     OW22672   1.371   0.023   8.708  0.3229  0.4569  0.1864
 3679SOL    HW122673   1.369   4.672   8.672  1.8127  0.0517  1.0891
 3679SOL    HW222674   1.464   0.045   8.699  0.0817  1.3800 -0.0353
 3680SOL     OW22675   1.593   2.727   2.213 -0.8064 -1.0805  0.5893
 3680SOL    HW122676   1.602   2.680   2.130  0.4698  1.1382 -0.5188
 3680SOL    HW222677   1.507   2.766   2.199  0.1557  1.0302  0.5796
 3681SOL     OW22678   2.044   2.991   5.266 -0.2871 -0.0602  0.3484
 3681SOL    HW122679   2.041   2.910   5.215 -0.0695  0.4709 -0.4927
 3681SOL    HW222680   2.036   3.052   5.193 -0.6452  0.3784  0.7557
 3682SOL     OW22681   0.885   2.961   6.701  0.4687  0.1153 -0.5365
 3682SOL    HW122682   0.901   2.868   6.686 -0.7750 -0.0342 -0.9690
 3682SOL    HW222683   0.872   2.956   6.795  0.6771  0.0598 -0.5112
 3683SOL     OW22684   3.845   3.110   6.760 -0.3310 -0.1625 -0.8225
 3683SOL    HW122685   3.845   3.052   6.836 -0.2258  2.3600  1.1324
 3683SOL    HW222686   3.881   3.053   6.693  0.7264 -0.3734 -0.0777
 3684SOL     OW22687   1.301   1.054   2.945  0.1180 -0.1294 -0.4848
 3684SOL    HW122688   1.264   1.113   2.879  1.2560  1.6259  0.4551
 3684SOL    HW222689   1.222   1.026   2.990  0.6267 -3.4515 -1.6832
 3685SOL     OW22690   0.251   2.090   5.880 -0.4050  0.0841 -0.1073
 3685SOL    HW122691   0.325   2.104   5.821  0.2339  0.0299  0.6931
 3685SOL    HW222692   0.180   2.103   5.817 -1.5639 -1.5269  0.8559
 3686SOL     OW22693   2.880   4.418   5.146 -0.4875 -0.2432  0.3187
 3686SOL    HW122694   2.930   4.481   5.196 -0.1643 -0.5790  0.4167
 3686SOL    HW222695   2.925   4.335   5.164 -1.3037 -1.3184 -2.5409
 3687SOL     OW22696   1.178   4.595   1.921 -0.1893  0.1335  0.1623
 3687SOL    HW122697   1.153   4.538   1.993 -2.1531  1.3066  0.4013
 3687SOL    HW222698   1.272   4.604   1.932 -0.1697  1.3726 -1.0506
 3688SOL     OW22699   1.171   2.731   4.652 -0.3590 -0.2955  0.4657
 3688SOL    HW122700   1.243   2.672   4.630 -2.2110 -1.4755 -2.4997
 3688SOL    HW222701   1.099   2.705   4.594  0.8034 -2.2314 -0.0949
 3689SOL     OW22702   3.465   1.836   3.307  0.2479  0.2955  0.2150
 3689SOL    HW122703   3.441   1.808   3.219 -0.3184  2.9132 -0.4776
 3689SOL    HW222704   3.521   1.769   3.346 -0.5462  0.3340  1.4156
 3690SOL     OW22705   3.909   1.142  16.896  0.4247 -0.7057 -0.4098
 3690SOL    HW122706   3.838   1.173  16.840 -1.1534 -0.9071  1.4637
 3690SOL    HW222707   3.885   1.049  16.892  0.6478 -0.8878  2.1516
 3691SOL     OW22708   1.995   3.654  12.236  0.0411 -0.0794 -0.3450
 3691SOL    HW122709   1.974   3.621  12.149  1.6936 -1.4775 -0.2037
 3691SOL    HW222710   2.014   3.743  12.205  1.2471 -0.8305 -1.7522
 3692SOL     OW22711   0.765   4.107   9.321  0.1539 -0.0012 -0.0928
 3692SOL    HW122712   0.741   4.132   9.410  0.6314  1.4341 -0.3733
 3692SOL    HW222713   0.673   4.106   9.294  0.0288  0.5140  0.3029
 3693SOL     OW22714   2.698   0.701   1.982  0.2777  0.3300 -0.4272
 3693SOL    HW122715   2.628   0.638   1.970 -0.1344  0.6477  0.3836
 3693SOL    HW222716   2.751   0.645   2.039 -0.5512 -0.8158 -0.7933
 3694SOL     OW22717   1.616   1.768   8.103 -0.0501  0.2644 -0.3501
 3694SOL    HW122718   1.583   1.682   8.126 -1.1926  1.0079  0.8025
 3694SOL    HW222719   1.666   1.747   8.025 -0.3951 -2.7911  0.2758
 3695SOL     OW22720   1.228   1.274   1.619  0.2559  0.2993 -1.0070
 3695SOL    HW122721   1.175   1.257   1.541  0.9969 -1.2452 -1.1680
 3695SOL    HW222722   1.245   1.368   1.622 -0.4447  0.4877 -3.0429
 3696SOL     OW22723   3.632   4.520   2.787  0.0139 -0.2970  0.0850
 3696SOL    HW122724   3.650   4.558   2.873  0.3479 -0.2572 -0.0038
 3696SOL    HW222725   3.632   4.591   2.723 -1.5354  0.6331  1.1232
 3697SOL     OW22726   0.520   1.533   5.752 -0.3342 -0.0643 -0.1591
 3697SOL    HW122727   0.467   1.611   5.735  1.7411  1.2401 -0.6394
 3697SOL    HW222728   0.457   1.461   5.757 -0.6992  0.2406 -0.4079
 3698SOL     OW22729   1.544   3.303  15.507 -0.5310 -0.7522  0.1974
 3698SOL    HW122730   1.482   3.363  15.549  0.4159 -0.0870  0.6411
 3698SOL    HW222731   1.605   3.349  15.449  0.0395  0.6469  1.8880
 3699SOL     OW22732   0.260   0.629  14.277 -0.5563  0.2887 -0.5060
 3699SOL    HW122733   0.166   0.617  14.261 -0.5047 -2.0940  0.8811
 3699SOL    HW222734   0.256   0.678  14.359  0.3039 -0.2001 -0.1723
 3700SOL     OW22735   3.936   3.614   6.056 -0.4931  0.1102  0.1851
 3700SOL    HW122736   3.906   3.594   5.967  0.6899 -1.8671  0.2239
 3700SOL    HW222737   3.872   3.567   6.110 -0.0298 -0.2467  0.4299
 3701SOL     OW22738   1.527   2.898   2.926 -0.2945 -0.8032 -0.0281
 3701SOL    HW122739   1.517   2.989   2.900 -1.2020 -1.5773 -2.3657
 3701SOL    HW222740   1.522   2.895   3.022  1.5354  0.5070  0.1109
 3702SOL     OW22741   3.405   4.651   3.257 -0.6004 -0.1688 -0.4468
 3702SOL    HW122742   3.389   4.667   3.164  3.0998  1.5861 -0.8019
 3702SOL    HW222743   3.323   4.615   3.290 -1.0446  2.6195  1.4943
 3703SOL     OW22744   4.310   1.544   3.269 -0.0511  0.0158 -0.0916
 3703SOL    HW122745   4.334   1.470   3.212 -1.1499 -0.4752  0.0879
 3703SOL    HW222746   4.374   1.546   3.340  1.0474 -2.6836 -0.9894
 3704SOL     OW22747   1.007   0.712   8.212 -0.5173 -0.8716 -0.7487
 3704SOL    HW122748   1.004   0.627   8.255 -1.9399 -1.1944 -1.4838
 3704SOL    HW222749   1.092   0.743   8.244  0.3146 -2.1964 -1.6557
 3705SOL     OW22750   2.077   0.988   2.686 -0.1995  0.1822  0.1861
 3705SOL    HW122751   2.004   0.949   2.735 -1.6723  2.1540 -0.4133
 3705SOL    HW222752   2.156   0.972   2.738 -1.1706  0.2333  1.7051
 3706SOL     OW22753   1.353   0.207  15.469 -0.6289  0.4957 -0.2347
 3706SOL    HW122754   1.431   0.210  15.525 -0.0925  1.4462 -1.0174
 3706SOL    HW222755   1.386   0.172  15.386  0.1164 -0.4963  0.4762
 3707SOL     OW22756   0.562   3.411  10.373 -0.0595 -0.3993  0.0365
 3707SOL    HW122757   0.625   3.342  10.350 -1.4436 -2.6222  2.8046
 3707SOL    HW222758   0.542   3.393  10.465  0.9173  0.6280  0.4525
 3708SOL     OW22759   2.432   2.238   1.516  0.2870  0.2767  0.7331
 3708SOL    HW122760   2.519   2.204   1.538  0.6946  2.1336  1.9933
 3708SOL    HW222761   2.449   2.248   1.422  2.4261  1.3024  1.2399
 3709SOL     OW22762   0.628   0.502  16.308  0.1678 -0.1503  0.2145
 3709SOL    HW122763   0.558   0.494  16.242  0.3176  5.9071 -0.5974
 3709SOL    HW222764   0.693   0.444  16.267 -0.4950 -1.1897  0.6188
 3710SOL     OW22765   1.860   0.738   5.752 -0.0120 -0.2639  0.2616
 3710SOL    HW122766   1.926   0.757   5.686 -1.2365 -1.2478 -1.2329
 3710SOL    HW222767   1.908   0.673   5.803  1.3481 -0.0460 -0.7202
 3711SOL     OW22768   4.129   0.187   5.328  0.0598 -0.1662 -0.4777
 3711SOL    HW122769   4.070   0.218   5.397 -0.2324 -0.4509 -0.5970
 3711SOL    HW222770   4.070   0.129   5.278 -1.5868  0.7138  0.4587
 3712SOL     OW22771   1.469   0.973  11.807 -0.7257  0.1865  0.3920
 3712SOL    HW122772   1.399   0.970  11.871 -0.5012 -0.8204  0.5945
 3712SOL    HW222773   1.428   1.029  11.741  0.6793  0.4906 -0.2269
 3713SOL     OW22774   4.272   3.587   9.917 -0.2111  0.0321  0.4248
 3713SOL    HW122775   4.270   3.585   9.821 -1.6552 -1.2740  0.4714
 3713SOL    HW222776   4.204   3.521   9.932  0.4197 -1.2632 -2.3834
 3714SOL     OW22777   4.006   1.923   3.575 -0.1498  0.1484 -0.6283
 3714SOL    HW122778   4.073   1.959   3.517  1.1326  0.1836  0.8881
 3714SOL    HW222779   4.025   1.830   3.565 -1.3245 -0.1761  0.1454
 3715SOL     OW22780   2.668   0.814   4.379 -0.2564 -0.4476  0.0548
 3715SOL    HW122781   2.675   0.816   4.283 -1.3850 -0.4929 -0.0237
 3715SOL    HW222782   2.738   0.878   4.393  1.8976 -2.2984 -2.1840
 3716SOL     OW22783   2.781   3.295  10.383 -0.2173 -0.2937  0.0019
 3716SOL    HW122784   2.697   3.340  10.386  0.0370  0.0535  2.4552
 3716SOL    HW222785   2.755   3.217  10.335 -0.0111  0.2669 -1.0142
 3717SOL     OW22786   3.101   0.339   8.601 -0.5790 -0.1134 -0.4070
 3717SOL    HW122787   3.076   0.417   8.651 -0.1402 -0.1705 -0.1032
 3717SOL    HW222788   3.080   0.375   8.515  0.5164  2.7595  0.5250
 3718SOL     OW22789   4.463   1.038   5.097  0.8613 -0.4922  0.3971
 3718SOL    HW122790   4.491   1.076   5.180  0.6965 -0.5749  0.4907
 3718SOL    HW222791   4.526   0.968   5.082 -0.0320 -1.1098 -0.5088
 3719SOL     OW22792   2.306   0.656  13.972  0.8691  0.4538 -0.5046
 3719SOL    HW122793   2.313   0.571  14.016  0.8011  0.9391  0.4427
 3719SOL    HW222794   2.234   0.697  14.019  2.6708 -0.9706  3.4933
 3720SOL     OW22795   1.781   1.982   6.226  0.3486 -0.4743 -0.1605
 3720SOL    HW122796   1.692   1.955   6.203 -0.8206  3.4382 -0.2350
 3720SOL    HW222797   1.826   1.954   6.146  0.0906 -2.8346  0.4957
 3721SOL     OW22798   1.185   2.965   1.704 -0.2885 -0.6732 -0.5438
 3721SOL    HW122799   1.221   3.034   1.647  0.0327  0.9693  1.6246
 3721SOL    HW222800   1.097   2.968   1.669 -1.4420  0.4738  2.4271
 3722SOL     OW22801   1.497   3.575  16.960  0.2993  0.3275 -0.7888
 3722SOL    HW122802   1.479   3.642  17.025 -1.3060 -2.6155  1.8386
 3722SOL    HW222803   1.520   3.498  17.012  1.3929  0.5706 -0.9291
 3723SOL     OW22804   0.681   4.336   4.210 -0.0988 -0.5934 -0.4840
 3723SOL    HW122805   0.648   4.360   4.123 -1.0269 -1.3091 -0.3213
 3723SOL    HW222806   0.775   4.326   4.194 -0.0409 -1.0702  0.1493
 3724SOL     OW22807   4.648   2.896   5.610 -0.2248 -0.1019 -0.3732
 3724SOL    HW122808   4.586   2.828   5.585 -0.6574  0.4375 -0.7412
 3724SOL    HW222809   4.640   2.878   5.703 -2.8396  1.9544 -0.2306
 3725SOL     OW22810   2.698   3.953  11.696  0.1419  0.9284 -0.0712
 3725SOL    HW122811   2.627   3.890  11.687 -0.0559  1.2286 -0.6024
 3725SOL    HW222812   2.721   3.966  11.604 -0.7684  0.6328 -0.3419
 3726SOL     OW22813   0.366   2.461   6.126 -0.2538 -0.2669  0.1094
 3726SOL    HW122814   0.442   2.406   6.106 -0.9152 -1.5064  1.0417
 3726SOL    HW222815   0.393   2.492   6.213  1.3416  0.1989 -0.5466
 3727SOL     OW22816   1.961   1.052   3.408  0.1507 -0.7792  0.8907
 3727SOL    HW122817   1.869   1.076   3.398  0.9988  0.8365 -3.0188
 3727SOL    HW222818   1.986   1.126   3.463 -2.2446  0.1191  0.7754
 3728SOL     OW22819   0.579   4.539   6.176 -0.2235 -0.1468 -0.6206
 3728SOL    HW122820   0.602   4.537   6.083 -1.6446 -0.6882 -0.9540
 3728SOL    HW222821   0.562   4.445   6.183  0.4160 -0.3700 -1.8838
 3729SOL     OW22822   3.289   2.805  15.687  0.2023 -0.0346  0.6961
 3729SOL    HW122823   3.230   2.775  15.618 -1.7261 -1.0993  2.8289
 3729SOL    HW222824   3.263   2.896  15.678 -1.5003 -0.6246 -0.2892
 3730SOL     OW22825   1.540   1.739   2.064  0.0395  0.0108  0.6003
 3730SOL    HW122826   1.568   1.655   2.026 -1.0035 -0.8725  1.8200
 3730SOL    HW222827   1.617   1.793   2.047 -0.1436  0.7619  2.2428
 3731SOL     OW22828   1.425   3.397  14.145 -0.0815  0.0239  0.4898
 3731SOL    HW122829   1.395   3.314  14.180  0.3294 -1.1278 -1.9561
 3731SOL    HW222830   1.378   3.395  14.062  2.0466 -1.3621 -0.6609
 3732SOL     OW22831   0.417   3.134   6.070  0.7375  0.0790 -0.4254
 3732SOL    HW122832   0.346   3.171   6.121  1.0788 -2.6447  2.0289
 3732SOL    HW222833   0.416   3.201   6.002 -1.5557  0.4401 -0.0175
 3733SOL     OW22834   1.381   1.832  15.677 -0.3380 -0.0889 -0.7087
 3733SOL    HW122835   1.359   1.775  15.603 -0.7337 -0.2688 -0.4497
 3733SOL    HW222836   1.339   1.914  15.650 -1.8717 -0.5449  0.2945
 3734SOL     OW22837   4.192   0.636   0.843  0.6736  0.0727 -0.0581
 3734SOL    HW122838   4.199   0.639   0.939 -2.6535 -0.2018  0.1885
 3734SOL    HW222839   4.278   0.597   0.829 -0.3168 -0.9905 -3.0835
 3735SOL     OW22840   0.602   2.760   8.341 -0.0791 -0.6295 -0.7392
 3735SOL    HW122841   0.674   2.810   8.303  2.7511 -3.0929  1.3238
 3735SOL    HW222842   0.550   2.832   8.376  0.6831 -0.7922  0.7450
 3736SOL     OW22843   0.334   1.342   5.658  0.3266  0.8137 -0.0209
 3736SOL    HW122844   0.292   1.257   5.661  1.0836  0.4943  1.3741
 3736SOL    HW222845   0.309   1.379   5.743  0.4000  0.8314 -0.0062
 3737SOL     OW22846   1.631   1.008   9.251  0.1341 -0.8330  0.0264
 3737SOL    HW122847   1.705   1.006   9.312  0.0465 -2.3028  0.0713
 3737SOL    HW222848   1.671   1.047   9.173 -1.7492 -2.0210 -1.5333
 3738SOL     OW22849   1.006   0.869   7.308 -0.1518 -0.4103 -0.1739
 3738SOL    HW122850   0.981   0.811   7.236 -3.0968 -0.2854  0.7735
 3738SOL    HW222851   0.922   0.908   7.329  0.1789  0.1758  0.0695
 3739SOL     OW22852   0.834   1.528   7.821 -0.2147 -0.1259 -0.2103
 3739SOL    HW122853   0.917   1.504   7.861  0.0388 -0.1492 -0.7481
 3739SOL    HW222854   0.855   1.534   7.727  1.5192 -1.2577  0.1140
 3740SOL     OW22855   2.833   1.025  11.260 -0.0836 -0.1816  0.3748
 3740SOL    HW122856   2.793   1.084  11.324 -2.7665  1.1903 -2.5572
 3740SOL    HW222857   2.816   1.082  11.185 -1.0802  0.6867  1.2498
 3741SOL     OW22858   0.151   2.582   7.678 -0.2068  0.4210 -0.6892
 3741SOL    HW122859   0.151   2.489   7.658  1.4798  0.0328  1.1249
 3741SOL    HW222860   0.059   2.604   7.663  0.3213  2.1137 -1.5501
 3742SOL     OW22861   0.595   1.981   9.672  0.3793  0.3767  0.4734
 3742SOL    HW122862   0.687   1.987   9.647 -0.4329  1.4602 -2.3475
 3742SOL    HW222863   0.545   2.019   9.599 -1.0575 -1.4835  0.4920
 3743SOL     OW22864   3.259   3.059   1.483 -0.9549  0.9050 -0.2268
 3743SOL    HW122865   3.236   2.990   1.421 -0.3491 -0.0525  0.6100
 3743SOL    HW222866   3.339   3.097   1.447 -0.5317 -0.0388 -0.2893
 3744SOL     OW22867   1.529   0.026   5.791  0.5512  0.0705  0.0706
 3744SOL    HW122868   1.585   0.044   5.716  0.9476 -0.9816  0.1062
 3744SOL    HW222869   1.568   4.684   5.828  0.5258  0.3217  0.6421
 3745SOL     OW22870   3.996   2.314   9.288  0.0832 -0.3235  1.1028
 3745SOL    HW122871   4.083   2.335   9.322  0.9838  0.5880 -1.8026
 3745SOL    HW222872   3.987   2.220   9.303 -2.9573  0.0882  1.9974
 3746SOL     OW22873   4.168   4.633   0.175  0.3938  0.0951 -0.1654
 3746SOL    HW122874   4.255   4.606   0.144 -0.1083 -0.9836 -0.6591
 3746SOL    HW222875   4.112   4.569   0.130 -0.2894  1.3655 -1.1098
 3747SOL     OW22876   0.172   2.305   9.642 -0.5207  0.3890  0.1355
 3747SOL    HW122877   0.245   2.287   9.583 -0.6702  1.7582 -0.4706
 3747SOL    HW222878   0.208   2.388   9.673 -1.7727  0.7980  0.4914
 3748SOL     OW22879   4.428   1.048   1.054  0.3143  0.2242  0.1052
 3748SOL    HW122880   4.335   1.030   1.046  0.2498 -0.4659  2.6151
 3748SOL    HW222881   4.458   0.966   1.094  1.2899 -0.4448 -1.9838
 3749SOL     OW22882   1.286   2.255   3.404 -0.5367 -0.4091 -0.9120
 3749SOL    HW122883   1.251   2.331   3.357  1.9295  1.1829 -0.1375
 3749SOL    HW222884   1.276   2.299   3.489 -2.5971 -0.9155 -0.8783
 3750SOL     OW22885   1.159   0.900  16.973 -0.2333 -0.4645  0.3879
 3750SOL    HW122886   1.078   0.852  16.952 -0.7809  0.8878 -0.5969
 3750SOL    HW222887   1.221   0.876  16.904 -1.5461  1.4028 -1.4477
 3751SOL     OW22888   3.105   3.614   7.228 -0.2959 -0.3048  0.0154
 3751SOL    HW122889   3.142   3.621   7.316  2.3292 -0.8900 -1.0317
 3751SOL    HW222890   3.141   3.531   7.197 -0.7209 -0.2010 -0.7641
 3752SOL     OW22891   4.388   4.361   5.551 -0.3257  0.0948  0.0621
 3752SOL    HW122892   4.363   4.450   5.578  0.1726 -0.3081  1.8454
 3752SOL    HW222893   4.392   4.378   5.457 -0.7624  0.8566  0.1768
 3753SOL     OW22894   2.293   3.793   7.481  0.7640 -0.7514 -0.7599
 3753SOL    HW122895   2.269   3.885   7.469 -1.4547 -1.2665 -0.3765
 3753SOL    HW222896   2.293   3.756   7.393 -1.0307  1.9208 -1.8845
 3754SOL     OW22897   1.411   3.586   5.910  0.3334  0.2640  0.1825
 3754SOL    HW122898   1.332   3.550   5.951 -2.3736  2.2123 -3.2884
 3754SOL    HW222899   1.442   3.638   5.983 -0.5497  1.1371 -0.0622
 3755SOL     OW22900   0.074   3.518   8.023 -0.2719 -0.0037 -0.1780
 3755SOL    HW122901   0.113   3.599   7.993  0.9998 -0.3081  0.6547
 3755SOL    HW222902   0.151   3.480   8.066  0.0897  1.8939  0.8235
 3756SOL     OW22903   4.428   0.575   8.227 -0.3766  0.0345  0.1086
 3756SOL    HW122904   4.463   0.641   8.286 -1.2354 -0.1716  0.8384
 3756SOL    HW222905   4.507   0.522   8.242  0.5790  1.2123 -0.7943
 3757SOL     OW22906   1.828   4.201  15.155 -0.4019  0.2278  1.1215
 3757SOL    HW122907   1.749   4.203  15.102  0.4451  1.5575 -0.0832
 3757SOL    HW222908   1.810   4.144  15.230 -0.5869 -1.6420 -0.3427
 3758SOL     OW22909   2.670   3.079   2.327  0.0238 -0.1344  0.0594
 3758SOL    HW122910   2.586   3.044   2.353 -0.4976 -0.7695 -2.5531
 3758SOL    HW222911   2.728   3.026   2.381  0.6448  0.7080  0.2339
 3759SOL     OW22912   4.463   0.715   8.909  0.0739 -0.1719 -0.5485
 3759SOL    HW122913   4.438   0.625   8.887  0.3065 -0.4870  0.4638
 3759SOL    HW222914   4.559   0.713   8.912  0.0727 -0.1150 -0.4839
 3760SOL     OW22915   1.800   1.522   6.393  0.3080 -0.4260  0.2941
 3760SOL    HW122916   1.890   1.555   6.388  0.8250 -2.0158 -0.8985
 3760SOL    HW222917   1.821   1.445   6.446  1.5236 -0.2365  0.0823
 3761SOL     OW22918   0.716   2.184   2.129 -0.0682 -0.2317 -0.0544
 3761SOL    HW122919   0.762   2.199   2.046  1.1194 -0.6029  0.5460
 3761SOL    HW222920   0.762   2.101   2.146 -2.9923 -2.0067 -0.6828
 3762SOL     OW22921   1.771   4.701   6.958  0.0924  0.0920  0.6644
 3762SOL    HW122922   1.805   0.051   6.934  1.9597 -0.3605  1.6723
 3762SOL    HW222923   1.758   4.706   7.052  1.0221  0.9477  0.7529
 3763SOL     OW22924   2.692   3.102  11.755 -0.0441  0.3994 -0.3185
 3763SOL    HW122925   2.696   3.186  11.709  0.0428  0.3122 -0.4708
 3763SOL    HW222926   2.604   3.069  11.739  0.1170  1.0159 -2.5631
 3764SOL     OW22927   3.088   0.310  11.400  0.3171 -0.3000  0.5407
 3764SOL    HW122928   3.182   0.294  11.399  0.4041  0.2114  0.3955
 3764SOL    HW222929   3.074   0.348  11.487  0.9352  0.4871  0.2969
 3765SOL     OW22930   1.023   2.751  11.006 -0.4004 -0.1224 -0.3929
 3765SOL    HW122931   0.966   2.828  11.006  0.5606  0.5880  0.2575
 3765SOL    HW222932   1.105   2.778  10.964 -0.4759 -0.0382 -0.4848
 3766SOL     OW22933   0.136   0.231   3.601 -0.5302  0.1672  0.4372
 3766SOL    HW122934   0.123   0.305   3.659  1.2402  0.6860  0.1733
 3766SOL    HW222935   0.217   0.265   3.562 -0.7480  0.8034  0.5420
 3767SOL     OW22936   4.696   0.451   0.738 -0.3832  0.0051  0.0937
 3767SOL    HW122937   4.665   0.492   0.656 -0.4798  1.3261  0.7877
 3767SOL    HW222938   0.013   0.521   0.775  2.5113 -1.1744 -1.9335
 3768SOL     OW22939   2.668   1.563   4.558  0.3927 -0.5493  0.4215
 3768SOL    HW122940   2.744   1.612   4.526  0.9436 -0.5069  1.7970
 3768SOL    HW222941   2.713   1.502   4.617  1.2047 -0.5933 -0.2467
 3769SOL     OW22942   0.942   2.358   8.534  0.3775 -0.0974  1.0907
 3769SOL    HW122943   0.962   2.389   8.622  1.5600  0.4413  0.6312
 3769SOL    HW222944   1.017   2.300   8.521  0.6130  0.6772 -1.0318
 3770SOL     OW22945   4.592   1.964   5.892 -0.1403 -0.2371  0.0676
 3770SOL    HW122946   4.556   2.036   5.944  0.5003  0.6646 -0.7387
 3770SOL    HW222947   4.663   2.008   5.845 -0.8933  0.0903 -0.7686
 3771SOL     OW22948   0.746   1.910   9.947  0.2976 -0.1992 -0.5082
 3771SOL    HW122949   0.689   1.986   9.935  0.3506 -0.1617 -0.5225
 3771SOL    HW222950   0.780   1.925  10.035 -0.5798 -0.7613 -0.0722
 3772SOL     OW22951   2.504   2.103  12.648 -0.1241 -0.3782 -0.1713
 3772SOL    HW122952   2.554   2.034  12.604  3.0306  1.7180  0.1290
 3772SOL    HW222953   2.465   2.046  12.714 -1.0895  0.4793 -0.0044
 3773SOL     OW22954   4.384   0.323   9.653  0.2320  0.0445 -0.7604
 3773SOL    HW122955   4.308   0.302   9.707  1.4153  0.5459  1.0903
 3773SOL    HW222956   4.425   0.237   9.651 -1.3492 -0.7137 -0.8422
 3774SOL     OW22957   0.266   2.556  16.987  0.4783  0.0555  0.4185
 3774SOL    HW122958   0.306   2.469  16.988  0.0246 -0.1797 -1.6294
 3774SOL    HW222959   0.225   2.561  17.073  0.0267  2.3238  0.0804
 3775SOL     OW22960   3.338   3.141  12.024  0.3765 -0.1008  0.5487
 3775SOL    HW122961   3.278   3.079  11.983  1.2134  0.0517 -0.8852
 3775SOL    HW222962   3.415   3.084  12.030 -0.4759 -1.3745 -0.5918
 3776SOL     OW22963   1.968   1.429   4.216  0.0914 -0.0813 -0.3502
 3776SOL    HW122964   1.997   1.470   4.297 -0.3757 -2.5598  1.0531
 3776SOL    HW222965   1.978   1.505   4.158  0.3495  0.2630  0.1482
 3777SOL     OW22966   4.462   1.577   3.491 -0.1597 -0.0820  0.0805
 3777SOL    HW122967   4.491   1.496   3.534  1.2379 -0.0275 -0.7711
 3777SOL    HW222968   4.547   1.616   3.469  0.6628 -0.8410  1.8959
 3778SOL     OW22969   2.768   2.256   8.421  0.5143 -0.0498  0.7593
 3778SOL    HW122970   2.820   2.180   8.396 -1.0516 -1.1821  1.0210
 3778SOL    HW222971   2.837   2.306   8.465  1.8761  0.3747 -1.8100
 3779SOL     OW22972   1.774   4.460   0.889 -0.1599 -0.0953 -0.8623
 3779SOL    HW122973   1.772   4.453   0.793 -1.9272 -0.8838 -0.7755
 3779SOL    HW222974   1.867   4.439   0.895 -0.4578 -0.9856  0.4471
 3780SOL     OW22975   4.015   4.359   7.976 -1.4905  0.2796  0.1312
 3780SOL    HW122976   3.991   4.279   8.022 -1.6374  0.2261 -0.0394
 3780SOL    HW222977   4.080   4.392   8.038  0.6060 -1.0311 -1.3400
 3781SOL     OW22978   4.137   2.035   4.911  0.2976  0.3654  0.1853
 3781SOL    HW122979   4.187   2.009   4.988  2.9125  0.9614 -1.2978
 3781SOL    HW222980   4.203   2.037   4.841  2.9917  1.0861  2.7283
 3782SOL     OW22981   4.173   1.634   5.594  0.7199  0.1289 -0.0639
 3782SOL    HW122982   4.135   1.546   5.597  0.5203  0.2478  0.7601
 3782SOL    HW222983   4.147   1.676   5.676 -1.6680 -2.2925  0.4404
 3783SOL     OW22984   1.030   1.658   7.201  0.0770 -0.2235 -0.3119
 3783SOL    HW122985   1.083   1.701   7.268 -0.9786 -0.4064  0.6350
 3783SOL    HW222986   0.941   1.691   7.206 -0.1929 -1.3764  2.3816
 3784SOL     OW22987   4.461   0.588   0.853 -0.4282 -0.5762 -0.5462
 3784SOL    HW122988   4.479   0.667   0.803  1.2293 -0.6055  0.0036
 3784SOL    HW222989   4.532   0.533   0.818 -1.2051 -0.9269 -1.5749
 3785SOL     OW22990   0.724   4.023   5.951 -0.0499  0.1804 -0.0905
 3785SOL    HW122991   0.671   3.947   5.979  0.0602  1.0951  2.6128
 3785SOL    HW222992   0.793   4.019   6.018 -1.2581  3.1653  1.3338
 3786SOL     OW22993   2.069   0.165   9.002 -0.3317  0.0593  0.7265
 3786SOL    HW122994   2.007   0.155   9.074  0.8527 -2.3774  1.4341
 3786SOL    HW222995   2.155   0.135   9.033  0.6375  0.2970 -1.7112
 3787SOL     OW22996   1.501   0.598   1.215 -0.0115 -0.4429 -1.2456
 3787SOL    HW122997   1.419   0.549   1.207 -1.1217  0.7594  2.8354
 3787SOL    HW222998   1.505   0.659   1.141 -0.5676 -1.2140 -1.9086
 3788SOL     OW22999   2.449   2.936   5.897 -0.2844 -0.1272  1.2949
 3788SOL    HW123000   2.356   2.916   5.887  0.1026 -1.3323  0.0228
 3788SOL    HW223001   2.456   2.974   5.984 -0.5916 -0.6848  1.5639
 3789SOL     OW23002   3.564   3.866   6.548 -0.1885 -0.2460  0.2722
 3789SOL    HW123003   3.632   3.898   6.608 -1.2052  0.8848  0.8199
 3789SOL    HW223004   3.587   3.773   6.551  0.3999 -0.1119 -0.1027
 3790SOL     OW23005   4.382   2.928  13.200 -0.5024 -0.4508  0.2283
 3790SOL    HW123006   4.303   2.914  13.148  0.3938  1.2709 -1.6041
 3790SOL    HW223007   4.432   2.852  13.167  2.4837  1.5915  0.0340
 3791SOL     OW23008   1.052   4.440   7.588  0.3987  0.1314  0.0662
 3791SOL    HW123009   1.084   4.408   7.672 -0.1482  0.2565  0.3241
 3791SOL    HW223010   1.036   4.534   7.598 -1.7785 -0.1897 -0.2036
 3792SOL     OW23011   1.126   3.271   0.905  0.4199  0.0101  0.0114
 3792SOL    HW123012   1.099   3.303   0.991  1.2076  1.0033 -0.1061
 3792SOL    HW223013   1.180   3.202   0.945  0.4541  0.1433  0.1964
 3793SOL     OW23014   2.994   0.372  17.329 -0.0573 -0.5286 -0.0506
 3793SOL    HW123015   3.072   0.332  17.368  0.7995 -0.5240 -1.7274
 3793SOL    HW223016   2.958   0.423  17.401  2.6689  0.0205  0.9447
 3794SOL     OW23017   4.130   3.319   5.673 -0.5065  0.1966  0.0780
 3794SOL    HW123018   4.223   3.329   5.653  0.1271 -2.1966  1.8193
 3794SOL    HW223019   4.086   3.403   5.664  1.0571  1.0878  0.5651
 3795SOL     OW23020   0.193   4.711   8.307  0.0808 -0.7386 -0.4288
 3795SOL    HW123021   0.127   4.667   8.361  0.7545 -2.1080 -0.7206
 3795SOL    HW223022   0.266   4.648   8.313  0.8861  0.2608  0.4222
 3796SOL     OW23023   4.731   2.609   6.345  0.4871 -0.2369  0.0263
 3796SOL    HW123024   4.713   2.672   6.415  1.4493 -0.9033  0.8629
 3796SOL    HW223025   4.643   2.578   6.322 -0.0390  1.8119 -0.7850
 3797SOL     OW23026   1.863   0.083   4.806  0.3539  0.3037  0.3965
 3797SOL    HW123027   1.831   0.018   4.743  1.4928 -1.6923  1.8644
 3797SOL    HW223028   1.815   0.161   4.778 -2.4583 -1.6290 -0.1996
 3798SOL     OW23029   2.624   1.700   8.674  0.4281 -0.6194  0.1939
 3798SOL    HW123030   2.530   1.691   8.690  0.5583  0.0072  1.3106
 3798SOL    HW223031   2.632   1.794   8.657 -1.5171 -0.6732 -0.9179
 3799SOL     OW23032   4.124   4.517   9.486  0.7378  0.5685 -0.1154
 3799SOL    HW123033   4.035   4.489   9.509  0.5909  1.7310  0.7465
 3799SOL    HW223034   4.115   4.606   9.520  0.8792 -0.3614  2.3832
 3800SOL     OW23035   1.569   3.093   1.004 -0.5125  0.3847  0.0500
 3800SOL    HW123036   1.649   3.146   0.993 -0.9365  0.7221 -1.3515
 3800SOL    HW223037   1.527   3.106   0.919 -1.2227 -3.4626 -0.1873
 3801SOL     OW23038   3.998   4.410  10.900 -0.7064  0.4747 -0.5820
 3801SOL    HW123039   3.961   4.339  10.847  1.2390  1.2983 -3.0769
 3801SOL    HW223040   3.916   4.427  10.945 -0.6294  0.4905 -0.4467
 3802SOL     OW23041   0.860   1.845   7.633  0.3641  0.4019 -0.1596
 3802SOL    HW123042   0.931   1.839   7.696  0.5419  2.8498 -0.1039
 3802SOL    HW223043   0.785   1.826   7.689  0.9288  2.4147  1.2719
 3803SOL     OW23044   1.877   2.226   4.788 -0.7541  0.1746  0.5224
 3803SOL    HW123045   1.808   2.185   4.735 -1.3816  1.0397  0.6720
 3803SOL    HW223046   1.915   2.286   4.724 -1.8975  1.5418  1.1381
 3804SOL     OW23047   2.786   3.351  11.330 -0.4985  0.4800 -0.0857
 3804SOL    HW123048   2.829   3.348  11.244  2.1184  0.6162  1.1946
 3804SOL    HW223049   2.844   3.405  11.383  0.3149 -1.7325  1.2783
 3805SOL     OW23050   2.109   0.026   4.880 -0.1552  0.2488 -0.2301
 3805SOL    HW123051   2.016   0.032   4.862 -0.4360 -1.7550  0.4889
 3805SOL    HW223052   2.137   0.115   4.858  0.4134  0.9885  3.5761
 3806SOL     OW23053   3.926   0.263   8.097  0.3182  0.6140  0.1444
 3806SOL    HW123054   3.969   0.191   8.051 -1.7714 -1.0128  0.7686
 3806SOL    HW223055   3.895   0.221   8.178 -1.6435 -0.5569 -1.2130
 3807SOL     OW23056   1.006   4.183   4.858 -0.4469  0.1785 -0.5656
 3807SOL    HW123057   0.942   4.249   4.885  1.8214  1.3931  1.8440
 3807SOL    HW223058   0.995   4.110   4.920  0.9265  0.9937  0.6423
 3808SOL     OW23059   2.775   1.714   9.739 -0.6518  0.3598 -0.1406
 3808SOL    HW123060   2.791   1.765   9.659  0.8185  1.3615  0.7964
 3808SOL    HW223061   2.865   1.687   9.758 -0.4541  1.6259  0.6795
 3809SOL     OW23062   4.195   1.730  12.324  0.4728  0.3607 -0.2094
 3809SOL    HW123063   4.276   1.685  12.347 -0.1216 -0.0293  1.0994
 3809SOL    HW223064   4.221   1.823  12.324 -0.7061  0.6865 -0.4094
 3810SOL     OW23065   3.423   4.252  16.298  0.3240  0.1491  0.4064
 3810SOL    HW123066   3.396   4.285  16.383  1.7036  1.4579  0.3477
 3810SOL    HW223067   3.365   4.311  16.250  0.0075 -0.9942 -0.6088
 3811SOL     OW23068   1.736   4.108   8.320  0.0042 -0.1704  0.1322
 3811SOL    HW123069   1.664   4.135   8.377 -0.0239 -0.1757  0.0988
 3811SOL    HW223070   1.700   4.029   8.279  1.1084 -1.0109  0.7997
 3812SOL     OW23071   2.301   3.202   2.641 -0.2546 -0.6591 -0.1409
 3812SOL    HW123072   2.377   3.239   2.687  0.3384 -3.6843  1.2865
 3812SOL    HW223073   2.285   3.271   2.577  1.5769  0.4023  0.5550
 3813SOL     OW23074   4.416   3.469  13.630 -1.1605 -0.2622  0.4698
 3813SOL    HW123075   4.458   3.396  13.586 -0.2107  0.7042 -0.2257
 3813SOL    HW223076   4.402   3.533  13.560  0.2978  0.8921  1.2269
 3814SOL     OW23077   1.377   1.089   2.675  0.0021 -0.4000 -0.0313
 3814SOL    HW123078   1.451   1.130   2.720 -1.3609  1.8458  0.1114
 3814SOL    HW223079   1.385   0.998   2.704 -0.9854 -0.6928 -0.6787
 3815SOL     OW23080   2.431   2.539   5.345  0.9868  0.3135  0.2734
 3815SOL    HW123081   2.369   2.564   5.276  0.7729  1.4755  0.9042
 3815SOL    HW223082   2.516   2.569   5.312  0.1577  2.3643  0.0305
 3816SOL     OW23083   3.235   4.029   4.061  0.3065 -0.0966 -0.0358
 3816SOL    HW123084   3.234   3.953   4.119  1.8714 -0.7672 -0.8869
 3816SOL    HW223085   3.193   3.999   3.980 -0.3485 -1.3344  0.7443
 3817SOL     OW23086   3.254   0.697   1.117  0.0817  0.4522 -0.2185
 3817SOL    HW123087   3.287   0.619   1.160 -1.4210  0.8492  1.7041
 3817SOL    HW223088   3.161   0.674   1.108  0.2949 -1.3566  2.1910
 3818SOL     OW23089   4.215   1.620   7.294  0.2080  0.5304 -0.4792
 3818SOL    HW123090   4.173   1.666   7.367 -1.3162 -2.1612  0.3441
 3818SOL    HW223091   4.142   1.632   7.233 -0.2010 -0.7762 -0.2346
 3819SOL     OW23092   3.558   2.777  13.005 -0.1443 -0.0110  0.3662
 3819SOL    HW123093   3.649   2.796  13.030  0.3068  1.0869 -2.1926
 3819SOL    HW223094   3.537   2.867  12.979  1.7526  0.1963 -0.4488
 3820SOL     OW23095   1.039   0.269   9.319 -0.5761 -0.6594 -0.3768
 3820SOL    HW123096   1.091   0.298   9.244 -0.4694 -2.4927 -1.0022
 3820SOL    HW223097   0.967   0.332   9.325  0.2879  0.4906 -2.0449
 3821SOL     OW23098   1.889   1.976   7.825 -0.3208  0.6540  0.2572
 3821SOL    HW123099   1.975   1.944   7.795 -0.3168  0.4097  0.5363
 3821SOL    HW223100   1.849   1.987   7.739  0.0265  0.4972  0.0724
 3822SOL     OW23101   1.271   3.930   2.757  0.3971 -0.2804  0.1076
 3822SOL    HW123102   1.268   3.849   2.707 -0.4182 -0.7360  0.9019
 3822SOL    HW223103   1.318   3.995   2.705  0.5336 -0.2017  0.3294
 3823SOL     OW23104   2.234   0.835  16.349 -0.4244  0.0115 -0.0381
 3823SOL    HW123105   2.280   0.852  16.267  3.1336  1.1748  2.2128
 3823SOL    HW223106   2.264   0.911  16.398 -0.0429 -1.4329  1.9746
 3824SOL     OW23107   4.472   4.091  17.656 -0.0237  0.3890 -0.4631
 3824SOL    HW123108   4.558   4.126  17.633  0.0571 -0.2401 -1.1313
 3824SOL    HW223109   4.410   4.161  17.674  0.4218  0.7654 -0.3881
 3825SOL     OW23110   3.519   3.656  13.420  0.5195 -0.3651 -0.2158
 3825SOL    HW123111   3.442   3.638  13.366  0.1396  0.3300  0.1034
 3825SOL    HW223112   3.490   3.725  13.480  0.8587 -2.1132  1.9501
 3826SOL     OW23113   4.043   4.347   8.354  0.5328  0.3623 -0.0872
 3826SOL    HW123114   3.998   4.292   8.289 -1.5221  3.1259 -1.0221
 3826SOL    HW223115   3.982   4.361   8.426 -2.9837  0.1518 -2.9944
 3827SOL     OW23116   2.658   1.504  11.331  0.2383  0.2155 -0.3119
 3827SOL    HW123117   2.701   1.586  11.308 -0.4887 -0.1480 -2.8821
 3827SOL    HW223118   2.597   1.537  11.397 -0.4829 -1.9219  0.1112
 3828SOL     OW23119   3.244   1.732   6.307  0.9712 -0.0850 -0.4880
 3828SOL    HW123120   3.223   1.644   6.276 -0.2695  0.6207 -1.6652
 3828SOL    HW223121   3.314   1.710   6.368  0.8988  0.6587 -0.1375
 3829SOL     OW23122   2.612   2.274  10.341 -0.2910  0.2835  0.0986
 3829SOL    HW123123   2.704   2.280  10.367 -0.4312  2.2025  0.1865
 3829SOL    HW223124   2.600   2.181  10.320 -1.2212 -0.2321  2.9370
 3830SOL     OW23125   4.167   4.437   4.081 -0.2929  0.3012  0.3824
 3830SOL    HW123126   4.223   4.384   4.025 -0.4672  0.6732 -0.1467
 3830SOL    HW223127   4.080   4.400   4.064 -0.5244  2.0450 -2.3350
 3831SOL     OW23128   0.856   1.552   0.064  0.7803  0.4978  0.2809
 3831SOL    HW123129   0.797   1.578  17.740  2.0655 -2.4096 -1.8507
 3831SOL    HW223130   0.809   1.477   0.099 -0.9878  1.1423 -0.7061
 3832SOL     OW23131   1.667   3.344  17.133  0.1415  0.2505  0.1257
 3832SOL    HW123132   1.700   3.357  17.222  4.3606 -1.2932 -1.2396
 3832SOL    HW223133   1.589   3.290  17.149  0.5151  0.1953  1.7301
 3833SOL     OW23134   4.394   3.775  15.605 -0.1709  0.3714 -0.3842
 3833SOL    HW123135   4.401   3.708  15.537  1.5861 -1.4506  1.6229
 3833SOL    HW223136   4.377   3.857  15.559 -1.5328 -0.3109 -1.1077
 3834SOL     OW23137   4.644   1.443  16.325  0.0133  0.4232 -0.5526
 3834SOL    HW123138   4.598   1.524  16.344 -0.2119 -0.1132  1.2266
 3834SOL    HW223139   4.573   1.380  16.340  0.7273  0.4123  2.9756
 3835SOL     OW23140   2.116   0.828   3.346 -0.2159 -0.8298 -0.8133
 3835SOL    HW123141   2.052   0.891   3.379 -0.2997 -0.9185 -0.8048
 3835SOL    HW223142   2.167   0.894   3.299 -2.7590  0.7534 -1.3121
 3836SOL     OW23143   2.381   2.055   9.091 -0.0320  0.2921 -1.0706
 3836SOL    HW123144   2.318   2.122   9.116 -1.2890 -0.7565 -1.4421
 3836SOL    HW223145   2.386   2.007   9.174 -0.5970 -1.4136 -2.0178
 3837SOL     OW23146   4.439   2.096   9.423 -0.0471 -0.5473  0.1993
 3837SOL    HW123147   4.482   2.050   9.351 -1.6355 -0.8319 -0.5898
 3837SOL    HW223148   4.486   2.062   9.499 -1.8466  1.1978  2.1317
 3838SOL     OW23149   4.320   4.132  10.785  0.1005  0.3599 -0.0794
 3838SOL    HW123150   4.284   4.047  10.762  0.1866  0.3578 -0.2060
 3838SOL    HW223151   4.310   4.123  10.880 -1.8178  1.3369 -0.1805
 3839SOL     OW23152   0.277   1.995   9.221 -0.1551 -0.6776 -0.3199
 3839SOL    HW123153   0.316   1.976   9.136 -0.6211  1.2393 -0.9742
 3839SOL    HW223154   0.249   1.906   9.241  0.1034 -0.1192  2.6266
 3840SOL     OW23155   1.198   4.278   3.172 -0.6344 -0.1306 -0.1629
 3840SOL    HW123156   1.116   4.286   3.220 -1.3984  1.0461 -1.6809
 3840SOL    HW223157   1.253   4.258   3.248  0.8036  1.1504 -0.8666
 3841SOL     OW23158   3.778   3.601   1.547  0.2458  0.1761 -0.3240
 3841SOL    HW123159   3.764   3.668   1.480 -3.4652  1.0088  1.2784
 3841SOL    HW223160   3.784   3.524   1.489 -1.6450  1.2439 -1.9509
 3842SOL     OW23161   4.193   0.713   2.612  0.1614  0.1964  0.1939
 3842SOL    HW123162   4.103   0.714   2.580  0.5816  0.4801 -0.9601
 3842SOL    HW223163   4.224   0.803   2.612 -0.3689  0.3781 -0.9276
 3843SOL     OW23164   4.519   4.003   8.319 -0.4538  0.0213 -0.0355
 3843SOL    HW123165   4.589   3.980   8.380 -0.3916 -0.7460 -0.4017
 3843SOL    HW223166   4.554   4.088   8.291  1.2443 -0.7266 -0.1668
 3844SOL     OW23167   3.071   3.410   6.755 -0.6724 -0.1342  0.1279
 3844SOL    HW123168   3.107   3.478   6.698  3.2708 -2.0146  0.4229
 3844SOL    HW223169   3.051   3.451   6.839  1.2004 -0.4352  0.7066
 3845SOL     OW23170   0.814   1.150   2.163  0.1271  0.4262 -0.7884
 3845SOL    HW123171   0.862   1.113   2.237  0.6206 -2.5821 -2.6270
 3845SOL    HW223172   0.884   1.209   2.136  0.4423  1.2032  1.7343
 3846SOL     OW23173   3.972   4.307   4.721  0.5424  0.2631  0.0265
 3846SOL    HW123174   4.045   4.364   4.746 -0.6788  2.0056 -0.3620
 3846SOL    HW223175   3.903   4.373   4.722  0.2190 -0.0855  0.2847
 3847SOL     OW23176   4.429   2.947  15.807  0.0085 -0.4809  0.1913
 3847SOL    HW123177   4.522   2.954  15.783 -0.8956 -0.3739 -3.1686
 3847SOL    HW223178   4.429   3.034  15.846  2.5729 -1.1596  1.7038
 3848SOL     OW23179   1.830   0.075   4.119  0.0780 -0.1672 -0.2626
 3848SOL    HW123180   1.892   0.003   4.113 -0.4907 -0.6006 -0.8507
 3848SOL    HW223181   1.820   0.101   4.028  3.2640 -1.5547 -1.0254
 3849SOL     OW23182   4.407   1.581   4.029  0.3040  0.6062 -0.2531
 3849SOL    HW123183   4.377   1.649   4.089  2.2670  1.1210  0.1358
 3849SOL    HW223184   4.451   1.637   3.965  0.2785  1.8759  0.8582
 3850SOL     OW23185   3.837   3.500   4.429  0.1595  0.3981  0.5586
 3850SOL    HW123186   3.836   3.404   4.433 -1.3553  0.3015 -1.9603
 3850SOL    HW223187   3.885   3.524   4.350 -0.5136 -1.9117 -0.5620
 3851SOL     OW23188   1.150   3.544  16.396 -0.1481  0.1134  0.5340
 3851SOL    HW123189   1.114   3.555  16.484  0.7658  0.0144  0.9208
 3851SOL    HW223190   1.079   3.510  16.342 -1.1409  0.5343  1.5766
 3852SOL     OW23191   1.385   4.576   4.368  0.9053 -0.1622 -0.0328
 3852SOL    HW123192   1.354   4.664   4.391  0.5587 -0.6534  1.3947
 3852SOL    HW223193   1.371   4.533   4.453  0.9542 -1.3542 -0.6271
 3853SOL     OW23194   0.333   3.453  10.170 -0.1990  0.0640  0.1292
 3853SOL    HW123195   0.407   3.468  10.228 -0.3582  1.6863 -0.0824
 3853SOL    HW223196   0.368   3.374  10.130 -0.1736  0.7766 -1.2666
 3854SOL     OW23197   4.367   3.363   6.922  0.2907  0.6803 -0.3976
 3854SOL    HW123198   4.293   3.402   6.875 -0.1079 -0.4675 -0.7079
 3854SOL    HW223199   4.390   3.441   6.973  1.8651  0.6737 -1.1284
 3855SOL     OW23200   1.673   1.101  12.657  0.2773  0.0732 -0.2223
 3855SOL    HW123201   1.615   1.026  12.640  0.7904 -0.1220 -1.1001
 3855SOL    HW223202   1.630   1.178  12.621 -3.5033 -1.0460  1.8484
 3856SOL     OW23203   2.932   3.552  11.774  0.2690  0.2209 -0.4504
 3856SOL    HW123204   2.982   3.629  11.748 -0.4659  1.1118  0.7957
 3856SOL    HW223205   2.992   3.523  11.842  1.6018  0.6376 -1.4418
 3857SOL     OW23206   2.882   3.632   4.741 -0.5983 -0.1598  0.4856
 3857SOL    HW123207   2.850   3.673   4.660  1.2410  2.2472  0.9828
 3857SOL    HW223208   2.841   3.685   4.809 -0.1295  1.1085 -0.2214
 3858SOL     OW23209   0.252   3.433  14.472 -0.9133 -0.0328 -0.6940
 3858SOL    HW123210   0.336   3.460  14.433 -0.2489  0.1852  0.9065
 3858SOL    HW223211   0.196   3.448  14.396  0.2231  2.8952 -0.9631
 3859SOL     OW23212   3.581   0.134   7.889 -0.4924 -0.4247  0.1953
 3859SOL    HW123213   3.583   0.087   7.805 -1.2868 -0.0981 -0.0075
 3859SOL    HW223214   3.547   0.066   7.947  1.4119 -0.4274  1.3141
 3860SOL     OW23215   1.763   3.029  10.661 -0.8135 -0.3073  0.1197
 3860SOL    HW123216   1.688   2.992  10.615 -0.1527 -0.0779 -1.1355
 3860SOL    HW223217   1.732   3.117  10.681 -0.9625 -1.1415  3.5333
 3861SOL     OW23218   4.718   2.460   9.540 -0.1661 -0.4821  0.6435
 3861SOL    HW123219   0.040   2.395   9.578  1.7174  1.1356  0.5038
 3861SOL    HW223220   4.717   2.521   9.614  0.0528  0.8427 -0.4501
 3862SOL     OW23221   0.344   0.626   0.571 -0.8445 -0.5044 -0.3440
 3862SOL    HW123222   0.288   0.561   0.529 -1.7316  1.9285 -2.8799
 3862SOL    HW223223   0.294   0.652   0.648 -1.5742 -1.1596 -0.6054
 3863SOL     OW23224   3.456   1.608  15.623  0.2741 -0.1670 -0.0804
 3863SOL    HW123225   3.479   1.595  15.715  1.1224 -0.4655 -0.3284
 3863SOL    HW223226   3.491   1.697  15.618  1.3960 -0.6818 -1.5263
 3864SOL     OW23227   3.487   0.738   3.756 -0.0484  0.0608 -0.7266
 3864SOL    HW123228   3.559   0.734   3.693  0.7981  3.7933  0.0001
 3864SOL    HW223229   3.527   0.680   3.821 -3.0575 -1.0919  0.1117
 3865SOL     OW23230   3.506   4.068  11.805  0.7464 -0.0160 -0.0025
 3865SOL    HW123231   3.478   4.061  11.714 -0.2382 -0.2075  0.3130
 3865SOL    HW223232   3.423   4.069  11.853  1.2684 -1.8837  0.9511
 3866SOL     OW23233   4.170   1.778   3.286 -0.4133 -0.4279  0.0800
 3866SOL    HW123234   4.180   1.760   3.380 -0.5777 -1.2980 -0.0685
 3866SOL    HW223235   4.223   1.709   3.247 -0.1641 -1.0006  1.4113
 3867SOL     OW23236   3.472   3.514   9.490  0.0722 -0.0471  0.1891
 3867SOL    HW123237   3.423   3.526   9.572 -1.9172 -3.2383 -0.5529
 3867SOL    HW223238   3.415   3.451   9.447  0.2494  0.2896 -0.5413
 3868SOL     OW23239   0.071   0.063   5.417  0.2813  0.0490  0.3371
 3868SOL    HW123240   0.157   0.038   5.383  0.5197 -1.0412  1.7393
 3868SOL    HW223241   0.054   0.151   5.383  1.2483  0.3552  0.6478
 3869SOL     OW23242   2.389   4.151   8.710  0.2620  0.1467 -0.0692
 3869SOL    HW123243   2.313   4.192   8.751  0.2076 -0.5688  0.5434
 3869SOL    HW223244   2.348   4.142   8.624 -1.8957  2.2497  0.7433
 3870SOL     OW23245   2.958   0.032   5.868 -0.6244  0.0770 -0.4434
 3870SOL    HW123246   2.869   0.038   5.836 -0.5289 -0.9669 -0.8953
 3870SOL    HW223247   3.008   0.092   5.814 -2.6386  2.4296  0.3097
 3871SOL     OW23248   4.598   3.740  11.388  0.3152 -0.0434  0.0030
 3871SOL    HW123249   4.666   3.742  11.321  0.0408  2.6232 -0.2235
 3871SOL    HW223250   4.634   3.802  11.453 -4.2155  0.9276  1.5496
 3872SOL     OW23251   0.360   3.437   1.436  0.0994  0.5477  0.2219
 3872SOL    HW123252   0.327   3.350   1.458 -1.1621  0.1059 -3.3570
 3872SOL    HW223253   0.296   3.483   1.381  1.1965  0.8326 -0.8106
 3873SOL     OW23254   2.779   3.355  11.636 -0.0976 -0.0563 -0.4274
 3873SOL    HW123255   2.710   3.393  11.582  1.2186  3.6836  0.4836
 3873SOL    HW223256   2.822   3.430  11.677  0.9028 -0.0717 -1.4514
 3874SOL     OW23257   0.089   0.622   4.605 -0.1084 -0.1525 -0.2181
 3874SOL    HW123258   0.145   0.637   4.528 -1.2199 -0.5478 -1.0928
 3874SOL    HW223259   0.153   0.633   4.676 -0.1263  0.3046 -0.2735
 3875SOL     OW23260   0.226   2.619   4.190 -0.8946  0.3983 -0.2854
 3875SOL    HW123261   0.249   2.557   4.259 -1.7938 -0.6009 -0.8751
 3875SOL    HW223262   0.313   2.635   4.154  0.0298 -2.1562  0.7987
 3876SOL     OW23263   1.204   1.771   6.294  0.7713  0.0195 -0.2364
 3876SOL    HW123264   1.256   1.739   6.367  1.8131 -0.3442 -1.1387
 3876SOL    HW223265   1.148   1.696   6.276  1.8588 -0.6116 -1.0153
 3877SOL     OW23266   3.340   0.569  16.911 -0.7372 -0.9909  0.2111
 3877SOL    HW123267   3.349   0.483  16.869 -0.6995 -0.4049 -0.9612
 3877SOL    HW223268   3.354   0.549  17.004 -1.1542  3.0401  1.1097
 3878SOL     OW23269   1.413   1.851   6.689  0.1107  0.2690  0.1057
 3878SOL    HW123270   1.395   1.758   6.701 -1.2631  0.8690  2.6843
 3878SOL    HW223271   1.430   1.860   6.595  0.4788 -1.7662 -0.0236
 3879SOL     OW23272   0.699   2.838   2.194 -0.3609  0.3670  0.1292
 3879SOL    HW123273   0.616   2.831   2.147 -1.3924  2.6926  1.5923
 3879SOL    HW223274   0.688   2.913   2.253  1.0088 -0.6150  1.6293
 3880SOL     OW23275   1.535   2.806   9.578 -0.2820  0.5176  0.4960
 3880SOL    HW123276   1.557   2.791   9.486 -0.8104  3.1107 -0.0661
 3880SOL    HW223277   1.440   2.799   9.586 -0.1446 -0.2842  1.3906
 3881SOL     OW23278   2.556   0.695   9.874 -0.4159  0.1460  0.4722
 3881SOL    HW123279   2.491   0.748   9.828 -1.2158  0.7720  2.3471
 3881SOL    HW223280   2.568   0.628   9.806  1.1734  0.9885 -0.0668
 3882SOL     OW23281   1.405   3.242   1.194 -0.8108 -0.0016  0.6158
 3882SOL    HW123282   1.482   3.241   1.137 -1.2703  1.3606 -0.0279
 3882SOL    HW223283   1.439   3.276   1.277 -1.7764  0.8386  0.6707
 3883SOL     OW23284   3.997   0.346  15.060 -0.3294 -0.2444 -0.1974
 3883SOL    HW123285   3.934   0.383  15.121 -0.1010 -0.1888  0.0046
 3883SOL    HW223286   4.017   0.425  15.009  1.6193 -2.0194 -2.1838
 3884SOL     OW23287   4.621   3.405   8.449  0.4168 -0.0617 -0.8051
 3884SOL    HW123288   4.617   3.400   8.353 -0.2219 -0.9140 -0.7391
 3884SOL    HW223289   4.580   3.489   8.469 -0.2853  0.5878 -4.9779
 3885SOL     OW23290   0.240   1.470   2.607 -0.2084  0.4473 -0.1995
 3885SOL    HW123291   0.283   1.385   2.616 -1.8691 -0.3074  0.7059
 3885SOL    HW223292   0.211   1.468   2.516  1.6595  0.9478 -0.7937
 3886SOL     OW23293   3.917   0.260   6.367 -0.5019 -0.1195 -0.7207
 3886SOL    HW123294   3.984   0.314   6.410 -0.7735 -1.3336  1.1875
 3886SOL    HW223295   3.855   0.241   6.437  0.7816  1.2713  0.8069
 3887SOL     OW23296   1.240   2.681   4.016 -0.6949 -0.7552  0.2223
 3887SOL    HW123297   1.187   2.748   3.973  1.1143  0.6227  0.1348
 3887SOL    HW223298   1.294   2.732   4.076  3.5614 -0.7077 -3.5998
 3888SOL     OW23299   2.125   4.527   9.080 -0.3379 -0.2833 -0.5510
 3888SOL    HW123300   2.036   4.546   9.051 -0.3147  1.6645  0.7071
 3888SOL    HW223301   2.176   4.576   9.014 -0.8597 -1.0879 -1.5571
 3889SOL     OW23302   2.070   3.248  12.854 -0.0878  0.2256  0.3231
 3889SOL    HW123303   1.999   3.185  12.853 -0.8935  1.1349 -0.1961
 3889SOL    HW223304   2.073   3.281  12.764 -3.0061  1.5157  0.7110
 3890SOL     OW23305   2.413   0.006   9.340 -0.1581  0.2606  0.3561
 3890SOL    HW123306   2.325   4.707   9.342 -1.2218  2.8242 -0.1864
 3890SOL    HW223307   2.426   0.055   9.421  1.7339 -0.5796  0.5717
 3891SOL     OW23308   4.148   4.649   3.800  0.7448  0.9827 -0.6044
 3891SOL    HW123309   4.114   4.704   3.729 -2.1745 -2.5021 -1.8751
 3891SOL    HW223310   4.094   4.573   3.780  0.6047  0.9623 -0.1297
 3892SOL     OW23311   3.500   1.089   4.083  0.2673 -0.2297  0.0701
 3892SOL    HW123312   3.532   1.005   4.117 -1.7820 -1.0247  0.0017
 3892SOL    HW223313   3.568   1.144   4.122  0.1833 -0.3383  0.3674
 3893SOL     OW23314   0.057   0.156   4.490 -0.2334 -0.4782  0.1312
 3893SOL    HW123315   0.054   0.071   4.533  0.2717  0.1522  1.4347
 3893SOL    HW223316   0.023   0.215   4.558  1.5444 -0.1133  0.7089
 3894SOL     OW23317   2.140   1.859   2.752  0.2285 -0.2853 -0.1745
 3894SOL    HW123318   2.071   1.821   2.806  0.6271 -1.6037 -0.6099
 3894SOL    HW223319   2.186   1.900   2.826  0.2153  0.4274 -0.5609
 3895SOL     OW23320   2.931   1.782   0.597  0.4356  0.0772 -0.1856
 3895SOL    HW123321   2.911   1.874   0.583  0.6818  0.2817  0.8138
 3895SOL    HW223322   3.023   1.776   0.571 -0.0425 -1.5383 -1.5459
 3896SOL     OW23323   0.664   1.565   8.335 -0.0822 -0.4308 -0.0196
 3896SOL    HW123324   0.615   1.618   8.274 -0.2725 -0.0876  0.4324
 3896SOL    HW223325   0.649   1.613   8.417 -1.3318  0.2978 -0.6820
 3897SOL     OW23326   3.577   0.885  15.016 -0.2535 -0.2899  0.4213
 3897SOL    HW123327   3.575   0.980  15.032 -0.3015 -0.1643 -0.3273
 3897SOL    HW223328   3.487   0.865  14.991 -0.3749 -0.8817  1.3355
 3898SOL     OW23329   4.325   3.862   4.933 -0.1862 -0.7354 -0.0459
 3898SOL    HW123330   4.406   3.841   4.886  0.5034  1.4062  0.1522
 3898SOL    HW223331   4.260   3.844   4.865 -0.4865 -2.6874  0.7671
 3899SOL     OW23332   2.159   4.643  12.576 -0.1735 -0.5913 -0.3340
 3899SOL    HW123333   2.225   4.710  12.560 -0.4285 -0.0141  1.0416
 3899SOL    HW223334   2.076   4.686  12.553  0.6145  0.0685 -1.9641
 3900SOL     OW23335   2.003   4.063   9.651 -0.1106 -0.3530  0.0702
 3900SOL    HW123336   1.929   4.026   9.602  1.1380 -1.9215 -0.6415
 3900SOL    HW223337   1.967   4.097   9.732  1.6910  1.4094  0.1318
 3901SOL     OW23338   0.398   4.407   9.969 -0.2390 -0.0749  0.0325
 3901SOL    HW123339   0.464   4.448   9.913  1.8128  0.4228  2.8191
 3901SOL    HW223340   0.351   4.486   9.995  0.8139  0.3501  0.6459
 3902SOL     OW23341   1.605   4.179   6.246 -0.0821  0.3929 -1.0615
 3902SOL    HW123342   1.577   4.199   6.335  0.8743 -2.3521 -0.1476
 3902SOL    HW223343   1.662   4.251   6.219  0.5223 -0.4922 -2.1693
 3903SOL     OW23344   1.486   0.347  14.876 -0.1766  0.6032 -0.1877
 3903SOL    HW123345   1.429   0.376  14.946  0.1198 -0.4323  0.4852
 3903SOL    HW223346   1.453   0.258  14.866 -1.8388  1.0919  1.0047
 3904SOL     OW23347   1.088   2.694  13.081  0.0823  0.1521 -0.1805
 3904SOL    HW123348   1.116   2.754  13.012  0.2531  0.1406 -0.1209
 3904SOL    HW223349   1.140   2.619  13.051  0.4157  0.4659 -0.3870
 3905SOL     OW23350   4.021   2.351   6.625 -0.0991  0.4632 -0.2357
 3905SOL    HW123351   4.017   2.428   6.680 -1.3618  0.1987  0.0450
 3905SOL    HW223352   4.088   2.377   6.562  0.4098 -0.9563 -0.2915
 3906SOL     OW23353   3.803   3.895  13.240 -0.1009 -0.9186 -0.4741
 3906SOL    HW123354   3.766   3.899  13.152  2.1959 -1.7268 -1.4606
 3906SOL    HW223355   3.781   3.977  13.284 -1.8789 -1.5710 -0.1215
 3907SOL     OW23356   3.229   4.633   8.981 -0.8018  0.9156  0.5887
 3907SOL    HW123357   3.282   4.558   8.954 -1.6106  0.8633 -0.8623
 3907SOL    HW223358   3.210   4.678   8.898  1.1859 -0.1886 -0.4747
 3908SOL     OW23359   0.077   4.435   1.840  0.2520  0.4983 -0.6163
 3908SOL    HW123360   0.042   4.370   1.779 -1.5277 -1.3550  2.3854
 3908SOL    HW223361   0.030   4.415   1.921 -0.6331  1.2389 -0.9516
 3909SOL     OW23362   1.572   4.618  14.200 -0.0782 -0.2161 -0.8023
 3909SOL    HW123363   1.482   4.585  14.204 -0.9092  1.9696 -1.6761
 3909SOL    HW223364   1.567   4.687  14.134 -0.8355 -0.8871 -1.4346
 3910SOL     OW23365   0.017   3.421  10.317  0.4114  0.1140  0.2086
 3910SOL    HW123366   0.068   3.377  10.385 -0.6096 -0.7767  0.3921
 3910SOL    HW223367   0.081   3.440  10.249 -1.0275  3.3901 -0.1931
 3911SOL     OW23368   1.174   4.358   9.472  0.2243 -0.6373 -0.6007
 3911SOL    HW123369   1.183   4.268   9.504  3.4432 -0.7898 -1.8884
 3911SOL    HW223370   1.261   4.385   9.502  0.3972 -2.4286  0.5166
 3912SOL     OW23371   1.577   2.138   9.772  0.6095  0.1413 -0.0624
 3912SOL    HW123372   1.536   2.111   9.690  0.4670 -0.3526  0.1697
 3912SOL    HW223373   1.668   2.130   9.744  0.3072 -0.0945 -0.9777
 3913SOL     OW23374   3.766   2.821   8.872 -0.4029 -0.6310 -0.0179
 3913SOL    HW123375   3.742   2.902   8.917 -2.5188 -1.1757 -0.1488
 3913SOL    HW223376   3.790   2.772   8.951  0.0121 -0.7731 -0.2355
 3914SOL     OW23377   2.342   1.807   3.192  0.6739  0.0637 -0.0411
 3914SOL    HW123378   2.267   1.857   3.226 -0.2492 -0.4509 -1.3120
 3914SOL    HW223379   2.300   1.725   3.168  0.4454  1.1579 -3.3153
 3915SOL     OW23380   3.172   1.749   9.473 -0.2109 -0.3620 -0.3044
 3915SOL    HW123381   3.225   1.721   9.399 -1.8861 -1.9521 -0.8878
 3915SOL    HW223382   3.216   1.703   9.544 -0.0765  0.5902  0.2308
 3916SOL     OW23383   2.092   4.369   4.564 -0.0868 -0.2077 -0.3482
 3916SOL    HW123384   2.055   4.443   4.516  0.4105 -0.1703 -0.6789
 3916SOL    HW223385   2.027   4.355   4.632  1.7982 -0.9187  1.3283
 3917SOL     OW23386   4.714   1.302   1.714 -0.5260  0.5329 -0.0890
 3917SOL    HW123387   0.062   1.343   1.700  0.5368 -1.6345 -0.0058
 3917SOL    HW223388   0.005   1.260   1.795  1.8519  0.0129 -1.1684
 3918SOL     OW23389   1.615   2.351   9.550 -0.6809 -0.2688 -0.4959
 3918SOL    HW123390   1.704   2.383   9.561 -0.7243 -0.2855 -0.1001
 3918SOL    HW223391   1.631   2.272   9.498  0.3250 -0.3730 -0.0123
 3919SOL     OW23392   0.120   2.033   3.935 -0.1381 -0.0897  0.2032
 3919SOL    HW123393   0.197   1.989   3.899  0.0737  0.9946 -0.6917
 3919SOL    HW223394   0.159   2.064   4.017  0.9915 -0.2066 -0.2866
 3920SOL     OW23395   2.478   2.084   3.656  0.4873  0.0137  0.0533
 3920SOL    HW123396   2.515   2.005   3.696  1.8973  0.5028 -0.2772
 3920SOL    HW223397   2.546   2.143   3.690 -1.9939  2.1798  1.2468
 3921SOL     OW23398   3.795   0.645  13.675 -0.7385  0.1257 -0.1836
 3921SOL    HW123399   3.808   0.619  13.583  1.2259  1.8635 -0.4041
 3921SOL    HW223400   3.829   0.734  13.669 -1.7321  0.5650  1.0512
 3922SOL     OW23401   3.575   3.077   5.117  0.3288 -0.1790 -0.3172
 3922SOL    HW123402   3.580   3.134   5.193  2.5910  1.2777 -1.5576
 3922SOL    HW223403   3.643   3.122   5.067  3.6256 -3.2137  1.4531
 3923SOL     OW23404   1.889   0.547   5.313 -0.3203 -0.5322 -0.0658
 3923SOL    HW123405   1.971   0.595   5.316 -1.0167  0.6619 -0.2466
 3923SOL    HW223406   1.921   0.458   5.328 -1.9293 -1.5794 -2.7367
 3924SOL     OW23407   4.652   0.379   2.155  0.5455 -0.2828  0.4343
 3924SOL    HW123408   4.669   0.288   2.177 -0.8046 -0.6831 -0.1920
 3924SOL    HW223409   4.683   0.383   2.065  2.5067  1.7268  1.1941
 3925SOL     OW23410   3.072   4.429   4.869  0.2972  0.0927 -0.1621
 3925SOL    HW123411   3.035   4.437   4.957 -2.2653  2.7378 -1.4658
 3925SOL    HW223412   3.048   4.506   4.818 -0.5904 -1.2053 -1.6939
 3926SOL     OW23413   2.940   2.288   3.567 -0.2818 -0.7409 -0.5112
 3926SOL    HW123414   3.009   2.344   3.604 -0.5828 -1.1796  0.7144
 3926SOL    HW223415   2.985   2.239   3.497  1.1834  1.0515 -0.8267
 3927SOL     OW23416   4.328   0.069   7.330 -0.0147  0.3792  0.1256
 3927SOL    HW123417   4.353   4.719   7.361 -0.0279  0.0285 -0.8526
 3927SOL    HW223418   4.259   0.039   7.270 -1.0068  3.1885 -0.1187
 3928SOL     OW23419   4.152   2.234   7.937  0.8904 -0.1628  0.1195
 3928SOL    HW123420   4.143   2.286   8.017 -3.2782  2.2597 -1.9443
 3928SOL    HW223421   4.167   2.144   7.967  0.2328 -0.4607 -0.4620
 3929SOL     OW23422   3.824   4.312   2.678  0.5896  0.4211 -0.4050
 3929SOL    HW123423   3.753   4.367   2.711  2.3031  1.9713  0.6708
 3929SOL    HW223424   3.798   4.317   2.586 -2.5746  0.2694  0.4998
 3930SOL     OW23425   3.297   2.264   5.212  0.4427  0.7192 -0.8223
 3930SOL    HW123426   3.235   2.295   5.145 -2.6155 -0.2405  1.6124
 3930SOL    HW223427   3.257   2.180   5.232  0.5074  1.1096  0.8912
 3931SOL     OW23428   4.190   1.636  11.733 -0.4015  0.2055 -0.0362
 3931SOL    HW123429   4.097   1.656  11.731 -0.2590  0.7449 -1.2545
 3931SOL    HW223430   4.228   1.676  11.811 -0.2460 -0.4947  0.2516
 3932SOL     OW23431   4.102   0.507   5.642 -0.2329 -0.6545 -0.0278
 3932SOL    HW123432   4.165   0.532   5.709 -0.3885  0.9107 -0.4743
 3932SOL    HW223433   4.102   0.412   5.658  1.6493 -0.6173  0.1674
 3933SOL     OW23434   2.836   3.691   2.470 -0.3946  0.3682 -0.0069
 3933SOL    HW123435   2.847   3.630   2.542 -1.1355  0.3183  0.0586
 3933SOL    HW223436   2.872   3.652   2.390 -3.7956  0.8037 -1.7439
 3934SOL     OW23437   2.227   1.572   7.392 -0.0806 -0.8738 -0.3786
 3934SOL    HW123438   2.293   1.593   7.326  0.0498 -1.4952 -0.4466
 3934SOL    HW223439   2.176   1.653   7.391  1.1354 -0.0841  0.5334
 3935SOL     OW23440   3.380   0.512  13.972 -0.1587  0.3316  0.1177
 3935SOL    HW123441   3.455   0.521  13.914 -0.2693 -1.8524 -0.3528
 3935SOL    HW223442   3.412   0.540  14.058 -0.8673 -2.0059  1.1263
 3936SOL     OW23443   1.651   2.909   5.179 -0.0242 -0.5343 -0.1537
 3936SOL    HW123444   1.682   2.818   5.184  2.7193  0.5256  1.4909
 3936SOL    HW223445   1.689   2.941   5.097 -1.2563 -0.7940 -0.8296
 3937SOL     OW23446   4.092   3.255   4.867 -0.3439  0.0260  0.3530
 3937SOL    HW123447   4.178   3.214   4.875 -0.2468  0.3114  0.7759
 3937SOL    HW223448   4.077   3.224   4.778  0.1413  0.1548  0.2276
 3938SOL     OW23449   2.046   3.639   1.336  0.6104  0.5493 -0.2891
 3938SOL    HW123450   2.055   3.544   1.346 -1.2022  0.3604 -0.4453
 3938SOL    HW223451   2.130   3.647   1.290  0.1997 -1.3097 -1.4014
 3939SOL     OW23452   0.970   3.571   9.558 -0.7749 -0.1271 -0.0930
 3939SOL    HW123453   0.908   3.535   9.493 -1.6618  3.1319 -1.0240
 3939SOL    HW223454   0.906   3.588   9.626  0.9340 -0.0980  1.5102
 3940SOL     OW23455   0.777   0.569   4.747  0.2818 -0.6660 -0.0648
 3940SOL    HW123456   0.813   0.575   4.835  1.4892  0.3060 -0.6365
 3940SOL    HW223457   0.689   0.530   4.750 -0.5224  1.1286 -0.5326
 3941SOL     OW23458   1.952   3.620  15.091 -0.1590 -0.3939 -0.3783
 3941SOL    HW123459   1.893   3.600  15.018 -0.0616 -0.8756 -0.3257
 3941SOL    HW223460   1.912   3.700  15.126 -0.8603  0.0740 -2.2476
 3942SOL     OW23461   0.329   1.204   6.859  0.2233  0.8246 -1.0591
 3942SOL    HW123462   0.364   1.207   6.770  0.0250 -0.7431 -1.1892
 3942SOL    HW223463   0.237   1.179   6.848 -0.9906  5.3496 -1.4536
 3943SOL     OW23464   2.875   2.117   5.652 -0.7399 -0.6220  0.4676
 3943SOL    HW123465   2.810   2.182   5.625  1.4726  1.3214 -0.1875
 3943SOL    HW223466   2.954   2.164   5.626 -1.2986  0.4388  0.7024
 3944SOL     OW23467   3.289   3.918   7.523 -0.1060  0.3207 -0.0263
 3944SOL    HW123468   3.226   3.984   7.548  0.4743  0.4947  0.9990
 3944SOL    HW223469   3.331   3.887   7.604 -1.0794  1.5330  0.9443
 3945SOL     OW23470   1.666   4.276   9.591 -0.0667 -0.1324  0.1169
 3945SOL    HW123471   1.728   4.257   9.662  1.6666 -0.8145 -1.5780
 3945SOL    HW223472   1.730   4.309   9.528  1.1862 -0.6392  1.1049
 3946SOL     OW23473   1.165   3.073   6.760  0.3310 -0.2082 -0.5875
 3946SOL    HW123474   1.226   3.012   6.718  0.8024  0.2880 -0.6252
 3946SOL    HW223475   1.081   3.031   6.741 -1.4776  2.9296  0.5133
 3947SOL     OW23476   2.206   1.514  17.404  0.1187 -0.0298 -1.1262
 3947SOL    HW123477   2.123   1.553  17.378 -0.1249  0.3745  0.2298
 3947SOL    HW223478   2.214   1.433  17.354  3.4181  1.1799 -2.6227
 3948SOL     OW23479   3.809   3.756   5.106 -0.2219  0.2569 -0.3354
 3948SOL    HW123480   3.848   3.775   5.192  0.1027  2.2553 -0.9382
 3948SOL    HW223481   3.891   3.730   5.064 -1.2021  0.2812 -2.2252
 3949SOL     OW23482   1.852   3.475   6.278 -0.2306  0.4485 -0.4408
 3949SOL    HW123483   1.886   3.423   6.351 -0.0471 -0.2906 -1.0571
 3949SOL    HW223484   1.851   3.414   6.204 -3.7469 -0.9245  0.7333
 3950SOL     OW23485   4.580   0.420   2.717 -0.1318 -0.0016  0.0396
 3950SOL    HW123486   4.623   0.487   2.664  2.4111 -0.9383  0.9211
 3950SOL    HW223487   4.531   0.374   2.649 -0.6865  0.5884  0.0401
 3951SOL     OW23488   0.155   3.728   9.151 -0.4623  0.4621  0.0073
 3951SOL    HW123489   0.199   3.643   9.141 -0.7204  0.1572  1.5398
 3951SOL    HW223490   0.108   3.740   9.068 -2.2240  0.4074  0.9953
 3952SOL     OW23491   0.909   3.802   5.384 -0.1584  0.1680 -0.2689
 3952SOL    HW123492   0.856   3.863   5.435 -1.4142 -0.0069 -1.3631
 3952SOL    HW223493   0.999   3.811   5.415  0.9690 -1.1858 -3.1779
 3953SOL     OW23494   0.210   3.242  10.406  0.1105 -0.4136 -0.1520
 3953SOL    HW123495   0.286   3.194  10.373  0.8444  1.1239 -0.6713
 3953SOL    HW223496   0.176   3.178  10.469 -1.9093  0.3914 -0.4284
 3954SOL     OW23497   3.899   3.373   2.318  0.0680 -0.2918  0.6203
 3954SOL    HW123498   3.869   3.296   2.269 -0.3341 -0.6874  1.4772
 3954SOL    HW223499   3.959   3.319   2.370 -0.1677  0.0179  1.2253
 3955SOL     OW23500   0.459   3.714   4.600 -0.4884 -0.2888  0.6957
 3955SOL    HW123501   0.511   3.641   4.632 -1.6577 -1.6380 -0.4836
 3955SOL    HW223502   0.427   3.693   4.512  1.0299  0.8848 -0.1470
 3956SOL     OW23503   0.477   3.909   4.322  0.3307  0.2269 -0.2680
 3956SOL    HW123504   0.481   3.965   4.399 -0.1756  2.9420 -2.2063
 3956SOL    HW223505   0.572   3.901   4.308  0.5493  1.2395  0.7079
 3957SOL     OW23506   3.690   3.564   4.940 -0.0422 -0.0618 -0.3328
 3957SOL    HW123507   3.752   3.508   4.894 -1.1762 -1.9029  0.4023
 3957SOL    HW223508   3.731   3.628   4.999 -0.4336 -1.6953  1.7113
 3958SOL     OW23509   3.794   0.131   2.633  0.7032 -0.4417 -0.5750
 3958SOL    HW123510   3.868   0.192   2.630  0.3505 -0.0454 -1.2752
 3958SOL    HW223511   3.841   0.053   2.605  2.3863  0.7737 -1.1164
 3959SOL     OW23512   0.193   2.356   4.632  0.7812 -0.0630 -0.0209
 3959SOL    HW123513   0.231   2.277   4.670  1.1645  0.5589  0.8878
 3959SOL    HW223514   0.169   2.400   4.713 -0.8641 -1.6879  0.3716
 3960SOL     OW23515   0.291   1.755  11.580  0.0362  0.7203  0.1683
 3960SOL    HW123516   0.277   1.666  11.611  1.9580 -0.3189 -1.9235
 3960SOL    HW223517   0.292   1.802  11.663  1.7193  1.9250 -0.5142
 3961SOL     OW23518   3.085   3.570  17.226  0.4669  0.1871  0.3313
 3961SOL    HW123519   3.064   3.512  17.299 -1.6994  2.3105  1.3967
 3961SOL    HW223520   3.011   3.631  17.230  0.0656 -0.3117  0.5733
 3962SOL     OW23521   4.134   0.093   2.838 -0.0180 -0.2013 -0.2348
 3962SOL    HW123522   4.074   0.057   2.904  0.7682  1.2099  1.2347
 3962SOL    HW223523   4.104   0.054   2.756 -0.4463  0.5129 -0.4119
 3963SOL     OW23524   2.395   2.379  15.165 -0.6484  0.4395  0.1217
 3963SOL    HW123525   2.383   2.387  15.070 -0.8828  0.8597  0.1895
 3963SOL    HW223526   2.350   2.299  15.192 -0.1348  0.2648  0.4505
 3964SOL     OW23527   0.147   3.057   5.055 -0.1408 -0.5487 -0.4489
 3964SOL    HW123528   0.075   3.084   4.997 -0.8472 -1.4341  0.0087
 3964SOL    HW223529   0.160   2.964   5.035  1.9714 -0.5234  0.8394
 3965SOL     OW23530   0.536   3.323   4.892  0.4835  0.1067  0.7606
 3965SOL    HW123531   0.500   3.237   4.873  1.4159 -0.0382 -0.3192
 3965SOL    HW223532   0.535   3.325   4.988 -0.5445  1.8662  0.7250
 3966SOL     OW23533   1.742   1.603   3.904 -0.5746  0.0059  0.1416
 3966SOL    HW123534   1.733   1.556   3.987 -3.0689  2.0873  1.0194
 3966SOL    HW223535   1.729   1.694   3.931 -0.5337  0.1800 -0.4228
 3967SOL     OW23536   2.343   4.478   4.145  0.1430  0.3715  0.0324
 3967SOL    HW123537   2.307   4.478   4.056  1.0244 -3.7858 -0.3157
 3967SOL    HW223538   2.307   4.562   4.174 -2.5015 -1.1870  1.3213
 3968SOL     OW23539   2.290   3.179   4.292 -0.1200 -0.2724  0.2149
 3968SOL    HW123540   2.297   3.255   4.350  0.1595  0.4128 -0.7207
 3968SOL    HW223541   2.316   3.212   4.205 -1.6554  0.6514  0.1097
 3969SOL     OW23542   1.965   0.931  16.260  0.6647 -0.4417 -1.1589
 3969SOL    HW123543   2.054   0.908  16.287 -0.1918 -0.6398  1.5196
 3969SOL    HW223544   1.911   0.902  16.333  2.2121  0.6803  0.4201
 3970SOL     OW23545   1.508   1.638  15.844  0.1056 -0.3247 -0.7846
 3970SOL    HW123546   1.470   1.551  15.833 -1.2445  0.4825 -2.5070
 3970SOL    HW223547   1.483   1.688  15.767 -1.0813  0.5966  0.1930
 3971SOL     OW23548   4.642   0.502  14.776 -0.0584 -0.8251  0.4789
 3971SOL    HW123549   4.575   0.437  14.798 -0.1666 -0.7716  0.3007
 3971SOL    HW223550   4.683   0.461  14.700  0.6449 -1.2129  1.0659
 3972SOL     OW23551   0.414   2.874   5.756  0.5475 -0.3632  0.0963
 3972SOL    HW123552   0.390   2.872   5.664  1.6428  1.5185 -0.2268
 3972SOL    HW223553   0.441   2.966   5.758 -0.0527 -0.1504 -2.1703
 3973SOL     OW23554   1.163   4.477   4.254  0.2045  0.8207  0.6100
 3973SOL    HW123555   1.234   4.540   4.260 -1.5472  2.6128  2.5336
 3973SOL    HW223556   1.203   4.396   4.285 -2.9626  0.0269  2.7119
 3974SOL     OW23557   4.042   0.772   3.623 -0.2194  0.4364  0.5200
 3974SOL    HW123558   4.128   0.730   3.621 -0.0903  0.6770  1.0535
 3974SOL    HW223559   4.069   0.863   3.631  4.0359 -0.6671 -0.8249
 3975SOL     OW23560   1.432   0.244   4.297 -0.2273 -0.1834 -0.1252
 3975SOL    HW123561   1.398   0.165   4.338 -0.4309  1.2835  2.5715
 3975SOL    HW223562   1.460   0.205   4.214 -0.0565  0.4473 -0.3659
 3976SOL     OW23563   1.165   1.842  15.437  0.2588  0.5506  0.1680
 3976SOL    HW123564   1.204   1.765  15.395 -1.1005 -0.7049  1.2142
 3976SOL    HW223565   1.193   1.905  15.371 -2.8667  1.3117 -0.3943
 3977SOL     OW23566   0.200   4.012   5.143  0.2077  0.4210  0.4584
 3977SOL    HW123567   0.129   4.070   5.116  0.8983  0.5847 -1.0038
 3977SOL    HW223568   0.266   4.016   5.074 -0.4472  0.8335 -0.1406
 3978SOL     OW23569   1.780   1.203   8.736  0.1216  0.0761 -0.0600
 3978SOL    HW123570   1.815   1.223   8.649 -2.0516  3.1399 -0.2451
 3978SOL    HW223571   1.723   1.133   8.704  0.4026  0.1603 -0.7387
 3979SOL     OW23572   1.395   2.343   7.815  0.3032  0.3319  0.3101
 3979SOL    HW123573   1.305   2.323   7.791  0.4686 -0.0418 -0.0174
 3979SOL    HW223574   1.433   2.348   7.727 -0.5260  0.1608 -0.0495
 3980SOL     OW23575   0.911   1.338   8.815  0.0907 -0.8314 -0.1190
 3980SOL    HW123576   0.893   1.379   8.731 -2.5065  0.9668  1.3403
 3980SOL    HW223577   1.004   1.360   8.823 -0.0523  0.5645 -2.2047
 3981SOL     OW23578   4.503   1.265   6.086  0.3856 -0.1685  0.2177
 3981SOL    HW123579   4.524   1.356   6.103  1.0396 -0.0039 -1.4837
 3981SOL    HW223580   4.496   1.232   6.175  0.8723  0.2393  0.4005
 3982SOL     OW23581   1.508   2.033  17.706  1.1426 -0.6662 -0.2957
 3982SOL    HW123582   1.513   2.032   0.054  1.5012 -0.0748 -0.3118
 3982SOL    HW223583   1.413   2.033  17.695  1.3154  1.5737 -1.6627
 3983SOL     OW23584   1.811   4.264   1.529  0.1666 -0.5140  0.3735
 3983SOL    HW123585   1.771   4.255   1.615 -3.6100 -0.9235 -1.3912
 3983SOL    HW223586   1.814   4.359   1.528  0.0298 -0.5253 -1.3671
 3984SOL     OW23587   1.423   0.508   8.133 -0.4991 -0.1512 -0.0145
 3984SOL    HW123588   1.518   0.506   8.147 -0.3864 -2.5559 -1.0593
 3984SOL    HW223589   1.402   0.429   8.183  1.2933 -1.2379 -0.9562
 3985SOL     OW23590   4.474   4.562   3.125 -1.0182  0.1653 -0.6860
 3985SOL    HW123591   4.439   4.574   3.213 -0.7377  1.4886 -0.7519
 3985SOL    HW223592   4.540   4.632   3.115  1.8082 -2.4592 -0.3930
 3986SOL     OW23593   2.948   2.607   3.088  0.1426  0.0863  0.3687
 3986SOL    HW123594   2.981   2.528   3.047 -0.1473 -1.0013  2.2478
 3986SOL    HW223595   2.853   2.593   3.091 -0.0297  1.2948  0.5548
 3987SOL     OW23596   3.867   2.705   8.052 -0.7296 -0.4582 -0.2236
 3987SOL    HW123597   3.914   2.767   8.108  1.9088 -0.3254 -2.5942
 3987SOL    HW223598   3.774   2.708   8.074 -0.0242  2.5727  2.3196
 3988SOL     OW23599   0.131   1.674   5.561  0.6664  0.4869  0.0736
 3988SOL    HW123600   0.180   1.727   5.497 -1.6805 -0.9751 -2.9590
 3988SOL    HW223601   0.200   1.656   5.625  2.9938  0.5864 -2.3803
 3989SOL     OW23602   3.285   3.566   8.315  0.6347  0.0644  0.0115
 3989SOL    HW123603   3.329   3.481   8.309 -1.4328 -0.8017 -3.3484
 3989SOL    HW223604   3.276   3.580   8.409  0.0531  3.0719 -0.4973
 3990SOL     OW23605   4.569   1.134   5.326  0.2950 -0.4607 -0.1526
 3990SOL    HW123606   4.580   1.061   5.387  2.9021 -0.2155 -0.3383
 3990SOL    HW223607   4.547   1.203   5.388 -0.9987 -0.0909 -1.0253
 3991SOL     OW23608   2.567   0.731   0.667  0.6130  0.1205  0.3838
 3991SOL    HW123609   2.581   0.643   0.631 -0.6607  0.5440 -1.1196
 3991SOL    HW223610   2.527   0.718   0.753  1.4351  1.5273  0.9716
 3992SOL     OW23611   4.125   3.853   9.518 -0.1465  0.6676  0.0871
 3992SOL    HW123612   4.132   3.908   9.440  0.1490 -0.7970 -0.9196
 3992SOL    HW223613   4.211   3.812   9.509 -0.5308 -0.2182  0.4962
 3993SOL     OW23614   3.073   4.266   8.856 -0.4077 -0.2179 -0.2871
 3993SOL    HW123615   3.098   4.310   8.774  1.6521  0.3332  0.6384
 3993SOL    HW223616   3.029   4.333   8.907 -0.4124  0.2354 -0.8858
 3994SOL     OW23617   3.149   0.243   5.304  0.5405 -0.3370 -0.6518
 3994SOL    HW123618   3.207   0.306   5.260  1.1628 -0.0045  0.6192
 3994SOL    HW223619   3.210   0.191   5.357  0.1986 -0.7710 -0.6863
 3995SOL     OW23620   0.524   2.144   8.427 -0.6627 -0.1348 -0.1536
 3995SOL    HW123621   0.568   2.225   8.404  0.1456 -0.0870  1.5650
 3995SOL    HW223622   0.441   2.178   8.461  0.0134 -1.2037  2.5761
 3996SOL     OW23623   3.768   1.124   2.707 -0.0470 -0.0275  0.1419
 3996SOL    HW123624   3.796   1.202   2.755  2.2086 -1.5090  1.1852
 3996SOL    HW223625   3.806   1.054   2.759 -0.2508  0.3746  0.8327
 3997SOL     OW23626   2.632   0.350   6.874  0.4069 -0.6512  0.2392
 3997SOL    HW123627   2.589   0.400   6.805  1.4534  1.9555  1.4624
 3997SOL    HW223628   2.643   0.426   6.931  1.6328 -0.7965  0.1893
 3998SOL     OW23629   2.005   1.423   1.170 -0.7544  0.1250  0.2958
 3998SOL    HW123630   1.922   1.436   1.124 -0.0553  0.6258 -0.8141
 3998SOL    HW223631   2.028   1.333   1.147 -1.2328 -0.1999  1.0857
 3999SOL     OW23632   1.400   2.948  15.692 -0.5338  0.1615  0.4088
 3999SOL    HW123633   1.420   2.960  15.599 -1.1312 -1.9696  0.0073
 3999SOL    HW223634   1.318   2.900  15.684 -1.2632  1.7559 -1.5300
 4000SOL     OW23635   0.627   2.269   6.232 -0.3628 -0.4847 -0.0796
 4000SOL    HW123636   0.636   2.315   6.148  2.0514  1.9919  1.5080
 4000SOL    HW223637   0.586   2.337   6.285  1.0634  1.3163 -1.2484
 4001SOL     OW23638   2.768   2.367   7.730 -0.3828  0.3979  0.2806
 4001SOL    HW123639   2.802   2.451   7.760  1.2588 -0.1964  0.0872
 4001SOL    HW223640   2.755   2.320   7.812 -0.3940  0.9116  0.5684
 4002SOL     OW23641   0.438   0.965   3.651  0.0932  0.1611 -0.6165
 4002SOL    HW123642   0.393   0.894   3.606 -0.3576  0.4631 -0.6501
 4002SOL    HW223643   0.487   1.004   3.579 -0.7810  1.1339 -0.6779
 4003SOL     OW23644   0.544   4.536   7.229  0.5280  0.1962 -0.3148
 4003SOL    HW123645   0.580   4.618   7.195 -0.2350  0.3755 -0.6769
 4003SOL    HW223646   0.553   4.549   7.324  3.3690  0.7398 -0.6695
 4004SOL     OW23647   2.095   1.275   2.166  0.4108 -0.3863  0.2308
 4004SOL    HW123648   2.182   1.236   2.153  0.9258  1.0169 -0.5452
 4004SOL    HW223649   2.123   1.365   2.152 -1.9445  0.2698 -0.2678
 4005SOL     OW23650   4.718   2.950   4.581 -0.4024  0.1623 -0.5684
 4005SOL    HW123651   0.018   2.992   4.503  0.9726  0.2536  0.1461
 4005SOL    HW223652   4.727   2.856   4.563 -0.0953  0.1426 -0.3010
 4006SOL     OW23653   4.206   1.977   5.439 -0.3299 -0.2294  0.9572
 4006SOL    HW123654   4.129   1.924   5.464 -0.0937 -0.8225  0.4191
 4006SOL    HW223655   4.164   2.045   5.387 -0.4091 -0.3880  0.8122
 4007SOL     OW23656   2.034   2.171   1.386  0.2609 -0.5395 -0.2596
 4007SOL    HW123657   1.997   2.149   1.300  1.2444  0.4253 -0.9360
 4007SOL    HW223658   1.967   2.229   1.421  1.0687  0.4734 -0.3990
 4008SOL     OW23659   0.786   4.407  16.091  0.5767 -0.4254  0.3242
 4008SOL    HW123660   0.872   4.404  16.050  1.4756 -2.6642  2.4063
 4008SOL    HW223661   0.795   4.355  16.170  1.1987  2.6253  2.2785
 4009SOL     OW23662   3.969   3.396   8.928 -0.5070  0.0687  0.4162
 4009SOL    HW123663   3.944   3.423   9.016 -3.2983 -0.8207 -0.1016
 4009SOL    HW223664   3.902   3.327   8.924  0.1946 -0.5843 -0.0993
 4010SOL     OW23665   0.514   1.970  12.733  0.5618  0.4072  0.2860
 4010SOL    HW123666   0.472   1.991  12.816 -0.5895 -0.7837 -0.0010
 4010SOL    HW223667   0.483   1.880  12.733 -1.5806  1.1285 -2.7143
 4011SOL     OW23668   3.750   1.308  14.956  0.0713  0.0472 -0.5614
 4011SOL    HW123669   3.829   1.311  15.010 -0.5104 -3.2496  0.5265
 4011SOL    HW223670   3.691   1.260  15.015  0.7779 -0.0760  0.0433
 4012SOL     OW23671   3.024   1.028  14.355 -0.0082 -0.6277 -0.0821
 4012SOL    HW123672   2.980   0.952  14.317 -0.7993 -1.3209  2.2506
 4012SOL    HW223673   3.035   1.076  14.272 -0.6869 -1.3880 -0.6039
 4013SOL     OW23674   0.385   2.407   3.317  0.0667  0.5542 -0.4365
 4013SOL    HW123675   0.290   2.397   3.309  0.0244  0.2409  0.5453
 4013SOL    HW223676   0.412   2.325   3.275 -0.9582  1.2626 -2.5024
 4014SOL     OW23677   2.240   1.995   0.750 -0.1352  0.1451 -0.1165
 4014SOL    HW123678   2.170   1.930   0.746 -0.0326  0.0893 -0.9164
 4014SOL    HW223679   2.318   1.944   0.774  1.3848  2.4386 -0.2275
 4015SOL     OW23680   3.962   1.952   2.095  0.3375 -0.2583  0.2770
 4015SOL    HW123681   4.011   1.925   2.173  0.1546  1.1427  0.8705
 4015SOL    HW223682   3.952   1.874   2.040 -1.1927 -0.8191  1.3517
 4016SOL     OW23683   2.160   2.374  16.100  0.2200 -0.2257  0.2951
 4016SOL    HW123684   2.121   2.292  16.067  0.0600 -0.3084  0.6870
 4016SOL    HW223685   2.168   2.419  16.016 -2.4729 -1.2715 -0.5385
 4017SOL     OW23686   4.294   2.302   8.609 -0.0806  0.1552 -0.4176
 4017SOL    HW123687   4.208   2.299   8.649 -0.2002 -0.0151 -0.6839
 4017SOL    HW223688   4.315   2.210   8.594 -1.6879  0.0178 -1.7735
 4018SOL     OW23689   3.656   3.703   2.457 -0.1509 -0.0217 -0.5825
 4018SOL    HW123690   3.751   3.696   2.464 -0.1247 -2.1249 -3.1545
 4018SOL    HW223691   3.644   3.797   2.444  0.3692 -0.0095 -0.9865
 4019SOL     OW23692   4.172   1.340   3.891  0.0515  0.4835  0.0986
 4019SOL    HW123693   4.247   1.296   3.851 -1.1869 -1.0010 -0.5986
 4019SOL    HW223694   4.152   1.284   3.966 -0.5910  0.5531 -0.0178
 4020SOL     OW23695   3.295   2.269  12.192 -0.3720  0.3087 -0.8149
 4020SOL    HW123696   3.347   2.190  12.206 -0.9312  0.1273  0.2366
 4020SOL    HW223697   3.321   2.313  12.273  1.7407  0.6156 -1.6588
 4021SOL     OW23698   1.601   3.868   8.278  0.3133  0.0688  0.2059
 4021SOL    HW123699   1.574   3.805   8.212 -0.0096 -0.7849  1.1461
 4021SOL    HW223700   1.567   3.838   8.362 -0.9634 -0.5564 -0.5373
 4022SOL     OW23701   3.390   0.477  15.977 -0.3548 -0.0140 -0.2688
 4022SOL    HW123702   3.434   0.551  16.018  0.9405 -0.7588 -0.3210
 4022SOL    HW223703   3.367   0.423  16.053 -0.0099 -1.1035 -0.9468
 4023SOL     OW23704   2.592   1.300   4.851 -0.3723 -0.6560 -0.1335
 4023SOL    HW123705   2.534   1.230   4.881  0.2580  0.3254  3.3065
 4023SOL    HW223706   2.538   1.341   4.783 -1.8949 -0.0869  1.4249
 4024SOL     OW23707   4.325   3.323   6.164 -0.0424 -0.2050 -0.0470
 4024SOL    HW123708   4.233   3.333   6.190  0.1706  0.8078  0.3207
 4024SOL    HW223709   4.373   3.381   6.223 -1.9998 -1.3616  2.7033
 4025SOL     OW23710   3.076   2.821  17.189 -0.6705 -0.0750 -0.8242
 4025SOL    HW123711   3.161   2.824  17.146  1.1331  0.7053  2.7691
 4025SOL    HW223712   3.052   2.914  17.192 -2.6056 -0.6371  1.6130
 4026SOL     OW23713   2.507   4.551  12.036 -0.1144 -0.1278 -0.5150
 4026SOL    HW123714   2.542   4.464  12.056 -2.7366 -0.9947  0.3998
 4026SOL    HW223715   2.592   4.595  12.039 -0.9248  1.3034  2.0361
 4027SOL     OW23716   3.606   3.033   4.295  0.0060  0.1214 -0.3151
 4027SOL    HW123717   3.605   3.073   4.208 -1.5568  1.0111  0.1146
 4027SOL    HW223718   3.699   3.043   4.318 -0.6547  2.2033  1.4354
 4028SOL     OW23719   2.111   3.742   2.337  0.2442  0.2441 -0.1245
 4028SOL    HW123720   2.023   3.777   2.343  0.5411  0.9937 -0.2342
 4028SOL    HW223721   2.146   3.756   2.425  2.6949 -0.6960 -0.9345
 4029SOL     OW23722   0.698   4.315   9.893  0.3693 -0.7044 -0.6921
 4029SOL    HW123723   0.704   4.242   9.955  3.1633  0.0247 -0.0903
 4029SOL    HW223724   0.673   4.388   9.949  1.3000 -1.0469  0.1752
 4030SOL     OW23725   3.325   0.870  11.293 -0.3111 -0.0498  0.1805
 4030SOL    HW123726   3.244   0.821  11.283 -1.2539  1.5453 -0.1185
 4030SOL    HW223727   3.377   0.830  11.362  1.4893  2.3276  0.2049
 4031SOL     OW23728   0.569   0.263   4.833  0.0075 -0.2955 -0.2273
 4031SOL    HW123729   0.531   0.338   4.788 -1.4651 -1.4415 -0.8748
 4031SOL    HW223730   0.504   0.197   4.809 -0.2048 -0.3499  0.4997
 4032SOL     OW23731   0.025   1.330   6.359  0.1497  0.3545 -0.2115
 4032SOL    HW123732   0.092   1.353   6.423 -1.8536  1.3635  1.5452
 4032SOL    HW223733   0.001   1.239   6.380 -2.1756  1.2011  0.8770
 4033SOL     OW23734   4.293   1.972   4.676 -0.1084 -0.3783  0.0601
 4033SOL    HW123735   4.314   2.056   4.633 -0.3879 -1.0695 -1.4391
 4033SOL    HW223736   4.374   1.922   4.663 -0.9814 -0.9386 -3.1745
 4034SOL     OW23737   3.309   1.787   3.666 -0.2671  0.2686  0.5712
 4034SOL    HW123738   3.395   1.750   3.645 -1.1337 -2.0168  0.9780
 4034SOL    HW223739   3.338   1.863   3.717  3.0469 -0.2908 -0.4822
 4035SOL     OW23740   1.702   2.929   1.897  0.0577  0.0372 -0.4272
 4035SOL    HW123741   1.608   2.918   1.882 -0.6510  2.2960  2.3057
 4035SOL    HW223742   1.714   2.999   1.961 -1.2833 -0.4633  0.3726
 4036SOL     OW23743   0.266   4.564   4.337  0.3108 -0.0088  0.1867
 4036SOL    HW123744   0.271   4.585   4.244  0.6346  2.2829  0.7209
 4036SOL    HW223745   0.324   4.487   4.336  0.7786  0.3505 -0.1490
 4037SOL     OW23746   4.498   1.148   6.328 -1.0062  0.2924  0.0882
 4037SOL    HW123747   4.542   1.110   6.405  1.3611 -0.9513 -1.8784
 4037SOL    HW223748   4.437   1.203   6.376 -0.8913  0.8900 -0.4554
 4038SOL     OW23749   3.989   0.110  15.548 -0.2296  0.3176  0.5980
 4038SOL    HW123750   3.958   0.020  15.544 -2.0859  1.1327 -3.3085
 4038SOL    HW223751   4.053   0.102  15.477  0.6491  2.4908  1.1398
 4039SOL     OW23752   0.587   1.827   4.126 -0.0230  0.5594  0.0323
 4039SOL    HW123753   0.534   1.750   4.149 -1.7645  1.2433 -1.7409
 4039SOL    HW223754   0.625   1.789   4.047 -0.8688 -0.0038 -0.1011
 4040SOL     OW23755   1.252   1.478  12.537  0.7802  0.5977 -0.2675
 4040SOL    HW123756   1.261   1.422  12.460 -1.2214 -0.2704  0.1162
 4040SOL    HW223757   1.175   1.429  12.569  0.7841 -0.6834 -2.2226
 4041SOL     OW23758   1.256   2.109   2.398 -0.8695  0.3165 -0.1838
 4041SOL    HW123759   1.271   2.199   2.370  2.8954 -0.3758 -0.4297
 4041SOL    HW223760   1.214   2.113   2.484  1.5766 -1.5114  1.0922
 4042SOL     OW23761   0.787   3.808   4.247  0.6216 -0.4194  0.6148
 4042SOL    HW123762   0.803   3.871   4.317 -0.0826  0.7531 -0.2797
 4042SOL    HW223763   0.840   3.854   4.182 -0.7849  1.3485  0.7085
 4043SOL     OW23764   0.491   0.134   7.532 -0.3446  0.0767 -0.2914
 4043SOL    HW123765   0.398   0.138   7.555 -0.1463 -0.0485  0.5196
 4043SOL    HW223766   0.496   0.041   7.510 -0.4951  0.1981 -0.8405
 4044SOL     OW23767   1.308   3.358   9.068  0.2271 -0.1534 -0.5634
 4044SOL    HW123768   1.385   3.396   9.025  1.9400 -3.1487 -0.1526
 4044SOL    HW223769   1.248   3.416   9.021 -0.2040  0.0059  0.1731
 4045SOL     OW23770   1.722   0.947   4.620  0.0994 -0.0184 -0.1024
 4045SOL    HW123771   1.693   1.031   4.583 -1.8261 -0.1604  1.0914
 4045SOL    HW223772   1.697   0.955   4.712 -1.7933 -2.3585 -0.4403
 4046SOL     OW23773   1.406   2.398   6.380 -0.1500  0.0217  0.2138
 4046SOL    HW123774   1.494   2.435   6.383 -1.6085  3.5121  0.1954
 4046SOL    HW223775   1.399   2.343   6.301  1.5328  1.6958 -1.1014
 4047SOL     OW23776   0.015   2.077   9.635  0.1368  0.1146 -0.5538
 4047SOL    HW123777   0.073   2.046   9.704  1.0390 -1.7570 -2.1546
 4047SOL    HW223778   0.067   2.154   9.611  2.8386 -1.3897  0.3902
 4048SOL     OW23779   4.309   2.953   6.002 -0.2460  0.5287  0.3218
 4048SOL    HW123780   4.371   3.016   5.965 -1.3002  1.1509 -0.4065
 4048SOL    HW223781   4.263   2.918   5.925 -0.7260 -0.3534  1.0076
 4049SOL     OW23782   1.291   2.912   0.773  0.1031  0.3898  0.2267
 4049SOL    HW123783   1.274   2.823   0.742  2.8478  0.6463 -2.0547
 4049SOL    HW223784   1.347   2.876   0.842 -1.3936  2.2065  2.3923
 4050SOL     OW23785   0.053   0.808   2.911  0.0599 -0.4341  0.2289
 4050SOL    HW123786   0.068   0.887   2.962 -0.8578 -0.2400  0.2070
 4050SOL    HW223787   0.035   0.845   2.824 -1.8791  1.1282  1.2854
 4051SOL     OW23788   1.807   1.103   7.784  0.0578 -0.7258  0.3005
 4051SOL    HW123789   1.725   1.139   7.752 -1.2151 -2.7204  1.3672
 4051SOL    HW223790   1.844   1.073   7.700 -0.4157  3.2173 -1.3034
 4052SOL     OW23791   3.755   2.794   9.812 -0.0948  0.1344 -0.0361
 4052SOL    HW123792   3.781   2.725   9.873 -0.4653 -1.6511 -1.8721
 4052SOL    HW223793   3.785   2.749   9.733  0.5808  1.7960 -0.7150
 4053SOL     OW23794   2.985   2.389  10.297  0.1099 -0.5333  0.1466
 4053SOL    HW123795   3.010   2.299  10.275  0.4149 -0.4139 -0.0009
 4053SOL    HW223796   2.999   2.380  10.391 -1.8770 -0.2145  0.4674
 4054SOL     OW23797   1.771   0.343   8.658 -0.0265  0.0405 -0.1758
 4054SOL    HW123798   1.861   0.328   8.686 -0.2295  1.4964  1.2506
 4054SOL    HW223799   1.735   0.368   8.743 -3.3584  0.4803 -1.6818
 4055SOL     OW23800   3.735   0.028  17.105 -0.8580 -0.8031  0.2383
 4055SOL    HW123801   3.653   4.730  17.139 -1.3486 -0.9383 -1.0926
 4055SOL    HW223802   3.735   0.010  17.011 -0.3468  0.6764 -0.0422
 4056SOL     OW23803   2.656   2.246  17.057  0.1841 -0.5606  0.0669
 4056SOL    HW123804   2.670   2.290  16.974  0.4111 -3.0192 -1.1893
 4056SOL    HW223805   2.651   2.317  17.121  1.3508 -1.9473  1.6983
 4057SOL     OW23806   2.323   4.235   9.818  0.4188  0.3407  0.1688
 4057SOL    HW123807   2.354   4.201   9.902  0.4173 -0.5490 -0.1891
 4057SOL    HW223808   2.371   4.318   9.815  0.3292  0.3777 -0.2817
 4058SOL     OW23809   0.160   2.206  13.049 -0.1597  0.5375  0.0972
 4058SOL    HW123810   0.209   2.197  13.131  0.7757 -3.4091 -0.9212
 4058SOL    HW223811   0.077   2.186  13.092  0.2562 -1.6191 -0.1145
 4059SOL     OW23812   0.173   0.003   3.211  0.0623 -0.0404  0.5731
 4059SOL    HW123813   0.088   0.019   3.169  0.4589 -0.5178 -0.4057
 4059SOL    HW223814   0.205   4.671   3.153 -2.2148  0.2102 -1.0292
 4060SOL     OW23815   2.839   3.478  12.569 -0.0325 -0.0123 -0.0760
 4060SOL    HW123816   2.881   3.394  12.549 -0.7129 -0.9607  2.5957
 4060SOL    HW223817   2.797   3.503  12.487 -0.7887 -1.4548 -0.1329
 4061SOL     OW23818   1.620   0.634  12.328 -0.2465 -0.4454  0.1737
 4061SOL    HW123819   1.676   0.569  12.285  0.5460 -2.2705  3.9761
 4061SOL    HW223820   1.689   0.683  12.372 -0.2287 -2.5725  2.5103
 4062SOL     OW23821   1.361   2.569   8.608 -0.2021 -0.5942  0.3209
 4062SOL    HW123822   1.271   2.597   8.591 -0.4958 -1.4399  0.4845
 4062SOL    HW223823   1.365   2.579   8.703  2.7932 -0.3114  0.1545
 4063SOL     OW23824   3.229   3.420  11.270  0.1700 -0.9193 -0.3755
 4063SOL    HW123825   3.234   3.359  11.344 -0.1140 -2.4284 -1.5839
 4063SOL    HW223826   3.153   3.395  11.217  1.0845  0.6320 -2.4352
 4064SOL     OW23827   3.924   3.936   8.984  0.3124  0.3714  0.1257
 4064SOL    HW123828   3.867   3.942   8.907  1.3597  2.6209 -0.4592
 4064SOL    HW223829   3.992   3.873   8.962 -0.8038 -0.4015 -1.1028
 4065SOL     OW23830   3.737   4.606  12.198  0.2329  0.3368 -0.3539
 4065SOL    HW123831   3.686   4.524  12.196 -0.4199  0.7547 -1.0051
 4065SOL    HW223832   3.789   4.587  12.276 -0.9744  0.5524  0.5015
 4066SOL     OW23833   3.764   4.685   0.644 -0.6471  0.0273 -0.0035
 4066SOL    HW123834   3.809   0.031   0.659  1.2753 -0.7219 -1.6052
 4066SOL    HW223835   3.824   4.627   0.691 -0.7352 -1.0531 -1.2060
 4067SOL     OW23836   4.524   0.462  13.861  0.3576  0.2096  0.1201
 4067SOL    HW123837   4.459   0.525  13.892 -0.2177 -0.2458 -0.1640
 4067SOL    HW223838   4.528   0.485  13.768  3.7185 -0.7995  0.0181
 4068SOL     OW23839   3.078   2.937   2.991  0.0405  0.1578 -0.0145
 4068SOL    HW123840   3.125   3.013   2.957  0.6350 -0.9096 -1.5796
 4068SOL    HW223841   3.146   2.870   2.984 -0.2306 -0.0791 -0.3853
 4069SOL     OW23842   3.926   3.579   8.381  0.4927  0.3482  0.2407
 4069SOL    HW123843   3.952   3.663   8.342  0.1487  0.7623  0.8838
 4069SOL    HW223844   4.013   3.548   8.408 -0.7256 -1.7352  1.7375
 4070SOL     OW23845   4.475   0.268   2.516  0.0195 -0.0271 -0.5425
 4070SOL    HW123846   4.499   0.229   2.432  0.5702 -2.2306  0.6445
 4070SOL    HW223847   4.388   0.231   2.531  0.3800 -0.2240  1.0944
 4071SOL     OW23848   1.661   3.991   2.201 -0.1030  0.2927  0.4357
 4071SOL    HW123849   1.628   4.030   2.281 -0.3355  1.2084 -0.1052
 4071SOL    HW223850   1.603   4.041   2.143  1.4263  0.8502 -0.6328
 4072SOL     OW23851   2.294   2.068   8.375  0.3251 -0.1155 -0.5905
 4072SOL    HW123852   2.242   2.110   8.307 -3.3343 -0.9137  1.7437
 4072SOL    HW223853   2.364   2.132   8.388  0.0676 -0.4311  2.1610
 4073SOL     OW23854   2.024   0.839   7.860  0.3755 -0.3767  0.0957
 4073SOL    HW123855   1.957   0.817   7.925 -0.1909  0.8124 -0.0717
 4073SOL    HW223856   2.096   0.881   7.907  1.1616 -0.1087 -1.3361
 4074SOL     OW23857   2.031   2.459  15.421 -0.2247 -0.0515 -0.6043
 4074SOL    HW123858   2.003   2.537  15.469 -0.1956 -0.7230  0.4997
 4074SOL    HW223859   2.124   2.479  15.411 -0.5200  1.5830 -0.0479
 4075SOL     OW23860   0.304   2.387  11.834  0.4119  0.2758 -0.0442
 4075SOL    HW123861   0.365   2.405  11.906 -0.0097  2.1204 -0.1644
 4075SOL    HW223862   0.250   2.317  11.870  0.0670 -1.2614 -3.5391
 4076SOL     OW23863   4.667   2.994   6.688 -0.8915 -0.0893  0.0553
 4076SOL    HW123864   4.617   3.032   6.761 -0.0550  1.3212 -0.0875
 4076SOL    HW223865   0.012   3.009   6.734 -0.0411  1.0008 -1.8401
 4077SOL     OW23866   4.364   3.951   0.895 -0.0336  0.5115  0.1860
 4077SOL    HW123867   4.415   3.978   0.819  0.8327  1.5545  1.1387
 4077SOL    HW223868   4.289   4.010   0.886 -0.2581  0.0528 -0.9694
 4078SOL     OW23869   4.587   2.982  14.263 -0.7039 -0.4369  0.2981
 4078SOL    HW123870   4.502   2.939  14.263  0.0626 -1.9613 -1.5895
 4078SOL    HW223871   4.558   3.065  14.224  2.9368  0.1692 -1.0839
 4079SOL     OW23872   1.898   3.570   2.007 -0.4257 -0.3189 -0.0187
 4079SOL    HW123873   1.853   3.486   2.006 -0.3290 -0.3807  1.5776
 4079SOL    HW223874   1.846   3.619   2.070  0.3123  0.8592 -0.3177
 4080SOL     OW23875   4.666   2.114  13.330 -0.0958  0.0811  0.3018
 4080SOL    HW123876   4.697   2.023  13.328 -1.1731 -0.2795 -0.0485
 4080SOL    HW223877   4.731   2.152  13.389  0.4988 -2.0504  1.0297
 4081SOL     OW23878   2.300   3.545   9.114  0.4680  0.0727  0.5294
 4081SOL    HW123879   2.242   3.597   9.169  0.6802 -0.2174  1.0321
 4081SOL    HW223880   2.233   3.494   9.069  2.6949 -2.5545  0.1949
 4082SOL     OW23881   2.010   4.413  10.120  0.4998 -0.4031  0.1769
 4082SOL    HW123882   2.023   4.466  10.041 -0.6953 -1.0241 -0.4393
 4082SOL    HW223883   2.034   4.475  10.189  0.5253  0.4852 -0.6171
 4083SOL     OW23884   3.731   0.648   2.371  0.1057  0.1378  0.0037
 4083SOL    HW123885   3.640   0.655   2.399  1.2878 -2.1116  4.4640
 4083SOL    HW223886   3.725   0.600   2.288  1.4589  0.3918 -0.2421
 4084SOL     OW23887   3.555   0.760   7.635  0.1272  0.3629 -0.2182
 4084SOL    HW123888   3.604   0.698   7.688 -2.3037 -2.4455 -1.2735
 4084SOL    HW223889   3.600   0.757   7.550 -2.0806 -2.2384 -1.2955
 4085SOL     OW23890   0.700   1.261  11.870 -0.1839 -0.0706 -0.3860
 4085SOL    HW123891   0.617   1.237  11.829  0.8048 -1.9150 -1.3292
 4085SOL    HW223892   0.713   1.353  11.851  1.3061  0.1940  1.9567
 4086SOL     OW23893   0.456   0.438  13.191  0.4594 -0.3477 -0.6260
 4086SOL    HW123894   0.511   0.507  13.228 -0.6576 -0.8176  1.8358
 4086SOL    HW223895   0.517   0.364  13.193  1.5016  0.5017 -0.7621
 4087SOL     OW23896   1.789   3.436   8.841 -0.5943  0.3483  0.2687
 4087SOL    HW123897   1.787   3.435   8.745  1.3711 -0.0318  0.2246
 4087SOL    HW223898   1.814   3.345   8.854 -0.4987  0.2647 -0.4552
 4088SOL     OW23899   1.275   4.102   6.468  0.6189 -0.1721  0.0437
 4088SOL    HW123900   1.211   4.141   6.408  2.9389  1.1646 -1.5769
 4088SOL    HW223901   1.279   4.012   6.434  1.1302 -0.2491  0.3087
 4089SOL     OW23902   1.818   0.148  10.689 -0.1567 -0.6564 -0.0610
 4089SOL    HW123903   1.729   0.181  10.697  0.9694  2.4126 -0.3514
 4089SOL    HW223904   1.868   0.230  10.693 -1.3501  0.0210  1.1302
 4090SOL     OW23905   1.316   2.844  14.048  0.4730 -0.2880  0.8021
 4090SOL    HW123906   1.302   2.839  13.954  0.1214  0.0938  0.8323
 4090SOL    HW223907   1.343   2.756  14.075  2.3915  0.6585  1.9988
 4091SOL     OW23908   0.941   2.457   7.922  0.0845  0.1436  0.3280
 4091SOL    HW123909   0.992   2.406   7.986  0.8270  1.5816  0.8877
 4091SOL    HW223910   0.877   2.486   7.987 -0.6912  0.4664 -0.5820
 4092SOL     OW23911   0.259   3.591   6.047 -0.0460  0.0867 -0.2801
 4092SOL    HW123912   0.225   3.655   6.110 -1.6985 -0.2671 -0.8140
 4092SOL    HW223913   0.221   3.510   6.081 -0.2711 -0.8437 -2.7687
 4093SOL     OW23914   4.146   0.696   8.266 -0.1288  0.2313 -0.0613
 4093SOL    HW123915   4.200   0.621   8.293 -0.7864 -0.2376 -0.0678
 4093SOL    HW223916   4.200   0.773   8.283 -0.5459  0.4269  0.3640
 4094SOL     OW23917   0.213   2.332   7.144 -0.2975 -0.3628 -0.1544
 4094SOL    HW123918   0.125   2.295   7.138  0.1020 -1.4155  0.5479
 4094SOL    HW223919   0.238   2.267   7.209 -0.2683 -0.7472 -0.5486
 4095SOL     OW23920   0.707   2.737   4.501  0.1630  0.0058  0.3594
 4095SOL    HW123921   0.637   2.713   4.441  1.1396  1.6423 -1.4428
 4095SOL    HW223922   0.665   2.717   4.585 -0.3930  0.4990  0.1954
 4096SOL     OW23923   4.690   3.413   5.623 -0.5263 -0.0059 -0.2426
 4096SOL    HW123924   4.688   3.507   5.641  2.1516 -0.2054  1.0977
 4096SOL    HW223925   4.649   3.407   5.537 -0.9431 -0.8483  0.0117
 4097SOL     OW23926   1.483   1.446   9.371 -0.1126  0.1243 -0.2820
 4097SOL    HW123927   1.396   1.412   9.349  1.1663 -1.3200 -3.1339
 4097SOL    HW223928   1.470   1.531   9.414 -0.9386  0.3665 -0.9994
 4098SOL     OW23929   1.291   2.469   9.243 -0.1048  0.1209 -0.4015
 4098SOL    HW123930   1.318   2.478   9.334  2.0107 -0.8092 -0.9405
 4098SOL    HW223931   1.249   2.383   9.240 -1.7308  0.9670 -2.1410
 4099SOL     OW23932   3.750   3.932   8.513 -0.1131 -0.5424  0.1528
 4099SOL    HW123933   3.774   3.933   8.420  1.0514  1.7192  0.4778
 4099SOL    HW223934   3.706   3.847   8.519 -1.2730  0.0176 -0.3928
 4100SOL     OW23935   4.180   0.278   8.750 -0.1149  0.2279 -0.0770
 4100SOL    HW123936   4.155   0.299   8.660  1.1757  1.6126 -0.1124
 4100SOL    HW223937   4.273   0.254   8.739  0.4895  2.3389  0.4872
 4101SOL     OW23938   4.724   4.630   5.119  0.2024 -0.1713 -0.8269
 4101SOL    HW123939   0.052   4.700   5.114 -0.7506  0.8463  1.1208
 4101SOL    HW223940   0.004   4.569   5.048 -3.5703 -1.9454 -0.2246
 4102SOL     OW23941   0.725   3.249  11.077 -0.3668  0.0167  0.2518
 4102SOL    HW123942   0.768   3.317  11.128  1.9022 -2.1272  1.1480
 4102SOL    HW223943   0.757   3.168  11.116 -1.9434 -0.7601 -0.0408
 4103SOL     OW23944   2.146   0.347   6.469 -0.2381  0.2461  0.5904
 4103SOL    HW123945   2.083   0.414   6.496 -0.7600 -0.1959  0.4771
 4103SOL    HW223946   2.091   0.279   6.429  3.5742 -0.3183 -3.6915
 4104SOL     OW23947   1.173   1.342   5.685 -0.0982 -0.5537 -0.1829
 4104SOL    HW123948   1.165   1.276   5.617 -1.0497  1.6836 -2.2256
 4104SOL    HW223949   1.165   1.428   5.643 -0.8392 -0.2490  0.5825
 4105SOL     OW23950   1.665   3.367   0.539  0.0401 -0.1697  0.4792
 4105SOL    HW123951   1.695   3.457   0.552 -0.7648  0.3263 -1.0632
 4105SOL    HW223952   1.614   3.356   0.619 -2.4881 -0.9593 -1.2456
 4106SOL     OW23953   3.334   1.591   5.622 -0.5586  0.1866  0.8661
 4106SOL    HW123954   3.339   1.682   5.592 -0.0899  0.4674  1.8153
 4106SOL    HW223955   3.382   1.544   5.554 -0.6767  0.0652  0.8639
 4107SOL     OW23956   3.995   4.108  15.265  0.3121 -0.0813  0.4173
 4107SOL    HW123957   3.956   4.193  15.241  0.8056  0.1797  0.5376
 4107SOL    HW223958   4.001   4.124  15.359  3.1826 -1.8364  0.5286
 4108SOL     OW23959   1.137   3.747   7.408 -0.0539 -0.1344  0.4214
 4108SOL    HW123960   1.056   3.768   7.455  1.7605  3.5451  1.9021
 4108SOL    HW223961   1.119   3.754   7.314 -2.4314 -0.3439  0.8641
 4109SOL     OW23962   4.283   3.657   8.821  0.3194  0.5380  0.2377
 4109SOL    HW123963   4.254   3.642   8.731  1.3138  1.4404 -0.2308
 4109SOL    HW223964   4.331   3.740   8.816  3.7127 -1.5018 -0.9413
 4110SOL     OW23965   1.776   2.378   0.038 -0.0656 -0.5392  0.0538
 4110SOL    HW123966   1.819   2.295   0.016  1.5775  0.7221 -1.4857
 4110SOL    HW223967   1.855   2.424   0.067  0.3165 -0.2252 -1.4971
 4111SOL     OW23968   3.288   3.471   3.448 -0.4166 -0.0380 -0.6850
 4111SOL    HW123969   3.230   3.492   3.375  0.9672  0.7519 -1.5312
 4111SOL    HW223970   3.226   3.454   3.519  2.1219  0.1921  1.5824
 4112SOL     OW23971   1.338   0.655   2.981 -1.0175 -0.5247 -0.2867
 4112SOL    HW123972   1.281   0.582   2.957 -1.6490  1.4037 -4.6807
 4112SOL    HW223973   1.407   0.652   2.915  1.6984 -0.5078  2.5373
 4113SOL     OW23974   1.970   1.187   7.364  0.5604  0.4208 -0.2626
 4113SOL    HW123975   1.887   1.139   7.356  1.1998 -0.6764 -0.2981
 4113SOL    HW223976   1.952   1.257   7.301  0.1965  0.3001 -0.2931
 4114SOL     OW23977   4.600   1.739   6.946 -0.4013  0.6516  0.2403
 4114SOL    HW123978   4.624   1.647   6.934  0.1941  0.7105  1.0177
 4114SOL    HW223979   4.688   1.773   6.929 -0.8837  1.1461 -1.2465
 4115SOL     OW23980   0.287   1.497   6.593  0.0659 -0.1718  0.3365
 4115SOL    HW123981   0.359   1.549   6.557 -0.6163 -0.3257 -1.2210
 4115SOL    HW223982   0.216   1.558   6.614  2.4176  2.3872  0.8887
 4116SOL     OW23983   1.715   2.516   6.659 -0.3291 -0.1157  0.1989
 4116SOL    HW123984   1.747   2.432   6.693  1.9349 -0.0673 -1.8119
 4116SOL    HW223985   1.694   2.494   6.568  1.4889 -5.1877  0.9773
 4117SOL     OW23986   0.138   2.820   1.969 -0.1358  0.0925 -0.3400
 4117SOL    HW123987   0.186   2.869   2.036 -0.0668 -0.4991  0.0373
 4117SOL    HW223988   0.085   2.757   2.018  0.4260  0.0843  0.2630
 4118SOL     OW23989   4.694   0.513  10.680  0.9218  0.1509  0.1784
 4118SOL    HW123990   4.625   0.446  10.686  0.3444  0.6188 -1.4847
 4118SOL    HW223991   4.679   0.557  10.597  0.0699  0.6035  0.5687
 4119SOL     OW23992   2.723   2.583   2.401  0.6627 -0.1876  0.5806
 4119SOL    HW123993   2.765   2.524   2.463 -2.3891 -3.0849 -0.1020
 4119SOL    HW223994   2.777   2.662   2.405  0.4927 -0.0453  0.0308
 4120SOL     OW23995   1.659   2.131  15.072 -0.0349  0.1042  0.1191
 4120SOL    HW123996   1.663   2.219  15.110 -1.9960  0.9784 -1.6699
 4120SOL    HW223997   1.625   2.151  14.985 -0.5854 -0.8170  0.1197
 4121SOL     OW23998   2.671   0.629   3.931  0.3943 -0.1114  1.0517
 4121SOL    HW123999   2.618   0.667   4.000 -0.6735  2.2530 -1.0577
 4121SOL    HW224000   2.637   0.544   3.902  1.0102 -0.1465  0.4148
 4122SOL     OW24001   1.356   3.469  16.221  0.7754 -0.4127  0.9376
 4122SOL    HW124002   1.288   3.517  16.269  0.9659  0.3016  0.5039
 4122SOL    HW224003   1.424   3.536  16.207  0.9578 -0.7422  0.2385
 4123SOL     OW24004   3.204   1.184   2.656  0.2908  0.6180  0.8119
 4123SOL    HW124005   3.213   1.118   2.587 -2.5385 -1.3908  2.4000
 4123SOL    HW224006   3.286   1.161   2.701  0.9625 -1.2289 -1.3971
 4124SOL     OW24007   1.690   0.204  10.271 -0.4786  0.0233 -0.8451
 4124SOL    HW124008   1.719   0.257  10.345  1.3030  1.3225 -2.4603
 4124SOL    HW224009   1.710   0.265  10.200 -0.0702  0.4394 -0.3742
 4125SOL     OW24010   2.112   2.002  16.408  0.5019 -0.0605  0.5956
 4125SOL    HW124011   2.147   2.002  16.319  0.7502  0.2341  0.6915
 4125SOL    HW224012   2.078   2.091  16.413  3.3470  1.1348 -1.2316
 4126SOL     OW24013   3.977   0.695   9.561 -0.4832 -0.6961 -0.7367
 4126SOL    HW124014   3.918   0.735   9.497 -0.6116 -0.5021 -0.4971
 4126SOL    HW224015   4.035   0.648   9.502 -0.1418 -0.0016 -0.9512
 4127SOL     OW24016   2.445   1.105   5.013 -0.3706 -0.0791  0.2452
 4127SOL    HW124017   2.449   1.098   5.108  0.7991  0.3449  0.2265
 4127SOL    HW224018   2.425   1.018   4.980 -1.3337  1.1726 -2.5573
 4128SOL     OW24019   1.781   3.028   6.253  0.2562  0.1141 -0.2119
 4128SOL    HW124020   1.784   2.972   6.330 -2.3364 -0.1564 -0.3148
 4128SOL    HW224021   1.691   3.061   6.249 -0.3822 -1.7196 -0.8465
 4129SOL     OW24022   3.108   4.675   2.925  0.1250 -0.0235  0.0929
 4129SOL    HW124023   3.157   4.600   2.892  2.2324  1.0171  0.8623
 4129SOL    HW224024   3.164   4.704   2.997 -0.7441 -1.3190  1.2882
 4130SOL     OW24025   0.950   3.073   2.221  0.2097 -0.0096 -0.1507
 4130SOL    HW124026   0.963   3.031   2.305  0.1049  0.8224  0.2783
 4130SOL    HW224027   0.986   3.008   2.160 -1.0757 -1.2254  0.3805
 4131SOL     OW24028   3.494   2.498   8.031  0.6241 -0.2333 -0.3496
 4131SOL    HW124029   3.542   2.579   8.053 -1.1996  0.5933  0.5869
 4131SOL    HW224030   3.426   2.493   8.098 -1.6295  1.0958 -2.5610
 4132SOL     OW24031   1.501   4.678  12.307 -0.5399 -0.1983  0.0875
 4132SOL    HW124032   1.481   4.677  12.214 -0.6708 -1.1809  0.1317
 4132SOL    HW224033   1.537   0.028  12.322 -3.6531  0.8464  1.4348
 4133SOL     OW24034   4.513   1.469   8.534  0.1687 -0.2708  0.0066
 4133SOL    HW124035   4.571   1.542   8.559 -1.9349  1.6303 -0.6608
 4133SOL    HW224036   4.554   1.451   8.450 -0.0284  0.1134 -0.1724
 4134SOL     OW24037   3.358   0.709   2.164 -0.0830  0.0533  0.7460
 4134SOL    HW124038   3.407   0.682   2.242 -0.1394  2.4530  1.6375
 4134SOL    HW224039   3.427   0.752   2.114  0.1288 -2.2171 -0.9160
 4135SOL     OW24040   0.496   2.699   5.931  0.5907 -0.3188 -0.5734
 4135SOL    HW124041   0.462   2.619   5.891 -0.6495 -0.9337  1.7154
 4135SOL    HW224042   0.476   2.752   5.853 -0.1276  1.9545  1.1388
 4136SOL     OW24043   4.610   1.770  17.720  0.4702  0.0126  0.6223
 4136SOL    HW124044   4.666   1.847  17.714 -0.2742  0.4935 -0.2955
 4136SOL    HW224045   4.526   1.812  17.740 -0.0340  0.1464 -1.7454
 4137SOL     OW24046   1.850   0.012   3.378 -0.0973 -0.5243  0.1432
 4137SOL    HW124047   1.775   4.732   3.321  0.3061 -0.6447 -0.3507
 4137SOL    HW224048   1.916   4.687   3.348  0.3491  0.1408 -0.2546
 4138SOL     OW24049   0.116   3.366   5.989 -0.2350 -0.0416  0.1235
 4138SOL    HW124050   0.043   3.354   6.049 -0.2081  2.7051  0.7147
 4138SOL    HW224051   0.103   3.298   5.924 -1.5237  0.9789 -0.6853
 4139SOL     OW24052   0.861   0.383  10.798 -0.2211 -0.1103 -0.0443
 4139SOL    HW124053   0.780   0.342  10.767  0.1847 -0.7011 -0.3244
 4139SOL    HW224054   0.904   0.308  10.841  1.2198  0.1356 -1.0871
 4140SOL     OW24055   2.389   3.741  16.744 -0.4421  0.3604  0.9153
 4140SOL    HW124056   2.434   3.758  16.661 -1.5806 -1.9089 -0.1686
 4140SOL    HW224057   2.315   3.691  16.709  0.0077  0.8632 -0.7488
 4141SOL     OW24058   1.270   4.539   2.399 -0.9044 -0.1125 -0.1622
 4141SOL    HW124059   1.185   4.501   2.376 -2.1611  0.1249  4.0453
 4141SOL    HW224060   1.267   4.621   2.349  0.4861  0.3619  0.5382
 4142SOL     OW24061   0.283   2.885   6.051 -0.2369 -0.1058 -0.2564
 4142SOL    HW124062   0.322   2.842   5.974 -1.6982 -0.4494 -0.8159
 4142SOL    HW224063   0.329   2.968   6.050 -0.5859  0.0858 -0.8706
 4143SOL     OW24064   1.224   0.487   6.201 -0.0159  0.2333  0.1107
 4143SOL    HW124065   1.148   0.429   6.198  1.1112 -1.2647  0.3784
 4143SOL    HW224066   1.182   0.554   6.254  1.0794  2.3563 -1.6789
 4144SOL     OW24067   3.558   1.193   3.363 -0.2522  0.5441 -0.1200
 4144SOL    HW124068   3.614   1.231   3.296  2.6409  1.7640  2.9900
 4144SOL    HW224069   3.562   1.258   3.433  4.3027 -0.3158  0.4118
 4145SOL     OW24070   3.985   3.628   4.648  0.5653 -0.3381 -0.0932
 4145SOL    HW124071   3.954   3.554   4.700  0.1786 -0.8304 -1.0285
 4145SOL    HW224072   3.951   3.613   4.559 -2.8611 -0.0941  1.1745
 4146SOL     OW24073   4.639   4.616  10.187  0.7264  0.1708  0.5593
 4146SOL    HW124074   4.594   4.590  10.267 -2.9228  0.4220 -1.3818
 4146SOL    HW224075   4.717   4.563  10.170  0.9159  0.0409  1.8849
 4147SOL     OW24076   2.780   0.879   4.129 -0.4906 -0.1059  0.3968
 4147SOL    HW124077   2.730   0.957   4.104  1.9023  0.4400 -2.7081
 4147SOL    HW224078   2.808   0.840   4.046 -0.0414  1.8342 -0.3827
 4148SOL     OW24079   4.520   4.253  14.499  0.2113  0.2816 -0.7311
 4148SOL    HW124080   4.443   4.289  14.455 -0.9056  0.5652  1.4179
 4148SOL    HW224081   4.530   4.168  14.458 -0.4795 -0.8239  1.4099
 4149SOL     OW24082   0.094   4.595  11.779 -0.0984 -0.0165 -0.2287
 4149SOL    HW124083   0.120   4.508  11.749  4.0768  0.8662  0.8435
 4149SOL    HW224084   0.115   4.645  11.700 -0.0095 -0.2211 -0.3355
 4150SOL     OW24085   0.521   4.149  11.503 -0.3724 -0.0147 -0.5607
 4150SOL    HW124086   0.565   4.233  11.496  0.6020 -0.3446  1.6386
 4150SOL    HW224087   0.448   4.166  11.562 -0.6322  0.1990 -0.9413
 4151SOL     OW24088   3.038   3.928   2.995 -0.3958  0.0152  0.2476
 4151SOL    HW124089   3.127   3.955   3.021  1.0240 -3.1116 -1.3874
 4151SOL    HW224090   2.989   4.002   2.961 -3.6689 -2.2066  0.1648
 4152SOL     OW24091   3.748   1.886  16.666 -0.3959  0.2429  0.0356
 4152SOL    HW124092   3.738   1.977  16.692 -0.4100  0.0513  0.7026
 4152SOL    HW224093   3.808   1.859  16.736 -0.1086 -0.4768 -0.4869
 4153SOL     OW24094   3.461   3.032   1.298  0.0769  0.0130 -0.5600
 4153SOL    HW124095   3.519   3.108   1.306 -0.9992  0.6566  1.2241
 4153SOL    HW224096   3.492   2.994   1.216 -1.4134 -1.4485 -0.4555
 4154SOL     OW24097   0.265   4.095   8.058 -1.5423 -0.2012  0.2580
 4154SOL    HW124098   0.295   4.152   7.987 -0.3569  0.1591  1.0528
 4154SOL    HW224099   0.186   4.057   8.020 -0.4923 -1.4360 -0.7020
 4155SOL     OW24100   4.183   2.194   4.370 -0.0471  0.6253  0.2873
 4155SOL    HW124101   4.275   2.179   4.393  0.5909  2.5614 -0.9680
 4155SOL    HW224102   4.167   2.272   4.423  0.4943  0.1399  1.1671
 4156SOL     OW24103   4.418   1.577   7.145 -0.0917 -0.1636 -0.2115
 4156SOL    HW124104   4.478   1.540   7.209 -0.4067  1.9046  1.2832
 4156SOL    HW224105   4.342   1.570   7.203  0.6571 -0.2578  0.7579
 4157SOL     OW24106   2.227   2.774  11.912 -0.3109  0.1001 -0.3040
 4157SOL    HW124107   2.151   2.820  11.949  1.9057  1.9484  1.8814
 4157SOL    HW224108   2.304   2.821  11.941 -0.8441  1.4420 -1.0593
 4158SOL     OW24109   1.037   1.608   2.188 -0.2595 -0.2089  0.4251
 4158SOL    HW124110   1.132   1.599   2.197  0.0419  1.1621 -1.3169
 4158SOL    HW224111   1.031   1.655   2.104 -0.9153  1.2050  1.2705
 4159SOL     OW24112   1.402   1.215   4.188 -0.1311  0.3051  0.2570
 4159SOL    HW124113   1.350   1.191   4.265  0.0295  2.5125  1.0512
 4159SOL    HW224114   1.408   1.310   4.190 -1.6735  0.4476 -1.5737
 4160SOL     OW24115   0.118   4.710   8.037  0.3218  0.7432  0.3319
 4160SOL    HW124116   0.169   4.629   8.031  0.6307  1.0673 -1.7294
 4160SOL    HW224117   0.134   4.725   8.130  2.7803  1.3785 -0.1827
 4161SOL     OW24118   3.838   1.579   2.519  0.0662 -0.3386 -0.2016
 4161SOL    HW124119   3.934   1.578   2.519  0.0905  1.3599  0.6246
 4161SOL    HW224120   3.815   1.667   2.491 -1.2167 -1.7986 -3.6921
 4162SOL     OW24121   4.656   2.392  11.696 -0.4248  0.9293 -0.0490
 4162SOL    HW124122   4.620   2.481  11.700 -3.2121 -0.3236  2.5611
 4162SOL    HW224123   4.682   2.379  11.605 -2.9171 -0.2918 -0.5788
 4163SOL     OW24124   1.145   0.273   9.578  0.3472  0.0432  0.2676
 4163SOL    HW124125   1.108   0.285   9.490  2.0761  0.0769 -0.4603
 4163SOL    HW224126   1.101   0.197   9.616  1.0162 -0.6351 -0.3173
 4164SOL     OW24127   2.122   2.455   2.712 -0.2018 -0.1044 -0.0641
 4164SOL    HW124128   2.031   2.461   2.740 -0.2350  2.2837 -0.6830
 4164SOL    HW224129   2.125   2.534   2.658  2.4154 -1.2738 -1.6364
 4165SOL     OW24130   1.181   0.129   6.473 -0.1164  0.4075 -0.3466
 4165SOL    HW124131   1.148   0.214   6.502  0.0224  0.3018  0.1395
 4165SOL    HW224132   1.108   0.100   6.420  0.1511  0.6436 -0.8416
 4166SOL     OW24133   1.312   1.471   7.486  0.1702 -0.5808  0.3300
 4166SOL    HW124134   1.355   1.550   7.454  1.2167 -1.1671  0.2770
 4166SOL    HW224135   1.252   1.507   7.552  0.4399 -1.4609  1.0551
 4167SOL     OW24136   0.213   0.075   6.125  0.8147 -0.2381 -0.0838
 4167SOL    HW124137   0.208   0.141   6.195 -0.8809  0.4634 -0.8654
 4167SOL    HW224138   0.292   0.037   6.162  1.7399 -0.4701 -2.3135
 4168SOL     OW24139   1.135   4.568  15.496  0.1683  0.4449  0.3866
 4168SOL    HW124140   1.171   4.486  15.531  0.8552  0.0642 -1.1933
 4168SOL    HW224141   1.203   4.578  15.429 -1.7102  0.7465 -1.4574
 4169SOL     OW24142   3.471   3.523  15.368  0.1129  0.2372 -0.0050
 4169SOL    HW124143   3.402   3.535  15.434  0.3115 -0.0791  0.2606
 4169SOL    HW224144   3.539   3.570  15.417 -0.7337  2.1373 -0.6289
 4170SOL     OW24145   4.381   1.702   4.957  0.0712 -0.4722 -0.3169
 4170SOL    HW124146   4.475   1.690   4.965  0.4614  0.2434 -3.5849
 4170SOL    HW224147   4.366   1.792   4.985  0.0114 -0.4913 -0.2863
 4171SOL     OW24148   3.343   0.636   7.759 -0.4258  0.6191  0.0365
 4171SOL    HW124149   3.334   0.541   7.757  0.4272  0.5900 -2.9539
 4171SOL    HW224150   3.426   0.652   7.713  0.3548 -1.6546  0.6754
 4172SOL     OW24151   2.394   1.799  12.297 -0.5595  0.3146  0.1693
 4172SOL    HW124152   2.366   1.730  12.357 -1.1039 -1.0199 -1.5896
 4172SOL    HW224153   2.359   1.777  12.210  1.4894  0.4237 -0.6832
 4173SOL     OW24154   0.079   2.902  14.546 -0.2675  0.0715 -0.2989
 4173SOL    HW124155   0.090   2.992  14.515  2.9046 -0.6627 -1.3925
 4173SOL    HW224156   0.169   2.873  14.530 -0.8907 -1.3283 -1.2050
 4174SOL     OW24157   2.212   3.384   7.833  0.3263  0.0707  0.3107
 4174SOL    HW124158   2.262   3.409   7.756 -1.7667  0.0962 -1.0635
 4174SOL    HW224159   2.212   3.466   7.882 -0.1814 -1.8268  3.4988
 4175SOL     OW24160   1.519   3.631   2.663 -0.4084 -0.5143  0.0376
 4175SOL    HW124161   1.451   3.689   2.697  2.0073  0.9169  2.4338
 4175SOL    HW224162   1.471   3.576   2.601 -2.4425  0.7714  0.4650
 4176SOL     OW24163   0.194   1.907  10.648 -1.2077 -0.2667 -0.2051
 4176SOL    HW124164   0.159   1.983  10.602 -0.4006  0.1118 -0.1791
 4176SOL    HW224165   0.121   1.878  10.703 -0.0358  0.6264  1.8107
 4177SOL     OW24166   4.571   3.638   5.043 -0.7917 -0.7399 -0.1837
 4177SOL    HW124167   4.622   3.588   5.107 -1.1579  0.3003  0.9347
 4177SOL    HW224168   4.554   3.726   5.078  0.4359 -0.1963 -0.9359
 4178SOL     OW24169   4.600   2.309  13.160  0.5249  0.2968 -0.3676
 4178SOL    HW124170   4.633   2.226  13.195  1.7903  0.6262 -0.7773
 4178SOL    HW224171   4.533   2.325  13.226  1.7207  1.5048  0.5439
 4179SOL     OW24172   3.561   0.381  17.626 -0.0564  0.4302 -0.0848
 4179SOL    HW124173   3.597   0.292  17.629  1.4494  1.0560  0.4700
 4179SOL    HW224174   3.622   0.422  17.688 -0.9764  2.2988 -0.4317
 4180SOL     OW24175   4.639   0.865  14.427 -0.0937 -0.7133 -0.0982
 4180SOL    HW124176   4.546   0.867  14.448 -0.2450 -1.8633 -0.6460
 4180SOL    HW224177   4.672   0.808  14.497 -0.1712  1.2061  1.4995
 4181SOL     OW24178   0.954   0.985   9.955 -0.3055  0.5767 -0.2844
 4181SOL    HW124179   0.998   0.944  10.029 -0.0747  0.5664 -0.4285
 4181SOL    HW224180   0.928   0.908   9.904  0.2999  0.5832 -0.6071
 4182SOL     OW24181   1.866   1.556   5.945 -0.1371  0.2007  0.4766
 4182SOL    HW124182   1.864   1.589   5.855  1.6320  1.1423  0.7775
 4182SOL    HW224183   1.776   1.570   5.975 -1.3127 -2.1921 -1.9244
 4183SOL     OW24184   2.040   2.207   7.899 -0.0363  0.3967  0.4407
 4183SOL    HW124185   2.029   2.227   7.806 -0.8645 -1.2964  0.1648
 4183SOL    HW224186   1.968   2.146   7.913 -0.6897  0.8831 -0.8223
 4184SOL     OW24187   3.788   1.809  11.009 -0.1969 -0.3575  0.7043
 4184SOL    HW124188   3.778   1.788  11.102  1.4991 -1.5820  0.6226
 4184SOL    HW224189   3.821   1.898  11.011 -0.6828 -0.1165 -1.7045
 4185SOL     OW24190   1.947   4.499   2.770  0.8545 -0.2662 -0.0137
 4185SOL    HW124191   1.981   4.535   2.688  0.5968  3.5911  1.5832
 4185SOL    HW224192   2.012   4.431   2.785  2.0951  1.4729  2.3807
 4186SOL     OW24193   2.368   1.828  11.719  0.4181  0.0173 -0.1352
 4186SOL    HW124194   2.276   1.829  11.692  0.4867 -0.0460 -0.3701
 4186SOL    HW224195   2.358   1.869  11.805 -1.3989  2.3841 -1.4768
 4187SOL     OW24196   2.147   0.172  16.460  0.0208  0.1308  0.1527
 4187SOL    HW124197   2.231   0.128  16.447 -0.3965 -0.1464 -1.5788
 4187SOL    HW224198   2.151   0.229  16.384  0.0325  0.2936  0.2758
 4188SOL     OW24199   2.511   0.754   4.160 -0.2688 -0.3727 -0.3949
 4188SOL    HW124200   2.473   0.762   4.248  0.4657 -0.2582 -0.0886
 4188SOL    HW224201   2.437   0.772   4.102 -0.4007  0.2685 -0.0226
 4189SOL     OW24202   4.083   2.658   3.257 -0.1970  0.0216  0.1514
 4189SOL    HW124203   4.146   2.726   3.235 -0.3172  0.1702  0.2625
 4189SOL    HW224204   4.060   2.627   3.170  0.4111 -1.3225  0.4705
 4190SOL     OW24205   1.943   1.035   0.407 -0.3192  0.0825  0.1221
 4190SOL    HW124206   1.886   1.112   0.401 -0.5089 -0.0005  0.7835
 4190SOL    HW224207   1.955   1.023   0.501  1.3753 -1.4104 -0.2863
 4191SOL     OW24208   2.820   0.160  10.175  0.5486 -0.1596 -0.6455
 4191SOL    HW124209   2.734   0.128  10.203  0.2725  0.7294 -0.4761
 4191SOL    HW224210   2.854   0.209  10.250  0.7852 -1.0877 -0.1443
 4192SOL     OW24211   0.621   0.540   3.449 -0.7013  0.2798  0.4289
 4192SOL    HW124212   0.574   0.514   3.369  1.2408 -1.1945 -0.2095
 4192SOL    HW224213   0.646   0.465   3.502  0.7324 -0.9195 -1.9724
 4193SOL     OW24214   1.210   1.014   3.622 -0.2346  0.0503  0.0257
 4193SOL    HW124215   1.257   1.097   3.615 -0.9284  0.6609  2.7400
 4193SOL    HW224216   1.155   1.029   3.545  0.4153 -0.6758 -0.5947
 4194SOL     OW24217   0.442   4.629   5.013 -0.5947 -0.1241  0.0245
 4194SOL    HW124218   0.466   4.576   5.089  3.0583  1.9365  0.2898
 4194SOL    HW224219   0.523   4.627   4.962 -0.0246  1.1935  0.8848
 4195SOL     OW24220   3.933   1.832  14.047 -0.8202 -0.3060  0.2090
 4195SOL    HW124221   4.020   1.793  14.052 -0.7186  0.0212  1.0182
 4195SOL    HW224222   3.920   1.855  14.139 -0.9141 -1.8323  0.5753
 4196SOL     OW24223   1.168   0.407  13.031  0.3247 -0.3352  0.5782
 4196SOL    HW124224   1.200   0.495  13.052 -1.1732  0.6423 -1.2034
 4196SOL    HW224225   1.112   0.435  12.958  3.2993  1.8304 -0.8567
 4197SOL     OW24226   1.865   2.476   4.952  0.6948  0.3840  0.0518
 4197SOL    HW124227   1.789   2.489   4.896 -0.4971  0.1737  1.6195
 4197SOL    HW224228   1.890   2.386   4.931  1.8170  1.0632 -1.5052
 4198SOL     OW24229   3.782   3.203   0.268  0.0654 -0.2125 -0.9334
 4198SOL    HW124230   3.831   3.128   0.236  1.0131 -0.4516  1.1441
 4198SOL    HW224231   3.696   3.161   0.278 -0.2571  1.1593  2.0687
 4199SOL     OW24232   1.719   3.133   1.518  0.1829  0.5395 -0.0477
 4199SOL    HW124233   1.664   3.174   1.584  2.7929  1.7361  1.3449
 4199SOL    HW224234   1.679   3.053   1.481  1.8436  1.8562 -4.6924
 4200SOL     OW24235   4.237   3.756   6.249 -0.2741  0.3956  0.7389
 4200SOL    HW124236   4.233   3.773   6.343  0.9719  1.7264  0.5606
 4200SOL    HW224237   4.330   3.748   6.227 -0.6108 -2.1138  0.3040
 4201SOL     OW24238   1.512   3.088   0.748  0.0004  0.0045 -0.3620
 4201SOL    HW124239   1.524   3.087   0.653 -0.8112 -2.4805 -0.4298
 4201SOL    HW224240   1.435   3.031   0.748  0.8381 -1.1445  0.7226
 4202SOL     OW24241   2.100   1.775   0.741  0.2414 -0.0175 -0.2353
 4202SOL    HW124242   2.120   1.720   0.665 -2.3976 -0.1963 -0.7742
 4202SOL    HW224243   2.112   1.720   0.818  0.9645  1.4970  0.7270
 4203SOL     OW24244   4.689   2.716   3.768  0.0222 -0.5959  0.4952
 4203SOL    HW124245   4.598   2.713   3.799 -0.1619  0.8274  0.0897
 4203SOL    HW224246   4.727   2.648   3.824 -1.0158 -1.2684  0.3891
 4204SOL     OW24247   3.269   0.876   6.071  0.0600  0.1038  0.0341
 4204SOL    HW124248   3.207   0.935   6.113  0.2042 -1.0676  1.8901
 4204SOL    HW224249   3.291   0.931   5.996  2.0234  1.2786  1.4762
 4205SOL     OW24250   0.042   2.374   5.560 -0.2784  0.5429 -0.0744
 4205SOL    HW124251   4.706   2.379   5.499 -1.4592 -3.1862  1.0441
 4205SOL    HW224252   0.025   2.444   5.622 -1.0914  2.2975 -2.2907
 4206SOL     OW24253   1.899   2.441   5.750  0.2474  0.6831  0.9168
 4206SOL    HW124254   1.979   2.480   5.785 -1.6467  1.8102  4.0289
 4206SOL    HW224255   1.918   2.448   5.656 -1.7349 -0.7216  0.4150
 4207SOL     OW24256   4.555   3.445   3.567  0.3420 -0.0784  0.1798
 4207SOL    HW124257   4.602   3.409   3.492  1.2436 -1.5320  1.4317
 4207SOL    HW224258   4.630   3.462   3.625  0.4170 -1.0322  0.3692
 4208SOL     OW24259   2.087   2.391   2.022  0.4044 -0.2756 -0.1187
 4208SOL    HW124260   2.115   2.433   1.941 -3.1602 -0.0481 -1.2755
 4208SOL    HW224261   2.101   2.297   2.006  0.1902 -0.4957  1.0327
 4209SOL     OW24262   1.920   3.198   8.556  0.6140  0.2729  0.0889
 4209SOL    HW124263   1.899   3.291   8.549 -1.2604 -0.0786  1.1772
 4209SOL    HW224264   1.895   3.174   8.645  1.7059 -1.7342 -0.1515
 4210SOL     OW24265   1.551   0.017   2.182 -0.5989  0.0689  0.4365
 4210SOL    HW124266   1.613   0.060   2.241 -0.1455  0.1021 -0.0635
 4210SOL    HW224267   1.465   0.041   2.216 -0.8838  0.2728 -0.4240
 4211SOL     OW24268   3.994   2.279  10.980  0.1322  0.4497 -0.1191
 4211SOL    HW124269   3.955   2.201  11.021 -1.5587  0.9311 -0.7910
 4211SOL    HW224270   3.918   2.337  10.978 -0.5288 -0.3736  0.8512
 4212SOL     OW24271   4.643   0.436   3.885 -0.0750  0.5878 -0.2995
 4212SOL    HW124272   4.724   0.437   3.833 -0.5885  2.1465 -1.0877
 4212SOL    HW224273   4.647   0.349   3.925  0.5045 -0.5051 -2.7089
 4213SOL     OW24274   4.330   4.102   7.886  0.6262  0.2590  0.1431
 4213SOL    HW124275   4.238   4.078   7.894 -0.0046  2.5326 -0.1662
 4213SOL    HW224276   4.361   4.013   7.901 -1.2055 -0.2297  1.0731
 4214SOL     OW24277   0.033   4.515  13.476 -0.4454 -0.1918  0.0887
 4214SOL    HW124278   4.688   4.552  13.443 -0.4991  0.5878  1.1177
 4214SOL    HW224279   0.006   4.455  13.545 -0.2757 -0.4437 -0.0610
 4215SOL     OW24280   4.520   3.579   4.764  0.1556  0.1614  0.3282
 4215SOL    HW124281   4.541   3.630   4.842  0.8680 -0.2635  0.4138
 4215SOL    HW224282   4.471   3.651   4.724 -1.2656 -1.0988 -0.1907
 4216SOL     OW24283   1.245   0.913  14.562 -0.1562  0.2705 -0.5723
 4216SOL    HW124284   1.161   0.913  14.608 -0.2345  0.7328 -0.7151
 4216SOL    HW224285   1.305   0.949  14.626  0.8558 -1.8158 -0.3420
 4217SOL     OW24286   4.216   4.022   8.784 -0.2418 -0.5335  0.0244
 4217SOL    HW124287   4.133   3.994   8.745  0.1484 -0.1705 -1.0652
 4217SOL    HW224288   4.193   4.077   8.859 -0.7724 -0.9501  0.1709
 4218SOL     OW24289   4.628   0.231  13.920  0.7654  0.1360 -0.3757
 4218SOL    HW124290   4.676   0.209  13.840  2.9338 -0.0083  0.9834
 4218SOL    HW224291   4.601   0.321  13.903 -1.2333  0.0054  2.2783
 4219SOL     OW24292   4.403   4.511   9.938 -0.1747 -0.1929  0.6240
 4219SOL    HW124293   4.410   4.606   9.949 -1.8214  0.0454 -0.2472
 4219SOL    HW224294   4.362   4.489  10.021  1.3949 -0.6507  1.2721
 4220SOL     OW24295   1.027   0.385   8.933  0.4083 -0.2850 -0.5902
 4220SOL    HW124296   0.964   0.406   8.864 -0.0326 -0.2744 -0.1749
 4220SOL    HW224297   1.007   0.296   8.961 -3.0429  1.3784  2.1540
 4221SOL     OW24298   1.638   0.057   8.146  0.1466 -0.2422 -0.4003
 4221SOL    HW124299   1.714   0.038   8.091  0.4528  1.1201 -0.4491
 4221SOL    HW224300   1.682   0.033   8.227  0.0927  0.5311 -0.1324
 4222SOL     OW24301   0.697   0.230   4.302 -0.4543  0.0078 -0.4660
 4222SOL    HW124302   0.645   0.170   4.355 -1.1853  0.2030 -0.9673
 4222SOL    HW224303   0.763   0.257   4.366 -0.6879 -1.6528  0.4523
 4223SOL     OW24304   3.801   2.938   8.367 -0.0510  0.0864 -0.1775
 4223SOL    HW124305   3.872   2.922   8.306  0.5972 -1.7185  1.0364
 4223SOL    HW224306   3.838   2.956   8.453  1.0702 -1.5755 -0.3199
 4224SOL     OW24307   1.371   4.233   7.784  0.3823  0.0974 -0.2134
 4224SOL    HW124308   1.344   4.290   7.856  3.1784  2.2677 -0.8684
 4224SOL    HW224309   1.296   4.174   7.782  0.6672 -0.3120  1.0819
 4225SOL     OW24310   0.018   0.312   5.340  0.5296 -0.5557 -0.6034
 4225SOL    HW124311   4.663   0.293   5.323  0.6547 -2.0692  0.4306
 4225SOL    HW224312   0.041   0.361   5.260 -0.2672  1.2200  0.2596
 4226SOL     OW24313   0.719   1.023   6.604 -0.4875 -0.0395  0.1452
 4226SOL    HW124314   0.667   0.943   6.598  0.2626 -0.7158  2.7153
 4226SOL    HW224315   0.810   0.991   6.605 -0.5095 -0.0749  1.4251
 4227SOL     OW24316   3.744   2.770   4.152 -0.3986  0.1241  0.3326
 4227SOL    HW124317   3.801   2.843   4.128 -0.7146 -0.2235 -1.4953
 4227SOL    HW224318   3.661   2.786   4.107  0.5724 -0.3519 -1.6052
 4228SOL     OW24319   1.568   4.680   2.853 -0.7009  0.3617 -0.4781
 4228SOL    HW124320   1.482   4.707   2.885 -1.6562 -0.7807 -2.0753
 4228SOL    HW224321   1.560   4.588   2.880  0.2662  0.4864  0.2118
 4229SOL     OW24322   1.386   3.040   6.024 -0.7015  0.5828 -0.1031
 4229SOL    HW124323   1.343   3.125   6.025 -0.9178  0.4688  0.2597
 4229SOL    HW224324   1.429   3.068   5.943  0.5448 -1.7801 -0.2608
 4230SOL     OW24325   0.134   3.212   9.172 -0.0362 -0.0439 -0.0813
 4230SOL    HW124326   0.106   3.235   9.084 -0.8510 -1.1069 -0.0972
 4230SOL    HW224327   0.160   3.122   9.153 -2.3460 -0.8747  0.7376
 4231SOL     OW24328   4.538   1.876   4.605 -0.0013 -0.0509  0.0885
 4231SOL    HW124329   4.599   1.806   4.628  1.5204  0.3472 -2.7595
 4231SOL    HW224330   4.535   1.851   4.513 -2.1501 -0.2105  0.1910
 4232SOL     OW24331   0.607   1.742  10.482  0.1036 -0.6541  0.0419
 4232SOL    HW124332   0.634   1.663  10.435 -0.8100 -0.0646 -1.4713
 4232SOL    HW224333   0.605   1.715  10.574 -0.3744  1.8433  0.7833
 4233SOL     OW24334   0.132   4.264   4.388  0.1806 -0.4642 -0.4099
 4233SOL    HW124335   0.188   4.259   4.467  0.2517 -1.5170 -0.5179
 4233SOL    HW224336   0.083   4.342   4.412 -2.3474 -2.4006  0.7209
 4234SOL     OW24337   3.224   0.660   8.691  0.1119 -0.8392 -0.5623
 4234SOL    HW124338   3.240   0.746   8.730 -0.2323 -0.2284 -1.7732
 4234SOL    HW224339   3.179   0.677   8.608 -1.5153 -1.6716  0.1494
 4235SOL     OW24340   1.993   1.664  11.530 -0.3940 -0.2885  0.6384
 4235SOL    HW124341   2.021   1.755  11.537 -1.6988  0.3463 -2.1985
 4235SOL    HW224342   2.013   1.630  11.617 -0.9457 -1.7294  0.2014
 4236SOL     OW24343   0.003   1.435   5.471  0.0778 -0.3480  0.6457
 4236SOL    HW124344   4.715   1.413   5.560 -0.6356  0.3523  0.6118
 4236SOL    HW224345   0.046   1.518   5.492  0.3551  0.0583 -1.4802
 4237SOL     OW24346   2.903   1.662   3.205 -0.3408 -0.5401 -0.0114
 4237SOL    HW124347   2.878   1.648   3.296  2.0693 -0.9748  0.5638
 4237SOL    HW224348   2.892   1.756   3.194 -2.5897 -1.1818 -3.3824
 4238SOL     OW24349   0.114   3.364   7.414  0.0013  0.2649  0.0714
 4238SOL    HW124350   0.129   3.279   7.373 -0.1068  1.3796 -2.2819
 4238SOL    HW224351   0.115   3.423   7.338  0.4769  0.3604  0.1546
 4239SOL     OW24352   0.035   4.071   7.538  0.2320  0.2759  0.0918
 4239SOL    HW124353   0.075   4.117   7.465 -1.5427 -1.3912 -1.9515
 4239SOL    HW224354   4.721   4.002   7.495 -1.2687  0.9231  0.8198
 4240SOL     OW24355   1.768   1.622   8.612 -0.0674 -0.1299  0.5256
 4240SOL    HW124356   1.842   1.646   8.667 -0.6791  1.0038  0.8670
 4240SOL    HW224357   1.758   1.528   8.621  0.4718 -0.2719 -0.3247
 4241SOL     OW24358   0.097   4.073   7.802 -0.3890 -0.2716  0.4685
 4241SOL    HW124359   0.058   4.067   7.715 -0.1237  1.4371  0.2236
 4241SOL    HW224360   0.176   4.115   7.767 -1.8841  1.1780 -1.1386
 4242SOL     OW24361   1.786   1.736   7.896 -0.2931 -0.2432 -0.6199
 4242SOL    HW124362   1.866   1.694   7.926 -0.3780 -0.0663 -0.1544
 4242SOL    HW224363   1.824   1.823   7.880  0.7306 -0.5295  0.2806
 4243SOL     OW24364   3.023   1.697  14.791 -0.7201 -0.0943 -0.0627
 4243SOL    HW124365   3.076   1.774  14.772 -0.5203 -0.3641 -0.5979
 4243SOL    HW224366   3.043   1.678  14.883  2.3411 -2.4372 -1.1895
 4244SOL     OW24367   4.022   0.409   4.913 -0.3495  0.2515  0.2188
 4244SOL    HW124368   4.080   0.389   4.839 -0.3586  0.4027  0.1702
 4244SOL    HW224369   3.975   0.475   4.862 -0.4157  1.7099  2.1664
 4245SOL     OW24370   2.886   0.695  17.247 -0.1378 -0.0566 -0.2723
 4245SOL    HW124371   2.903   0.784  17.277  0.4388  0.2050 -1.3890
 4245SOL    HW224372   2.824   0.675  17.318 -1.2606  0.0138 -1.2200
 4246SOL     OW24373   1.799   0.369  10.447 -0.2387 -0.0867  0.6145
 4246SOL    HW124374   1.777   0.414  10.528 -0.5765 -0.6509  0.8391
 4246SOL    HW224375   1.874   0.410  10.404  0.2317 -0.9864  0.5730
 4247SOL     OW24376   0.386   1.803   1.242 -0.4780 -0.0578  0.6018
 4247SOL    HW124377   0.448   1.831   1.174  0.2073 -0.1763  1.1779
 4247SOL    HW224378   0.354   1.715   1.225 -0.4566 -0.4003  2.3231
 4248SOL     OW24379   4.135   2.132  13.362 -0.0982 -0.3326 -0.4860
 4248SOL    HW124380   4.206   2.168  13.415 -0.7130  1.1129 -0.6553
 4248SOL    HW224381   4.060   2.145  13.420  1.2015 -1.1798  1.4091
 4249SOL     OW24382   3.216   1.094   1.041  0.4706  0.5157  0.3610
 4249SOL    HW124383   3.162   1.020   1.069 -0.7853  1.0033 -0.7823
 4249SOL    HW224384   3.305   1.066   1.061  0.5146 -1.2352 -2.2071
 4250SOL     OW24385   0.835   0.756   9.866 -0.4471 -0.2507  0.0254
 4250SOL    HW124386   0.837   0.721   9.955 -2.3515 -0.5395 -0.0511
 4250SOL    HW224387   0.758   0.812   9.864 -0.2034  0.0205 -1.7702
 4251SOL     OW24388   0.756   0.834  16.708  0.0116  0.3626 -0.2646
 4251SOL    HW124389   0.773   0.916  16.662 -0.4899  0.1004 -0.9311
 4251SOL    HW224390   0.724   0.789  16.630 -0.8658 -1.1186  0.9466
 4252SOL     OW24391   0.793   3.737  12.344 -0.0009 -0.0744 -0.5594
 4252SOL    HW124392   0.779   3.779  12.429 -2.1551 -0.6172 -0.6501
 4252SOL    HW224393   0.760   3.648  12.349  1.6775 -0.6873 -0.2819
 4253SOL     OW24394   0.619   4.697   2.267  0.2949  0.0877 -0.5395
 4253SOL    HW124395   0.628   4.626   2.203 -0.9958 -0.0958 -0.5352
 4253SOL    HW224396   0.703   0.004   2.269  0.4175 -0.1225 -1.0927
 4254SOL     OW24397   3.897   1.277  15.178  0.0068 -0.0396 -0.1790
 4254SOL    HW124398   3.893   1.320  15.263 -1.1631 -2.0374  0.7587
 4254SOL    HW224399   3.902   1.189  15.215 -0.9079 -1.1372 -2.6667
 4255SOL     OW24400   0.223   0.129  17.103  0.0926  0.3880  0.3278
 4255SOL    HW124401   0.221   0.072  17.026 -0.7490  0.8333  0.0133
 4255SOL    HW224402   0.140   0.111  17.147 -0.1951 -2.2674 -1.3290
 4256SOL     OW24403   0.582   2.431   3.624  0.3567 -0.3107 -0.3317
 4256SOL    HW124404   0.623   2.380   3.694  2.0864 -0.0433 -1.1448
 4256SOL    HW224405   0.618   2.389   3.545 -0.0907  0.0299 -0.7168
 4257SOL     OW24406   0.207   1.243   9.605 -0.0209 -0.4623  0.1487
 4257SOL    HW124407   0.254   1.220   9.525  1.0124 -0.9042  0.8780
 4257SOL    HW224408   0.195   1.157   9.644  0.8484 -0.0857  1.2502
 4258SOL     OW24409   4.278   2.526   9.927 -0.0575  0.4386  0.5660
 4258SOL    HW124410   4.237   2.577   9.997 -0.7385  1.3295 -0.4971
 4258SOL    HW224411   4.271   2.437   9.961  0.0867  0.0527 -0.4086
 4259SOL     OW24412   0.892   2.174  10.293 -0.1776 -0.0465  0.0323
 4259SOL    HW124413   0.948   2.141  10.223  1.7256  0.8174  1.1674
 4259SOL    HW224414   0.937   2.257  10.303 -0.9022  0.1609  1.5958
 4260SOL     OW24415   2.485   1.451  10.338 -0.5122  0.1227 -0.1611
 4260SOL    HW124416   2.472   1.452  10.432 -0.2557 -1.4742 -0.1056
 4260SOL    HW224417   2.576   1.480  10.335 -1.1909  2.1843 -1.3209
 4261SOL     OW24418   3.631   4.061  17.545 -0.4392  0.3397 -1.0283
 4261SOL    HW124419   3.543   4.098  17.544 -1.4082 -1.9220  0.1529
 4261SOL    HW224420   3.651   4.078  17.637 -3.4971 -1.6614  0.0162
 4262SOL     OW24421   1.102   3.237   8.355  0.2058  0.6104  0.1221
 4262SOL    HW124422   1.185   3.195   8.332 -0.4014 -0.5766  0.1227
 4262SOL    HW224423   1.114   3.274   8.443  1.1894 -0.0903  0.2849
 4263SOL     OW24424   0.561   1.276   0.729 -0.5927 -0.4256  0.2194
 4263SOL    HW124425   0.557   1.371   0.739  1.8839 -0.1327 -1.5891
 4263SOL    HW224426   0.481   1.260   0.678 -1.1916  0.1091  0.9984
 4264SOL     OW24427   1.912   2.256   6.557  0.0895 -0.5246 -0.3548
 4264SOL    HW124428   1.836   2.234   6.502  0.6809 -0.6674 -1.1221
 4264SOL    HW224429   1.873   2.252   6.644  1.0977 -0.6928  0.0874
 4265SOL     OW24430   3.178   1.873   1.108 -0.0484 -0.0675  0.0433
 4265SOL    HW124431   3.254   1.901   1.159 -0.1907  1.9220 -0.8330
 4265SOL    HW224432   3.162   1.790   1.153  2.1545 -1.1768 -1.2453
 4266SOL     OW24433   4.194   3.335  13.720  0.1443 -0.9045  0.2290
 4266SOL    HW124434   4.285   3.358  13.700 -0.1891  1.1699  1.0373
 4266SOL    HW224435   4.141   3.407  13.685  2.7215  1.2809  0.7609
 4267SOL     OW24436   3.673   3.997   4.755 -0.2712  0.5450  0.1755
 4267SOL    HW124437   3.750   4.034   4.798 -0.5962 -0.9283  2.0344
 4267SOL    HW224438   3.631   3.963   4.834  2.1439 -1.2489  0.6860
 4268SOL     OW24439   3.900   4.059   5.402 -0.3262  0.7868 -0.8041
 4268SOL    HW124440   3.942   4.128   5.350  0.2415  0.5502 -0.6581
 4268SOL    HW224441   3.806   4.069   5.384 -0.8383  0.0161  1.4605
 4269SOL     OW24442   3.346   1.641   9.293  0.2786  0.1437 -0.6586
 4269SOL    HW124443   3.360   1.569   9.231 -1.2690 -0.4123 -0.3633
 4269SOL    HW224444   3.430   1.680   9.318 -0.8653  1.0382  1.7457
 4270SOL     OW24445   2.990   2.504  13.653 -0.1308 -0.5178  0.2924
 4270SOL    HW124446   2.920   2.481  13.713 -0.1586 -2.6382 -0.5441
 4270SOL    HW224447   3.043   2.562  13.708 -1.1495  3.3744 -2.8236
 4271SOL     OW24448   0.590   1.576   4.286 -0.2091  0.2627 -0.1266
 4271SOL    HW124449   0.665   1.563   4.229 -0.1371 -0.8667  0.2308
 4271SOL    HW224450   0.549   1.489   4.288  0.1922  0.1339  2.9582
 4272SOL     OW24451   1.437   2.891   1.849  0.2243 -0.2242  0.1522
 4272SOL    HW124452   1.342   2.908   1.849 -0.2836 -3.0869 -0.2137
 4272SOL    HW224453   1.450   2.903   1.755 -3.2649  1.0839 -0.1731
 4273SOL     OW24454   0.551   4.145   3.687  0.2199  0.3916 -0.0159
 4273SOL    HW124455   0.467   4.188   3.674 -0.1820 -0.2543  0.4460
 4273SOL    HW224456   0.537   4.078   3.620  1.1455  2.6492 -2.4489
 4274SOL     OW24457   3.309   3.340   9.277 -0.1595  0.0087 -0.3312
 4274SOL    HW124458   3.321   3.420   9.225 -0.1271  0.3756  0.2411
 4274SOL    HW224459   3.343   3.278   9.213 -0.2711 -2.3061  1.8524
 4275SOL     OW24460   1.526   3.009  10.246 -0.2858  0.6787 -0.5793
 4275SOL    HW124461   1.465   3.022  10.173 -0.9270  2.6011  0.3004
 4275SOL    HW224462   1.603   3.056  10.215 -0.0569 -0.5353 -1.8393
 4276SOL     OW24463   0.940   3.785   7.629 -0.3468 -0.0080  0.1399
 4276SOL    HW124464   0.846   3.778   7.610 -0.1226 -1.2793 -0.5296
 4276SOL    HW224465   0.959   3.705   7.679 -0.0731  0.1212  0.2375
 4277SOL     OW24466   3.536   3.852   3.132 -0.5925  0.0643 -0.4252
 4277SOL    HW124467   3.519   3.787   3.063 -1.1999  1.1476 -1.2946
 4277SOL    HW224468   3.629   3.868   3.117 -0.1140 -1.0210  1.3865
 4278SOL     OW24469   1.777   0.278  11.581  0.0100  0.3752  0.1823
 4278SOL    HW124470   1.700   0.304  11.632  0.1871 -0.7600  1.0280
 4278SOL    HW224471   1.836   0.249  11.650  1.2890  0.5252 -0.8412
 4279SOL     OW24472   3.970   2.957   6.601  0.2472 -0.5939  0.4136
 4279SOL    HW124473   3.963   2.873   6.557 -2.4991  1.0870 -2.3545
 4279SOL    HW224474   3.985   3.022   6.533 -0.7640  0.8208  1.5319
 4280SOL     OW24475   0.732   0.026   9.005  0.4950  0.0892 -0.6095
 4280SOL    HW124476   0.720   4.668   9.002 -0.0235  0.1560 -0.7072
 4280SOL    HW224477   0.643   0.052   9.030  0.5545  0.7397 -1.0562
 4281SOL     OW24478   1.685   3.395  14.184  0.0614  0.1021 -0.5318
 4281SOL    HW124479   1.595   3.379  14.155 -0.1913  0.3888  0.0951
 4281SOL    HW224480   1.665   3.427  14.272  0.1648  0.8065 -0.7677
 4282SOL     OW24481   4.604   3.396  12.556  0.3374  1.0827  0.1863
 4282SOL    HW124482   4.601   3.489  12.576 -0.5365  1.1291 -0.1358
 4282SOL    HW224483   4.612   3.357  12.643 -0.6894 -0.1024 -0.2442
 4283SOL     OW24484   0.550   1.225   6.648 -0.1650 -0.0209  1.0601
 4283SOL    HW124485   0.601   1.146   6.628 -1.6890 -0.6463 -0.3803
 4283SOL    HW224486   0.626   1.282   6.643 -0.0434 -0.3659 -1.3234
 4284SOL     OW24487   4.156   4.490   5.203  0.1744  0.0465  0.3216
 4284SOL    HW124488   4.125   4.400   5.214 -1.6295  0.6133 -0.1870
 4284SOL    HW224489   4.213   4.488   5.126 -3.3738  0.4169 -2.3164
 4285SOL     OW24490   3.225   2.521   8.930 -0.1359  0.2292 -0.3748
 4285SOL    HW124491   3.165   2.459   8.889  0.0327  0.4160 -0.9094
 4285SOL    HW224492   3.172   2.560   8.999  0.0031 -0.5201  0.1559
 4286SOL     OW24493   2.440   1.972  11.930 -0.4951 -0.0604  0.0318
 4286SOL    HW124494   2.498   2.046  11.946 -1.5665  0.9780 -0.9403
 4286SOL    HW224495   2.500   1.898  11.938 -0.4434 -0.1411 -1.2536
 4287SOL     OW24496   2.196   0.479   9.096 -0.3150  0.2061  0.2107
 4287SOL    HW124497   2.222   0.404   9.043  0.4599  2.3760 -2.4784
 4287SOL    HW224498   2.221   0.457   9.185  0.0932  2.5868  0.6660
 4288SOL     OW24499   3.449   1.216   0.520 -0.1810 -0.2514 -0.0825
 4288SOL    HW124500   3.542   1.234   0.508 -0.3532  0.8345  0.2655
 4288SOL    HW224501   3.411   1.298   0.552 -1.6617 -0.8953 -0.2102
 4289SOL     OW24502   2.060   3.911  15.289 -0.0530  0.0242  0.0104
 4289SOL    HW124503   2.139   3.856  15.289 -0.0372  0.0514  0.3178
 4289SOL    HW224504   2.095   3.987  15.242 -0.2188  0.7648  1.1081
 4290SOL     OW24505   2.080   1.940  17.407 -0.1261  0.1421 -0.5617
 4290SOL    HW124506   2.025   2.015  17.385  0.7797  0.8944 -0.2281
 4290SOL    HW224507   2.051   1.920  17.496  1.6068 -4.1660 -0.9688
 4291SOL     OW24508   1.088   0.687   6.358 -0.2439 -0.1475 -0.0034
 4291SOL    HW124509   1.003   0.648   6.340  1.1999 -2.1725 -2.3130
 4291SOL    HW224510   1.078   0.770   6.311  0.4666 -0.2418 -0.3176
 4292SOL     OW24511   1.252   2.081   8.768  0.1305  0.2361 -0.4485
 4292SOL    HW124512   1.265   2.147   8.836  0.6258 -0.7405  0.4044
 4292SOL    HW224513   1.252   2.001   8.820 -2.3406  1.3888  1.3303
 4293SOL     OW24514   0.492   1.277   4.279 -0.1774 -0.3739 -0.5923
 4293SOL    HW124515   0.587   1.271   4.262  0.0854  0.7091  0.5663
 4293SOL    HW224516   0.451   1.282   4.193 -1.0359  0.1798 -0.1406
 4294SOL     OW24517   3.296   1.018   1.836 -0.4890  0.4931 -0.0130
 4294SOL    HW124518   3.268   1.109   1.828 -0.7639  0.5248  1.3621
 4294SOL    HW224519   3.321   0.979   1.752  1.7198  0.6931  0.5696
 4295SOL     OW24520   1.287   0.658   5.033  0.0988 -0.1352  0.1699
 4295SOL    HW124521   1.291   0.747   4.999 -2.1072  0.8010  2.4070
 4295SOL    HW224522   1.370   0.626   4.996 -1.6427 -0.2453 -3.6355
 4296SOL     OW24523   0.465   0.084  16.231 -0.0095  0.4282  1.1286
 4296SOL    HW124524   0.422   0.136  16.164 -1.6368  0.0186  1.8393
 4296SOL    HW224525   0.534   0.031  16.191 -2.6065 -1.4277 -0.9086
 4297SOL     OW24526   3.012   1.916   4.274 -0.4075  0.5091  0.6181
 4297SOL    HW124527   3.083   1.971   4.306  0.6740 -1.0502  0.8677
 4297SOL    HW224528   3.052   1.833   4.299  2.0972  1.6192  0.3174
 4298SOL     OW24529   3.416   3.691   4.175 -0.3082 -0.0252  0.4351
 4298SOL    HW124530   3.454   3.652   4.254  4.5146  2.1802 -0.7960
 4298SOL    HW224531   3.492   3.690   4.117  0.1555  1.9067  1.0195
 4299SOL     OW24532   3.547   3.633   6.930 -0.1645 -0.4362  0.4001
 4299SOL    HW124533   3.548   3.636   7.025  0.0286  1.0408  0.3598
 4299SOL    HW224534   3.481   3.700   6.910 -0.5675 -0.0047  3.2205
 4300SOL     OW24535   1.450   2.389  15.065  0.0421 -0.4977 -0.4597
 4300SOL    HW124536   1.407   2.474  15.070 -0.1864 -0.6732  0.4140
 4300SOL    HW224537   1.451   2.371  14.971  0.9725  0.4989 -0.6419
 4301SOL     OW24538   1.845   3.070   3.407  0.4340  0.2072 -0.3415
 4301SOL    HW124539   1.831   3.021   3.326 -0.3433 -0.6801  0.3469
 4301SOL    HW224540   1.862   3.159   3.373  2.1110 -0.9296 -2.5127
 4302SOL     OW24541   0.560   4.539   2.519 -0.2463 -0.2486 -0.3950
 4302SOL    HW124542   0.563   4.455   2.474 -1.9324 -0.8840  0.7150
 4302SOL    HW224543   0.563   4.608   2.452  1.8201  0.0378 -0.0027
 4303SOL     OW24544   1.753   2.317   4.300 -0.1472  0.4536  0.0251
 4303SOL    HW124545   1.845   2.330   4.280  0.0962  1.5356  1.8150
 4303SOL    HW224546   1.765   2.232   4.342 -0.4196 -1.0853 -3.0832
 4304SOL     OW24547   2.569   2.806   6.743  0.3159 -0.3337 -0.9543
 4304SOL    HW124548   2.534   2.881   6.791  3.7649 -0.4636  1.7210
 4304SOL    HW224549   2.595   2.843   6.659  1.1211 -0.8092 -0.9093
 4305SOL     OW24550   1.582   1.200   4.992  0.4111  0.2344  0.4486
 4305SOL    HW124551   1.635   1.243   5.059 -2.1732 -0.0757  2.7314
 4305SOL    HW224552   1.493   1.212   5.025  0.0627  1.1764 -0.8411
 4306SOL     OW24553   3.853   2.625   9.979  0.4236  0.0170 -0.1197
 4306SOL    HW124554   3.791   2.553   9.986 -1.9348  2.2056  1.2540
 4306SOL    HW224555   3.926   2.590  10.031 -0.3760  0.9897  1.6401
 4307SOL     OW24556   0.460   0.788   2.949  0.2462 -0.3140 -0.4201
 4307SOL    HW124557   0.539   0.838   2.972  0.3649 -1.2569  1.2763
 4307SOL    HW224558   0.406   0.845   2.895 -0.7150  0.7158  1.6207
 4308SOL     OW24559   2.295   0.716   9.025 -0.1985  0.2920  0.3127
 4308SOL    HW124560   2.280   0.623   9.042 -1.9407  0.3959 -0.7136
 4308SOL    HW224561   2.260   0.766   9.099 -0.8626  0.2099  0.0542
 4309SOL     OW24562   2.179   3.198   8.561  0.4939  0.2135 -0.1193
 4309SOL    HW124563   2.088   3.186   8.535 -0.4045  1.5997  2.3065
 4309SOL    HW224564   2.182   3.193   8.657 -0.2983  0.2664 -0.0929
 4310SOL     OW24565   0.318   1.934   5.541  0.5074  0.1365 -0.1633
 4310SOL    HW124566   0.261   1.905   5.470 -0.1163 -2.8699  1.6062
 4310SOL    HW224567   0.410   1.937   5.514  0.2823 -2.3304 -1.1673
 4311SOL     OW24568   0.274   2.998   7.478  0.1339 -0.2657 -0.2059
 4311SOL    HW124569   0.360   3.035   7.498 -0.0696  0.0270  0.1240
 4311SOL    HW224570   0.267   2.940   7.554 -0.2801  1.8222  1.3536
 4312SOL     OW24571   0.264   2.662   9.110  0.0844 -0.4211 -0.0284
 4312SOL    HW124572   0.300   2.574   9.098 -0.2727 -0.9549  2.8542
 4312SOL    HW224573   0.215   2.640   9.188  1.5588  2.0730  1.6083
 4313SOL     OW24574   0.555   2.514   7.761  0.0431 -0.2055 -0.3428
 4313SOL    HW124575   0.507   2.586   7.721  0.1246  0.9801  1.6664
 4313SOL    HW224576   0.505   2.438   7.729  0.3094 -0.3741 -0.3593
 4314SOL     OW24577   2.116   3.162   7.715 -0.0914 -0.3783  0.9428
 4314SOL    HW124578   2.146   3.237   7.768 -1.0456  0.5128  0.2253
 4314SOL    HW224579   2.164   3.173   7.633 -2.2794  0.7063 -0.1941
 4315SOL     OW24580   0.556   0.636   9.616  0.1685 -0.0325 -0.0440
 4315SOL    HW124581   0.637   0.585   9.609  0.2416 -0.1911  1.7694
 4315SOL    HW224582   0.551   0.638   9.712 -1.9030  0.6099 -0.1676
 4316SOL     OW24583   3.764   1.535   7.388 -0.3279  0.1737 -0.2331
 4316SOL    HW124584   3.705   1.470   7.425  1.5449 -0.8814  0.8949
 4316SOL    HW224585   3.758   1.503   7.298 -0.0127 -0.1425 -0.1425
 4317SOL     OW24586   0.571   0.713  11.644 -0.1898 -0.7999  0.1850
 4317SOL    HW124587   0.531   0.788  11.686  0.6174 -0.0034 -0.4547
 4317SOL    HW224588   0.642   0.760  11.599 -2.1082  1.8499 -0.0745
 4318SOL     OW24589   0.765   2.411  16.566  0.1946  0.2102 -0.4846
 4318SOL    HW124590   0.759   2.362  16.484  0.1316 -0.0996 -0.2946
 4318SOL    HW224591   0.698   2.382  16.627 -0.7690 -1.9180 -2.5613
 4319SOL     OW24592   4.615   1.961   3.695 -0.0839 -0.1046  0.1349
 4319SOL    HW124593   4.656   2.047   3.706 -0.9221  0.1944  0.9098
 4319SOL    HW224594   4.672   1.908   3.640 -1.0380 -0.4490 -0.5157
 4320SOL     OW24595   1.266   2.389   2.265 -0.6437  1.0500 -0.5112
 4320SOL    HW124596   1.189   2.399   2.209 -0.2055 -0.0337 -1.3080
 4320SOL    HW224597   1.332   2.386   2.195 -1.2077  0.3160 -1.0094
 4321SOL     OW24598   4.665   3.189   6.342 -0.1798 -0.2787 -0.1450
 4321SOL    HW124599   4.679   3.253   6.271 -0.8394 -0.2869 -0.2822
 4321SOL    HW224600   4.718   3.113   6.317  1.4432  0.6568  0.4313
 4322SOL     OW24601   4.257   0.594   7.414  0.4663  0.5351  0.0629
 4322SOL    HW124602   4.162   0.590   7.411  0.5392  1.1070 -2.9264
 4322SOL    HW224603   4.287   0.503   7.417  0.0615  0.3111 -2.7315
 4323SOL     OW24604   2.598   3.767   7.804  0.5401 -0.1325 -0.3185
 4323SOL    HW124605   2.549   3.703   7.855  1.6028  1.5149  2.7938
 4323SOL    HW224606   2.686   3.736   7.824  0.4512 -0.5620 -0.5882
 4324SOL     OW24607   1.969   1.777   3.573 -0.0661 -0.3464  0.3262
 4324SOL    HW124608   1.917   1.731   3.507 -1.4032  0.3143  0.9268
 4324SOL    HW224609   1.924   1.861   3.571  2.5110  1.0229 -0.6663
 4325SOL     OW24610   1.342   1.297  16.611  0.3777 -0.6247 -0.0495
 4325SOL    HW124611   1.368   1.288  16.703 -1.5786  0.9818  0.6455
 4325SOL    HW224612   1.351   1.390  16.590 -2.3117 -0.2954  0.2417
 4326SOL     OW24613   1.393   3.253   9.532  0.6679 -0.2871 -0.5217
 4326SOL    HW124614   1.421   3.300   9.611 -0.0068  1.0872 -1.1087
 4326SOL    HW224615   1.355   3.324   9.480 -0.7484  1.0527  2.3171
 4327SOL     OW24616   0.285   2.884   6.496 -0.6261 -0.4258 -0.7100
 4327SOL    HW124617   0.210   2.940   6.518 -2.0497 -1.8240 -1.9985
 4327SOL    HW224618   0.354   2.918   6.553  0.7053 -1.9400 -1.4037
 4328SOL     OW24619   4.002   1.862   4.716  0.3583  0.7031  0.0080
 4328SOL    HW124620   4.025   1.894   4.803  0.6396  1.5212 -0.3778
 4328SOL    HW224621   4.091   1.850   4.684  0.4147  1.1547  0.0006
 4329SOL     OW24622   3.620   2.071  17.352 -0.3379 -0.1647  0.4962
 4329SOL    HW124623   3.649   2.131  17.283  0.9793 -0.5060  0.7499
 4329SOL    HW224624   3.614   2.127  17.430  0.4146 -1.3404  1.3991
 4330SOL     OW24625   4.020   3.146   8.030  0.4722  0.0076  0.1319
 4330SOL    HW124626   4.056   3.067   7.990 -1.6991 -1.1164  0.3787
 4330SOL    HW224627   3.935   3.130   7.990  0.5079 -0.2903  0.1706
 4331SOL     OW24628   3.619   1.478   0.211 -0.1006 -0.0690 -0.0440
 4331SOL    HW124629   3.671   1.519   0.141  1.3810 -0.6419  0.7326
 4331SOL    HW224630   3.609   1.387   0.183  1.0320 -0.5559  1.1682
 4332SOL     OW24631   3.837   2.365   8.506 -0.5351 -0.3785 -0.1084
 4332SOL    HW124632   3.822   2.392   8.597  0.3072  0.5943 -0.2536
 4332SOL    HW224633   3.777   2.292   8.498 -0.5299 -0.6741  2.2946
 4333SOL     OW24634   0.884   3.885  11.777 -0.1970  0.3392  0.2233
 4333SOL    HW124635   0.968   3.860  11.739 -0.7867  2.0146 -2.1680
 4333SOL    HW224636   0.920   3.900  11.865  0.9566  0.2055 -0.2290
 4334SOL     OW24637   3.648   2.617   4.360 -0.3667 -0.4090 -0.2053
 4334SOL    HW124638   3.588   2.690   4.345  0.3316 -0.2526 -2.2328
 4334SOL    HW224639   3.711   2.623   4.289  0.3340 -0.5650  0.3966
 4335SOL     OW24640   2.384   2.391   2.786  0.5746  0.0710  0.0024
 4335SOL    HW124641   2.400   2.323   2.720  0.3387  0.0008  0.0185
 4335SOL    HW224642   2.296   2.410   2.753 -0.0322  0.9097  2.1294
 4336SOL     OW24643   2.660   2.956   6.516  0.1910 -0.1258  0.7370
 4336SOL    HW124644   2.743   2.967   6.564  1.4145 -2.8479 -0.7314
 4336SOL    HW224645   2.673   2.886   6.452  1.3480  0.6688  0.1053
 4337SOL     OW24646   0.737   1.550   7.057 -0.2027 -0.4069  0.4698
 4337SOL    HW124647   0.710   1.568   7.147 -2.3957 -4.1043  0.5552
 4337SOL    HW224648   0.660   1.562   7.001  1.6827  1.4650 -1.7348
 4338SOL     OW24649   1.710   3.180   4.960 -0.3868  0.0255 -0.4419
 4338SOL    HW124650   1.694   3.207   4.870 -1.1344 -0.8066 -0.5608
 4338SOL    HW224651   1.700   3.085   4.949 -0.5102  0.0914 -0.9052
 4339SOL     OW24652   2.413   0.349   7.974 -0.3484  0.4490 -0.0999
 4339SOL    HW124653   2.407   0.309   7.887 -2.3002  0.0666  0.2086
 4339SOL    HW224654   2.466   0.426   7.956 -0.4383  1.0384  2.2248
 4340SOL     OW24655   3.110   2.224  15.950  0.5442 -0.1225 -0.4131
 4340SOL    HW124656   3.041   2.228  16.016  2.1472 -0.0731  1.2598
 4340SOL    HW224657   3.130   2.317  15.940  1.3019 -0.1728  0.6083
 4341SOL     OW24658   1.618   2.606   6.368 -0.7595  0.8043 -0.0786
 4341SOL    HW124659   1.622   2.623   6.274 -0.4581 -1.3824 -0.4633
 4341SOL    HW224660   1.642   2.691   6.404  0.5342  0.1717  0.5469
 4342SOL     OW24661   2.947   1.720   7.066 -0.3249  0.2970  0.0911
 4342SOL    HW124662   2.862   1.705   7.025  0.3716 -0.6144 -1.0235
 4342SOL    HW224663   2.943   1.816   7.067 -0.2617  0.2936  0.5642
 4343SOL     OW24664   4.333   4.493   5.011 -0.6379 -0.0290  0.0966
 4343SOL    HW124665   4.359   4.489   4.919  0.6511  1.2512  0.3994
 4343SOL    HW224666   4.377   4.575   5.032  0.7916 -0.8639  0.3915
 4344SOL     OW24667   4.645   0.863   8.178 -0.1591  0.6762  0.3764
 4344SOL    HW124668   4.731   0.864   8.221 -0.3758 -2.2646  0.8256
 4344SOL    HW224669   4.601   0.811   8.244  2.0194 -0.2696  1.0893
 4345SOL     OW24670   4.631   3.637  15.461  0.3156 -0.2126 -0.2117
 4345SOL    HW124671   4.620   3.582  15.383 -2.6800 -0.3312  0.2691
 4345SOL    HW224672   4.659   3.725  15.434 -2.3499  0.6100 -0.3114
 4346SOL     OW24673   4.565   2.927   3.615  0.0922 -1.0939  0.7503
 4346SOL    HW124674   4.635   2.990   3.596 -0.6101 -0.2997  0.7930
 4346SOL    HW224675   4.614   2.870   3.674  2.0934 -1.0608 -0.8686
 4347SOL     OW24676   1.593   2.833   7.863 -0.0151 -0.6311 -0.0341
 4347SOL    HW124677   1.576   2.739   7.856  1.2646 -0.7775 -1.0425
 4347SOL    HW224678   1.688   2.821   7.861  0.0732 -0.3220  1.6829
 4348SOL     OW24679   0.310   1.596   9.071 -0.6680 -1.2428  0.8169
 4348SOL    HW124680   0.375   1.647   9.119 -0.7802 -0.0395 -0.3085
 4348SOL    HW224681   0.351   1.611   8.985 -2.2956  1.1150  0.4550
 4349SOL     OW24682   0.863   2.625   3.224 -0.0046  0.0938  0.1249
 4349SOL    HW124683   0.817   2.693   3.275  0.3072  0.2868  0.1477
 4349SOL    HW224684   0.836   2.648   3.135 -3.3720  0.6973  1.2825
 4350SOL     OW24685   3.960   0.263  16.077 -0.6218  0.3682  0.3825
 4350SOL    HW124686   3.997   0.261  15.989  1.5486 -0.0480  1.3065
 4350SOL    HW224687   3.972   0.357  16.094  0.2934  0.7172 -2.2326
 4351SOL     OW24688   0.290   2.837   6.885 -0.2968 -0.1842  0.1332
 4351SOL    HW124689   0.349   2.858   6.957  1.5448 -1.4606 -0.9992
 4351SOL    HW224690   0.276   2.742   6.889  1.2964 -0.4239 -0.3871
 4352SOL     OW24691   2.681   2.479   8.682  0.4695  0.4584  0.3666
 4352SOL    HW124692   2.753   2.457   8.623 -0.3279  1.5059 -1.0078
 4352SOL    HW224693   2.713   2.446   8.766  0.7832 -1.1131 -0.3554
 4353SOL     OW24694   1.499   4.366  15.325 -0.3928 -0.0147  0.1586
 4353SOL    HW124695   1.524   4.290  15.273 -0.6042 -0.2925  0.4608
 4353SOL    HW224696   1.581   4.376  15.374 -1.7648  1.5528  2.1625
 4354SOL     OW24697   3.886   4.268   6.018  0.1491  0.0242 -0.3782
 4354SOL    HW124698   3.923   4.352   6.047  2.7152 -1.1956 -0.1489
 4354SOL    HW224699   3.809   4.257   6.074  0.2313  0.0698 -0.2562
 4355SOL     OW24700   0.091   4.390   8.947 -0.2070 -0.3141  0.5782
 4355SOL    HW124701   0.014   4.443   8.967  0.3728  0.7381  0.0532
 4355SOL    HW224702   0.049   4.319   8.898 -0.5173 -0.5032  1.1205
 4356SOL     OW24703   3.891   3.590   2.151 -0.2665 -0.4234  0.2797
 4356SOL    HW124704   3.887   3.523   2.219  1.4700  0.4195  1.2175
 4356SOL    HW224705   3.806   3.563   2.115 -0.5177 -0.3001  0.7744
 4357SOL     OW24706   2.273   0.500   2.193 -0.4893  0.1359  0.2890
 4357SOL    HW124707   2.228   0.551   2.125 -0.8868  1.9603  1.9098
 4357SOL    HW224708   2.337   0.565   2.222  1.0168 -2.7729  3.4041
 4358SOL     OW24709   4.144   3.250   5.949  0.0621  0.0867  0.5138
 4358SOL    HW124710   4.223   3.287   5.989  0.0955 -0.1432  0.6577
 4358SOL    HW224711   4.173   3.255   5.857  0.9832  2.1115  0.8990
 4359SOL     OW24712   1.972   3.670  15.463 -0.3470 -0.1833  0.2501
 4359SOL    HW124713   1.981   3.762  15.439  3.2341 -0.6640 -0.4028
 4359SOL    HW224714   1.980   3.679  15.558 -1.0580 -0.3054  0.3155
 4360SOL     OW24715   4.486   3.253   7.359 -0.1632  0.4330  0.2081
 4360SOL    HW124716   4.505   3.259   7.265 -0.1660  1.6083  0.2785
 4360SOL    HW224717   4.502   3.164   7.388  2.2290  0.3842 -1.2104
 4361SOL     OW24718   2.482   3.447   6.770  0.6411  0.0922 -0.2858
 4361SOL    HW124719   2.566   3.485   6.747 -0.1149  0.2908 -2.6678
 4361SOL    HW224720   2.455   3.514   6.832  0.5463  0.0112 -0.2378
 4362SOL     OW24721   0.852   4.005   8.338  0.3514 -0.1179  0.2711
 4362SOL    HW124722   0.945   3.983   8.326 -0.0051 -1.4581  0.0198
 4362SOL    HW224723   0.808   3.960   8.266 -0.9137  1.2669  0.1894
 4363SOL     OW24724   3.100   2.665   2.035 -0.4459  0.4925 -0.6190
 4363SOL    HW124725   3.108   2.639   2.127  2.8079  1.1332 -0.7220
 4363SOL    HW224726   3.193   2.678   2.015 -0.4280 -0.0022 -0.8722
 4364SOL     OW24727   1.782   0.864   5.035  0.5050  0.3144  0.0509
 4364SOL    HW124728   1.771   0.769   5.039  0.6204  0.2471 -1.2033
 4364SOL    HW224729   1.713   0.893   4.975 -0.3738 -0.3423  0.7302
 4365SOL     OW24730   1.584   3.520   6.349 -0.8005  0.0980  0.1267
 4365SOL    HW124731   1.666   3.474   6.365  0.0541  1.3690 -0.5536
 4365SOL    HW224732   1.567   3.493   6.259  3.8220 -0.9938 -0.4185
 4366SOL     OW24733   2.658   4.638  11.312 -0.1946  0.2711  0.0747
 4366SOL    HW124734   2.609   4.641  11.230  1.6733  0.5019 -1.0352
 4366SOL    HW224735   2.594   4.582  11.356  0.9724 -0.5477  0.7284
 4367SOL     OW24736   4.068   1.519   3.489  0.5669 -0.5486 -0.3914
 4367SOL    HW124737   4.144   1.576   3.497  1.2661 -1.5188 -0.1223
 4367SOL    HW224738   4.047   1.496   3.580 -1.4702  0.5687 -0.5887
 4368SOL     OW24739   1.777   0.877  16.462  0.1538  0.3774 -0.0112
 4368SOL    HW124740   1.796   0.793  16.503 -0.8108  0.2929  0.2628
 4368SOL    HW224741   1.767   0.937  16.536 -0.8168 -1.1715  1.1041
 4369SOL     OW24742   2.744   1.241  11.393 -0.1947 -0.2861  0.0296
 4369SOL    HW124743   2.710   1.323  11.358 -1.4832  0.2388  2.4896
 4369SOL    HW224744   2.762   1.265  11.484 -0.9541  1.2493 -0.2283
 4370SOL     OW24745   2.141   0.953   4.177  0.2419  0.1898 -0.5533
 4370SOL    HW124746   2.150   0.912   4.262  0.0834 -2.1376 -1.6568
 4370SOL    HW224747   2.071   1.014   4.197  0.3134  0.2891 -0.6016
 4371SOL     OW24748   0.624   1.169  14.442  1.3541  0.3103 -0.6493
 4371SOL    HW124749   0.636   1.111  14.368 -1.2160 -0.8043 -0.2093
 4371SOL    HW224750   0.712   1.202  14.461  1.3068 -0.6601  1.3008
 4372SOL     OW24751   2.548   0.283   2.563 -0.0149 -0.2630  0.2264
 4372SOL    HW124752   2.554   0.286   2.468  0.9213 -0.7624  0.2726
 4372SOL    HW224753   2.537   0.190   2.581 -1.3556 -0.4583 -1.5819
 4373SOL     OW24754   0.293   4.657   4.096  0.2096 -0.5268 -0.2940
 4373SOL    HW124755   0.249   4.683   4.015 -0.0079  1.7323  0.5676
 4373SOL    HW224756   0.386   4.669   4.078 -0.0977  1.2536 -0.6548
 4374SOL     OW24757   3.739   1.228   0.468  0.5257 -0.1211  0.6068
 4374SOL    HW124758   3.813   1.223   0.408  1.0887 -0.7534  1.3451
 4374SOL    HW224759   3.777   1.211   0.554  0.9557 -0.5282  0.3358
 4375SOL     OW24760   3.895   1.641   5.713  0.1644  0.4544 -0.3401
 4375SOL    HW124761   3.812   1.685   5.732 -0.5139 -0.8937 -0.1944
 4375SOL    HW224762   3.955   1.675   5.778 -1.1553  2.5081 -0.1986
 4376SOL     OW24763   2.773   0.450   5.844 -0.7201  0.1193 -0.3224
 4376SOL    HW124764   2.783   0.435   5.938 -1.1526  2.0840  0.0333
 4376SOL    HW224765   2.798   0.367   5.805 -0.3401  0.3560 -0.5822
 4377SOL     OW24766   2.488   1.842   9.235 -0.4594 -0.5314 -0.3083
 4377SOL    HW124767   2.516   1.827   9.326 -0.7255 -1.6973 -0.4174
 4377SOL    HW224768   2.562   1.806   9.187  0.3021  1.4662 -0.6249
 4378SOL     OW24769   3.377   3.738   5.657 -0.1391  0.0256  0.0197
 4378SOL    HW124770   3.460   3.701   5.625 -0.3358 -0.8194  0.4565
 4378SOL    HW224771   3.375   3.708   5.748  0.3069 -0.4807 -0.1329
 4379SOL     OW24772   0.901   2.331   6.680 -0.7902  0.3535  0.2442
 4379SOL    HW124773   0.980   2.315   6.629 -0.4307 -0.5988  1.0958
 4379SOL    HW224774   0.866   2.406   6.633 -2.9998 -0.4723  0.5705
 4380SOL     OW24775   2.600   0.925   7.436  0.6704 -0.0912  0.9592
 4380SOL    HW124776   2.533   0.965   7.491  0.1804  1.0373 -0.4611
 4380SOL    HW224777   2.650   1.005   7.416 -1.9339  0.8914 -1.6080
 4381SOL     OW24778   0.882   0.624   7.453 -0.2609 -0.1746 -0.4830
 4381SOL    HW124779   0.905   0.657   7.540 -0.0045 -0.1368 -0.5647
 4381SOL    HW224780   0.789   0.641   7.437 -0.1455  0.4419 -0.4957
 4382SOL     OW24781   2.823   0.570   4.623 -0.2244  0.1329 -0.2961
 4382SOL    HW124782   2.786   0.491   4.663  0.0458  0.6237  0.9180
 4382SOL    HW224783   2.802   0.550   4.532 -1.9100  0.7132 -0.0453
 4383SOL     OW24784   2.729   3.249   6.163 -0.3593 -0.1781 -0.8197
 4383SOL    HW124785   2.707   3.334   6.201  1.3207 -0.0783 -0.0607
 4383SOL    HW224786   2.810   3.238   6.213  0.0790 -1.1311 -1.7357
 4384SOL     OW24787   4.174   2.625   5.146  0.6259 -0.2443  0.6068
 4384SOL    HW124788   4.200   2.572   5.221  0.3812 -0.7831  0.3111
 4384SOL    HW224789   4.233   2.700   5.153 -1.6653  1.5337  1.1495
 4385SOL     OW24790   1.857   3.745   5.284 -0.3171 -0.2111  0.1980
 4385SOL    HW124791   1.793   3.700   5.229 -0.9787  1.8081 -0.6668
 4385SOL    HW224792   1.927   3.679   5.284 -1.3234 -1.2925 -2.0858
 4386SOL     OW24793   1.196   3.225   7.349 -0.2330  0.4218 -0.0475
 4386SOL    HW124794   1.178   3.297   7.288 -1.2190  1.5728  1.5849
 4386SOL    HW224795   1.131   3.253   7.414  0.8796  2.1129  0.3640
 4387SOL     OW24796   4.407   3.662  12.396 -0.0664  0.3468  0.3171
 4387SOL    HW124797   4.415   3.572  12.429 -1.9480 -0.2422 -0.8617
 4387SOL    HW224798   4.378   3.700  12.479 -2.4998  1.1418 -0.9013
 4388SOL     OW24799   0.688   1.097   6.921  0.3867 -0.1466 -0.0605
 4388SOL    HW124800   0.705   1.079   6.828 -0.6616  1.0579 -0.4857
 4388SOL    HW224801   0.743   1.172   6.945  1.1042 -0.5626 -0.4169
 4389SOL     OW24802   3.843   4.692   8.712 -0.3335  0.0670  0.2746
 4389SOL    HW124803   3.766   0.004   8.684  0.5912  0.4701 -1.5459
 4389SOL    HW224804   3.834   4.684   8.807 -3.1455  0.8949  0.0709
 4390SOL     OW24805   1.243   2.187   1.552  0.3003 -0.3958 -0.0345
 4390SOL    HW124806   1.222   2.252   1.486 -0.7944  1.2170  1.9020
 4390SOL    HW224807   1.167   2.133   1.531 -0.7572  0.7012  0.9872
 4391SOL     OW24808   0.028   2.582   8.087 -0.3103  0.0652 -0.5903
 4391SOL    HW124809   4.692   2.525   8.063 -1.0169  0.4857  0.5489
 4391SOL    HW224810   0.092   2.557   8.021  0.6673 -1.1501  0.8137
 4392SOL     OW24811   3.764   0.745  17.698 -0.1606  0.3564 -0.3870
 4392SOL    HW124812   3.799   0.663  17.732  1.1706  0.5847 -1.1931
 4392SOL    HW224813   3.677   0.718  17.670 -0.2005 -0.8977  0.9793
 4393SOL     OW24814   2.014   0.388   8.401 -0.2898  0.1793  1.0623
 4393SOL    HW124815   2.094   0.440   8.387  1.0353 -1.3514  2.9376
 4393SOL    HW224816   1.950   0.458   8.390  1.1939  1.7271  2.3459
 4394SOL     OW24817   0.387   0.216   8.551 -0.0698  0.3706  0.3640
 4394SOL    HW124818   0.316   0.266   8.510 -0.1449  0.8132  1.0441
 4394SOL    HW224819   0.340   0.184   8.628 -1.0680 -2.3790 -1.3531
 4395SOL     OW24820   2.457   3.730  14.842 -0.4276 -0.2123  0.5274
 4395SOL    HW124821   2.507   3.702  14.919  0.7282  0.2176 -0.0660
 4395SOL    HW224822   2.369   3.698  14.865 -0.0751 -1.0672  0.6870
 4396SOL     OW24823   2.882   1.770  12.383  0.3421 -0.4343  0.0967
 4396SOL    HW124824   2.873   1.728  12.469 -1.7986  1.5061  0.8117
 4396SOL    HW224825   2.966   1.816  12.390 -0.4190  1.2298 -1.7403
 4397SOL     OW24826   0.260   4.613   2.972 -0.1267  0.1080 -0.4212
 4397SOL    HW124827   0.178   4.607   2.924 -1.4601 -1.0569  1.9988
 4397SOL    HW224828   0.315   4.589   2.898 -0.2638  2.2375 -1.2079
 4398SOL     OW24829   2.967   0.884  15.145  0.1067 -0.5530 -0.0195
 4398SOL    HW124830   3.029   0.914  15.079 -0.7649 -1.9636 -1.4745
 4398SOL    HW224831   3.010   0.907  15.227 -0.1675 -0.2721  0.0485
 4399SOL     OW24832   3.280   4.474   7.703 -0.2186 -0.5110 -0.1903
 4399SOL    HW124833   3.194   4.481   7.663  1.4941  1.9972 -3.4222
 4399SOL    HW224834   3.335   4.484   7.625  0.9051 -3.2118  0.2496
 4400SOL     OW24835   2.641   3.972   4.652 -0.2550  0.2045  0.1238
 4400SOL    HW124836   2.547   3.954   4.655 -0.2684 -0.0962 -2.2228
 4400SOL    HW224837   2.639   4.067   4.639  1.5131  0.1598 -0.4940
 4401SOL     OW24838   1.367   4.078   3.743  0.0331  0.3936  0.1811
 4401SOL    HW124839   1.424   4.038   3.808 -0.3337  1.2111  0.9922
 4401SOL    HW224840   1.383   4.171   3.759  0.8912  0.1293  0.8501
 4402SOL     OW24841   0.302   1.734  10.445  0.2214 -0.7137  0.0285
 4402SOL    HW124842   0.226   1.685  10.474  0.7786 -2.5458 -1.6908
 4402SOL    HW224843   0.295   1.801  10.513 -2.8516 -0.7138 -0.2991
 4403SOL     OW24844   4.109   1.755   5.837 -1.2272  0.3201  0.2946
 4403SOL    HW124845   4.071   1.777   5.922  0.1842  0.6350  0.8509
 4403SOL    HW224846   4.201   1.735   5.859 -0.0683  3.2646 -1.8241
 4404SOL     OW24847   0.184   3.293   8.372 -0.4822  0.2326 -0.2713
 4404SOL    HW124848   0.210   3.385   8.363  0.1541 -0.0717 -1.5241
 4404SOL    HW224849   0.146   3.279   8.286  1.0989  0.3913 -0.9982
 4405SOL     OW24850   0.457   2.428   6.380  0.1554 -0.3924 -0.2623
 4405SOL    HW124851   0.378   2.479   6.400 -0.5728 -1.6091 -0.0609
 4405SOL    HW224852   0.454   2.367   6.454  0.3802  1.3549  1.1946
 4406SOL     OW24853   0.838   0.903   4.304  0.8967 -0.2096  0.1935
 4406SOL    HW124854   0.778   0.874   4.236 -0.8425  2.3370  0.6627
 4406SOL    HW224855   0.825   0.839   4.374 -1.0858  2.0098  1.8671
 4407SOL     OW24856   2.906   0.261   7.813 -0.0284  0.2206  0.4665
 4407SOL    HW124857   2.998   0.280   7.833  0.7503  0.4403 -3.3132
 4407SOL    HW224858   2.854   0.338   7.834 -2.6158 -1.0866 -1.1930
 4408SOL     OW24859   1.275   4.504   5.468  0.0531  0.1149  0.1079
 4408SOL    HW124860   1.369   4.490   5.474  0.3945  1.4057 -1.9438
 4408SOL    HW224861   1.257   4.535   5.557  0.0122  0.1708  0.0806
 4409SOL     OW24862   1.419   3.631   8.088  0.3035 -0.4309  0.6684
 4409SOL    HW124863   1.384   3.691   8.023 -0.4244 -0.6451  0.8590
 4409SOL    HW224864   1.358   3.556   8.086 -0.2255  0.0012  0.4977
 4410SOL     OW24865   3.945   0.629  13.272 -0.3274 -0.5989  0.2005
 4410SOL    HW124866   3.916   0.596  13.357  1.1873 -0.7096  0.6854
 4410SOL    HW224867   3.994   0.549  13.253 -0.4469  0.1761 -3.3870
 4411SOL     OW24868   3.880   4.670  10.669  0.6824 -1.2537 -0.5451
 4411SOL    HW124869   3.888   4.576  10.648  1.8543 -1.1122 -0.7334
 4411SOL    HW224870   3.788   4.691  10.651  0.4893 -1.1831  0.5090
 4412SOL     OW24871   3.185   3.713   4.372 -0.3990  0.1610 -0.1286
 4412SOL    HW124872   3.248   3.721   4.300  0.2667 -0.9261  0.3169
 4412SOL    HW224873   3.232   3.714   4.456 -0.9488 -0.1057  0.1815
 4413SOL     OW24874   3.101   0.069   7.288 -0.9740 -0.4877 -0.6368
 4413SOL    HW124875   3.104   4.717   7.255  0.5873 -1.0687  1.0553
 4413SOL    HW224876   3.154   0.112   7.220 -0.4864 -0.0841 -0.0045
 4414SOL     OW24877   2.646   0.645   3.119 -0.1892  0.0749 -0.8469
 4414SOL    HW124878   2.734   0.663   3.153  0.2862  0.6667 -2.4242
 4414SOL    HW224879   2.615   0.735   3.124  0.0836  0.1097  0.4198
 4415SOL     OW24880   2.944   4.265   3.869 -0.3058  0.0712  0.5097
 4415SOL    HW124881   3.009   4.228   3.809 -0.3147 -1.8774  1.6828
 4415SOL    HW224882   2.908   4.185   3.908  1.7791 -0.6259  0.9941
 4416SOL     OW24883   1.896   1.492  14.656  0.0356  0.4675  0.4319
 4416SOL    HW124884   1.902   1.439  14.576 -1.7603 -0.4978  0.9535
 4416SOL    HW224885   1.819   1.548  14.655 -0.1596  0.2112  1.4113
 4417SOL     OW24886   1.986   1.404   9.584 -0.6200 -0.0649  0.5532
 4417SOL    HW124887   2.031   1.409   9.668 -0.7535 -1.2079  0.6942
 4417SOL    HW224888   1.964   1.495   9.566 -2.0458 -0.5943 -0.4257
 4418SOL     OW24889   0.954   2.303   8.950  0.2172 -0.0868  0.6474
 4418SOL    HW124890   0.929   2.211   8.939  0.0732 -0.2704  2.4672
 4418SOL    HW224891   0.906   2.329   9.029  0.1066 -0.4415  0.6965
 4419SOL     OW24892   0.734   0.693   4.105 -0.3940  0.1392  0.5019
 4419SOL    HW124893   0.811   0.667   4.155 -0.0207 -0.9002 -0.6004
 4419SOL    HW224894   0.685   0.611   4.113  0.0239 -0.1038  0.5529
 4420SOL     OW24895   0.600   1.241   9.686 -1.0848 -0.0787  0.5626
 4420SOL    HW124896   0.610   1.214   9.777  0.5561 -1.0385  0.1021
 4420SOL    HW224897   0.632   1.165   9.637 -1.8504 -0.2228  0.2841
 4421SOL     OW24898   4.496   1.836   2.604 -0.2796 -0.2706  0.3203
 4421SOL    HW124899   4.496   1.815   2.511  1.0097 -1.3239  0.5599
 4421SOL    HW224900   4.590   1.841   2.625 -0.7176  0.6289  2.0948
 4422SOL     OW24901   2.980   3.360   3.780 -0.5483  0.2188  0.0149
 4422SOL    HW124902   3.010   3.393   3.695 -2.4947  1.9442 -0.0006
 4422SOL    HW224903   3.063   3.338   3.823 -0.3026  1.1072 -0.0222
 4423SOL     OW24904   0.707   1.069   5.940 -0.4293 -0.1539 -0.2948
 4423SOL    HW124905   0.735   1.107   6.024  1.0917 -0.9816 -0.4325
 4423SOL    HW224906   0.684   0.980   5.963  2.0572 -0.1950  2.0314
 4424SOL     OW24907   3.360   4.513  10.633 -0.2000  0.4196  0.1067
 4424SOL    HW124908   3.289   4.519  10.570 -0.2733  0.9819  0.2488
 4424SOL    HW224909   3.313   4.523  10.716  0.1348 -0.9362  0.4634
 4425SOL     OW24910   0.075   0.824  17.088  0.0730  0.1407  0.0297
 4425SOL    HW124911   0.130   0.863  17.156  2.0507 -2.7679  0.0862
 4425SOL    HW224912   0.065   0.892  17.021 -0.8205 -0.9042 -0.8912
 4426SOL     OW24913   4.033   3.469   2.579 -0.0422 -0.1927  0.4918
 4426SOL    HW124914   4.036   3.382   2.539 -1.4194 -0.6852  1.4703
 4426SOL    HW224915   3.938   3.475   2.592  0.0071  0.1257  0.7207
 4427SOL     OW24916   3.236   0.709  13.822 -0.0811  0.1481  0.1961
 4427SOL    HW124917   3.165   0.757  13.865  0.1237  0.7777 -0.1797
 4427SOL    HW224918   3.265   0.642  13.884 -0.8476 -0.2853  0.0812
 4428SOL     OW24919   1.757   0.875   0.171  0.1993 -0.0913 -0.2881
 4428SOL    HW124920   1.814   0.942   0.133 -0.4509 -1.4455 -3.7271
 4428SOL    HW224921   1.779   0.867   0.263 -1.4732 -1.1413  0.0260
 4429SOL     OW24922   1.559   3.168  13.305 -0.0628  0.5903  0.4095
 4429SOL    HW124923   1.539   3.076  13.320  0.0886  0.2888 -1.2186
 4429SOL    HW224924   1.648   3.182  13.337  0.5828 -0.1281 -1.0677
 4430SOL     OW24925   0.983   3.186   9.385 -0.3853  0.9340 -0.5623
 4430SOL    HW124926   1.061   3.199   9.331 -0.7503 -0.1287 -1.3425
 4430SOL    HW224927   0.908   3.194   9.325 -1.5516 -0.1361  0.7694
 4431SOL     OW24928   3.496   0.248  17.058 -0.3864 -0.0246 -0.8428
 4431SOL    HW124929   3.505   0.332  17.102 -0.6881 -1.1174  1.3105
 4431SOL    HW224930   3.406   0.222  17.077  0.5480 -1.4565  1.6763
 4432SOL     OW24931   3.559   3.222   8.667 -0.1374 -0.6178  0.5514
 4432SOL    HW124932   3.487   3.165   8.642  1.5053 -1.6423 -1.9379
 4432SOL    HW224933   3.518   3.291   8.719  0.3306  1.7154 -2.1557
 4433SOL     OW24934   0.222   2.065   2.958 -0.3402 -0.2498 -0.0306
 4433SOL    HW124935   0.277   1.987   2.970 -0.7738 -0.7390 -1.2613
 4433SOL    HW224936   0.251   2.110   2.879  0.1392 -2.9821 -1.4093
 4434SOL     OW24937   4.000   2.910  17.313  0.4147  0.2991 -0.3138
 4434SOL    HW124938   3.905   2.903  17.302  0.2832  1.6360 -0.0356
 4434SOL    HW224939   4.010   2.995  17.357  0.5294  0.1835 -0.1178
 4435SOL     OW24940   2.568   1.864  10.327  0.0640 -0.1485 -0.1043
 4435SOL    HW124941   2.636   1.807  10.290  0.1338  0.6260 -1.1717
 4435SOL    HW224942   2.565   1.932  10.260  0.4003 -0.0331  0.0019
 4436SOL     OW24943   2.194   2.564   3.450  0.5578 -0.0092  0.1824
 4436SOL    HW124944   2.188   2.595   3.540  1.2626 -1.7447  0.8189
 4436SOL    HW224945   2.276   2.514   3.452  0.4356 -0.1445  1.6507
 4437SOL     OW24946   4.363   2.428   8.851 -0.7743 -0.1767  0.4104
 4437SOL    HW124947   4.346   2.419   8.757  0.3070 -0.7585  0.2647
 4437SOL    HW224948   4.431   2.496   8.846 -1.0238  0.1544  1.5652
 4438SOL     OW24949   2.302   0.025   6.228 -0.3526 -0.2276 -0.2678
 4438SOL    HW124950   2.380   4.709   6.209  0.3063  1.2293 -1.6203
 4438SOL    HW224951   2.233   4.697   6.222  0.1095 -0.8107  0.7625
 4439SOL     OW24952   1.421   0.281   3.346 -0.3780  0.2607 -0.8544
 4439SOL    HW124953   1.460   0.200   3.377 -0.2477  0.6321 -0.0690
 4439SOL    HW224954   1.385   0.256   3.260 -2.7202 -0.3820  0.3289
 4440SOL     OW24955   4.484   2.183   7.262  0.0638 -0.4296 -0.4023
 4440SOL    HW124956   4.451   2.158   7.176  0.3016  2.6592 -1.3928
 4440SOL    HW224957   4.399   2.169   7.304 -0.0965  2.1855  0.1449
 4441SOL     OW24958   1.310   0.142   6.943 -0.3606 -0.0715  0.8964
 4441SOL    HW124959   1.351   0.056   6.951 -2.1824 -1.2061 -1.7874
 4441SOL    HW224960   1.385   0.186   6.904 -2.0565  2.2747  0.2562
 4442SOL     OW24961   3.887   4.399   9.494  0.8929  0.3953  0.6046
 4442SOL    HW124962   3.848   4.434   9.415  1.7111 -1.0009 -0.4268
 4442SOL    HW224963   3.826   4.425   9.563 -0.8905  0.7914 -1.1246
 4443SOL     OW24964   2.875   1.851   1.723  0.0633 -0.3858  0.5478
 4443SOL    HW124965   2.920   1.865   1.806  0.2451  1.9651  0.0479
 4443SOL    HW224966   2.929   1.781   1.688 -0.3509 -0.4283 -0.0108
 4444SOL     OW24967   3.812   2.655   7.800  0.2085 -0.2698  0.2827
 4444SOL    HW124968   3.857   2.662   7.885  0.8114 -0.3065 -0.0331
 4444SOL    HW224969   3.735   2.709   7.817  0.6481 -0.1205  1.8483
 4445SOL     OW24970   3.041   3.837   5.130  0.9781  0.2466 -0.0347
 4445SOL    HW124971   3.044   3.743   5.115  0.4075  0.1060  0.7780
 4445SOL    HW224972   3.091   3.873   5.056 -1.0284  0.4882 -1.2678
 4446SOL     OW24973   1.963   1.381   8.853 -0.5829 -0.2319  0.6693
 4446SOL    HW124974   1.991   1.345   8.937  1.8102 -0.8239 -0.3902
 4446SOL    HW224975   1.884   1.330   8.836 -1.6066  1.5438  0.0894
 4447SOL     OW24976   3.189   1.719   1.930 -0.1829 -0.0482  0.0804
 4447SOL    HW124977   3.268   1.758   1.968 -1.0492  1.3637  0.4086
 4447SOL    HW224978   3.122   1.784   1.950  0.8589  1.5207 -1.4567
 4448SOL     OW24979   0.534   1.431  12.228  0.0310  0.5982 -0.1180
 4448SOL    HW124980   0.487   1.476  12.157 -1.8184 -1.4285 -0.2127
 4448SOL    HW224981   0.622   1.466  12.220  0.5929 -0.3530  1.9318
 4449SOL     OW24982   3.724   3.776   1.353 -0.5411  0.2093 -0.0448
 4449SOL    HW124983   3.732   3.868   1.326  0.3502 -0.9029 -3.5761
 4449SOL    HW224984   3.690   3.737   1.273 -0.0895 -0.3498  0.0353
 4450SOL     OW24985   4.001   4.205  14.363 -0.1408  0.0121 -0.0243
 4450SOL    HW124986   3.933   4.273  14.354 -1.7918 -1.2262  2.7882
 4450SOL    HW224987   4.081   4.257  14.357 -0.3533 -0.1484 -3.7814
 4451SOL     OW24988   2.955   4.132   5.539  0.2198  0.0492 -0.5748
 4451SOL    HW124989   2.995   4.072   5.476  0.7683 -1.7317  1.4616
 4451SOL    HW224990   3.021   4.201   5.548  0.5177 -0.3200  0.0641
 4452SOL     OW24991   4.446   2.655   9.003 -0.1935  0.3015 -0.4184
 4452SOL    HW124992   4.408   2.583   9.054 -1.6127 -0.1509 -2.1227
 4452SOL    HW224993   4.370   2.687   8.955 -0.3705 -0.4885 -0.6641
 4453SOL     OW24994   4.286   3.446   5.280 -0.2346 -0.2468 -0.2046
 4453SOL    HW124995   4.209   3.394   5.256 -0.5221 -0.6176  1.5251
 4453SOL    HW224996   4.316   3.472   5.193 -0.2721  3.5949  0.9150
 4454SOL     OW24997   2.905   4.304   9.256  0.0382 -0.4075 -0.2676
 4454SOL    HW124998   2.955   4.222   9.252  0.8220  0.0062  1.1003
 4454SOL    HW224999   2.969   4.375   9.248 -0.3072  0.0250  0.8344
 4455SOL     OW25000   0.625   3.498   6.350  0.3166  0.1856  0.0007
 4455SOL    HW125001   0.708   3.452   6.339 -0.4244 -1.1603 -0.0503
 4455SOL    HW225002   0.648   3.551   6.426  1.7183  0.5013 -0.6563
 4456SOL     OW25003   0.971   0.918   5.005 -0.4074  0.0940 -0.1145
 4456SOL    HW125004   0.879   0.895   5.000 -0.2566 -0.6564  0.6063
 4456SOL    HW225005   1.018   0.874   4.934 -2.0307 -0.8286 -0.6149
 4457SOL     OW25006   2.383   4.024   6.158  0.4862  0.2351  0.1932
 4457SOL    HW125007   2.293   4.007   6.185  0.2537  1.8832  0.4806
 4457SOL    HW225008   2.363   4.106   6.112  0.7464  0.6775  0.8680
 4458SOL     OW25009   0.272   4.553  17.725 -0.2707  0.2941 -0.0766
 4458SOL    HW125010   0.326   4.568  17.647  0.1033 -0.8554 -0.0396
 4458SOL    HW225011   0.185   4.557  17.687 -1.0485  2.3345  1.9611
 4459SOL     OW25012   0.595   0.874   1.322  0.0799  0.2211 -0.0007
 4459SOL    HW125013   0.532   0.896   1.390 -0.3302 -2.0484  0.3591
 4459SOL    HW225014   0.553   0.791   1.297  0.4785  0.7442 -2.4521
 4460SOL     OW25015   2.433   0.402   6.613  0.3585 -0.8764 -0.3255
 4460SOL    HW125016   2.394   0.391   6.699  0.1891 -3.1070 -0.6817
 4460SOL    HW225017   2.388   0.337   6.559  0.0338 -0.3873 -0.6457
 4461SOL     OW25018   0.003   1.006   6.200 -0.7978 -0.4552  0.2308
 4461SOL    HW125019   4.646   0.990   6.200 -0.8814  0.0232  1.0062
 4461SOL    HW225020   0.029   0.941   6.265  2.1074  0.6746  0.2108
 4462SOL     OW25021   4.016   4.309  12.430 -0.1788 -0.1961 -0.1309
 4462SOL    HW125022   3.985   4.399  12.436 -0.8524 -0.4198 -0.2061
 4462SOL    HW225023   4.030   4.287  12.522  0.2035 -0.7487 -0.3137
 4463SOL     OW25024   0.139   2.125  17.281 -0.6801 -0.3089 -0.4200
 4463SOL    HW125025   0.179   2.042  17.253  0.2824  0.1242 -0.3274
 4463SOL    HW225026   0.144   2.110  17.375 -2.5902 -1.9939 -0.5915
 4464SOL     OW25027   2.557   0.926   5.976  0.3334  0.5379  0.2281
 4464SOL    HW125028   2.647   0.955   5.988  0.6967 -0.9561  1.1133
 4464SOL    HW225029   2.507   0.999   6.012 -0.0256  1.0027 -1.2207
 4465SOL     OW25030   3.489   2.565   2.718  0.0776 -0.2016  0.6672
 4465SOL    HW125031   3.552   2.619   2.766 -0.0261 -1.5051  2.2317
 4465SOL    HW225032   3.465   2.502   2.786 -0.7482 -0.9588 -0.3239
 4466SOL     OW25033   4.285   3.544   9.643 -0.2461  0.0844  0.0387
 4466SOL    HW125034   4.308   3.606   9.573  1.3284  0.4862  0.9130
 4466SOL    HW225035   4.195   3.526   9.618 -1.2210  2.0877  2.0650
 4467SOL     OW25036   4.427   3.292  12.779 -0.4488  0.5414 -0.0105
 4467SOL    HW125037   4.432   3.322  12.870 -0.3240  1.0202 -0.1726
 4467SOL    HW225038   4.477   3.211  12.792 -0.0601  0.6980 -0.5281
 4468SOL     OW25039   0.572   0.370   0.166  0.0873  0.1859 -0.0171
 4468SOL    HW125040   0.662   0.402   0.169  0.2295 -0.2327  0.1424
 4468SOL    HW225041   0.556   0.355   0.072  0.8318 -1.8589  0.1814
 4469SOL     OW25042   1.982   4.457  12.872  0.1221  0.0559 -0.2231
 4469SOL    HW125043   1.916   4.426  12.809 -1.8915  0.2101  1.8493
 4469SOL    HW225044   1.948   4.404  12.944  0.9722  0.8215  0.7341
 4470SOL     OW25045   1.247   2.094   5.982  0.3489 -0.2773  0.5597
 4470SOL    HW125046   1.191   2.051   6.047 -1.6413  1.4736  0.0330
 4470SOL    HW225047   1.305   2.139   6.043 -1.2226 -0.0161  1.8581
 4471SOL     OW25048   2.227   3.606   7.975 -0.2482 -0.2884  0.2882
 4471SOL    HW125049   2.277   3.633   8.052  2.0765  0.1135 -1.3710
 4471SOL    HW225050   2.138   3.607   8.010 -0.0679 -1.7573  0.7705
 4472SOL     OW25051   3.909   1.373   1.611 -0.7580  0.1241 -0.0887
 4472SOL    HW125052   3.916   1.361   1.706 -0.8536  2.6376  0.2412
 4472SOL    HW225053   3.826   1.333   1.588 -0.0406 -0.9704 -0.7512
 4473SOL     OW25054   2.676   4.147   1.869  0.0842 -0.1101 -0.2893
 4473SOL    HW125055   2.712   4.232   1.893 -1.4694  0.3215  0.5542
 4473SOL    HW225056   2.720   4.129   1.787 -0.4806  0.0123 -0.6202
 4474SOL     OW25057   1.243   2.543   6.748 -0.3207  0.8710  0.5684
 4474SOL    HW125058   1.188   2.507   6.677 -0.5398  0.3964  0.9809
 4474SOL    HW225059   1.309   2.475   6.757  0.1373  1.7547  3.7783
 4475SOL     OW25060   3.245   4.563   5.452 -0.2761 -0.0412 -0.0733
 4475SOL    HW125061   3.213   4.578   5.541 -2.0492 -3.5720 -0.1121
 4475SOL    HW225062   3.322   4.620   5.451 -0.7267  0.5361 -1.5299
 4476SOL     OW25063   2.715   2.072   7.647  0.2622  0.5681  0.6440
 4476SOL    HW125064   2.707   2.162   7.680  0.0338  1.0831 -0.8159
 4476SOL    HW225065   2.810   2.061   7.642 -0.2052 -2.3275 -1.9821
 4477SOL     OW25066   4.692   0.224  10.144  0.0829 -0.0911 -0.0071
 4477SOL    HW125067   4.605   0.203  10.178  0.9190  0.1333  2.3274
 4477SOL    HW225068   4.724   0.134  10.136  0.7495  0.3468 -2.1195
 4478SOL     OW25069   2.391   0.122   3.101 -0.1618  0.2038  0.4411
 4478SOL    HW125070   2.367   0.031   3.117 -1.6640  0.5853  0.4428
 4478SOL    HW225071   2.314   0.163   3.061  0.5080 -0.7065 -1.7694
 4479SOL     OW25072   4.586   3.710   3.745  0.0425 -1.0210  0.7040
 4479SOL    HW125073   4.525   3.783   3.738  3.1256  1.5238  0.2448
 4479SOL    HW225074   4.525   3.643   3.774  0.4037 -2.4695 -1.8536
 4480SOL     OW25075   1.547   3.488   9.005  0.4638 -0.2676  0.7446
 4480SOL    HW125076   1.601   3.502   8.927  1.1653  0.7731  1.4235
 4480SOL    HW225077   1.497   3.569   9.012 -0.2311 -0.7564  1.5060
 4481SOL     OW25078   2.264   3.202   9.270  0.0363 -0.3020  0.3981
 4481SOL    HW125079   2.238   3.285   9.310  1.9020  0.9244 -0.8781
 4481SOL    HW225080   2.184   3.165   9.233 -0.4655  2.3218 -1.2248
 4482SOL     OW25081   0.817   3.078   9.646  0.2314 -0.2246  0.2998
 4482SOL    HW125082   0.789   3.009   9.586 -0.7967  2.0012 -1.7924
 4482SOL    HW225083   0.884   3.102   9.581  0.0390  0.8331  0.4979
 4483SOL     OW25084   3.620   0.597  15.350 -0.0107  0.1812  0.3386
 4483SOL    HW125085   3.633   0.582  15.257 -0.9280 -0.0617  0.2481
 4483SOL    HW225086   3.568   0.678  15.361  0.8412  0.7618  0.0653
 4484SOL     OW25087   2.062   3.327   4.529 -0.3577  0.2075 -0.5809
 4484SOL    HW125088   2.057   3.267   4.604  0.7933  0.0215 -0.6527
 4484SOL    HW225089   2.157   3.332   4.522 -0.2033 -0.2792  1.2157
 4485SOL     OW25090   0.730   1.030  16.956  0.4084  0.5464 -0.1629
 4485SOL    HW125091   0.807   0.993  16.913 -1.0958  1.0157 -3.2774
 4485SOL    HW225092   0.765   1.095  17.016  0.9548 -0.1466  0.2636
 4486SOL     OW25093   1.112   3.797   2.064 -0.4539 -0.5175 -0.2746
 4486SOL    HW125094   1.031   3.847   2.067 -0.4903 -0.6147  0.3251
 4486SOL    HW225095   1.116   3.762   1.975 -1.5509  0.1561 -0.5883
 4487SOL     OW25096   0.086   0.247  10.934  0.2427  0.7383  0.2776
 4487SOL    HW125097   0.092   0.343  10.930  2.7741  0.4491 -2.9453
 4487SOL    HW225098   0.091   0.227  10.841 -1.7287  1.8379 -0.0613
 4488SOL     OW25099   1.933   2.676   9.467  0.0873 -0.4468  0.0909
 4488SOL    HW125100   1.904   2.702   9.380 -0.1298  2.0590  0.9120
 4488SOL    HW225101   1.883   2.740   9.518  0.0304 -1.6983  1.6187
 4489SOL     OW25102   0.072   0.528  16.755  0.1227  0.1753 -0.1961
 4489SOL    HW125103   0.070   0.433  16.762  0.0099  0.0016 -2.8751
 4489SOL    HW225104   0.156   0.548  16.715  1.0371 -3.7616 -0.1846
 4490SOL     OW25105   2.810   1.292   1.685 -0.3847 -0.0977  0.6696
 4490SOL    HW125106   2.774   1.223   1.741  0.4220 -0.9759  0.1211
 4490SOL    HW225107   2.735   1.319   1.632  0.2002 -1.9099 -1.0935
 4491SOL     OW25108   2.924   2.426   8.570 -0.2921 -0.1636 -0.1672
 4491SOL    HW125109   2.960   2.378   8.644 -0.2050  0.4230  0.1755
 4491SOL    HW225110   2.978   2.506   8.570 -0.5899  0.0348  0.3112
 4492SOL     OW25111   2.029   4.168   5.491  0.8814  0.8507  0.2389
 4492SOL    HW125112   2.009   4.111   5.566 -0.7533  2.0932  0.7548
 4492SOL    HW225113   2.033   4.101   5.422  0.5830 -0.0917  1.1217
 4493SOL     OW25114   1.100   2.727   2.661 -0.3048  0.0211  0.3186
 4493SOL    HW125115   1.194   2.712   2.650 -0.3192 -0.5849  0.9841
 4493SOL    HW225116   1.102   2.808   2.712  1.7954 -0.4297  0.9660
 4494SOL     OW25117   1.362   4.055  11.486  0.2780  0.1218  0.0388
 4494SOL    HW125118   1.394   4.144  11.474 -0.5129  0.1543 -1.7066
 4494SOL    HW225119   1.271   4.071  11.511 -0.5203  0.9618 -3.4619
 4495SOL     OW25120   0.926   1.451  10.285  0.9127 -0.8812  0.0280
 4495SOL    HW125121   0.984   1.523  10.260  0.5116 -0.4581  0.3133
 4495SOL    HW225122   0.991   1.387  10.312  0.7946 -1.4669 -1.1091
 4496SOL     OW25123   0.045   2.728   3.014 -0.1632  0.0215  0.8152
 4496SOL    HW125124   0.022   2.799   3.074 -0.3882 -1.0961  2.0253
 4496SOL    HW225125   0.020   2.775   2.934  3.0226 -1.2345 -0.9170
 4497SOL     OW25126   2.423   1.217   9.351 -0.6885 -0.2789 -0.2291
 4497SOL    HW125127   2.426   1.293   9.410  1.1420 -0.9958  0.6235
 4497SOL    HW225128   2.518   1.202   9.351 -0.8716 -1.4199 -1.0284
 4498SOL     OW25129   1.964   4.008   2.315 -0.0274 -0.2156  0.8576
 4498SOL    HW125130   1.869   4.004   2.317 -0.0946 -0.6919 -3.2142
 4498SOL    HW225131   1.988   4.076   2.378  1.6781  0.4599 -0.4962
 4499SOL     OW25132   3.602   3.341   6.037 -0.1072 -0.5778  0.4323
 4499SOL    HW125133   3.695   3.321   6.023  0.0874  0.2329  0.5712
 4499SOL    HW225134   3.607   3.430   6.072 -0.2336  0.4442 -2.1693
 4500SOL     OW25135   2.837   3.824  17.424 -0.0225  0.3342 -0.7261
 4500SOL    HW125136   2.780   3.900  17.411  0.5721  0.5468 -2.0772
 4500SOL    HW225137   2.850   3.798  17.333 -0.3239 -0.9765 -0.3973
 4501SOL     OW25138   1.489   2.355   2.098 -0.4819  0.3292 -0.3239
 4501SOL    HW125139   1.536   2.388   2.174 -1.4812 -1.8489  1.2181
 4501SOL    HW225140   1.526   2.418   2.036 -2.8843  0.1342 -1.9712
 4502SOL     OW25141   2.105   4.248  16.968  0.4080 -0.2088 -0.1067
 4502SOL    HW125142   2.088   4.334  17.007 -3.9918 -1.4039  0.5395
 4502SOL    HW225143   2.126   4.200  17.048  1.3053  0.9964  0.3799
 4503SOL     OW25144   1.478   3.697  14.810  0.6775  0.5736 -0.1083
 4503SOL    HW125145   1.427   3.630  14.764  0.4878  0.1528  0.7182
 4503SOL    HW225146   1.464   3.767  14.746  1.0182 -0.1023 -0.9251
 4504SOL     OW25147   2.308   3.288   6.253 -0.4030  0.2039  0.2533
 4504SOL    HW125148   2.354   3.215   6.294 -0.0209 -0.9330 -2.2399
 4504SOL    HW225149   2.236   3.303   6.315  0.2854 -1.6440  1.4885
 4505SOL     OW25150   2.096   3.502  10.706 -0.2863 -0.4435 -0.2905
 4505SOL    HW125151   2.050   3.581  10.680  1.3337  0.0264 -1.7032
 4505SOL    HW225152   2.181   3.504  10.662  0.5403 -1.7515  1.2207
 4506SOL     OW25153   1.695   2.030  13.554  0.2624 -0.2417 -0.1587
 4506SOL    HW125154   1.722   2.114  13.517 -4.2938  1.0696 -0.4764
 4506SOL    HW225155   1.662   1.984  13.477  0.3948  0.5589 -0.6957
 4507SOL     OW25156   4.590   4.637  12.416 -0.4437  0.1309 -0.2214
 4507SOL    HW125157   4.528   4.681  12.356 -0.0570  0.7505 -0.1683
 4507SOL    HW225158   4.675   4.665  12.382 -0.2285  0.0026  0.2250
 4508SOL     OW25159   3.834   4.219  17.479 -0.2362  0.2435 -0.4185
 4508SOL    HW125160   3.904   4.181  17.427 -1.6897 -0.6327 -1.7153
 4508SOL    HW225161   3.762   4.155  17.481  2.0637 -2.3759 -2.6041
 4509SOL     OW25162   1.335   0.583   8.549  0.5003 -0.0265  0.4049
 4509SOL    HW125163   1.303   0.589   8.639 -0.6835 -1.1422  0.0566
 4509SOL    HW225164   1.431   0.574   8.552  0.3168 -2.6940 -2.3791
 4510SOL     OW25165   3.890   1.341   2.827  0.2982 -0.0599 -0.5858
 4510SOL    HW125166   3.962   1.353   2.765  0.6306  1.2831  0.0586
 4510SOL    HW225167   3.885   1.426   2.870  0.3088 -0.2043 -0.2989
 4511SOL     OW25168   0.289   2.057   1.892 -0.0829  0.3160 -0.1666
 4511SOL    HW125169   0.372   2.009   1.889 -1.5909 -2.3815  1.1609
 4511SOL    HW225170   0.298   2.120   1.821 -0.5088 -1.2663 -1.6290
 4512SOL     OW25171   1.554   4.503   3.062  0.3208  0.3225  0.3723
 4512SOL    HW125172   1.625   4.445   3.089  0.3518 -0.7744 -2.0996
 4512SOL    HW225173   1.474   4.450   3.060  0.2670  0.3107  2.6019
 4513SOL     OW25174   1.490   2.525   9.077  0.0549  0.4091  0.1176
 4513SOL    HW125175   1.450   2.527   8.990 -4.3631  2.4915  2.1662
 4513SOL    HW225176   1.416   2.525   9.138 -0.4335 -1.0428 -0.4734
 4514SOL     OW25177   4.720   2.172   1.088 -0.4949 -0.0523 -0.7767
 4514SOL    HW125178   4.640   2.122   1.099 -0.8864  1.3419  2.9014
 4514SOL    HW225179   4.704   2.265   1.106  1.2719  0.1173 -0.0924
 4515SOL     OW25180   2.514   2.992  11.979 -0.1982  0.8941  0.1716
 4515SOL    HW125181   2.591   3.017  12.030 -0.7863  0.2838  1.3644
 4515SOL    HW225182   2.510   2.898  11.994 -0.6891  1.1169  1.5404
 4516SOL     OW25183   3.152   3.159   5.292 -0.0441  0.4145 -0.6399
 4516SOL    HW125184   3.097   3.182   5.366  1.4606  3.7760 -0.5715
 4516SOL    HW225185   3.205   3.238   5.281 -0.8271  0.6919 -2.4085
 4517SOL     OW25186   2.487   3.091   6.859 -0.0674  0.4829  0.5884
 4517SOL    HW125187   2.439   3.137   6.790 -0.7284  1.1838  1.5151
 4517SOL    HW225188   2.566   3.144   6.863  0.9196 -1.0059  0.7513
 4518SOL     OW25189   4.602   1.612  12.249 -0.0535  0.0849  0.2798
 4518SOL    HW125190   4.670   1.673  12.219 -0.6492  0.7934  0.3583
 4518SOL    HW225191   4.615   1.546  12.181 -2.1086  0.4162 -0.4485
 4519SOL     OW25192   1.199   4.235   1.885  0.3982 -0.8060  0.1706
 4519SOL    HW125193   1.113   4.206   1.855  0.8230 -1.0705 -0.7835
 4519SOL    HW225194   1.189   4.237   1.980  0.2417 -1.3226  0.1646
 4520SOL     OW25195   2.065   4.511   7.601 -0.0446 -0.3555 -0.6987
 4520SOL    HW125196   1.987   4.535   7.650  1.3037  0.9977  0.7431
 4520SOL    HW225197   2.130   4.578   7.622 -0.0763 -1.2225  2.1533
 4521SOL     OW25198   1.168   3.514  13.169  0.0084 -0.0441 -0.1871
 4521SOL    HW125199   1.257   3.480  13.158  0.1556  0.3997 -0.3509
 4521SOL    HW225200   1.174   3.609  13.170 -0.8540  0.0049  0.3197
 4522SOL     OW25201   0.607   1.927   7.750  0.1702 -0.4630 -0.0519
 4522SOL    HW125202   0.608   1.944   7.844 -0.2798  3.8623 -0.8472
 4522SOL    HW225203   0.682   1.983   7.729  1.0806 -2.0712 -1.0967
 4523SOL     OW25204   2.607   1.887   5.447  0.1905  0.1757  0.0398
 4523SOL    HW125205   2.518   1.886   5.411  0.7685 -2.3933 -1.3464
 4523SOL    HW225206   2.647   1.965   5.410  0.9192  0.5794  1.6709
 4524SOL     OW25207   4.648   1.396   8.309 -0.5756 -0.4452 -0.2504
 4524SOL    HW125208   4.678   1.310   8.338 -1.2590 -0.3184  0.8090
 4524SOL    HW225209   4.715   1.411   8.242 -1.9388 -0.2810 -1.5851
 4525SOL     OW25210   2.816   1.686  12.133 -0.3818  0.7358  0.3039
 4525SOL    HW125211   2.836   1.716  12.221 -0.3403  1.5589  0.0123
 4525SOL    HW225212   2.736   1.733  12.109  0.5011  1.5715 -1.0098
 4526SOL     OW25213   1.960   4.100   8.035  0.7543  0.1462 -0.1688
 4526SOL    HW125214   1.885   4.047   8.008 -0.1060  0.5027  1.5689
 4526SOL    HW225215   2.033   4.052   7.995  0.4070 -1.7360  1.4960
 4527SOL     OW25216   3.657   2.195  17.119  0.0120 -0.7260  0.3670
 4527SOL    HW125217   3.602   2.156  17.052 -2.3938  2.6582  0.3769
 4527SOL    HW225218   3.668   2.284  17.085  0.3632  0.2564  3.0127
 4528SOL     OW25219   1.335   3.294   6.026 -0.0567 -0.4476 -0.4142
 4528SOL    HW125220   1.277   3.370   6.033 -0.3531 -0.4939 -2.2154
 4528SOL    HW225221   1.420   3.336   6.018 -0.7073  1.1800  1.1933
 4529SOL     OW25222   1.457   1.973   2.268  0.2225  0.8156  0.2234
 4529SOL    HW125223   1.503   1.937   2.344 -0.1920  1.4273  0.7662
 4529SOL    HW225224   1.381   2.012   2.310  1.3113  0.3938  2.5873
 4530SOL     OW25225   1.511   2.199   1.551 -0.3287  0.9072  0.0242
 4530SOL    HW125226   1.532   2.272   1.608  0.7283 -0.3613  1.2727
 4530SOL    HW225227   1.415   2.196   1.546 -0.2508 -1.9856 -0.1285
 4531SOL     OW25228   0.886   1.412  14.933  0.1066 -0.2690 -0.5595
 4531SOL    HW125229   0.879   1.396  15.027  2.7626 -1.0158 -0.4959
 4531SOL    HW225230   0.980   1.398  14.932  0.2837  0.7623  0.8967
 4532SOL     OW25231   2.395   2.397  11.060 -0.3584  0.1598  0.2847
 4532SOL    HW125232   2.396   2.417  11.154 -1.6828 -2.1353  0.7833
 4532SOL    HW225233   2.303   2.415  11.046  0.0729  2.9878  1.1638
 4533SOL     OW25234   3.213   2.382   3.677  0.0728 -0.4729  0.2458
 4533SOL    HW125235   3.276   2.310   3.684  1.3924  0.7792  1.3462
 4533SOL    HW225236   3.275   2.451   3.656 -1.2555  0.0868 -1.7826
 4534SOL     OW25237   1.918   2.204   2.732  0.0743  0.3417 -0.5337
 4534SOL    HW125238   1.934   2.120   2.689 -1.1589 -1.3783  2.3290
 4534SOL    HW225239   1.854   2.244   2.674  0.1508  2.3700  0.7728
 4535SOL     OW25240   4.584   0.574   5.619  0.0920 -0.5157 -0.1723
 4535SOL    HW125241   4.607   0.523   5.696  0.7329  1.1910  0.7760
 4535SOL    HW225242   4.488   0.577   5.619  0.1195  0.3098 -1.3518
 4536SOL     OW25243   4.671   3.382   9.270  0.2515 -0.2761  0.2030
 4536SOL    HW125244   0.001   3.314   9.260  0.4435  0.1341 -1.3245
 4536SOL    HW225245   4.693   3.416   9.357 -0.9133 -0.6172  0.6230
 4537SOL     OW25246   0.138   1.818   0.928  0.2374  0.2924 -0.2779
 4537SOL    HW125247   0.109   1.851   1.013  0.2790  0.6270 -0.3940
 4537SOL    HW225248   0.163   1.729   0.953 -0.1240 -0.0987 -1.3331
 4538SOL     OW25249   0.630   1.660   8.609  0.3289  0.9168  0.2143
 4538SOL    HW125250   0.613   1.751   8.584  0.0578  1.1544  1.2595
 4538SOL    HW225251   0.545   1.634   8.645 -0.3427 -0.6469 -2.5341
 4539SOL     OW25252   0.625   2.334   4.173  0.0668  0.3052  0.4099
 4539SOL    HW125253   0.554   2.325   4.109  0.6747  1.4831 -0.4357
 4539SOL    HW225254   0.631   2.250   4.218  0.6996 -0.3291 -0.8562
 4540SOL     OW25255   0.519   0.009   5.783 -0.1510 -0.0650 -0.1603
 4540SOL    HW125256   0.447   0.003   5.721  0.7628  0.3803 -1.2725
 4540SOL    HW225257   0.591   0.006   5.720 -1.0785  4.8233 -1.4862
 4541SOL     OW25258   4.465   0.460   1.107 -0.1220 -0.1137  0.5104
 4541SOL    HW125259   4.453   0.495   1.019  0.3647  0.0059  0.4939
 4541SOL    HW225260   4.373   0.450   1.133  0.0292 -0.8758  0.7674
 4542SOL     OW25261   4.462   3.219  13.515  0.1914 -0.2817 -0.4244
 4542SOL    HW125262   4.472   3.125  13.496  0.8006 -0.6169  1.4819
 4542SOL    HW225263   4.547   3.220  13.559 -0.4388 -1.6834  0.8237
 4543SOL     OW25264   0.384   3.323   5.850  0.6380 -0.1836 -0.1444
 4543SOL    HW125265   0.432   3.405   5.835  2.7364 -1.5681 -0.9670
 4543SOL    HW225266   0.291   3.335   5.833 -0.0180 -1.9028  2.2596
 4544SOL     OW25267   4.040   2.644   6.730 -0.2217  0.0398 -0.3560
 4544SOL    HW125268   4.133   2.634   6.710 -0.5032  0.4832 -1.8428
 4544SOL    HW225269   3.993   2.645   6.647 -1.5936 -1.2836  0.4029
 4545SOL     OW25270   4.146   0.782   5.914  0.0949  0.3482  0.3812
 4545SOL    HW125271   4.090   0.772   5.991  1.4014  0.5359  1.3430
 4545SOL    HW225272   4.078   0.788   5.846  0.9874 -1.4601 -0.6362
 4546SOL     OW25273   0.278   1.169   8.669  0.0813 -0.3323 -0.3946
 4546SOL    HW125274   0.346   1.142   8.730  0.4922  1.7248  0.0619
 4546SOL    HW225275   0.219   1.095   8.682  0.4556 -0.3194  1.2703
 4547SOL     OW25276   3.356   1.987   5.787  0.1102  0.7969  0.3396
 4547SOL    HW125277   3.265   1.959   5.778 -0.9675  4.4780 -0.4531
 4547SOL    HW225278   3.356   2.013   5.880 -0.5936  1.1809  0.2275
 4548SOL     OW25279   3.278   1.821   8.697  0.4225 -0.6741 -0.1427
 4548SOL    HW125280   3.191   1.823   8.736  0.1243 -1.7619 -0.7403
 4548SOL    HW225281   3.269   1.745   8.640 -1.8751  0.1487 -0.8829
 4549SOL     OW25282   4.255   4.605   8.044 -0.3107  0.0967  0.2149
 4549SOL    HW125283   4.166   4.621   8.076 -0.5648 -0.2814 -0.2952
 4549SOL    HW225284   4.312   4.618   8.119 -0.2392 -1.5016  0.4257
 4550SOL     OW25285   3.958   0.213   6.114 -0.7315  0.0811  0.1780
 4550SOL    HW125286   3.935   0.221   6.206  1.8769 -2.7038  1.0684
 4550SOL    HW225287   3.983   0.304   6.098  1.3883 -0.5854 -0.2891
 4551SOL     OW25288   0.117   3.239   8.885 -0.3465  0.6343 -0.4808
 4551SOL    HW125289   0.114   3.300   8.811  0.2455  1.7126  0.3840
 4551SOL    HW225290   0.050   3.178   8.854 -0.3233  0.3836 -0.0333
 4552SOL     OW25291   3.844   4.467  17.294  0.2443 -0.2696 -0.4632
 4552SOL    HW125292   3.819   4.473  17.202 -0.3200  2.1783 -0.1689
 4552SOL    HW225293   3.768   4.414  17.319 -0.9196  1.0768 -1.1214
 4553SOL     OW25294   0.567   1.299  16.945 -0.3840 -0.1648  0.0227
 4553SOL    HW125295   0.494   1.356  16.968  1.2833  1.9608  0.0764
 4553SOL    HW225296   0.537   1.213  16.973 -2.6241  1.1265  1.6396
 4554SOL     OW25297   1.778   2.891   4.607 -0.1675  0.0535 -0.4545
 4554SOL    HW125298   1.801   2.916   4.518 -0.2868 -1.1606 -0.8345
 4554SOL    HW225299   1.870   2.872   4.626  0.0619  1.8331  0.1820
 4555SOL     OW25300   0.017   4.035   8.956  0.0008  0.4605 -0.0017
 4555SOL    HW125301   4.725   4.038   9.047 -1.3662  0.0142 -0.4178
 4555SOL    HW225302   4.672   4.061   8.914 -0.7715  2.3298  2.7140
 4556SOL     OW25303   3.204   1.719  15.563  0.1563  0.4371  0.2590
 4556SOL    HW125304   3.213   1.806  15.601 -1.1130  1.8807 -2.7699
 4556SOL    HW225305   3.291   1.687  15.588 -0.3591  0.3414  1.9397
 4557SOL     OW25306   3.886   1.541  10.246  0.0081  0.2138  0.1635
 4557SOL    HW125307   3.870   1.447  10.241  0.8542  0.0265  0.9415
 4557SOL    HW225308   3.850   1.561  10.332 -0.0658  1.9932 -0.2728
 4558SOL     OW25309   3.734   2.548   5.303  0.0224  0.0946 -0.3649
 4558SOL    HW125310   3.660   2.489   5.291 -1.6603  1.7203  2.1420
 4558SOL    HW225311   3.691   2.631   5.285 -0.7951 -0.1516  0.4915
 4559SOL     OW25312   1.650   2.305  10.275 -0.0291 -0.5693  0.6755
 4559SOL    HW125313   1.615   2.311  10.186  1.7994 -0.1057 -0.0117
 4559SOL    HW225314   1.649   2.211  10.291  0.8025 -1.0846 -2.3802
 4560SOL     OW25315   2.589   0.256   2.905 -0.0578  0.7382 -0.2365
 4560SOL    HW125316   2.570   0.223   2.818  1.3630 -1.0340  0.1296
 4560SOL    HW225317   2.565   0.175   2.950  1.4683  0.1527 -0.4934
 4561SOL     OW25318   3.524   4.019   2.573 -0.0508 -0.0199  0.0338
 4561SOL    HW125319   3.542   4.009   2.480 -1.3551 -2.6800  0.0427
 4561SOL    HW225320   3.613   4.021   2.607 -0.2299 -2.1413  0.6261
 4562SOL     OW25321   1.335   4.719   3.358 -0.8847  0.0457  0.1011
 4562SOL    HW125322   1.264   0.036   3.323  0.1471  1.4243  0.1254
 4562SOL    HW225323   1.287   4.666   3.421 -0.3888 -0.1679  0.2964
 4563SOL     OW25324   4.015   0.809   4.112 -0.0731  0.3734  0.4367
 4563SOL    HW125325   3.995   0.764   4.029 -0.9187 -0.0615  0.8751
 4563SOL    HW225326   3.994   0.898   4.085  1.5600  0.1195 -1.7199
 4564SOL     OW25327   1.836   2.204   7.216  0.3207  0.0011  0.2417
 4564SOL    HW125328   1.900   2.274   7.223  0.8742 -0.6278  1.3924
 4564SOL    HW225329   1.888   2.124   7.228 -0.4923 -0.1655  2.4925
 4565SOL     OW25330   3.324   2.849   7.966  0.3726 -0.3044  0.2251
 4565SOL    HW125331   3.273   2.779   7.926  2.8416 -2.1123  0.2106
 4565SOL    HW225332   3.403   2.801   7.990  1.6873  0.7120 -1.9777
 4566SOL     OW25333   4.639   2.850   7.876  0.0539  0.3021  0.1787
 4566SOL    HW125334   4.581   2.926   7.868 -1.4897 -0.9131 -0.2484
 4566SOL    HW225335   4.569   2.795   7.910 -0.1890 -0.0181 -0.8580
 4567SOL     OW25336   3.915   1.864  11.266 -0.4049 -1.0315 -0.0292
 4567SOL    HW125337   4.003   1.878  11.299 -0.5701 -0.6700  0.2534
 4567SOL    HW225338   3.887   1.797  11.329 -2.6355  0.9105  1.0258
 4568SOL     OW25339   2.563   3.851   2.598 -0.5584 -0.4768 -0.0661
 4568SOL    HW125340   2.538   3.925   2.542 -1.3353 -0.3903  0.4041
 4568SOL    HW225341   2.650   3.880   2.627 -0.9565  0.9783 -0.3287
 4569SOL     OW25342   0.671   3.042   2.429 -0.2230  0.0604 -0.1642
 4569SOL    HW125343   0.711   3.110   2.375  0.9331 -0.6784 -0.2572
 4569SOL    HW225344   0.654   3.097   2.506  3.3153  0.1342  0.5624
 4570SOL     OW25345   1.240   4.096   9.523 -0.0892  0.6608 -0.5155
 4570SOL    HW125346   1.191   4.019   9.552  0.4022  0.9585  1.1409
 4570SOL    HW225347   1.329   4.077   9.553 -0.3862 -0.7933 -0.5681
 4571SOL     OW25348   4.474   4.315   7.935 -0.0872  0.6355 -0.0815
 4571SOL    HW125349   4.407   4.378   7.962  0.6199  1.9541 -1.4362
 4571SOL    HW225350   4.423   4.239   7.907 -0.1762 -0.0814  1.9797
 4572SOL     OW25351   4.248   2.320   4.133 -0.1251 -0.2413 -0.6080
 4572SOL    HW125352   4.285   2.363   4.210 -0.2088 -0.8980 -0.2030
 4572SOL    HW225353   4.197   2.252   4.178  1.6363  0.0976  1.8887
 4573SOL     OW25354   1.498   0.921  11.299 -0.2845  0.1327  0.3148
 4573SOL    HW125355   1.412   0.951  11.271  0.1437 -1.0656 -2.3334
 4573SOL    HW225356   1.553   0.990  11.260  0.2977  0.8940  2.5119
 4574SOL     OW25357   3.899   0.991   0.917 -0.3772  0.0446 -0.1152
 4574SOL    HW125358   3.890   0.995   1.012  0.4620 -0.5960 -0.0042
 4574SOL    HW225359   3.843   0.915   0.902 -1.1922  0.3701  1.3138
 4575SOL     OW25360   0.473   2.126   5.291 -0.0574  0.2672 -0.4550
 4575SOL    HW125361   0.489   2.073   5.369 -0.8782  1.0858  0.2709
 4575SOL    HW225362   0.391   2.171   5.312  0.3659  1.0084 -0.3749
 4576SOL     OW25363   2.963   1.744   6.422 -0.0547 -0.3837 -0.4037
 4576SOL    HW125364   2.975   1.740   6.327  0.5548  0.2394 -0.3496
 4576SOL    HW225365   3.019   1.820   6.440  1.7022 -2.1495  1.4841
 4577SOL     OW25366   1.137   1.866   4.467  0.0896  0.1171  0.3859
 4577SOL    HW125367   1.163   1.951   4.502  2.6122 -0.6903  0.4371
 4577SOL    HW225368   1.135   1.877   4.372 -0.9296 -2.1533  0.1470
 4578SOL     OW25369   2.812   4.576   5.576 -0.4473  0.3390  0.4524
 4578SOL    HW125370   2.749   4.514   5.539  1.0836 -0.8145 -0.2442
 4578SOL    HW225371   2.829   4.611   5.488 -2.1203  0.7450  0.2897
 4579SOL     OW25372   3.408   4.261   7.806 -0.6930  0.7915  0.2473
 4579SOL    HW125373   3.375   4.332   7.750  1.4086  2.1980  0.7636
 4579SOL    HW225374   3.342   4.253   7.874  0.8994 -5.0957  1.1025
 4580SOL     OW25375   4.583   3.739   5.349 -0.6143 -0.2051  0.4297
 4580SOL    HW125376   4.555   3.800   5.280 -0.1609 -0.8831 -0.3589
 4580SOL    HW225377   4.619   3.796   5.416  0.2703 -0.1495 -0.0929
 4581SOL     OW25378   3.969   4.247   3.451  0.0903  0.3147  0.3563
 4581SOL    HW125379   3.940   4.257   3.542  2.5249 -0.0946  1.1604
 4581SOL    HW225380   4.061   4.223   3.457  0.7620  2.8735  0.1968
 4582SOL     OW25381   2.461   4.670   4.989 -0.6984  0.0930  0.3389
 4582SOL    HW125382   2.494   4.637   5.073 -0.4781 -0.8458 -0.1146
 4582SOL    HW225383   2.383   4.709   5.029 -0.6534  1.5214 -0.9819
 4583SOL     OW25384   0.057   3.906  13.933  0.8121 -0.2809 -0.3199
 4583SOL    HW125385   0.009   3.975  13.886 -1.5872 -0.7823  1.4020
 4583SOL    HW225386   0.103   3.874  13.856 -1.5921 -1.3007 -1.3198
 4584SOL     OW25387   4.089   1.300   3.299  0.7837  0.2191 -0.0077
 4584SOL    HW125388   4.168   1.295   3.245  1.0261  2.4433  0.1515
 4584SOL    HW225389   4.107   1.373   3.358 -0.3775  2.2732 -2.2479
 4585SOL     OW25390   2.447   1.724   5.694  0.1506  0.1509  0.2455
 4585SOL    HW125391   2.459   1.818   5.705  0.7468  0.0907  0.1139
 4585SOL    HW225392   2.521   1.700   5.637  1.1646 -0.0347  1.6468
 4586SOL     OW25393   4.215   1.317   5.685 -0.3598  0.1443 -0.0143
 4586SOL    HW125394   4.230   1.296   5.777 -1.3318 -1.0350 -0.1280
 4586SOL    HW225395   4.132   1.270   5.678  1.0808 -2.7432  2.3408
 4587SOL     OW25396   0.695   1.492   2.085  0.5520  0.1229  0.2485
 4587SOL    HW125397   0.727   1.483   1.995  0.0682 -1.0975  0.1947
 4587SOL    HW225398   0.601   1.495   2.068  0.5519  5.0200  1.1216
 4588SOL     OW25399   0.334   3.381   2.025  0.7567  0.7430 -0.1743
 4588SOL    HW125400   0.317   3.299   1.978 -2.4203  1.3190  0.0098
 4588SOL    HW225401   0.393   3.436   1.974 -1.5500  2.0601 -1.3995
 4589SOL     OW25402   0.790   3.771   7.372  0.1405  0.1797 -0.3609
 4589SOL    HW125403   0.822   3.861   7.377  0.6505 -0.0126 -0.0596
 4589SOL    HW225404   0.708   3.784   7.325  0.1950 -2.7858 -1.2799
 4590SOL     OW25405   4.616   2.472   7.055 -0.5025 -0.1382 -0.1860
 4590SOL    HW125406   4.605   2.559   7.017 -0.1543  0.4323  1.0135
 4590SOL    HW225407   4.528   2.435   7.049 -0.2334 -0.8762  0.3899
 4591SOL     OW25408   4.120   2.243   5.333  0.3839  0.0120 -0.5054
 4591SOL    HW125409   4.062   2.306   5.290  0.8691  1.4657  0.9404
 4591SOL    HW225410   4.204   2.289   5.325  0.8856 -1.0755 -1.4905
 4592SOL     OW25411   2.100   0.342   5.436  0.3240 -0.1053 -1.0804
 4592SOL    HW125412   2.166   0.410   5.455 -0.6335  0.8591 -1.2043
 4592SOL    HW225413   2.115   0.332   5.342 -1.2309  1.3144 -1.4838
 4593SOL     OW25414   4.657   0.663   4.200 -0.2596  0.4821 -0.2987
 4593SOL    HW125415   4.650   0.677   4.105  1.7515  1.3412 -0.3234
 4593SOL    HW225416   4.678   0.570   4.209  1.2412  0.8051 -0.4366
 4594SOL     OW25417   1.307   2.163   3.989 -0.7200  0.0165  0.2451
 4594SOL    HW125418   1.375   2.103   3.959 -0.9119  0.3028 -0.7656
 4594SOL    HW225419   1.294   2.141   4.081  0.0203 -3.2881 -0.4258
 4595SOL     OW25420   0.013   0.810   7.904  0.2265 -0.5043 -0.1796
 4595SOL    HW125421   0.017   0.875   7.834  1.6767  1.5350  1.7670
 4595SOL    HW225422   0.018   0.874   7.975  1.2756 -0.5722 -0.2003
 4596SOL     OW25423   2.692   2.451   6.555 -0.2357 -0.6803  0.2732
 4596SOL    HW125424   2.688   2.518   6.487 -0.8403 -0.7270  0.2615
 4596SOL    HW225425   2.603   2.450   6.591 -0.7100 -0.6345 -0.8648
 4597SOL     OW25426   1.101   4.007   4.363  0.3223  0.2352 -0.1504
 4597SOL    HW125427   1.068   3.983   4.450  0.7893  0.3122  0.0455
 4597SOL    HW225428   1.079   3.934   4.305  1.0893 -1.0915  1.2226
 4598SOL     OW25429   3.574   0.741   8.194 -0.1490  0.0076  0.2367
 4598SOL    HW125430   3.601   0.728   8.103 -0.5943 -1.1333  0.2583
 4598SOL    HW225431   3.656   0.743   8.243 -0.0683 -1.7102  0.1738
 4599SOL     OW25432   3.098   2.637   2.822 -0.4403  0.4608  0.9276
 4599SOL    HW125433   3.053   2.679   2.896 -0.5965 -1.8605  2.1568
 4599SOL    HW225434   3.108   2.703   2.754 -1.2048 -1.0656 -0.6651
 4600SOL     OW25435   2.338   0.656   3.415 -0.0100 -0.6094  0.0282
 4600SOL    HW125436   2.322   0.612   3.332 -2.0023  1.0362 -0.4741
 4600SOL    HW225437   2.266   0.719   3.409  1.5774  1.2879  0.9209
 4601SOL     OW25438   3.416   2.683   2.494 -0.1105 -0.1853 -0.3532
 4601SOL    HW125439   3.439   2.643   2.578 -0.4770 -0.7334 -0.5168
 4601SOL    HW225440   3.448   2.771   2.518  1.4950 -0.7310 -0.4809
 4602SOL     OW25441   2.421   3.642   6.982 -0.3018 -0.7276  0.3666
 4602SOL    HW125442   2.361   3.617   7.053  1.7900 -0.5638  2.1663
 4602SOL    HW225443   2.486   3.691   7.032 -1.3013 -0.6072  1.5648
 4603SOL     OW25444   2.838   2.684  17.293 -0.1431  0.0087  0.1367
 4603SOL    HW125445   2.922   2.725  17.271 -0.2147  0.6467  1.0752
 4603SOL    HW225446   2.834   2.684  17.388 -1.3145 -2.8036  0.1032
 4604SOL     OW25447   2.442   2.579   8.223  0.0060 -0.1541  0.0197
 4604SOL    HW125448   2.458   2.659   8.174 -0.1834 -0.4703 -0.5573
 4604SOL    HW225449   2.349   2.597   8.235  0.2927  1.2026  0.2017
 4605SOL     OW25450   0.542   0.652  12.987 -0.0766  0.0389  0.4588
 4605SOL    HW125451   0.564   0.628  13.077  2.4523 -0.4175 -0.3028
 4605SOL    HW225452   0.599   0.593  12.939  0.3439  1.7693 -1.1684
 4606SOL     OW25453   3.196   4.629  11.886  0.4797 -0.4898 -0.2241
 4606SOL    HW125454   3.169   4.538  11.877 -0.1924 -0.2585 -0.5595
 4606SOL    HW225455   3.149   4.665  11.810 -1.4686  0.0717  1.2387
 4607SOL     OW25456   4.040   0.704   9.815  0.4510  0.3925 -0.3466
 4607SOL    HW125457   4.001   0.723   9.730 -3.0403 -0.7441  0.9677
 4607SOL    HW225458   4.125   0.748   9.817  0.9625 -0.5750 -1.0917
 4608SOL     OW25459   2.288   2.641   8.767 -0.1677  0.6248  0.4704
 4608SOL    HW125460   2.319   2.650   8.676 -0.8303 -0.0406  0.1753
 4608SOL    HW225461   2.333   2.711   8.813 -1.2107  2.4350 -1.3012
 4609SOL     OW25462   1.444   3.350   5.245 -0.4221  0.8585  0.1128
 4609SOL    HW125463   1.427   3.317   5.333  0.5964  0.9527  0.3460
 4609SOL    HW225464   1.429   3.270   5.194  1.9614 -1.1818  2.5947
 4610SOL     OW25465   1.729   4.358  17.017 -0.2604 -0.2295  0.1415
 4610SOL    HW125466   1.784   4.426  16.979  1.4016 -2.3077 -1.1730
 4610SOL    HW225467   1.760   4.366  17.108 -0.1843  1.2640 -0.0223
 4611SOL     OW25468   1.784   1.946   4.968  0.4338 -0.2035 -0.2788
 4611SOL    HW125469   1.791   1.855   4.997 -0.6838 -0.8092 -1.9453
 4611SOL    HW225470   1.863   1.947   4.913  2.0040 -0.3262  1.9709
 4612SOL     OW25471   3.525   4.464  16.865  0.4290 -0.3870  0.2072
 4612SOL    HW125472   3.527   4.388  16.806  4.0594  0.3765 -0.6897
 4612SOL    HW225473   3.440   4.506  16.852  0.9480  1.0139  1.3648
 4613SOL     OW25474   2.892   2.795   2.359  0.2401 -0.6113 -0.1967
 4613SOL    HW125475   2.866   2.820   2.270 -1.7564  1.7644  1.0304
 4613SOL    HW225476   2.985   2.780   2.345  0.2619 -0.0417 -0.6703
 4614SOL     OW25477   1.720   1.735   6.934 -0.2938 -0.0719 -0.5376
 4614SOL    HW125478   1.712   1.692   6.849 -0.8763  0.1156 -0.5820
 4614SOL    HW225479   1.815   1.740   6.942  0.0271 -1.6373 -3.4479
 4615SOL     OW25480   2.858   0.936   3.388 -0.4424 -0.9380 -0.4566
 4615SOL    HW125481   2.847   1.028   3.362  0.0660 -1.1915 -1.5592
 4615SOL    HW225482   2.816   0.941   3.474  1.4417  0.5819  0.3785
 4616SOL     OW25483   0.129   0.569   7.910 -0.2043 -0.0837 -0.1934
 4616SOL    HW125484   0.088   0.654   7.923  2.6302  1.3683 -0.9105
 4616SOL    HW225485   0.214   0.592   7.949 -0.7055  0.2976  0.6726
 4617SOL     OW25486   1.418   0.331  13.125 -0.3036  0.0606 -0.1977
 4617SOL    HW125487   1.332   0.354  13.088 -0.5848  1.1108  1.1360
 4617SOL    HW225488   1.388   0.297  13.209  0.2141 -1.5318 -0.6500
 4618SOL     OW25489   0.424   3.786   8.215  0.2912  0.0715  0.7542
 4618SOL    HW125490   0.456   3.876   8.209 -0.7444  0.3702 -0.2212
 4618SOL    HW225491   0.334   3.801   8.244  0.4786  0.3611  1.1879
 4619SOL     OW25492   3.606   0.494  10.686  0.4821 -0.6924  0.4001
 4619SOL    HW125493   3.692   0.526  10.716  0.1471 -2.2409  3.0410
 4619SOL    HW225494   3.597   0.538  10.602  0.8445  0.6189  1.0481
 4620SOL     OW25495   0.419   1.965   3.941  0.0693  0.2102 -0.3590
 4620SOL    HW125496   0.494   2.007   3.900 -1.2450  1.9479 -1.0159
 4620SOL    HW225497   0.471   1.935   4.015  0.9117 -1.0393 -1.4712
 4621SOL     OW25498   3.284   3.434   5.610  0.1511 -0.0718 -0.2927
 4621SOL    HW125499   3.342   3.385   5.668 -0.2979 -0.7242 -0.3974
 4621SOL    HW225500   3.343   3.501   5.575  1.2558 -0.4047  0.9152
 4622SOL     OW25501   3.453   4.490   2.242 -0.4162  0.5287  0.8374
 4622SOL    HW125502   3.456   4.504   2.336  0.2842  1.3639  0.6856
 4622SOL    HW225503   3.367   4.524   2.219 -0.6565 -0.4315  0.2843
 4623SOL     OW25504   2.009   4.627   4.482 -0.1132  0.2252 -0.8521
 4623SOL    HW125505   1.935   4.654   4.537  0.5345  2.6705 -1.1525
 4623SOL    HW225506   2.031   4.709   4.437 -0.4112  1.9277  2.0665
 4624SOL     OW25507   3.574   0.170  16.644 -0.3796 -0.3053 -0.3883
 4624SOL    HW125508   3.624   0.161  16.563 -0.5009  0.4972 -0.5506
 4624SOL    HW225509   3.537   0.082  16.655 -0.4075 -0.1936  0.3993
 4625SOL     OW25510   0.438   0.011   6.306 -0.1253 -0.7297  0.6034
 4625SOL    HW125511   0.498   0.020   6.380 -3.1128  2.5519  2.6220
 4625SOL    HW225512   0.469   4.667   6.266  1.3652  0.7415 -1.2311
 4626SOL     OW25513   3.220   1.816  11.753 -0.0500 -0.3230 -0.3737
 4626SOL    HW125514   3.165   1.790  11.827 -0.3959 -0.1905 -0.5835
 4626SOL    HW225515   3.221   1.742  11.692  1.7006 -0.4408 -0.2076
 4627SOL     OW25516   4.564   4.614   5.361 -0.7459  0.2795 -0.3552
 4627SOL    HW125517   4.642   4.610   5.417 -1.8070 -0.0910  1.0777
 4627SOL    HW225518   4.611   4.650   5.285  1.4873 -1.8634  0.0037
 4628SOL     OW25519   1.529   0.600   7.662 -0.3295  1.0047  0.2149
 4628SOL    HW125520   1.534   0.641   7.749  2.2655  3.4326 -1.0739
 4628SOL    HW225521   1.480   0.519   7.678 -2.2330  1.8641 -1.2593
 4629SOL     OW25522   2.227   3.374   5.530  0.1125  0.2688  0.2732
 4629SOL    HW125523   2.243   3.306   5.465  0.9277  0.0503  0.7028
 4629SOL    HW225524   2.311   3.409   5.558 -0.9028  2.4767  0.5579
 4630SOL     OW25525   3.785   4.003  11.639  0.2685 -0.5040  0.2020
 4630SOL    HW125526   3.713   4.064  11.658  1.4092  1.0915 -0.6595
 4630SOL    HW225527   3.821   4.046  11.562  0.9636 -1.0719  0.2144
 4631SOL     OW25528   0.166   1.702   7.582  0.4465 -0.2722 -0.2881
 4631SOL    HW125529   0.170   1.716   7.487  1.8856  1.3007 -0.0109
 4631SOL    HW225530   0.258   1.723   7.602  0.5374 -0.2003 -0.7837
 4632SOL     OW25531   1.814   3.618   7.027 -0.4709 -0.2820  0.0456
 4632SOL    HW125532   1.863   3.582   7.101  0.2282  0.8335  0.1083
 4632SOL    HW225533   1.757   3.673   7.081 -0.8806 -0.0605 -0.6091
 4633SOL     OW25534   3.433   3.009   6.628 -0.5985 -0.2178  0.2488
 4633SOL    HW125535   3.435   2.998   6.533 -1.7496  1.8869 -0.0116
 4633SOL    HW225536   3.516   2.969   6.656  1.5432  2.7370 -1.8829
 4634SOL     OW25537   0.457   0.732   2.443 -0.1622  0.1465  0.4743
 4634SOL    HW125538   0.541   0.777   2.435  0.9919 -2.1833 -0.3816
 4634SOL    HW225539   0.467   0.684   2.525  2.0721  0.5645  0.4378
 4635SOL     OW25540   1.061   3.444   5.765 -0.3214  0.1411 -0.8729
 4635SOL    HW125541   1.109   3.468   5.844 -0.7114 -1.6779 -0.0775
 4635SOL    HW225542   0.976   3.426   5.805 -0.2081  1.4768 -0.0236
 4636SOL     OW25543   0.891   3.134   4.162  0.1696 -0.4122  0.7619
 4636SOL    HW125544   0.844   3.206   4.204  0.5929 -0.9904  2.2233
 4636SOL    HW225545   0.889   3.077   4.239  0.3127  1.7269  2.3306
 4637SOL     OW25546   3.047   3.800  15.915 -0.4682 -0.7017  0.4184
 4637SOL    HW125547   2.962   3.782  15.956 -0.8463 -0.0428 -0.0612
 4637SOL    HW225548   3.110   3.750  15.966 -0.0543  0.3734  0.9673
 4638SOL     OW25549   0.865   3.314   7.205  0.0837  0.6999  0.8161
 4638SOL    HW125550   0.813   3.367   7.267 -0.7345  1.9113 -0.8941
 4638SOL    HW225551   0.952   3.353   7.207  1.7132 -2.8390 -1.7055
 4639SOL     OW25552   2.503   1.618   3.488 -0.1275  0.2832  0.3076
 4639SOL    HW125553   2.433   1.683   3.490  0.6291  1.1311 -1.1726
 4639SOL    HW225554   2.491   1.592   3.397  0.7378 -0.6234  0.4465
 4640SOL     OW25555   0.588   4.283  13.333  0.3352 -0.5701  0.6059
 4640SOL    HW125556   0.516   4.258  13.276 -0.9031  1.7652  1.1282
 4640SOL    HW225557   0.658   4.228  13.297  0.6336  0.5956 -0.6166
 4641SOL     OW25558   0.658   1.974   8.290 -0.3854  0.4726 -0.0270
 4641SOL    HW125559   0.599   2.041   8.324  0.3504  1.0329  0.1431
 4641SOL    HW225560   0.741   1.982   8.337 -1.3465 -3.1176  2.2564
 4642SOL     OW25561   2.566   4.196   2.174  0.1222  0.3485 -0.2997
 4642SOL    HW125562   2.593   4.146   2.097 -1.6011  0.5889 -1.0628
 4642SOL    HW225563   2.653   4.226   2.201 -0.5085  1.0467  0.9738
 4643SOL     OW25564   2.352   3.982   4.661 -0.5627  0.7545  0.1357
 4643SOL    HW125565   2.284   4.029   4.613 -1.9471 -1.5449 -0.1744
 4643SOL    HW225566   2.329   3.890   4.643 -1.7739  1.1950 -0.5819
 4644SOL     OW25567   3.782   1.900  11.991  0.1833  0.0884  0.5644
 4644SOL    HW125568   3.699   1.865  12.025  0.0312  1.0389  1.1791
 4644SOL    HW225569   3.837   1.897  12.070  0.2579 -0.1330  0.5044
 4645SOL     OW25570   0.810   2.314   2.524 -0.0230  0.2200 -0.9609
 4645SOL    HW125571   0.841   2.403   2.544  0.4159 -0.5876  1.8769
 4645SOL    HW225572   0.747   2.334   2.455  1.1390  4.0143 -0.9392
 4646SOL     OW25573   1.968   4.214   2.080  0.1205 -0.1063 -0.2602
 4646SOL    HW125574   2.017   4.243   2.158  2.4867 -0.0713 -1.7674
 4646SOL    HW225575   1.977   4.120   2.091  0.4332 -0.1079 -0.5338
 4647SOL     OW25576   0.567   4.593   8.172 -0.1358  0.4248 -0.0510
 4647SOL    HW125577   0.479   4.583   8.206  0.0236  1.8618  0.7440
 4647SOL    HW225578   0.578   4.687   8.156 -0.7447  0.2587 -1.4910
 4648SOL     OW25579   2.480   4.737   8.644  0.0523 -0.3679  0.1671
 4648SOL    HW125580   2.574   0.014   8.641 -0.1972  2.0500  3.0727
 4648SOL    HW225581   2.480   4.666   8.580 -0.0596  0.1851 -0.4435
 4649SOL     OW25582   0.094   0.948   3.484 -0.7829 -0.3574  0.9733
 4649SOL    HW125583   0.062   0.858   3.492 -0.2064 -0.5785  0.7701
 4649SOL    HW225584   0.144   0.953   3.566 -0.4834  0.7136  0.7201
 4650SOL     OW25585   1.161   0.643   9.614 -0.9132 -0.1448  0.0277
 4650SOL    HW125586   1.213   0.693   9.551 -1.5632 -1.0672 -1.2473
 4650SOL    HW225587   1.169   0.557   9.572 -1.3901 -0.1778  0.0002
 4651SOL     OW25588   4.127   3.804   5.978  0.0833  0.0187  0.6104
 4651SOL    HW125589   4.146   3.811   6.071  0.6453  1.2364  0.3914
 4651SOL    HW225590   4.075   3.723   5.981 -1.2816  0.8844  0.0041
 4652SOL     OW25591   0.599   4.384   3.084 -0.4046  0.1010  0.1863
 4652SOL    HW125592   0.657   4.412   3.013  1.8136 -0.0497  1.9340
 4652SOL    HW225593   0.651   4.389   3.164 -0.8394 -0.9145  0.5378
 4653SOL     OW25594   3.295   3.101   5.664  0.5732 -0.4561  0.2179
 4653SOL    HW125595   3.338   3.167   5.718 -0.8893  0.5195  0.1884
 4653SOL    HW225596   3.217   3.092   5.719  0.6901 -1.9791  0.1245
 4654SOL     OW25597   0.711   3.944   6.744 -0.3971 -0.4360 -0.1469
 4654SOL    HW125598   0.778   4.010   6.723 -0.9970 -0.1299 -1.1117
 4654SOL    HW225599   0.769   3.893   6.800 -2.6961 -0.3964  2.2628
 4655SOL     OW25600   1.506   0.526   5.598  0.5014 -0.3176  0.5475
 4655SOL    HW125601   1.549   0.443   5.619 -0.0003 -0.0624  2.5419
 4655SOL    HW225602   1.427   0.491   5.557  1.2631 -0.4250 -0.8362
 4656SOL     OW25603   3.775   4.321   7.440 -0.2076  0.1693  0.0609
 4656SOL    HW125604   3.841   4.311   7.372  0.8799  2.6129  0.7378
 4656SOL    HW225605   3.700   4.274   7.405  1.2102  0.6728 -3.6664
 4657SOL     OW25606   2.808   3.230   8.165 -0.1717  0.0967  0.3154
 4657SOL    HW125607   2.842   3.143   8.186  1.0223  0.4781 -0.0342
 4657SOL    HW225608   2.727   3.224   8.216  0.2697  1.5774  1.1503
 4658SOL     OW25609   3.414   0.057   5.336  0.2510 -0.4748  0.8799
 4658SOL    HW125610   3.444   0.143   5.305 -2.2149 -0.3016 -1.1082
 4658SOL    HW225611   3.501   0.034   5.369 -0.1942 -2.2547  0.7982
 4659SOL     OW25612   4.083   3.946   0.096  0.4009  0.2746  0.3801
 4659SOL    HW125613   4.006   3.988   0.135 -0.6984 -1.1334 -0.3000
 4659SOL    HW225614   4.054   3.857   0.078 -0.1677  0.7097 -0.8205
 4660SOL     OW25615   1.866   0.804  16.929  0.1036 -0.1080  0.3002
 4660SOL    HW125616   1.925   0.732  16.907 -0.6336 -1.0430  1.4024
 4660SOL    HW225617   1.856   0.796  17.024 -0.5162  1.2803  0.3534
 4661SOL     OW25618   1.049   1.424   8.009 -0.3595  0.3167  0.0934
 4661SOL    HW125619   1.029   1.340   8.052 -0.6287  0.8813  1.0733
 4661SOL    HW225620   1.011   1.484   8.072  0.6503  2.4803 -1.3807
 4662SOL     OW25621   0.593   0.319  12.683  0.6913 -0.7124 -0.4359
 4662SOL    HW125622   0.501   0.349  12.683  1.2363  0.9663  2.0072
 4662SOL    HW225623   0.563   0.231  12.661 -2.4575  0.1484  0.3726
 4663SOL     OW25624   2.206   2.552  14.901 -0.4657  0.0168 -0.1061
 4663SOL    HW125625   2.163   2.594  14.975 -1.9793  3.2971 -2.8492
 4663SOL    HW225626   2.266   2.623  14.878 -1.1318  1.5268  2.7923
 4664SOL     OW25627   0.624   2.084   3.812  0.4505  0.2145  0.3532
 4664SOL    HW125628   0.675   2.165   3.815  0.0692  0.4319  0.9506
 4664SOL    HW225629   0.570   2.085   3.733  1.5389  1.1582 -0.3656
 4665SOL     OW25630   4.301   4.459   5.995  0.2569 -0.1613  0.0890
 4665SOL    HW125631   4.314   4.464   5.901 -1.2581 -0.6698 -0.1424
 4665SOL    HW225632   4.206   4.455   6.003  0.2114 -2.2110 -1.5852
 4666SOL     OW25633   0.986   4.095   8.886 -0.3436  0.2886 -0.4402
 4666SOL    HW125634   0.989   4.161   8.955 -0.9027  1.4993 -1.5622
 4666SOL    HW225635   1.026   4.145   8.814  2.2548  0.4947  1.1498
 4667SOL     OW25636   1.196   3.051   1.063  0.0146 -0.6643 -0.2900
 4667SOL    HW125637   1.270   3.097   1.102 -0.8710  0.4543  0.0627
 4667SOL    HW225638   1.136   3.050   1.137  0.0775  0.9090 -0.2220
 4668SOL     OW25639   4.627   0.828  13.676  0.1298  0.9786  0.3389
 4668SOL    HW125640   4.618   0.734  13.659  0.6540  0.5620  2.4043
 4668SOL    HW225641   4.692   0.825  13.746 -0.2929 -0.8024  0.6613
 4669SOL     OW25642   0.974   2.897  13.227 -0.0122  0.2421  0.6204
 4669SOL    HW125643   1.028   2.826  13.193  0.7062  0.3453  1.5480
 4669SOL    HW225644   0.960   2.856  13.312  0.0142 -1.5424 -0.2508
 4670SOL     OW25645   1.956   3.489   4.273 -0.9527  0.5665  0.1917
 4670SOL    HW125646   1.938   3.520   4.362  0.8466 -0.2602  0.8306
 4670SOL    HW225647   2.051   3.488   4.279 -0.9495 -0.5948 -0.1338
 4671SOL     OW25648   0.118   2.870   4.142 -0.2269 -0.3293 -0.3309
 4671SOL    HW125649   0.026   2.844   4.140 -0.6106  0.9541  0.5612
 4671SOL    HW225650   0.155   2.783   4.127 -0.5168 -0.2476 -1.4989
 4672SOL     OW25651   2.016   4.444   1.952  0.3567 -0.0068 -0.3626
 4672SOL    HW125652   2.106   4.458   1.981 -0.0202 -0.2790  0.9841
 4672SOL    HW225653   2.004   4.353   1.980 -0.3680 -0.3520 -1.7935
 4673SOL     OW25654   0.886   3.752   6.347 -0.3636 -0.1759 -0.6055
 4673SOL    HW125655   0.949   3.697   6.395  0.6389  1.5480  0.0553
 4673SOL    HW225656   0.935   3.834   6.345 -0.3018 -0.0727  3.8200
 4674SOL     OW25657   2.400   2.702  11.185 -0.3412 -0.1040  0.0438
 4674SOL    HW125658   2.395   2.613  11.220 -1.6628 -0.5583 -1.3320
 4674SOL    HW225659   2.495   2.713  11.186 -0.4578  0.9050  0.9899
 4675SOL     OW25660   2.490   4.102   5.722 -0.3916 -0.0367  0.1028
 4675SOL    HW125661   2.516   4.190   5.748 -2.0310  0.2857  0.6598
 4675SOL    HW225662   2.395   4.108   5.723 -0.4485 -0.9924  0.3767
 4676SOL     OW25663   2.878   3.505   2.706 -0.4553 -0.1385  0.1213
 4676SOL    HW125664   2.845   3.477   2.791 -2.1387  0.8432 -0.2177
 4676SOL    HW225665   2.955   3.553   2.736 -0.9986 -0.8290  2.5668
 4677SOL     OW25666   2.585   1.888  12.490  0.1320  0.1420 -0.2504
 4677SOL    HW125667   2.531   1.873  12.413  0.5935 -0.8728 -0.3743
 4677SOL    HW225668   2.584   1.810  12.546  0.5978 -0.5122 -1.1499
 4678SOL     OW25669   3.854   1.520   8.895 -0.0323  0.9008 -0.7469
 4678SOL    HW125670   3.829   1.428   8.887  1.3997  0.4566 -0.1859
 4678SOL    HW225671   3.898   1.532   8.810 -2.3355  0.3904 -2.0175
 4679SOL     OW25672   3.832   4.168   7.022 -0.0383  0.4704  0.5688
 4679SOL    HW125673   3.837   4.205   6.934 -2.3888  0.0512  0.2471
 4679SOL    HW225674   3.871   4.230   7.084  1.9063  0.2591 -0.4590
 4680SOL     OW25675   0.825   1.970   8.771 -0.2065  0.0264  0.1068
 4680SOL    HW125676   0.852   1.995   8.860 -0.8049 -0.4225  0.4230
 4680SOL    HW225677   0.844   1.877   8.783 -2.5333 -0.4398  0.2811
 4681SOL     OW25678   0.322   2.102   8.085  0.2689 -0.4977 -0.0302
 4681SOL    HW125679   0.289   2.188   8.111  3.2215  0.3611  0.8662
 4681SOL    HW225680   0.415   2.122   8.075 -0.4502  2.4378 -1.0039
 4682SOL     OW25681   2.232   2.311   7.383 -0.3352 -0.5141  0.6243
 4682SOL    HW125682   2.269   2.223   7.377 -1.0949 -0.8542  0.9065
 4682SOL    HW225683   2.294   2.360   7.328 -0.3526  1.1889  2.1336
 4683SOL     OW25684   2.168   2.965   2.610 -0.5350  0.6629 -0.0829
 4683SOL    HW125685   2.137   2.966   2.519 -0.8089  0.7192  0.0093
 4683SOL    HW225686   2.196   3.056   2.621  0.8510  0.2084  0.1394
 4684SOL     OW25687   1.217   1.524  14.240  1.1592  0.2288  0.4940
 4684SOL    HW125688   1.199   1.516  14.334  1.0445 -0.3421  0.4251
 4684SOL    HW225689   1.306   1.558  14.239  2.4355 -3.1533  1.2684
 4685SOL     OW25690   2.587   3.789  16.935  0.3247  0.3516 -0.5688
 4685SOL    HW125691   2.643   3.731  16.884 -1.0659 -1.8807  0.4409
 4685SOL    HW225692   2.499   3.777  16.899  0.7799  1.8461 -2.1851
 4686SOL     OW25693   3.232   3.651   3.962  0.1038 -0.0562 -0.1615
 4686SOL    HW125694   3.283   3.654   4.043 -0.5216 -0.8335  0.2644
 4686SOL    HW225695   3.202   3.560   3.968  2.0974 -0.6244  1.1188
 4687SOL     OW25696   4.479   2.192   5.081  0.1875  0.5261  0.1103
 4687SOL    HW125697   4.552   2.206   5.022 -0.8720 -0.1724 -1.3473
 4687SOL    HW225698   4.415   2.249   5.038 -0.6505 -1.1965 -0.9216
 4688SOL     OW25699   0.902   0.417   6.507  0.2805 -0.1333 -0.2642
 4688SOL    HW125700   0.845   0.396   6.581  1.2587 -0.4616  0.4002
 4688SOL    HW225701   0.987   0.385   6.538 -0.4152 -1.0127  0.7410
 4689SOL     OW25702   2.198   1.970   8.860  0.1698 -0.0110  0.0241
 4689SOL    HW125703   2.214   2.003   8.771 -0.5672  0.8814  0.2232
 4689SOL    HW225704   2.284   1.937   8.887 -0.2696 -0.3591  0.9812
 4690SOL     OW25705   3.066   3.853  17.580  0.3594 -0.4536  0.2687
 4690SOL    HW125706   3.126   3.781  17.561 -0.6080 -0.9776 -0.7383
 4690SOL    HW225707   2.987   3.836  17.529  1.6397 -1.6177 -1.3277
 4691SOL     OW25708   4.235   2.848   4.880  0.0951  0.2625  0.1665
 4691SOL    HW125709   4.274   2.874   4.963  1.1987 -1.8427  0.2937
 4691SOL    HW225710   4.212   2.756   4.887  3.3736 -0.5193  0.4241
 4692SOL     OW25711   1.406   0.133  15.220  0.5194 -0.0333 -0.0399
 4692SOL    HW125712   1.318   0.098  15.212 -1.5263  4.0701  4.4795
 4692SOL    HW225713   1.409   0.218  15.177  0.1171 -0.4303 -0.8411
 4693SOL     OW25714   1.795   2.087  10.836 -0.0281 -0.6993  0.3655
 4693SOL    HW125715   1.868   2.148  10.835 -1.1131  0.5861  0.5419
 4693SOL    HW225716   1.831   2.013  10.786  0.4430  1.2881 -2.2267
 4694SOL     OW25717   3.251   2.201   0.167 -0.0862  0.5563  0.8723
 4694SOL    HW125718   3.191   2.166   0.233 -0.8800 -1.8651 -1.1496
 4694SOL    HW225719   3.331   2.149   0.173  0.2758  0.8057 -1.7947
 4695SOL     OW25720   2.973   1.288   4.333  0.0182 -0.0214  0.2538
 4695SOL    HW125721   2.918   1.361   4.360  2.1084  0.3118  3.6803
 4695SOL    HW225722   2.953   1.290   4.240  1.8765 -1.2361 -0.1777
 4696SOL     OW25723   1.000   0.315   3.466 -0.3411 -0.1400 -0.0349
 4696SOL    HW125724   1.000   0.225   3.433 -2.1861 -0.6513  1.3589
 4696SOL    HW225725   1.043   0.365   3.396  1.4064 -1.1187  0.3293
 4697SOL     OW25726   0.511   2.974   8.075 -0.7069  0.6992  0.3597
 4697SOL    HW125727   0.455   3.028   8.131 -0.1479  0.9698  0.6594
 4697SOL    HW225728   0.536   3.038   8.008  0.8012  0.2653  0.5062
 4698SOL     OW25729   1.147   4.375   9.819  0.2568 -0.7407  0.2805
 4698SOL    HW125730   1.225   4.379   9.763 -1.5074 -2.2724 -2.2713
 4698SOL    HW225731   1.153   4.455   9.872 -1.4120 -1.8069  2.0449
 4699SOL     OW25732   3.664   0.860  14.043  0.3787 -0.2641 -0.9352
 4699SOL    HW125733   3.759   0.848  14.052  0.3953 -0.3622 -1.2579
 4699SOL    HW225734   3.658   0.939  14.098  0.7232  0.7417 -2.3475
 4700SOL     OW25735   0.345   1.927   7.168 -0.1988  0.3625  0.0956
 4700SOL    HW125736   0.292   1.941   7.090  0.5363  1.2627 -0.2410
 4700SOL    HW225737   0.414   1.874   7.127 -1.9882 -2.3716  0.6160
 4701SOL     OW25738   0.371   4.513   8.327  0.0295  0.7051  0.2772
 4701SOL    HW125739   0.369   4.422   8.299 -2.0222  0.8714 -0.0497
 4701SOL    HW225740   0.421   4.491   8.407 -1.1084 -2.2635  0.1598
 4702SOL     OW25741   4.531   3.593  15.752  0.2971  0.8311 -0.1983
 4702SOL    HW125742   4.575   3.570  15.670 -1.8994 -0.7402 -0.9469
 4702SOL    HW225743   4.514   3.686  15.737  1.4308  1.5293  2.7820
 4703SOL     OW25744   2.184   3.073  16.797 -0.1366 -0.6716  0.3731
 4703SOL    HW125745   2.267   3.069  16.844  1.0185  1.3176 -1.5226
 4703SOL    HW225746   2.130   3.063  16.876 -0.5116 -1.8414 -0.0322
 4704SOL     OW25747   2.187   4.380   3.039  0.7769 -0.5853 -0.0232
 4704SOL    HW125748   2.160   4.418   3.123  0.8858 -0.0932 -0.2144
 4704SOL    HW225749   2.280   4.373   3.059  0.4662  1.3737  2.2011
 4705SOL     OW25750   2.699   1.267   2.288  0.1133  0.1906  0.3023
 4705SOL    HW125751   2.673   1.181   2.321  1.8145 -0.3074  0.3556
 4705SOL    HW225752   2.615   1.312   2.277  0.8624  1.4215 -0.4026
 4706SOL     OW25753   2.469   4.473  11.413  0.8564 -0.1521  0.3409
 4706SOL    HW125754   2.485   4.462  11.507  4.9550 -0.8502 -0.4256
 4706SOL    HW225755   2.475   4.381  11.388  1.3565 -0.3644  1.2343
 4707SOL     OW25756   3.330   3.077   9.148 -0.4184  0.4577  0.2711
 4707SOL    HW125757   3.351   2.985   9.165 -0.4140  0.7113  1.6067
 4707SOL    HW225758   3.235   3.066   9.146 -0.2085 -1.5314  1.1181
 4708SOL     OW25759   3.163   3.990   8.240 -0.7043 -0.6249 -0.2781
 4708SOL    HW125760   3.202   3.965   8.324 -1.9676 -0.3454  0.3870
 4708SOL    HW225761   3.162   3.902   8.200  1.3268 -0.9383  0.3535
 4709SOL     OW25762   1.689   1.007   2.430 -0.0918 -0.1819 -0.4451
 4709SOL    HW125763   1.663   1.057   2.508  0.2201 -0.7887  0.0481
 4709SOL    HW225764   1.742   1.070   2.381  0.3126  1.2416  1.7994
 4710SOL     OW25765   3.046   4.333  17.323 -0.3312 -0.0333 -0.5055
 4710SOL    HW125766   3.072   4.423  17.305  1.2569 -0.0832  1.4912
 4710SOL    HW225767   3.090   4.285  17.253 -1.4690  0.8149 -1.7892
 4711SOL     OW25768   0.597   3.145   8.714  0.5820 -1.0780  0.8476
 4711SOL    HW125769   0.539   3.071   8.733 -2.0102  0.8300  0.4083
 4711SOL    HW225770   0.673   3.107   8.669  0.5626 -3.7746  3.0787
 4712SOL     OW25771   3.681   1.553   4.259  0.2777 -0.1047  0.6129
 4712SOL    HW125772   3.759   1.509   4.293 -0.2761  0.5276  2.6784
 4712SOL    HW225773   3.724   1.628   4.219 -2.6678  1.2272 -0.0771
 4713SOL     OW25774   1.649   1.225   2.576  0.2298  0.2223  0.7075
 4713SOL    HW125775   1.612   1.290   2.637 -0.2612 -0.9383  1.6548
 4713SOL    HW225776   1.689   1.278   2.508  0.7153  0.5947  1.2808
 4714SOL     OW25777   2.835   2.325   0.484  0.7413  0.1959  0.3207
 4714SOL    HW125778   2.814   2.322   0.577 -0.5651 -1.7041 -0.0402
 4714SOL    HW225779   2.869   2.236   0.478  1.2801  0.4567 -0.5397
 4715SOL     OW25780   2.231   1.270  17.246  0.0026  0.1952 -0.5568
 4715SOL    HW125781   2.279   1.197  17.208 -0.9350 -0.8439  0.2546
 4715SOL    HW225782   2.144   1.241  17.217 -1.2874 -0.1544  3.6519
 4716SOL     OW25783   1.297   0.607  15.588  0.7518  0.0865 -0.6198
 4716SOL    HW125784   1.329   0.568  15.669 -1.1549 -0.6926 -0.2388
 4716SOL    HW225785   1.201   0.608  15.597  0.8210  0.2251  0.1209
 4717SOL     OW25786   2.025   3.376   3.641 -0.1263 -0.5521  0.2081
 4717SOL    HW125787   1.942   3.350   3.681 -0.4294 -0.8419 -0.6126
 4717SOL    HW225788   2.063   3.289   3.632  0.0304 -0.3372 -1.2973
 4718SOL     OW25789   3.243   4.679   6.440  0.2919  0.5282 -0.2552
 4718SOL    HW125790   3.333   4.677   6.473 -0.7171 -2.4139  2.4286
 4718SOL    HW225791   3.254   4.623   6.363 -0.7070 -0.8154  0.5798
 4719SOL     OW25792   3.688   3.643   9.907 -0.2526  0.0856 -0.4944
 4719SOL    HW125793   3.766   3.648   9.962 -0.9926 -2.0610  0.7778
 4719SOL    HW225794   3.637   3.590   9.969  0.4957 -0.8603 -0.6884
 4720SOL     OW25795   4.179   2.879   5.765 -0.1070  0.0784  0.1991
 4720SOL    HW125796   4.089   2.889   5.732  0.2500  1.6657 -0.2748
 4720SOL    HW225797   4.226   2.831   5.697 -1.9225 -0.3056 -0.7903
 4721SOL     OW25798   2.463   1.360   1.945 -0.0573  0.0031 -0.2062
 4721SOL    HW125799   2.489   1.446   1.979 -0.3508 -0.0971  0.2767
 4721SOL    HW225800   2.398   1.381   1.878 -0.8428 -1.5414  0.0728
 4722SOL     OW25801   1.357   0.872   8.114  0.5466 -0.1009 -0.3568
 4722SOL    HW125802   1.288   0.850   8.177  1.0908  1.7432  0.9056
 4722SOL    HW225803   1.302   0.922   8.054  0.2435  1.0211  0.8656
 4723SOL     OW25804   2.988   2.854   7.704  0.5515 -0.0754 -0.4549
 4723SOL    HW125805   3.025   2.767   7.693  1.3751  0.0355  1.2921
 4723SOL    HW225806   3.071   2.901   7.709 -0.3864  1.5529 -0.0048
 4724SOL     OW25807   3.443   1.060   2.090  0.2291  0.8377 -0.5233
 4724SOL    HW125808   3.373   1.124   2.103 -0.4002  0.5444 -2.4403
 4724SOL    HW225809   3.415   1.030   2.003 -2.6360  1.7414  0.0923
 4725SOL     OW25810   3.705   3.689   8.106 -0.1125 -0.0925 -0.3368
 4725SOL    HW125811   3.754   3.607   8.113 -0.6762 -0.1565  2.4911
 4725SOL    HW225812   3.628   3.673   8.161 -0.0527 -1.9029 -0.7701
 4726SOL     OW25813   0.371   1.694   9.474  0.6863 -0.0811  0.7563
 4726SOL    HW125814   0.359   1.785   9.501 -0.0273 -0.6247  2.2657
 4726SOL    HW225815   0.396   1.665   9.561  0.3443  0.1993  0.9476
 4727SOL     OW25816   1.601   3.876   4.015 -0.1064  0.2975  0.1042
 4727SOL    HW125817   1.543   3.908   4.084 -1.0619  1.2472 -1.1595
 4727SOL    HW225818   1.671   3.826   4.058  0.4031 -0.5442 -1.7443
 4728SOL     OW25819   2.242   1.505   9.310  0.0117  0.3024  0.1755
 4728SOL    HW125820   2.203   1.592   9.322  2.2501  1.0081  2.3481
 4728SOL    HW225821   2.319   1.503   9.367  0.4246 -0.8356 -0.4302
 4729SOL     OW25822   1.764   1.459   7.723  0.4985  0.1873 -0.4556
 4729SOL    HW125823   1.723   1.530   7.772 -0.4106 -0.2968 -0.5069
 4729SOL    HW225824   1.693   1.410   7.681 -0.0821 -1.7472  2.7883
 4730SOL     OW25825   2.144   0.922  12.722 -0.1761  0.2832  0.2721
 4730SOL    HW125826   2.163   0.871  12.643 -2.2668  0.6126 -0.4238
 4730SOL    HW225827   2.069   0.875  12.757 -2.3842  3.0608 -0.7322
 4731SOL     OW25828   1.438   1.511   4.338 -0.2372 -0.1702  0.1508
 4731SOL    HW125829   1.349   1.545   4.335  0.7852  2.5305  0.2648
 4731SOL    HW225830   1.457   1.533   4.430 -1.7200 -2.0781  0.9072
 4732SOL     OW25831   1.448   2.226   6.176  0.5017  0.3244  0.1738
 4732SOL    HW125832   1.492   2.142   6.189 -0.6500 -0.6451 -2.1694
 4732SOL    HW225833   1.520   2.281   6.146  0.2559  0.2184 -0.6034
 4733SOL     OW25834   3.655   1.127  14.138  0.4327 -0.0883 -0.4532
 4733SOL    HW125835   3.642   1.135  14.232  0.0769 -1.1008 -0.4101
 4733SOL    HW225836   3.743   1.163  14.126  0.6326 -0.4881 -0.2036
 4734SOL     OW25837   0.800   2.854  15.299 -0.4476  0.3188 -1.0484
 4734SOL    HW125838   0.790   2.761  15.321  2.2319  0.1168 -0.6366
 4734SOL    HW225839   0.711   2.888  15.291  0.2262  1.8868 -1.8526
 4735SOL     OW25840   2.767   0.492   7.887 -0.5518  0.1560 -0.0882
 4735SOL    HW125841   2.750   0.479   7.980 -1.7620  3.9465  0.2201
 4735SOL    HW225842   2.791   0.584   7.885  0.8888 -0.2209 -0.1535
 4736SOL     OW25843   0.338   3.460   8.037  0.6390  0.4889 -0.4259
 4736SOL    HW125844   0.350   3.458   7.943 -1.3269  1.1939 -0.7077
 4736SOL    HW225845   0.401   3.527   8.060  0.6748  0.2191  0.2859
 4737SOL     OW25846   3.012   1.427  14.783  0.1087  0.0465  0.2760
 4737SOL    HW125847   3.003   1.520  14.766  2.1666  0.3239  0.7094
 4737SOL    HW225848   2.927   1.391  14.758 -1.0152  2.2133  1.0173
 4738SOL     OW25849   3.092   2.120   2.906 -0.0276  0.0146  0.5424
 4738SOL    HW125850   3.114   2.047   2.965  0.9632  1.1476  1.5729
 4738SOL    HW225851   3.170   2.122   2.851 -0.4176 -4.5706 -0.2246
 4739SOL     OW25852   3.787   0.405   3.172  0.4810 -0.4531 -0.6095
 4739SOL    HW125853   3.758   0.424   3.083 -0.3610  0.5328 -0.1330
 4739SOL    HW225854   3.779   0.310   3.180  2.8062 -0.7018 -1.3196
 4740SOL     OW25855   4.330   3.771  15.930  0.1846 -0.7089  0.3384
 4740SOL    HW125856   4.292   3.790  15.845 -1.1038  5.3163  2.2013
 4740SOL    HW225857   4.419   3.745  15.906  0.9230  2.1926 -0.0818
 4741SOL     OW25858   1.811   4.373   9.363  0.1812  0.0882  0.6620
 4741SOL    HW125859   1.899   4.338   9.362 -0.7457 -2.1702 -0.4912
 4741SOL    HW225860   1.787   4.374   9.270 -0.8319 -0.9495  0.9102
 4742SOL     OW25861   2.378   4.086   9.546  0.6184 -0.5186 -0.1959
 4742SOL    HW125862   2.345   4.101   9.635 -0.3775  1.7151 -0.9652
 4742SOL    HW225863   2.436   4.160   9.530 -2.7735  1.7619 -1.7779
 4743SOL     OW25864   1.250   3.539   9.546  0.0782 -0.5586 -0.5507
 4743SOL    HW125865   1.155   3.546   9.554 -0.1022  0.7788 -3.9087
 4743SOL    HW225866   1.282   3.589   9.621  0.5177 -0.2009 -0.9775
 4744SOL     OW25867   1.157   1.154   5.358 -0.0924 -0.2501  0.2271
 4744SOL    HW125868   1.235   1.142   5.412 -1.0213 -1.6394  1.2576
 4744SOL    HW225869   1.124   1.065   5.347  0.9003 -0.7916  1.5908
 4745SOL     OW25870   3.970   1.843   1.066  0.7098 -0.1780 -0.1039
 4745SOL    HW125871   4.002   1.774   1.124  0.9130 -0.1239 -0.1528
 4745SOL    HW225872   3.952   1.789   0.989  0.6441 -2.7402  1.6978
 4746SOL     OW25873   1.224   2.338   3.648  0.0304 -0.4239  0.5605
 4746SOL    HW125874   1.246   2.392   3.724 -0.4894 -0.6378  0.8668
 4746SOL    HW225875   1.164   2.273   3.684  1.4299 -1.3845  1.1266
 4747SOL     OW25876   1.413   2.364   8.252 -0.0732  0.4793  0.0568
 4747SOL    HW125877   1.496   2.396   8.286 -1.0748  0.3584  2.6052
 4747SOL    HW225878   1.420   2.407   8.166  2.4905  0.6611  0.3692
 4748SOL     OW25879   2.716   1.648   2.615  0.3068 -0.0850  0.4186
 4748SOL    HW125880   2.765   1.627   2.536 -1.5712 -3.0930  0.0823
 4748SOL    HW225881   2.776   1.630   2.687 -0.1754 -0.2823  0.7724
 4749SOL     OW25882   4.592   1.537   6.170 -0.1382 -0.2336  0.0283
 4749SOL    HW125883   4.614   1.533   6.263 -0.7219 -1.1467  0.1365
 4749SOL    HW225884   4.504   1.573   6.179 -0.9314 -2.2029  0.2928
 4750SOL     OW25885   2.770   2.919   9.142  0.2652  0.1433  0.3670
 4750SOL    HW125886   2.837   2.860   9.176 -1.6177 -1.1494  1.8271
 4750SOL    HW225887   2.729   2.951   9.222  1.0588  1.1524  0.3731
 4751SOL     OW25888   2.444   3.354   5.999  0.3386 -0.1199  0.4344
 4751SOL    HW125889   2.485   3.270   5.980  1.0931  0.5155 -0.7208
 4751SOL    HW225890   2.457   3.361   6.093 -0.1957  1.0084  0.4287
 4752SOL     OW25891   1.853   1.906  16.330  0.4075  0.0773 -0.0986
 4752SOL    HW125892   1.884   1.855  16.256 -0.3499 -0.9526  0.2859
 4752SOL    HW225893   1.928   1.963  16.346 -0.8508  1.9501 -0.8008
 4753SOL     OW25894   4.138   1.352   2.703  0.2500  0.1520 -0.0283
 4753SOL    HW125895   4.175   1.440   2.701  0.7515 -0.0751 -1.0879
 4753SOL    HW225896   4.204   1.290   2.736  0.4508  0.3590 -0.0427
 4754SOL     OW25897   2.039   2.082   9.851 -0.1725  0.1439 -0.2543
 4754SOL    HW125898   2.070   2.015   9.789  0.5453 -0.6200  0.9309
 4754SOL    HW225899   2.091   2.158   9.826  0.9835 -0.5861 -0.1021
 4755SOL     OW25900   3.830   3.621   8.867 -0.2646 -0.0036 -0.3641
 4755SOL    HW125901   3.876   3.538   8.854 -0.5682 -0.3376  0.7681
 4755SOL    HW225902   3.899   3.671   8.910 -0.0568  0.7090 -1.5077
 4756SOL     OW25903   0.081   3.107   7.318  0.9130 -0.5633 -0.4674
 4756SOL    HW125904   0.142   3.063   7.377 -0.5775 -1.5882  0.2887
 4756SOL    HW225905   0.007   3.047   7.324 -0.6628  1.4018  0.0125
 4757SOL     OW25906   4.013   3.717   7.724  0.1201  0.4648 -0.1161
 4757SOL    HW125907   4.066   3.689   7.798  0.8044  0.0682 -0.7604
 4757SOL    HW225908   4.004   3.637   7.673 -3.1802  1.2999 -0.8786
 4758SOL     OW25909   4.399   4.485   2.882 -0.4543 -0.2102 -0.7229
 4758SOL    HW125910   4.414   4.514   2.972 -0.4481  1.4669 -1.2583
 4758SOL    HW225911   4.482   4.449   2.852 -0.1310  0.0400 -0.1302
 4759SOL     OW25912   4.408   0.926  13.822 -0.8165  0.1255 -0.1095
 4759SOL    HW125913   4.483   0.918  13.763 -1.1970 -1.6847 -0.3394
 4759SOL    HW225914   4.454   0.903  13.903 -0.7782 -2.0082 -0.7304
 4760SOL     OW25915   4.149   4.290   3.836 -0.4561  0.0547 -0.1572
 4760SOL    HW125916   4.191   4.224   3.891 -1.5239 -1.1328 -0.7620
 4760SOL    HW225917   4.056   4.268   3.841 -0.4714  0.4116  1.2961
 4761SOL     OW25918   2.182   0.472   6.169 -0.0278  0.2377  0.2062
 4761SOL    HW125919   2.178   0.461   6.264 -2.2967 -4.2317 -0.3826
 4761SOL    HW225920   2.256   0.413   6.155 -1.0480 -0.8086 -0.7481
 4762SOL     OW25921   0.673   0.360   6.140  0.4680 -0.1663  0.2966
 4762SOL    HW125922   0.615   0.343   6.066  1.0480  2.3551 -0.7268
 4762SOL    HW225923   0.680   0.455   6.132 -1.5427 -0.0523 -0.0481
 4763SOL     OW25924   1.026   1.735   5.901  0.2363 -0.1449  0.2202
 4763SOL    HW125925   1.096   1.701   5.846 -0.5873 -2.0316  0.3286
 4763SOL    HW225926   0.970   1.658   5.897 -0.4927  0.3069  1.6177
 4764SOL     OW25927   2.840   2.833   7.031 -0.2792 -0.3445  0.0084
 4764SOL    HW125928   2.863   2.904   7.092  1.2233 -0.0615 -0.8966
 4764SOL    HW225929   2.914   2.835   6.971 -0.9963 -1.5341 -0.9090
 4765SOL     OW25930   4.076   3.430   9.957 -0.1140 -0.8653  0.5340
 4765SOL    HW125931   4.023   3.452  10.033 -0.4800 -2.1315  0.6599
 4765SOL    HW225932   4.013   3.441   9.886 -0.2824  1.3473  1.0452
 4766SOL     OW25933   3.695   2.473  17.150 -0.7814  0.2069  0.6397
 4766SOL    HW125934   3.638   2.533  17.100 -3.2563 -2.6549  0.0056
 4766SOL    HW225935   3.778   2.490  17.106 -1.2201 -1.7803 -0.9570
 4767SOL     OW25936   3.012   1.681  17.712  0.0969  0.1482  0.2539
 4767SOL    HW125937   2.967   1.754   0.007 -1.7177 -2.1387  2.3035
 4767SOL    HW225938   2.968   1.678  17.626 -1.0917  3.5040  0.7405
 4768SOL     OW25939   4.149   3.604   9.236 -0.5080 -0.0280 -0.2041
 4768SOL    HW125940   4.243   3.587   9.244  0.2304  3.1517 -2.2060
 4768SOL    HW225941   4.113   3.554   9.310  2.8062 -1.7128  0.2961
 4769SOL     OW25942   1.353   4.002  17.468  0.1806 -0.4519  0.2371
 4769SOL    HW125943   1.327   4.091  17.446  0.9858 -0.4395 -0.6660
 4769SOL    HW225944   1.302   3.990  17.547 -2.8046  0.2574 -1.6077
 4770SOL     OW25945   4.646   4.572   5.943  0.0860  0.1550  0.3482
 4770SOL    HW125946   4.599   4.642   5.990  1.3781  1.2634 -0.0203
 4770SOL    HW225947   4.730   4.616   5.936 -0.8383  2.0361  1.0413
 4771SOL     OW25948   2.602   1.419   7.184  0.2532 -0.4797 -0.5703
 4771SOL    HW125949   2.602   1.515   7.182  0.1244 -0.4658  0.2490
 4771SOL    HW225950   2.536   1.393   7.247  0.9406 -1.6131 -0.3132
 4772SOL     OW25951   4.354   1.691   8.671  0.2827 -0.6484 -0.3636
 4772SOL    HW125952   4.300   1.700   8.592  0.9038  0.2266 -0.6880
 4772SOL    HW225953   4.428   1.751   8.663 -1.3049  1.4197  0.3543
 4773SOL     OW25954   2.281   3.262   1.615 -0.2602 -0.4111 -0.2414
 4773SOL    HW125955   2.281   3.333   1.679 -1.6216 -0.5426 -0.0877
 4773SOL    HW225956   2.374   3.248   1.595 -0.5378 -1.4497 -0.8490
 4774SOL     OW25957   0.187   0.022  16.870 -0.8450  0.0489 -0.3487
 4774SOL    HW125958   0.267   4.719  16.835 -1.6049 -0.4820 -1.4775
 4774SOL    HW225959   0.119   4.702  16.835 -0.3865  0.4010 -1.8365
 4775SOL     OW25960   4.031   0.638   0.073  0.4301 -0.2925  0.4520
 4775SOL    HW125961   4.070   0.621  17.734 -2.0268  2.2051 -1.1713
 4775SOL    HW225962   3.973   0.562   0.080  0.9418 -0.5018  2.2398
 4776SOL     OW25963   2.522   3.320   8.040  0.1693 -0.1384 -0.5348
 4776SOL    HW125964   2.499   3.247   8.098  0.8876  0.2467  0.2378
 4776SOL    HW225965   2.566   3.372   8.107 -1.8004 -0.5491  1.0761
 4777SOL     OW25966   0.258   0.946  17.268  0.0760 -0.0395 -0.2098
 4777SOL    HW125967   0.325   0.982  17.210  0.3075  0.4249  0.3540
 4777SOL    HW225968   0.204   1.025  17.273  1.7260  0.9787  1.2442
 4778SOL     OW25969   4.096   0.465   9.430 -0.4847 -0.5921 -0.0535
 4778SOL    HW125970   4.182   0.472   9.472  0.2090 -0.3046 -1.5319
 4778SOL    HW225971   4.120   0.425   9.346  3.9525  2.9109 -0.4586
 4779SOL     OW25972   2.841   0.362   2.890  0.3533 -0.1572  0.0202
 4779SOL    HW125973   2.884   0.292   2.939  0.8885 -1.1505 -1.8655
 4779SOL    HW225974   2.749   0.336   2.901  0.1879  1.4931  2.4918
 4780SOL     OW25975   0.595   0.511   6.607 -0.2507 -0.4245  0.0756
 4780SOL    HW125976   0.624   0.425   6.635  0.3828 -0.9037 -2.0319
 4780SOL    HW225977   0.525   0.491   6.544  0.0036  0.2078 -0.4129
 4781SOL     OW25978   1.258   0.104   7.327  0.2031  0.2063  0.0822
 4781SOL    HW125979   1.343   0.081   7.290  0.6169  0.8560  0.6351
 4781SOL    HW225980   1.274   0.161   7.402  0.1999 -1.3318  1.2540
 4782SOL     OW25981   3.056   3.576   7.914 -0.4407 -0.0569 -0.7525
 4782SOL    HW125982   3.032   3.486   7.937 -0.0683  0.1419  0.4249
 4782SOL    HW225983   3.133   3.564   7.858  0.6693  0.4066  0.6660
 4783SOL     OW25984   3.280   0.146   5.078 -0.2205  0.3078  0.2248
 4783SOL    HW125985   3.357   0.130   5.023 -0.3926 -1.4916  0.4969
 4783SOL    HW225986   3.293   0.080   5.146 -0.7278 -0.9173 -0.8531
 4784SOL     OW25987   0.336   3.280   3.091  0.1648 -0.0090 -0.5104
 4784SOL    HW125988   0.354   3.373   3.107  1.7923 -0.1877 -1.2560
 4784SOL    HW225989   0.404   3.236   3.142 -0.0344  0.6190  0.2939
 4785SOL     OW25990   4.239   2.225   9.025  0.5461  0.0789 -0.3281
 4785SOL    HW125991   4.158   2.176   9.009 -0.3022  1.4107 -0.1049
 4785SOL    HW225992   4.232   2.275   8.944 -0.1661 -0.3507 -0.5392
 4786SOL     OW25993   0.702   3.304   4.242 -0.0562 -0.1703 -0.0750
 4786SOL    HW125994   0.711   3.399   4.243  2.0780 -0.3614  0.3463
 4786SOL    HW225995   0.631   3.290   4.179 -0.0128  1.1894 -0.4223
 4787SOL     OW25996   2.261   1.550   5.723 -0.2604  0.2472 -0.2744
 4787SOL    HW125997   2.205   1.587   5.654  2.0202 -0.7577 -2.6483
 4787SOL    HW225998   2.334   1.612   5.718  0.2741 -0.5035 -1.9951
 4788SOL     OW25999   1.774   3.981   9.546 -0.0503 -0.0749  0.2349
 4788SOL    HW126000   1.696   3.949   9.591 -0.1442  1.0341  0.8660
 4788SOL    HW226001   1.744   4.026   9.467 -0.0664 -0.4015  0.0577
 4789SOL     OW26002   3.310   2.060   6.049  0.4776  0.4199  0.2585
 4789SOL    HW126003   3.251   2.032   6.119  0.9625  0.1534  0.5630
 4789SOL    HW226004   3.396   2.063   6.091  1.0094 -2.4745 -0.5966
 4790SOL     OW26005   3.383   2.833  11.692 -0.5989  0.5313  0.4350
 4790SOL    HW126006   3.451   2.879  11.642 -1.9146  0.3281 -1.5772
 4790SOL    HW226007   3.313   2.899  11.687 -0.6557  0.3840 -0.9117
 4791SOL     OW26008   3.434   2.441   4.262  0.7075 -0.2632 -0.0187
 4791SOL    HW126009   3.518   2.485   4.274  0.3018  0.5628 -0.2160
 4791SOL    HW226010   3.368   2.496   4.304  0.9967 -0.8641  1.2119
 4792SOL     OW26011   4.712   2.533   0.850  0.2466 -0.5674  0.1595
 4792SOL    HW126012   4.697   2.474   0.925 -0.8228 -2.0238 -1.1993
 4792SOL    HW226013   4.623   2.555   0.822  0.5719  0.5624  0.0307
 4793SOL     OW26014   0.716   4.189   1.793  0.0756  0.3093  0.1213
 4793SOL    HW126015   0.731   4.212   1.884  0.8533  1.7753 -0.3700
 4793SOL    HW226016   0.640   4.241   1.765  0.4818  0.0350 -1.5025
 4794SOL     OW26017   0.847   2.776   3.495  0.5279 -0.5247 -0.0144
 4794SOL    HW126018   0.793   2.773   3.574 -1.4563 -0.2793 -1.3771
 4794SOL    HW226019   0.908   2.710   3.527 -0.6618 -1.6821 -0.1704
 4795SOL     OW26020   3.709   0.057   5.119 -0.2427 -0.3200  0.1194
 4795SOL    HW126021   3.674   0.041   5.031  0.6421  3.1393 -0.8437
 4795SOL    HW226022   3.785   0.108   5.091 -0.0437  0.4801  2.1478
 4796SOL     OW26023   2.985   0.551   3.175 -0.3407  0.6673  0.3853
 4796SOL    HW126024   3.059   0.520   3.227  0.1584  1.4236  0.1345
 4796SOL    HW226025   3.033   0.613   3.119 -0.7397 -0.4623 -1.2034
 4797SOL     OW26026   3.154   1.617  11.551 -0.0154 -0.4656 -0.1116
 4797SOL    HW126027   3.142   1.564  11.472  0.4122 -2.2424  1.0420
 4797SOL    HW226028   3.215   1.555  11.591 -2.0591 -2.2283  0.2220
 4798SOL     OW26029   0.532   0.769   0.471  0.5605  0.3360  0.0669
 4798SOL    HW126030   0.538   0.852   0.519 -1.2330  0.5076 -0.0226
 4798SOL    HW226031   0.467   0.717   0.516 -0.8159  1.0344 -1.1071
 4799SOL     OW26032   1.670   3.552   4.043 -0.1140 -0.2791  0.1656
 4799SOL    HW126033   1.608   3.565   4.115 -0.2940  1.0750 -0.2299
 4799SOL    HW226034   1.743   3.609   4.067  0.7982 -1.4460  0.1486
 4800SOL     OW26035   1.885   3.688   9.030  0.1382  0.2194 -0.6651
 4800SOL    HW126036   1.932   3.755   8.980  1.0932 -0.7143 -1.0199
 4800SOL    HW226037   1.867   3.626   8.960 -1.5982 -0.6284  0.5256
 4801SOL     OW26038   1.267   2.782   2.986  0.1423 -0.8298 -0.1185
 4801SOL    HW126039   1.355   2.804   2.954 -0.0580 -1.7217 -1.2899
 4801SOL    HW226040   1.216   2.809   2.910  0.0874 -0.4014  0.0684
 4802SOL     OW26041   3.337   0.183   8.528 -0.1118  0.4125 -0.1965
 4802SOL    HW126042   3.362   0.116   8.591 -0.5266 -0.7282 -1.2399
 4802SOL    HW226043   3.270   0.230   8.578 -0.0186  1.1521 -0.7544
 4803SOL     OW26044   1.955   0.727   7.244  0.0190 -0.3599 -0.8221
 4803SOL    HW126045   2.026   0.770   7.197  1.0712 -0.2526  0.8712
 4803SOL    HW226046   1.895   0.799   7.263  0.5863  0.5156 -2.3658
 4804SOL     OW26047   2.766   2.029   3.528  0.6629 -0.2122 -0.2222
 4804SOL    HW126048   2.838   2.091   3.540 -1.0534  1.1145  3.3174
 4804SOL    HW226049   2.753   2.042   3.434  0.3975 -0.1590 -0.1787
 4805SOL     OW26050   3.781   0.992   2.481  0.2075  0.1288 -0.1309
 4805SOL    HW126051   3.767   1.052   2.554  3.1212  0.4776  0.1504
 4805SOL    HW226052   3.703   1.019   2.433  1.6337 -0.1966 -2.6294
 4806SOL     OW26053   0.141   1.916   9.445 -0.0980  0.2628  0.3303
 4806SOL    HW126054   0.066   1.860   9.423  1.4052 -0.5619 -2.6687
 4806SOL    HW226055   0.100   1.997   9.477  0.5190  1.0781 -0.9580
 4807SOL     OW26056   2.976   4.149   6.019  0.1991  0.5570 -0.4635
 4807SOL    HW126057   2.918   4.164   6.094 -1.5202 -0.3354 -1.5947
 4807SOL    HW226058   2.911   4.158   5.949 -0.1875  0.2825 -0.1347
 4808SOL     OW26059   2.470   3.988   7.976  0.9488  0.1803  0.1278
 4808SOL    HW126060   2.504   3.967   7.889 -0.8123  0.0344 -0.5356
 4808SOL    HW226061   2.393   4.042   7.959  0.3532 -0.0160  2.1991
 4809SOL     OW26062   4.709   2.473   8.497 -0.7560 -0.3001  0.3380
 4809SOL    HW126063   4.614   2.466   8.490 -0.6647  0.4730 -1.6988
 4809SOL    HW226064   4.727   2.385   8.463  0.8553  1.5916 -3.7169
 4810SOL     OW26065   2.026   0.559   5.010  0.1938 -0.4796 -0.3611
 4810SOL    HW126066   2.010   0.562   4.916 -0.6234 -2.0366 -0.2651
 4810SOL    HW226067   2.070   0.643   5.022  3.5115 -2.2808  0.0728
 4811SOL     OW26068   4.570   2.583   8.742 -0.3383 -0.0829  0.1137
 4811SOL    HW126069   4.577   2.676   8.721  2.4144 -0.1406  0.7254
 4811SOL    HW226070   4.643   2.567   8.802  0.4835 -0.8298 -1.0717
 4812SOL     OW26071   3.283   1.976   3.447 -0.5149 -0.3840  0.4917
 4812SOL    HW126072   3.260   1.900   3.502 -1.0671 -0.4232  0.2077
 4812SOL    HW226073   3.356   1.939   3.398 -0.8979  2.1041 -1.9102
 4813SOL     OW26074   2.283   2.134   0.141 -0.1864  0.0937  0.0468
 4813SOL    HW126075   2.207   2.097   0.187 -1.7151  1.1189 -1.6860
 4813SOL    HW226076   2.356   2.137   0.204  0.8212 -1.9346 -1.0279
 4814SOL     OW26077   3.675   1.303   5.838 -1.3449 -0.0462 -0.6952
 4814SOL    HW126078   3.646   1.289   5.748  1.6468  0.3086 -1.7153
 4814SOL    HW226079   3.587   1.295   5.874 -0.8173  3.9245  1.4229
 4815SOL     OW26080   1.550   2.283   3.071  0.0624  0.3451 -0.0239
 4815SOL    HW126081   1.502   2.350   3.120  1.2273  1.1857 -0.0559
 4815SOL    HW226082   1.617   2.337   3.029 -1.3396 -0.0139 -2.7193
 4816SOL     OW26083   2.281   0.198   7.329  0.2283 -0.5485 -0.4017
 4816SOL    HW126084   2.294   0.273   7.387  0.6801 -1.1428  0.2635
 4816SOL    HW226085   2.333   0.125   7.362  1.9107 -0.5446 -3.0798
 4817SOL     OW26086   3.044   0.983   5.784  0.0033  0.4558 -0.0112
 4817SOL    HW126087   3.017   0.995   5.693  1.7092 -1.4888 -0.7894
 4817SOL    HW226088   2.991   0.911   5.817 -0.2599  1.6316  2.1611
 4818SOL     OW26089   1.782   4.280  10.668 -0.6731  0.2916  0.1378
 4818SOL    HW126090   1.855   4.340  10.686  1.5137 -1.6912 -2.1255
 4818SOL    HW226091   1.705   4.336  10.676 -0.6698  0.0567  1.7311
 4819SOL     OW26092   4.643   3.522   7.555  0.0806 -0.0136  0.4260
 4819SOL    HW126093   4.663   3.452   7.492 -0.4959  0.2827 -0.0877
 4819SOL    HW226094   4.694   3.501   7.633  1.5963 -1.0352 -0.8399
 4820SOL     OW26095   3.588   2.030   7.406 -0.2458  0.2573 -0.7542
 4820SOL    HW126096   3.622   2.028   7.317 -0.4326  1.2277 -0.8497
 4820SOL    HW226097   3.580   1.935   7.410 -1.3891  0.4743  2.3928
 4821SOL     OW26098   3.505   4.708  17.222  0.5609  0.2286 -0.1868
 4821SOL    HW126099   3.476   4.618  17.213 -1.0153  0.6530  0.5813
 4821SOL    HW226100   3.445   0.008  17.156 -1.5031 -0.0146  1.5656
 4822SOL     OW26101   3.445   0.343  16.798  0.8656  0.3098 -0.4079
 4822SOL    HW126102   3.499   0.296  16.862 -1.1320 -0.7903  0.4552
 4822SOL    HW226103   3.472   0.285  16.726  1.1086 -2.6313  2.0242
 4823SOL     OW26104   1.051   3.420   4.323  0.2599 -0.1546 -0.1966
 4823SOL    HW126105   1.090   3.344   4.279  0.2339 -0.8528  0.9891
 4823SOL    HW226106   1.001   3.372   4.388  1.4700 -0.8971  0.1915
 4824SOL     OW26107   1.236   1.897   2.650  0.4081  0.3996 -0.3261
 4824SOL    HW126108   1.320   1.920   2.691 -0.0098  1.6616 -0.1726
 4824SOL    HW226109   1.188   1.980   2.650  0.8076  0.6176 -2.6749
 4825SOL     OW26110   0.475   2.498   0.359  0.1133  0.2353 -0.4638
 4825SOL    HW126111   0.407   2.490   0.293 -0.0129 -1.8709 -0.0659
 4825SOL    HW226112   0.424   2.476   0.437 -1.9742  3.6960 -0.8465
 4826SOL     OW26113   3.831   2.930   2.232  0.2878  0.4650  0.1226
 4826SOL    HW126114   3.851   2.950   2.323  0.5529 -0.6776  0.3174
 4826SOL    HW226115   3.857   3.015   2.195  0.7748  1.3353  2.4747
 4827SOL     OW26116   1.077   1.271  12.540  0.1990  0.3885 -0.6209
 4827SOL    HW126117   1.055   1.214  12.614  2.9155 -0.4043 -0.4548
 4827SOL    HW226118   1.009   1.242  12.479 -0.2397 -2.4481  1.1759
 4828SOL     OW26119   2.261   2.451   9.108  0.0177  0.7683  0.8739
 4828SOL    HW126120   2.329   2.457   9.175 -1.5488 -0.5277  2.5744
 4828SOL    HW226121   2.212   2.371   9.128  0.4901  0.5489  1.1586
 4829SOL     OW26122   2.006   4.687   5.662 -0.0437  0.4167  0.2534
 4829SOL    HW126123   2.073   4.707   5.597  0.1625  0.0041  0.3346
 4829SOL    HW226124   2.062   4.633   5.719 -2.8120 -2.0465  0.6212
 4830SOL     OW26125   1.406   3.494  16.721 -0.4800 -0.4168  0.2601
 4830SOL    HW126126   1.427   3.538  16.804  1.1293  0.1706 -0.4619
 4830SOL    HW226127   1.330   3.545  16.693  0.4770  0.2556 -1.1208
 4831SOL     OW26128   0.747   0.576   0.568  0.2129  0.0821 -0.1794
 4831SOL    HW126129   0.687   0.532   0.629  0.9216 -3.4563 -2.0488
 4831SOL    HW226130   0.691   0.644   0.530 -1.5602  0.6393  3.3825
 4832SOL     OW26131   4.061   1.312   8.004  0.0728  0.2329 -0.1984
 4832SOL    HW126132   4.097   1.224   8.015  0.4017  0.1703 -1.7267
 4832SOL    HW226133   4.058   1.333   7.911  0.5562 -0.6084 -0.4014
 4833SOL     OW26134   4.691   1.199   3.461  0.2457  0.5035  0.5558
 4833SOL    HW126135   0.022   1.131   3.461 -0.6141 -0.3629  0.2710
 4833SOL    HW226136   4.700   1.220   3.368  2.1419 -0.6825  0.4749
 4834SOL     OW26137   3.549   2.400   9.346 -0.0558 -0.2774  0.6104
 4834SOL    HW126138   3.475   2.372   9.293  0.4190 -2.7109  1.2320
 4834SOL    HW226139   3.508   2.472   9.393  1.2847  0.5970  0.4469
 4835SOL     OW26140   2.234   2.641   6.555 -0.6471  0.3358  0.5540
 4835SOL    HW126141   2.275   2.555   6.546 -1.7307  0.0317 -1.6269
 4835SOL    HW226142   2.148   2.624   6.593 -0.7217  1.2506  0.7937
 4836SOL     OW26143   1.638   4.279   7.879  0.5307  0.3183  0.7808
 4836SOL    HW126144   1.638   4.186   7.901 -0.6486  0.0240 -0.4875
 4836SOL    HW226145   1.544   4.292   7.872  0.4694  1.0283  2.9130
 4837SOL     OW26146   1.188   1.417   7.788 -0.1829  0.1668 -0.0747
 4837SOL    HW126147   1.141   1.410   7.871  0.8647 -0.1437  0.4858
 4837SOL    HW226148   1.140   1.352   7.737 -0.6034 -0.0559  0.6080
 4838SOL     OW26149   3.240   1.240   2.069 -0.1757  0.4607 -0.2060
 4838SOL    HW126150   3.242   1.319   2.015 -1.5527  0.9380  0.4578
 4838SOL    HW226151   3.186   1.265   2.144  0.1324  1.5002 -0.3244
 4839SOL     OW26152   2.222   4.731   7.703  0.2802  0.1264  0.0895
 4839SOL    HW126153   2.275   4.714   7.781  0.6540  0.4397 -0.0919
 4839SOL    HW226154   2.176   0.070   7.739  1.8742  1.0531  0.1884
 4840SOL     OW26155   2.295   0.835   3.977 -0.4770 -0.1299 -0.6195
 4840SOL    HW126156   2.234   0.889   4.027  0.3813  0.7360 -0.4996
 4840SOL    HW226157   2.349   0.902   3.935 -3.1249 -0.4104 -4.4911
 4841SOL     OW26158   4.048   3.390   6.567 -0.5620 -0.0762 -0.4043
 4841SOL    HW126159   4.057   3.449   6.492  0.6452 -1.1108 -1.0706
 4841SOL    HW226160   3.979   3.333   6.534  1.6698 -1.6170 -2.3403
 4842SOL     OW26161   0.383   3.099   4.883  0.4446  0.2372  0.3053
 4842SOL    HW126162   0.336   3.108   4.966 -1.5084  0.6327 -0.8434
 4842SOL    HW226163   0.311   3.080   4.823  0.7005  0.6643 -0.1429
 4843SOL     OW26164   3.868   3.966  10.281  0.0069 -0.2333  0.1895
 4843SOL    HW126165   3.949   3.918  10.296 -0.1979 -0.6108  0.1002
 4843SOL    HW226166   3.852   3.948  10.188 -1.1804  1.2323  0.1125
 4844SOL     OW26167   1.703   2.192   1.352 -0.1144 -0.4410  0.3921
 4844SOL    HW126168   1.661   2.173   1.436  1.4759 -1.1329  1.0261
 4844SOL    HW226169   1.651   2.268   1.326 -1.0440 -0.6893  1.5430
 4845SOL     OW26170   4.591   1.090   5.895 -0.0973  0.2489 -0.0064
 4845SOL    HW126171   4.561   1.135   5.973 -2.6374 -1.1011 -0.2063
 4845SOL    HW226172   4.504   1.065   5.862  0.4128 -2.1987  0.5097
 4846SOL     OW26173   3.464   2.548   3.522  0.3198 -0.4445 -0.4743
 4846SOL    HW126174   3.555   2.553   3.491 -0.0451 -0.5528 -1.5614
 4846SOL    HW226175   3.433   2.633   3.490  0.8749  0.6141  1.7748
 4847SOL     OW26176   1.864   4.633   3.646  0.4817 -0.1541  0.0722
 4847SOL    HW126177   1.898   4.721   3.665 -2.1380  0.3999  2.1621
 4847SOL    HW226178   1.931   4.594   3.590 -0.9495 -1.4374 -0.7504
 4848SOL     OW26179   2.593   4.529   7.585 -0.4950  0.3488 -0.3363
 4848SOL    HW126180   2.646   4.565   7.656 -0.6757 -2.2931  1.1426
 4848SOL    HW226181   2.637   4.567   7.509  1.3184  0.8938  1.0051
 4849SOL     OW26182   2.758   3.176   6.810 -0.0421 -0.0916  0.2694
 4849SOL    HW126183   2.820   3.202   6.879 -0.2765  2.2655 -0.3983
 4849SOL    HW226184   2.805   3.095   6.790  0.3881  0.6480 -1.6487
 4850SOL     OW26185   1.712   4.296   2.050 -0.5143  0.1186  0.4705
 4850SOL    HW126186   1.737   4.342   1.969 -0.4785 -1.3273 -0.3355
 4850SOL    HW226187   1.785   4.236   2.062  0.8885  1.3197 -1.9254
 4851SOL     OW26188   3.460   0.669   2.409  0.7995 -0.0746  0.1155
 4851SOL    HW126189   3.429   0.742   2.462 -0.0033  0.1761 -0.7025
 4851SOL    HW226190   3.409   0.594   2.439  0.3606  0.2733  0.2352
 4852SOL     OW26191   2.182   0.889   6.212 -1.0899 -0.8889  0.2879
 4852SOL    HW126192   2.271   0.859   6.196 -1.1007 -0.9355  0.3147
 4852SOL    HW226193   2.138   0.818   6.166 -0.4820 -0.0878 -1.5034
 4853SOL     OW26194   2.893   3.277  13.767 -0.0458 -0.0351 -0.0203
 4853SOL    HW126195   2.859   3.230  13.691  5.3021 -0.3521 -2.1309
 4853SOL    HW226196   2.951   3.340  13.726 -0.3407  0.4337  0.2818
 4854SOL     OW26197   0.935   1.071   4.110  1.1272 -0.7463 -0.0478
 4854SOL    HW126198   0.900   1.005   4.170 -0.8841  0.6514  0.2910
 4854SOL    HW226199   0.902   1.031   4.030 -1.4902  0.7627  0.3000
 4855SOL     OW26200   3.760   4.504  12.703 -0.0623  0.2469 -0.0018
 4855SOL    HW126201   3.680   4.556  12.717 -0.3575 -0.1149 -0.3571
 4855SOL    HW226202   3.741   4.423  12.751  1.8001 -0.6162 -0.7216
 4856SOL     OW26203   1.687   4.304   1.771 -0.2996 -0.0536  0.1386
 4856SOL    HW126204   1.688   4.224   1.823 -3.5967 -0.2892 -0.1459
 4856SOL    HW226205   1.592   4.317   1.768 -0.8115 -4.2509 -1.4261
 4857SOL     OW26206   3.349   0.429   3.962  0.2750 -0.1095  0.2803
 4857SOL    HW126207   3.439   0.444   3.990 -0.3126  0.0473  2.0977
 4857SOL    HW226208   3.351   0.476   3.879  0.2702 -0.8983 -0.1558
 4858SOL     OW26209   2.107   0.959   7.648  0.0543  0.0801  0.6450
 4858SOL    HW126210   2.066   0.914   7.722 -0.0585 -1.8623 -0.6073
 4858SOL    HW226211   2.119   1.037   7.702 -0.6953 -0.1641  1.1618
 4859SOL     OW26212   1.386   1.829   3.181  0.1171  0.0683 -0.1697
 4859SOL    HW126213   1.394   1.924   3.175  0.9358 -0.1586 -2.6935
 4859SOL    HW226214   1.427   1.801   3.099  0.1198  1.3087 -0.5963
 4860SOL     OW26215   3.978   1.999   7.074  0.2288  0.0239 -0.0531
 4860SOL    HW126216   4.000   1.936   7.142  2.1033  2.0277  1.2200
 4860SOL    HW226217   3.900   2.043   7.111  0.5855  0.8480 -0.2807
 4861SOL     OW26218   3.006   1.856   2.670 -0.4196  0.0024 -0.0778
 4861SOL    HW126219   2.969   1.833   2.585 -0.1404  2.9910 -1.0225
 4861SOL    HW226220   3.099   1.848   2.647 -0.4308 -2.6149  0.7770
 4862SOL     OW26221   0.686   2.690   8.005  0.3768  0.4710  0.0161
 4862SOL    HW126222   0.638   2.768   8.031  0.1827 -0.1673  1.5310
 4862SOL    HW226223   0.624   2.657   7.939 -0.7122  1.3500  0.5971
 4863SOL     OW26224   2.402   0.736   6.154  0.4118  0.0852 -0.3415
 4863SOL    HW126225   2.408   0.651   6.110 -1.9211 -0.2497 -0.0105
 4863SOL    HW226226   2.452   0.782   6.087  3.7941  0.8799  2.7142
 4864SOL     OW26227   1.313   2.615  10.749  0.2663  0.0798  0.7394
 4864SOL    HW126228   1.356   2.539  10.788 -0.3607  0.9298  3.0772
 4864SOL    HW226229   1.228   2.573  10.734  0.4985 -0.3704  0.6743
 4865SOL     OW26230   2.634   1.661   8.212 -0.1558  0.2434  0.0913
 4865SOL    HW126231   2.562   1.621   8.262  0.0837  3.2412  2.8232
 4865SOL    HW226232   2.599   1.750   8.210 -1.0681 -0.0944  1.0116
 4866SOL     OW26233   0.691   4.205  15.921 -0.0319 -0.3918  0.0149
 4866SOL    HW126234   0.700   4.269  15.850  2.3226  0.9128  1.4914
 4866SOL    HW226235   0.722   4.261  15.992  0.5982 -0.3921 -0.2625
 4867SOL     OW26236   3.254   0.409   1.211  0.3966 -0.0356 -0.4534
 4867SOL    HW126237   3.240   0.359   1.131  0.3600  0.0857 -0.5223
 4867SOL    HW226238   3.340   0.375   1.236 -0.0147 -0.8183 -0.0762
 4868SOL     OW26239   3.577   1.853  13.576 -0.1693  0.3361  0.3428
 4868SOL    HW126240   3.638   1.805  13.632  0.2344  0.3649 -0.0699
 4868SOL    HW226241   3.500   1.869  13.630 -1.2211 -0.6563 -0.8522
 4869SOL     OW26242   2.153   1.007   5.655 -0.5612  0.2380 -0.0178
 4869SOL    HW126243   2.132   0.992   5.748 -4.0011 -1.3782 -1.0719
 4869SOL    HW226244   2.227   1.067   5.657  1.8728 -2.7610  1.7144
 4870SOL     OW26245   2.407   1.074  17.098  0.4324  0.1863  0.1436
 4870SOL    HW126246   2.478   1.017  17.127  0.0806 -0.3970 -0.1319
 4870SOL    HW226247   2.439   1.089  17.009  0.3738  0.0238  0.0950
 4871SOL     OW26248   3.523   2.687   4.709  0.2855  0.2398  0.5419
 4871SOL    HW126249   3.476   2.611   4.743  0.4622  0.3204  0.9584
 4871SOL    HW226250   3.585   2.645   4.648  0.9384  1.1240  0.5972
 4872SOL     OW26251   1.357   2.141  11.709 -0.0816  0.4316  0.1633
 4872SOL    HW126252   1.356   2.061  11.762 -1.8799  0.4839  0.2001
 4872SOL    HW226253   1.406   2.119  11.630  1.1560 -1.5716  1.4960
 4873SOL     OW26254   1.524   3.233   6.509  0.6875  0.0027  0.0090
 4873SOL    HW126255   1.466   3.309   6.506 -0.2760 -0.7167  0.2600
 4873SOL    HW226256   1.508   3.193   6.423 -0.5889  2.2261 -0.7865
 4874SOL     OW26257   3.331   3.361   1.178  0.3062  0.4004 -0.0372
 4874SOL    HW126258   3.246   3.356   1.223  1.3193  1.0119  1.9139
 4874SOL    HW226259   3.304   3.424   1.111  0.5637  1.0893  0.5169
 4875SOL     OW26260   0.570   0.458   4.143  0.1150  0.2901 -0.5531
 4875SOL    HW126261   0.632   0.391   4.170  1.5463  1.5721 -0.6034
 4875SOL    HW226262   0.494   0.410   4.110 -0.7614  1.2013  0.1369
 4876SOL     OW26263   3.121   1.435  11.357  0.2615  0.0981 -0.2752
 4876SOL    HW126264   3.215   1.422  11.350  0.3677  1.0777 -0.7312
 4876SOL    HW226265   3.096   1.348  11.388  0.0293  0.6672  1.1120
 4877SOL     OW26266   3.925   3.717   2.494 -0.2486 -0.0592 -0.1360
 4877SOL    HW126267   3.974   3.638   2.516  1.0289  0.9592  0.7139
 4877SOL    HW226268   3.993   3.783   2.513 -1.1608  0.7861  0.1898
 4878SOL     OW26269   3.122   0.704   2.534  0.3043  0.8253  0.2726
 4878SOL    HW126270   3.172   0.629   2.567 -0.2608  1.0015  1.4984
 4878SOL    HW226271   3.123   0.692   2.439 -2.0148  0.7782  0.2453
 4879SOL     OW26272   3.176   1.670   2.333  0.2673 -0.0359  0.0646
 4879SOL    HW126273   3.142   1.586   2.363 -1.2119 -0.7292 -3.4554
 4879SOL    HW226274   3.194   1.659   2.239 -0.1340 -0.6847  0.0638
 4880SOL     OW26275   2.119   4.029   3.454  0.0649  0.6156 -0.2455
 4880SOL    HW126276   2.031   4.035   3.492 -0.4971  2.1654 -1.8252
 4880SOL    HW226277   2.170   4.020   3.535  1.8401  0.2183 -1.4002
 4881SOL     OW26278   1.273   1.162   2.459 -0.3804 -0.0780 -0.2939
 4881SOL    HW126279   1.181   1.189   2.464  0.0346  1.2016  0.1762
 4881SOL    HW226280   1.293   1.147   2.551  1.0996  0.9732 -0.4558
 4882SOL     OW26281   4.589   2.848   5.879 -0.6490  0.0639 -0.0197
 4882SOL    HW126282   4.558   2.936   5.899 -0.9665 -0.0669  0.0709
 4882SOL    HW226283   4.650   2.820   5.948  1.8138 -2.4609 -3.2120
 4883SOL     OW26284   2.869   0.757   3.771 -0.0917  0.2374 -0.1375
 4883SOL    HW126285   2.819   0.820   3.718  0.2439  0.4732 -0.1788
 4883SOL    HW226286   2.798   0.717   3.821  0.0424  0.8278  0.5231
 4884SOL     OW26287   4.013   2.595   2.995 -0.7575  0.1139 -0.7726
 4884SOL    HW126288   3.985   2.584   2.905 -1.2615 -0.8104 -0.4947
 4884SOL    HW226289   4.057   2.512   3.011 -1.9821 -0.8744 -2.6124
 4885SOL     OW26290   3.111   1.441   2.495  0.0294 -0.5596  0.4315
 4885SOL    HW126291   3.130   1.470   2.584 -1.4415 -0.8326  0.8390
 4885SOL    HW226292   3.195   1.399   2.476 -2.2578 -3.9266 -2.4061
 4886SOL     OW26293   3.276   0.239   0.998  0.5502 -0.5522 -0.0169
 4886SOL    HW126294   3.339   0.200   1.059  0.7754  0.8826  0.6647
 4886SOL    HW226295   3.206   0.174   1.007  0.1284 -0.0137  0.5957
 4887SOL     OW26296   0.958   3.159   6.540  0.6716  0.4309 -0.0943
 4887SOL    HW126297   1.034   3.101   6.546  2.5015  2.7264 -1.4684
 4887SOL    HW226298   0.904   3.111   6.603 -0.8837 -1.1282 -2.6105
 4888SOL     OW26299   0.150   3.846   8.304  0.3234  0.7777 -0.4085
 4888SOL    HW126300   0.117   3.865   8.217 -1.0882  0.2299  0.0103
 4888SOL    HW226301   0.080   3.872   8.364 -0.6478  0.6944 -1.5126
 4889SOL     OW26302   3.810   2.450   9.430  0.2374 -0.7218 -0.5065
 4889SOL    HW126303   3.863   2.425   9.355 -1.1725  1.5598 -2.2569
 4889SOL    HW226304   3.721   2.428   9.401  0.1634 -1.7871  0.5188
 4890SOL     OW26305   4.664   1.704   9.430 -0.1889  0.1321 -0.0723
 4890SOL    HW126306   4.708   1.692   9.514  2.6267  1.9304 -1.3042
 4890SOL    HW226307   4.720   1.654   9.372 -0.9442  0.3514 -0.9840
 4891SOL     OW26308   2.558   0.709   5.290  0.0963  0.2584  0.5975
 4891SOL    HW126309   2.560   0.765   5.367  1.3422 -0.4096  1.0481
 4891SOL    HW226310   2.627   0.743   5.233 -0.6628 -0.8093 -0.9694
 4892SOL     OW26311   3.598   0.105  10.809 -0.1459  0.4643  0.8269
 4892SOL    HW126312   3.610   0.051  10.731  1.7340 -0.9259  2.0722
 4892SOL    HW226313   3.674   0.163  10.808  1.0721 -1.1199  2.0185
 4893SOL     OW26314   2.933   4.474   8.960 -1.0892 -0.4215  0.5367
 4893SOL    HW126315   2.979   4.557   8.948  0.3163 -1.1166  1.2330
 4893SOL    HW226316   2.859   4.489   8.900 -0.0279  1.7961 -0.2249
 4894SOL     OW26317   4.345   2.902   7.264  0.1516  0.0125  0.5148
 4894SOL    HW126318   4.291   2.980   7.247 -0.7145 -0.4275  1.2731
 4894SOL    HW226319   4.411   2.911   7.195  0.0689 -0.0717  0.4242
 4895SOL     OW26320   4.358   1.536   6.856 -0.3421  0.2425 -0.2149
 4895SOL    HW126321   4.371   1.546   6.950  0.8450  0.0342 -0.3553
 4895SOL    HW226322   4.421   1.592   6.810  0.3203 -0.0682  0.3084
 4896SOL     OW26323   3.050   2.331   8.832  0.1947 -0.3407 -0.1781
 4896SOL    HW126324   3.094   2.246   8.832 -1.1795 -1.0558 -0.4380
 4896SOL    HW226325   2.967   2.312   8.876  0.5746 -0.6979  0.3751
 4897SOL     OW26326   1.829   0.928   6.713 -0.2169 -0.0530  0.1884
 4897SOL    HW126327   1.781   0.882   6.645  0.2876 -2.3519  1.4133
 4897SOL    HW226328   1.810   0.872   6.788  1.8866 -1.6044 -0.4499
 4898SOL     OW26329   4.700   3.870  15.312 -0.3357 -0.4828 -0.3758
 4898SOL    HW126330   4.627   3.845  15.256  2.1979 -2.7153 -2.6428
 4898SOL    HW226331   4.671   3.960  15.327 -1.2612 -0.2159 -3.8850
 4899SOL     OW26332   2.091   3.792   9.653  0.0457  0.1581 -0.3349
 4899SOL    HW126333   2.085   3.768   9.561  1.3825 -0.5411 -0.2481
 4899SOL    HW226334   2.099   3.887   9.655 -0.6929  0.2751 -3.1533
 4900SOL     OW26335   2.252   2.868   4.483 -0.4650  0.2070  0.2309
 4900SOL    HW126336   2.260   2.858   4.578 -4.4485 -1.6436  0.3624
 4900SOL    HW226337   2.334   2.909   4.455 -1.1936  0.0441 -2.1090
 4901SOL     OW26338   0.569   1.459   2.423 -0.3926  0.1865 -0.5228
 4901SOL    HW126339   0.544   1.369   2.403  0.0371  0.1855 -1.0624
 4901SOL    HW226340   0.601   1.452   2.513 -1.7119 -1.2648 -0.1689
 4902SOL     OW26341   1.022   3.002   7.355  0.2565  0.2964  0.3054
 4902SOL    HW126342   1.020   3.015   7.450 -0.0846 -0.4624  0.4019
 4902SOL    HW226343   1.088   3.067   7.329 -0.1777  0.0813 -1.3592
 4903SOL     OW26344   3.586   0.224   0.614 -0.2527  0.0911 -0.4612
 4903SOL    HW126345   3.645   0.300   0.605 -0.7777  0.7909  1.9323
 4903SOL    HW226346   3.555   0.212   0.524  0.4034  1.5578 -0.8867
 4904SOL     OW26347   3.379   2.519  17.298  0.6292  0.5236  0.0496
 4904SOL    HW126348   3.459   2.484  17.258 -0.7488 -0.4627 -1.8334
 4904SOL    HW226349   3.315   2.472  17.245  2.3499 -0.6834 -0.9462
 4905SOL     OW26350   4.510   3.876   2.366 -0.3967  0.0694  0.2073
 4905SOL    HW126351   4.536   3.787   2.342 -1.6865 -0.3138  0.1894
 4905SOL    HW226352   4.414   3.878   2.370 -0.3976  2.9230 -1.3015
 4906SOL     OW26353   2.894   3.091   4.027  0.1515  0.2504 -0.1285
 4906SOL    HW126354   2.892   3.185   4.044 -1.8399  0.6242 -2.4201
 4906SOL    HW226355   2.854   3.099   3.940 -0.6242 -1.4045  0.0789
 4907SOL     OW26356   0.749   4.490   9.085 -0.7348 -0.2462 -0.2669
 4907SOL    HW126357   0.683   4.443   9.135 -1.5749  0.3894 -0.7598
 4907SOL    HW226358   0.816   4.506   9.151  1.2121  1.0994 -2.5486
 4908SOL     OW26359   2.079   0.544   8.669  0.6893  0.3220 -0.2070
 4908SOL    HW126360   2.017   0.593   8.723 -0.2823 -0.8087 -0.2872
 4908SOL    HW226361   2.059   0.450   8.670 -0.9294  0.6687  0.3096
 4909SOL     OW26362   2.105   0.747   5.308  0.5741 -0.1396  0.5433
 4909SOL    HW126363   2.088   0.819   5.247  2.7548  0.9790  1.2583
 4909SOL    HW226364   2.177   0.691   5.277 -0.6998 -1.3695 -0.1846
 4910SOL     OW26365   1.524   4.491   8.364  0.4006 -0.3202  0.0911
 4910SOL    HW126366   1.501   4.521   8.452 -0.4322 -0.3433 -0.1185
 4910SOL    HW226367   1.605   4.538   8.343 -0.6884  0.9248 -1.3223
 4911SOL     OW26368   2.849   1.026   9.017 -0.0012 -0.2525 -0.3032
 4911SOL    HW126369   2.898   1.089   9.070 -1.2802  0.2907  0.2051
 4911SOL    HW226370   2.764   1.069   9.011  0.0342 -0.2674 -0.8670
 4912SOL     OW26371   4.609   1.093   8.025  0.5021 -0.1442 -0.3060
 4912SOL    HW126372   4.695   1.134   8.013  0.4209  0.6712  1.8323
 4912SOL    HW226373   4.625   1.018   8.084  1.3815  0.7364  0.5845
 4913SOL     OW26374   2.264   0.402   1.915  0.3052  0.0713  0.2556
 4913SOL    HW126375   2.190   0.446   1.957 -0.1190  1.7478 -2.2321
 4913SOL    HW226376   2.223   0.350   1.846  1.6348 -0.5498 -0.0773
 4914SOL     OW26377   0.313   3.288   6.694  0.1697  0.2860  0.0572
 4914SOL    HW126378   0.381   3.243   6.644 -2.8587 -1.3982 -2.5928
 4914SOL    HW226379   0.236   3.300   6.638  0.0487 -0.7262  0.0108
 4915SOL     OW26380   3.364   0.170   2.816 -0.3581  0.0139 -0.1809
 4915SOL    HW126381   3.400   0.254   2.787  1.5312  0.2946  3.0308
 4915SOL    HW226382   3.289   0.202   2.866  0.0585  1.6961 -0.6208
 4916SOL     OW26383   1.500   1.295  11.889 -0.3629  0.5586 -0.2349
 4916SOL    HW126384   1.489   1.388  11.906  3.6502  0.0244  5.1266
 4916SOL    HW226385   1.594   1.295  11.904 -0.3854 -1.6508 -0.0700
 4917SOL     OW26386   0.234   4.458   7.999 -0.2773  0.5759 -0.5863
 4917SOL    HW126387   0.171   4.386   7.993  1.3007 -1.0451  1.9901
 4917SOL    HW226388   0.261   4.457   8.091 -1.9348  1.8600 -0.0958
 4918SOL     OW26389   4.595   0.747   7.256 -0.3924  0.1754  0.0309
 4918SOL    HW126390   4.666   0.795   7.298 -1.4673  1.5445  0.2416
 4918SOL    HW226391   4.642   0.697   7.188  3.0782  0.2866  2.3148
 4919SOL     OW26392   1.404   3.137   7.190  0.4577  0.1829  0.1667
 4919SOL    HW126393   1.353   3.160   7.268  1.2691  3.4577 -0.2732
 4919SOL    HW226394   1.336   3.118   7.126  0.7239  0.2991 -0.1490
 4920SOL     OW26395   0.244   0.256  17.357  0.1474 -0.1364  0.4073
 4920SOL    HW126396   0.198   0.340  17.350  1.6998  0.6454 -0.2786
 4920SOL    HW226397   0.220   0.210  17.276  0.2734 -1.9059  1.3821
 4921SOL     OW26398   1.602   3.731  11.002  0.8143  0.2572  0.1719
 4921SOL    HW126399   1.610   3.801  10.936 -1.3662  1.3707  1.0861
 4921SOL    HW226400   1.694   3.707  11.014  0.0290 -2.2962  0.9460
 4922SOL     OW26401   0.324   1.382  13.490  0.1330 -0.1573 -0.0821
 4922SOL    HW126402   0.414   1.358  13.513 -0.0479  0.4777  1.2394
 4922SOL    HW226403   0.345   1.430  13.410  0.7333  1.1649  0.8798
 4923SOL     OW26404   1.051   3.630  12.097  0.2383 -0.5083  0.0722
 4923SOL    HW126405   1.121   3.636  12.033  1.1007  1.7032  1.2382
 4923SOL    HW226406   0.993   3.567  12.053  2.2444 -2.1296 -0.2414
 4924SOL     OW26407   2.238   1.356   0.694 -0.0961 -0.1024  0.3006
 4924SOL    HW126408   2.256   1.392   0.781 -0.1768  1.5451 -0.3471
 4924SOL    HW226409   2.318   1.394   0.657  0.7052 -1.6425  0.4795
 4925SOL     OW26410   4.641   4.625  14.393 -0.1930  0.3857 -0.1055
 4925SOL    HW126411   4.732   4.653  14.405  0.0423 -0.4251  0.0287
 4925SOL    HW226412   4.609   4.637  14.482  0.2013 -0.1924  0.1169
 4926SOL     OW26413   1.473   0.868  13.818 -0.6145  0.1166  0.3568
 4926SOL    HW126414   1.437   0.852  13.906 -1.2779 -0.5739 -0.0427
 4926SOL    HW226415   1.485   0.779  13.785 -2.4219  1.3180 -3.6189
 4927SOL     OW26416   0.942   1.996   4.189  0.1337  0.1890 -0.7155
 4927SOL    HW126417   0.849   2.015   4.201 -0.1304 -1.6910  0.2128
 4927SOL    HW226418   0.944   1.901   4.179 -0.0634  0.0798  0.2188
 4928SOL     OW26419   3.324   2.441   8.433  0.3548  0.1154  0.4999
 4928SOL    HW126420   3.230   2.441   8.451  0.3225  2.1755  0.3722
 4928SOL    HW226421   3.357   2.523   8.470 -1.6556  1.7732 -1.4245
 4929SOL     OW26422   1.463   2.510   5.791  0.3624  0.0618 -0.3763
 4929SOL    HW126423   1.449   2.580   5.856  0.3424  0.3190 -0.6569
 4929SOL    HW226424   1.520   2.444   5.830 -1.6592 -0.4874  1.6962
 4930SOL     OW26425   1.769   4.588   8.653 -0.3080  0.4138 -0.2827
 4930SOL    HW126426   1.721   4.671   8.659  0.2973  0.6358  1.6387
 4930SOL    HW226427   1.718   4.534   8.714  1.5543 -1.4404 -0.3993
 4931SOL     OW26428   3.282   2.836   7.059  0.1159 -0.0070  0.3874
 4931SOL    HW126429   3.368   2.834   7.018 -0.2861  0.2925 -0.4807
 4931SOL    HW226430   3.298   2.767   7.123 -2.1876 -2.3520 -1.5524
 4932SOL     OW26431   0.699   2.648  15.042  0.0193 -0.5496  0.3782
 4932SOL    HW126432   0.651   2.569  15.016  1.3425 -0.5608 -2.0532
 4932SOL    HW226433   0.639   2.675  15.112  1.4842  1.0308  1.0326
 4933SOL     OW26434   3.513   2.659   1.238 -0.0091 -0.5045  0.3995
 4933SOL    HW126435   3.465   2.656   1.155  1.4237 -0.0913 -0.4369
 4933SOL    HW226436   3.482   2.741   1.278 -1.6780 -1.8424  1.8635
 4934SOL     OW26437   3.318   3.552   9.721  0.2709 -0.0762 -0.0070
 4934SOL    HW126438   3.342   3.497   9.796  0.5603  0.9627  0.6672
 4934SOL    HW226439   3.223   3.549   9.729  0.6032 -2.1272  3.2570
 4935SOL     OW26440   0.027   0.261   2.877  0.3141 -0.3571 -0.1450
 4935SOL    HW126441   0.003   0.192   2.814 -3.3780  1.7956 -1.1320
 4935SOL    HW226442   4.731   0.333   2.823  0.0639 -1.1359 -1.0366
 4936SOL     OW26443   3.409   0.373   7.764  0.1832 -0.0596  0.2010
 4936SOL    HW126444   3.484   0.352   7.819 -0.0125 -1.6175 -0.1265
 4936SOL    HW226445   3.336   0.349   7.822 -1.7351  3.3730 -0.8212
 4937SOL     OW26446   1.120   1.787   4.948 -0.3008  0.4306  0.0313
 4937SOL    HW126447   1.145   1.855   4.886  1.6801 -1.7974 -1.6129
 4937SOL    HW226448   1.098   1.841   5.025 -0.2508  1.7549 -0.8821
 4938SOL     OW26449   3.781   4.497   4.698 -0.3055  0.1140 -0.3068
 4938SOL    HW126450   3.756   4.543   4.778 -0.9255 -2.4671  0.9710
 4938SOL    HW226451   3.696   4.495   4.655 -0.8872 -0.0084  0.8484
 4939SOL     OW26452   3.704   4.223   6.216  0.5576 -0.1388 -0.2999
 4939SOL    HW126453   3.776   4.198   6.274 -0.0780  1.8424  1.3218
 4939SOL    HW226454   3.636   4.156   6.227 -1.5808  1.9146 -1.0266
 4940SOL     OW26455   2.704   4.240   2.805 -0.7060  0.3203 -0.1975
 4940SOL    HW126456   2.629   4.213   2.753  0.5866 -1.1192 -1.3393
 4940SOL    HW226457   2.707   4.333   2.783  0.4696 -0.3810 -2.9736
 4941SOL     OW26458   1.836   3.309   4.052 -0.0878  0.6064 -0.2115
 4941SOL    HW126459   1.875   3.352   4.128 -0.9920  1.1344 -0.0410
 4941SOL    HW226460   1.761   3.364   4.029 -0.9848 -0.5366 -0.0553
 4942SOL     OW26461   4.010   0.055  14.391 -0.0783  0.1011  0.3414
 4942SOL    HW126462   4.041   0.137  14.355  2.0440  0.3651  2.7675
 4942SOL    HW226463   3.922   0.054  14.353 -0.0027  0.8011  0.1612
 4943SOL     OW26464   4.363   0.115   4.623  0.1179 -0.9811 -0.0773
 4943SOL    HW126465   4.367   0.030   4.668  0.3962 -0.6485  0.5215
 4943SOL    HW226466   4.375   0.084   4.533  0.8884  0.9415 -0.6453
 4944SOL     OW26467   2.942   4.436   7.863  0.9127  0.1496 -0.1985
 4944SOL    HW126468   2.981   4.440   7.950  1.9559  0.0438 -0.6626
 4944SOL    HW226469   2.854   4.406   7.887  1.3354 -1.0441 -0.1304
 4945SOL     OW26470   1.848   4.286   5.339 -0.0824 -0.2686 -0.1201
 4945SOL    HW126471   1.770   4.248   5.380 -0.2458 -0.4752 -0.6168
 4945SOL    HW226472   1.918   4.271   5.402  0.9101 -1.5381 -1.5065
 4946SOL     OW26473   3.596   0.372  14.278  0.5587 -0.6857 -0.0090
 4946SOL    HW126474   3.691   0.365  14.290  0.2791 -0.4828  2.1765
 4946SOL    HW226475   3.596   0.337  14.189 -0.7070  0.2572 -0.3742
 4947SOL     OW26476   0.054   3.930   0.960  0.1558 -0.3057 -0.0520
 4947SOL    HW126477   4.709   3.913   1.007  0.5603 -0.5682  0.5581
 4947SOL    HW226478   0.019   3.946   0.872 -0.8293  0.0118  0.3961
 4948SOL     OW26479   2.236   0.388   4.476  0.0487  0.5014 -0.6170
 4948SOL    HW126480   2.158   0.362   4.526  2.3923 -0.3917  2.6021
 4948SOL    HW226481   2.273   0.299   4.479 -1.7930 -0.2170  0.6273
 4949SOL     OW26482   3.907   1.742   2.869 -0.6191  0.6183 -0.4383
 4949SOL    HW126483   3.953   1.674   2.919  0.0839  0.7733 -0.8748
 4949SOL    HW226484   3.840   1.764   2.933  1.5195 -0.3623  2.1391
 4950SOL     OW26485   3.033   1.508   5.661  0.2898  0.0117  0.3555
 4950SOL    HW126486   3.119   1.471   5.641  0.1476 -0.6773  0.9988
 4950SOL    HW226487   3.021   1.584   5.604  0.0822 -0.9320 -0.8533
 4951SOL     OW26488   1.983   2.084   8.986  0.1873  0.0407 -0.2672
 4951SOL    HW126489   2.063   2.044   8.953  0.2220 -0.7946  0.8198
 4951SOL    HW226490   1.945   2.133   8.913 -1.9324  1.1569  1.5647
 4952SOL     OW26491   0.146   3.647  10.098  1.3889 -0.1358  0.3510
 4952SOL    HW126492   0.211   3.584  10.132  1.6297 -0.2555 -0.3437
 4952SOL    HW226493   0.150   3.623  10.006 -0.6577  0.2317  0.1678
 4953SOL     OW26494   3.251   2.445   3.357  0.3435  0.1248 -0.2094
 4953SOL    HW126495   3.194   2.368   3.359  1.0992 -0.4158  0.3432
 4953SOL    HW226496   3.294   2.443   3.443  0.6143 -1.4215 -0.3933
 4954SOL     OW26497   1.412   1.602   8.349  0.3350 -0.0306 -0.0958
 4954SOL    HW126498   1.428   1.582   8.257 -1.3026  0.0267 -0.3961
 4954SOL    HW226499   1.472   1.673   8.372 -0.3013  0.2627  0.6902
 4955SOL     OW26500   4.387   4.334   9.758  0.1423 -0.1649  0.3061
 4955SOL    HW126501   4.393   4.412   9.813  0.0117  0.8817 -1.1571
 4955SOL    HW226502   4.400   4.274   9.831  0.7662 -0.9489 -0.4424
 4956SOL     OW26503   3.716   3.320   3.477 -0.3438  0.6235 -0.1072
 4956SOL    HW126504   3.662   3.398   3.467  0.7640  1.1961 -1.6694
 4956SOL    HW226505   3.772   3.354   3.547 -2.7845  0.5501  1.8831
 4957SOL     OW26506   4.066   0.740  15.346  0.2058  0.0919  0.2767
 4957SOL    HW126507   4.118   0.729  15.425  0.9466 -0.1848 -0.2531
 4957SOL    HW226508   4.127   0.704  15.283  2.4515  2.7296  0.9456
 4958SOL     OW26509   2.836   1.644   2.069 -0.4303  0.2951 -0.0468
 4958SOL    HW126510   2.865   1.596   2.145 -1.0716  0.8190  0.5358
 4958SOL    HW226511   2.757   1.690   2.099  1.6051  2.1686  2.3799
 4959SOL     OW26512   2.612   4.246  16.430  0.0906 -0.3012 -0.3827
 4959SOL    HW126513   2.683   4.292  16.386 -0.7096  1.0141 -0.3033
 4959SOL    HW226514   2.652   4.263  16.516  0.8942 -2.6362 -0.2964
 4960SOL     OW26515   3.522   1.975  14.887  0.0668 -0.2268  0.1456
 4960SOL    HW126516   3.607   1.998  14.849 -0.1752  0.7726  0.2101
 4960SOL    HW226517   3.486   2.064  14.884  2.1311  0.6192  0.3084
 4961SOL     OW26518   0.502   1.798   2.565  0.0173 -0.3501  0.2068
 4961SOL    HW126519   0.587   1.820   2.603 -0.2164  1.0618 -0.0835
 4961SOL    HW226520   0.463   1.739   2.629  1.0783 -1.7225 -0.4144
 4962SOL     OW26521   2.525   3.588  15.069 -0.0150 -0.9472  0.2782
 4962SOL    HW126522   2.478   3.514  15.033 -2.0255  1.0108 -1.0745
 4962SOL    HW226523   2.538   3.562  15.160  1.5395 -2.2568 -0.3135
 4963SOL     OW26524   1.503   2.641  17.448  0.4119 -0.2323 -0.3643
 4963SOL    HW126525   1.527   2.634  17.355  0.0484 -2.1227 -0.3199
 4963SOL    HW226526   1.577   2.592  17.484  0.7167  1.7910  1.7570
 4964SOL     OW26527   4.323   0.419  17.425 -0.0466  0.0789  1.0030
 4964SOL    HW126528   4.375   0.433  17.504 -0.8930  1.2813  1.3495
 4964SOL    HW226529   4.386   0.377  17.366 -1.4451  1.4441 -1.4780
 4965SOL     OW26530   0.307   0.179   8.801  0.2255  0.3028  0.0937
 4965SOL    HW126531   0.337   0.112   8.863 -0.3042 -0.6183 -0.6264
 4965SOL    HW226532   0.278   0.244   8.865 -0.1415 -0.1707  0.4094
 4966SOL     OW26533   4.047   1.965  13.177  0.4744  0.3321  0.6972
 4966SOL    HW126534   3.978   2.030  13.163 -1.0379 -0.9973  1.9781
 4966SOL    HW226535   4.083   1.992  13.261  2.7625  1.4547 -0.6480
 4967SOL     OW26536   2.898   3.556  12.286  0.0738 -0.6802 -0.0099
 4967SOL    HW126537   2.941   3.608  12.219  2.3474 -1.2809  0.9671
 4967SOL    HW226538   2.848   3.493  12.234 -0.0869 -0.0220 -0.6401
 4968SOL     OW26539   1.215   3.969   0.050 -0.1991  0.1546  0.1559
 4968SOL    HW126540   1.279   3.900   0.033  2.1194  2.0565  1.2890
 4968SOL    HW226541   1.192   3.950   0.141 -2.4589  0.6734 -0.2971
 4969SOL     OW26542   3.326   3.010  13.925 -0.4800  0.1456 -0.2569
 4969SOL    HW126543   3.418   3.012  13.900 -1.0245  0.4064 -2.2558
 4969SOL    HW226544   3.303   3.101  13.902 -0.9957  0.4298  1.4076
 4970SOL     OW26545   4.143   0.275   4.230 -0.2275  0.4914 -0.1317
 4970SOL    HW126546   4.211   0.221   4.189 -0.1540  0.8406 -0.4736
 4970SOL    HW226547   4.176   0.325   4.304 -1.6293  1.0729  0.1098
 4971SOL     OW26548   2.447   0.810   4.984  0.4403 -0.0356 -0.1719
 4971SOL    HW126549   2.462   0.768   4.900  0.6918 -1.3340  0.5206
 4971SOL    HW226550   2.528   0.786   5.029  0.0345 -0.3381  0.4047
 4972SOL     OW26551   2.828   4.323   3.252  0.1657  0.3139 -0.0560
 4972SOL    HW126552   2.818   4.415   3.227 -2.5436  0.1738  0.5073
 4972SOL    HW226553   2.750   4.284   3.213  0.3575 -0.4907  0.3740
 4973SOL     OW26554   4.625   3.065  11.390 -0.2829 -0.2375 -0.2358
 4973SOL    HW126555   4.661   3.122  11.458  0.4301 -2.4161  1.2105
 4973SOL    HW226556   4.698   3.090  11.332 -1.8164 -3.4228 -3.5087
 4974SOL     OW26557   4.319   3.272  14.738  0.3770 -0.0624 -0.5364
 4974SOL    HW126558   4.334   3.207  14.807 -0.8039 -1.0844 -1.2544
 4974SOL    HW226559   4.234   3.248  14.701 -0.7357  2.0450  0.5888
 4975SOL     OW26560   1.411   0.884   4.581 -0.6083 -0.1415 -0.1224
 4975SOL    HW126561   1.420   0.976   4.607  1.5392 -0.6179  0.7985
 4975SOL    HW226562   1.466   0.883   4.502  0.0545 -0.3500  0.3396
 4976SOL     OW26563   1.176   0.726   4.452 -0.0947 -0.4833  0.0477
 4976SOL    HW126564   1.210   0.681   4.529 -1.0044  0.3429  0.9326
 4976SOL    HW226565   1.260   0.739   4.408 -0.7221  1.2942 -0.6317
 4977SOL     OW26566   1.401   1.594   7.792 -0.3911 -0.7901 -0.1800
 4977SOL    HW126567   1.412   1.615   7.699  0.7861 -0.3563  0.0471
 4977SOL    HW226568   1.323   1.539   7.792  0.5664 -2.1515  1.1436
 4978SOL     OW26569   0.537   3.402   0.980 -0.0824  0.4563 -0.2062
 4978SOL    HW126570   0.509   3.365   1.064  0.5400  0.6014  0.0683
 4978SOL    HW226571   0.505   3.492   0.979  0.7414  0.7540 -0.1874
 4979SOL     OW26572   2.773   1.937   4.991  0.2525 -0.5000  0.2764
 4979SOL    HW126573   2.817   2.021   5.005 -0.6257 -0.1225  0.7607
 4979SOL    HW226574   2.697   1.969   4.942  0.9900 -0.1873 -0.6780
 4980SOL     OW26575   1.528   1.365   6.825 -0.7879 -0.0490 -0.1926
 4980SOL    HW126576   1.494   1.351   6.914  1.2443  3.6448  1.1967
 4980SOL    HW226577   1.583   1.286   6.820  0.2648  0.6031  0.8944
 4981SOL     OW26578   3.116   3.516   5.316 -0.2108 -0.1789 -0.0849
 4981SOL    HW126579   3.131   3.569   5.394 -1.8729  1.3442 -0.7985
 4981SOL    HW226580   3.105   3.582   5.248  4.4610  0.1274 -0.5726
 4982SOL     OW26581   2.532   2.526   9.033 -0.3639 -0.1881  0.0389
 4982SOL    HW126582   2.539   2.432   9.052 -1.6241 -0.3771 -0.4443
 4982SOL    HW226583   2.438   2.538   9.022 -0.1896  0.9391 -0.1643
 4983SOL     OW26584   1.686   2.462   3.397 -0.2105 -0.7396  0.2413
 4983SOL    HW126585   1.605   2.489   3.356 -1.6461 -2.8495  1.6488
 4983SOL    HW226586   1.752   2.488   3.333  0.3770  1.2841  1.6540
 4984SOL     OW26587   1.383   1.105   8.383  0.2668 -0.2703  0.1033
 4984SOL    HW126588   1.414   1.181   8.432  1.4617  0.0315 -1.1576
 4984SOL    HW226589   1.392   1.030   8.443 -3.4998  0.4384  1.6050
 4985SOL     OW26590   2.968   0.210   6.862 -0.0634 -0.7189  0.1598
 4985SOL    HW126591   3.050   0.250   6.832  0.4779 -1.1970  1.0063
 4985SOL    HW226592   2.934   0.285   6.910  2.7161  1.7586 -1.7676
 4986SOL     OW26593   3.067   0.020   8.301  0.0519 -0.2457  0.7296
 4986SOL    HW126594   3.146   0.024   8.246  1.1878 -0.8053  2.3159
 4986SOL    HW226595   3.042   4.664   8.300  0.3613 -0.3219 -0.2484
 4987SOL     OW26596   1.253   2.246  10.582 -0.5228 -0.3673 -0.0409
 4987SOL    HW126597   1.252   2.275  10.674 -3.7957  1.1705 -0.5653
 4987SOL    HW226598   1.323   2.302  10.550  0.4104 -1.6025 -0.1728
 4988SOL     OW26599   0.348   0.339   0.290 -0.3201 -0.6048  0.5149
 4988SOL    HW126600   0.424   0.362   0.237 -0.6493  4.6289  2.3025
 4988SOL    HW226601   0.337   0.252   0.252 -0.3637 -0.1572 -0.5038
 4989SOL     OW26602   4.142   1.754   7.517  0.1577 -0.8436 -0.1155
 4989SOL    HW126603   4.219   1.809   7.533 -0.3267 -0.0050 -0.6655
 4989SOL    HW226604   4.071   1.817   7.527  0.3251 -0.2652 -2.5700
 4990SOL     OW26605   1.462   1.710   7.384  0.1693 -0.0001  0.1109
 4990SOL    HW126606   1.498   1.678   7.301 -0.1559  0.8650 -0.3655
 4990SOL    HW226607   1.535   1.746   7.434  1.6644  0.2166 -2.2045
 4991SOL     OW26608   3.732   2.842  15.164  0.2934 -0.0704 -0.1134
 4991SOL    HW126609   3.785   2.910  15.206 -1.1161 -0.8956  2.9851
 4991SOL    HW226610   3.785   2.762  15.173  0.9433  0.4290  0.5177
 4992SOL     OW26611   1.120   0.142   5.201 -0.2335  0.1863  0.0665
 4992SOL    HW126612   1.121   0.062   5.147 -1.0924 -0.3157  0.7939
 4992SOL    HW226613   1.205   0.122   5.242  1.0643  0.8178 -2.3104
 4993SOL     OW26614   0.605   1.990  14.764  0.1832  0.2697  0.4508
 4993SOL    HW126615   0.693   1.958  14.744  0.3346 -0.4450  2.3256
 4993SOL    HW226616   0.569   1.996  14.675  1.7379 -1.9509 -0.3215
 4994SOL     OW26617   3.525   1.584   6.186 -0.4986  0.7052 -0.3036
 4994SOL    HW126618   3.615   1.558   6.204 -0.7965  0.1876  0.4282
 4994SOL    HW226619   3.523   1.675   6.216  0.5032  0.2013  1.2557
 4995SOL     OW26620   2.649   4.201   7.080  0.6717 -0.1410  0.6082
 4995SOL    HW126621   2.687   4.141   7.144  0.0869  0.6459  1.6747
 4995SOL    HW226622   2.560   4.168   7.088  0.3391  1.1854  2.2995
 4996SOL     OW26623   2.234   1.546   8.990 -0.2871  0.2189 -0.1224
 4996SOL    HW126624   2.264   1.498   9.067  0.2793  2.0340  0.8017
 4996SOL    HW226625   2.237   1.634   9.028 -0.3789  0.8859 -1.6431
 4997SOL     OW26626   2.243   3.473  13.210  0.0801 -0.1215  0.2719
 4997SOL    HW126627   2.277   3.399  13.159  1.2679  0.9339 -0.4762
 4997SOL    HW226628   2.326   3.521  13.211 -0.4496  0.7358  1.5434
 4998SOL     OW26629   3.242   1.946   7.094 -0.0253  0.3877  0.4113
 4998SOL    HW126630   3.231   2.014   7.027 -0.1561 -0.8937 -0.8565
 4998SOL    HW226631   3.191   1.986   7.165  0.6931  1.3055  0.4144
 4999SOL     OW26632   3.411   4.379  17.148 -0.1275  0.3117 -0.4319
 4999SOL    HW126633   3.354   4.453  17.127 -0.1009  0.1221 -1.1388
 4999SOL    HW226634   3.442   4.355  17.061 -1.1413  2.4616 -1.3890
 5000SOL     OW26635   2.613   1.380   2.882 -0.0466 -0.5069 -0.0342
 5000SOL    HW126636   2.690   1.429   2.909 -0.3469 -0.1219  0.1242
 5000SOL    HW226637   2.628   1.383   2.787  0.2212 -0.0110  0.0254
 5001SOL     OW26638   1.805   3.016   8.415 -0.1444 -0.3907 -0.5025
 5001SOL    HW126639   1.836   3.095   8.459  1.4477 -1.1860 -0.2003
 5001SOL    HW226640   1.763   2.974   8.490  1.9827 -0.4418  0.6684
 5002SOL     OW26641   2.496   3.105  15.677 -0.6816 -0.0391  0.1955
 5002SOL    HW126642   2.490   3.073  15.768  0.4668 -1.1427 -0.1193
 5002SOL    HW226643   2.442   3.184  15.678 -1.0061 -0.2355 -2.7848
 5003SOL     OW26644   3.986   1.601   5.010  0.0078 -0.7895  0.3012
 5003SOL    HW126645   4.069   1.587   5.055  0.7660 -0.3214 -0.9742
 5003SOL    HW226646   3.987   1.552   4.928  1.2517  1.3163 -0.9217
 5004SOL     OW26647   0.805   0.876   9.338 -0.4797  0.2963  0.5583
 5004SOL    HW126648   0.856   0.840   9.411 -0.3274  1.5843  1.0893
 5004SOL    HW226649   0.859   0.949   9.310 -0.9173 -0.2211 -1.6428
 5005SOL     OW26650   4.446   3.020   9.203  0.5494 -0.3302 -0.8104
 5005SOL    HW126651   4.414   2.934   9.232 -0.5918 -0.5797 -2.8331
 5005SOL    HW226652   4.527   3.035   9.252  0.0869 -0.3349 -0.0589
 5006SOL     OW26653   1.093   2.011   6.212  0.0917  0.6844 -0.0437
 5006SOL    HW126654   1.135   1.926   6.214 -0.6054  0.3799  1.2610
 5006SOL    HW226655   1.140   2.052   6.285 -1.7663 -0.3785  1.7385
 5007SOL     OW26656   3.877   1.542   5.390 -0.5600 -0.5296  0.3668
 5007SOL    HW126657   3.796   1.577   5.353 -0.3968 -1.0188 -0.4527
 5007SOL    HW226658   3.932   1.620   5.395 -0.2690 -0.5260 -2.9668
 5008SOL     OW26659   4.216   2.176   6.308  0.1536  0.4640  0.3357
 5008SOL    HW126660   4.293   2.122   6.288 -1.2952 -1.6608  0.5349
 5008SOL    HW226661   4.147   2.116   6.279 -0.6444  0.1456  2.9411
 5009SOL     OW26662   3.931   1.040   7.783 -0.1010  0.5018 -0.1429
 5009SOL    HW126663   3.930   0.999   7.696  2.1781 -0.1543  0.1417
 5009SOL    HW226664   4.002   1.104   7.773  0.6633  0.0236  2.2761
 5010SOL     OW26665   2.344   3.619  11.301 -0.4565 -0.1271  0.2326
 5010SOL    HW126666   2.396   3.540  11.312  1.4613  1.1816  0.5865
 5010SOL    HW226667   2.254   3.591  11.285 -0.1431  0.1816 -2.1253
 5011SOL     OW26668   2.718   2.216   4.622  0.0129  0.3940 -0.0822
 5011SOL    HW126669   2.687   2.169   4.545  1.2086 -0.3921 -0.0775
 5011SOL    HW226670   2.712   2.304   4.584  0.4273  0.9568  1.1277
 5012SOL     OW26671   1.957   0.159  13.646 -0.0646 -0.1746  0.2185
 5012SOL    HW126672   2.023   0.215  13.607 -2.0376  1.2936 -1.0096
 5012SOL    HW226673   1.989   0.169  13.736 -0.3015  0.9203  0.1833
 5013SOL     OW26674   3.344   0.495  17.173  0.7019  0.6532  0.3965
 5013SOL    HW126675   3.431   0.533  17.187  2.0687 -1.6968 -1.7177
 5013SOL    HW226676   3.349   0.434  17.246 -1.2439 -2.0080 -1.6938
 5014SOL     OW26677   3.998   0.708  13.917 -0.0115 -0.4138 -0.4390
 5014SOL    HW126678   3.921   0.701  13.860 -0.3969 -0.1584  0.0453
 5014SOL    HW226679   3.976   0.778  13.979  1.3890 -0.3420 -0.0408
 5015SOL     OW26680   3.789   4.513  13.569  0.1868 -0.3683  0.3777
 5015SOL    HW126681   3.864   4.528  13.511  0.3309  0.4343  0.7635
 5015SOL    HW226682   3.760   4.426  13.541 -1.5454 -0.4448  2.3945
 5016SOL     OW26683   0.958   2.157   5.535  0.2370 -0.7053  0.5553
 5016SOL    HW126684   1.020   2.105   5.587  0.4752  0.1443  1.1223
 5016SOL    HW226685   0.875   2.109   5.541 -0.0277 -0.4148 -0.7894
 5017SOL     OW26686   1.257   3.562   1.446 -0.2555  0.0657  0.1453
 5017SOL    HW126687   1.190   3.630   1.450 -1.0551 -0.7961  1.3353
 5017SOL    HW226688   1.316   3.586   1.517 -1.1149  1.3948  0.3971
 5018SOL     OW26689   0.048   3.410   7.784  0.1146  0.0227 -0.4782
 5018SOL    HW126690   0.066   3.453   7.868  1.4332 -1.7693  0.1455
 5018SOL    HW226691   0.127   3.424   7.731  1.1865  0.4394  1.2310
 5019SOL     OW26692   2.590   2.593  10.432 -0.4143 -0.2626 -0.1251
 5019SOL    HW126693   2.623   2.519  10.482 -0.4631 -0.7397 -0.7935
 5019SOL    HW226694   2.523   2.548  10.381  0.7158 -2.1858  0.0568
 5020SOL     OW26695   0.267   0.494   6.536  0.2218  0.0865  0.1672
 5020SOL    HW126696   0.180   0.503   6.576 -0.5899 -1.7302 -1.1778
 5020SOL    HW226697   0.288   0.586   6.525 -1.1719  0.4782  0.8300
 5021SOL     OW26698   3.237   3.279  13.890 -0.0452  0.2569 -0.3933
 5021SOL    HW126699   3.153   3.325  13.881 -0.2107 -0.1209 -0.7955
 5021SOL    HW226700   3.298   3.325  13.831  1.2321  0.0798  0.7900
 5022SOL     OW26701   1.100   4.425   8.811  0.1270 -0.0983  0.2043
 5022SOL    HW126702   1.008   4.401   8.794  0.6283 -0.2116 -2.3101
 5022SOL    HW226703   1.136   4.383   8.733  0.7740 -0.4857  0.7150
 5023SOL     OW26704   0.453   1.358  11.126 -0.1560  0.2097 -0.1882
 5023SOL    HW126705   0.529   1.410  11.098  0.0378  0.5233  0.9071
 5023SOL    HW226706   0.395   1.420  11.170 -1.5033 -0.3956 -1.1170
 5024SOL     OW26707   0.741   2.779   6.233 -0.2647  0.0764 -0.0618
 5024SOL    HW126708   0.646   2.789   6.243 -0.0546  0.7033  1.2057
 5024SOL    HW226709   0.761   2.871   6.222  0.4097  0.0388  0.8260
 5025SOL     OW26710   3.115   0.797   3.560 -0.2095  0.0869  0.1698
 5025SOL    HW126711   3.151   0.839   3.639 -2.4045  1.9134  0.1691
 5025SOL    HW226712   3.073   0.866   3.510 -0.0506  0.0639  0.0053
 5026SOL     OW26713   1.385   1.640  15.453  0.3169 -0.3946 -0.4459
 5026SOL    HW126714   1.418   1.627  15.364  1.5218 -1.5087  0.1551
 5026SOL    HW226715   1.459   1.598  15.497 -0.8031 -1.3293  0.5616
 5027SOL     OW26716   2.332   4.029  17.492  0.3803  0.2084 -0.0401
 5027SOL    HW126717   2.276   3.961  17.456  2.3591 -1.7356  0.5336
 5027SOL    HW226718   2.274   4.062  17.560  0.7648  0.4497  0.1697
 5028SOL     OW26719   3.740   3.426   8.207 -0.4249  0.2549  0.6515
 5028SOL    HW126720   3.711   3.371   8.279  0.6347  0.9302  1.6085
 5028SOL    HW226721   3.809   3.478   8.250 -0.8926  0.9735  0.5439
 5029SOL     OW26722   2.008   2.210   3.929 -0.3773  0.4628  0.5371
 5029SOL    HW126723   1.941   2.170   3.874 -0.5991  1.1809  0.2784
 5029SOL    HW226724   2.090   2.202   3.881 -1.4226 -0.6831 -1.0390
 5030SOL     OW26725   3.017   1.007   2.011 -0.0898  0.3820 -0.1676
 5030SOL    HW126726   2.950   1.071   2.037  1.2023  1.6319  0.1099
 5030SOL    HW226727   3.046   1.061   1.938 -0.8072  0.3694 -0.4644
 5031SOL     OW26728   1.265   3.967  15.216 -0.3960  0.0246  0.4335
 5031SOL    HW126729   1.180   3.924  15.205 -1.2905  1.8416  0.2610
 5031SOL    HW226730   1.316   3.929  15.145  1.1305  1.8403  0.5698
 5032SOL     OW26731   2.386   4.390  10.655  0.1084  0.7281  0.4578
 5032SOL    HW126732   2.329   4.370  10.582  0.7079  1.8993 -0.3306
 5032SOL    HW226733   2.334   4.455  10.702 -1.5875 -1.1355  1.1542
 5033SOL     OW26734   4.731   3.843  16.507 -0.5463  0.2593  0.3014
 5033SOL    HW126735   4.649   3.870  16.549 -1.2224  0.0189 -0.8731
 5033SOL    HW226736   0.062   3.837  16.575 -1.3175  1.5575  1.2000
 5034SOL     OW26737   1.923   2.158   1.084  0.0207  0.1871 -0.1374
 5034SOL    HW126738   1.845   2.214   1.081 -0.4276 -0.4742 -1.1697
 5034SOL    HW226739   1.964   2.170   0.998  0.2349  2.7360  0.3239
 5035SOL     OW26740   4.397   3.207  15.869 -0.3772  0.6464  0.3819
 5035SOL    HW126741   4.325   3.268  15.851 -1.7774 -1.3035 -0.7106
 5035SOL    HW226742   4.477   3.252  15.842 -1.2052  0.8078 -1.8133
 5036SOL     OW26743   1.314   2.475   1.729 -0.0734  0.2890  0.2777
 5036SOL    HW126744   1.392   2.458   1.677 -1.3069  0.7905 -1.7403
 5036SOL    HW226745   1.351   2.467   1.817  1.7576  0.4748 -0.4853
 5037SOL     OW26746   3.733   1.224   7.849  0.3636  0.0831 -0.1398
 5037SOL    HW126747   3.803   1.161   7.833  0.4861  0.5951 -1.6403
 5037SOL    HW226748   3.652   1.181   7.822 -0.0134  1.6575 -1.4886
 5038SOL     OW26749   1.871   1.988   7.497  0.3376  0.1039 -0.0389
 5038SOL    HW126750   1.901   2.025   7.414  0.2389 -0.7738 -0.4712
 5038SOL    HW226751   1.956   1.963   7.535 -0.1678 -1.6297 -0.0465
 5039SOL     OW26752   3.047   3.919   6.502  0.1525 -0.1354  0.1537
 5039SOL    HW126753   2.993   3.952   6.573  0.7519  2.2540 -0.4885
 5039SOL    HW226754   3.014   3.967   6.426  0.5357  2.2507  1.4935
 5040SOL     OW26755   1.368   2.865  11.448 -0.3228  0.3699  0.2002
 5040SOL    HW126756   1.327   2.858  11.534  0.2573 -3.1787  0.1923
 5040SOL    HW226757   1.450   2.896  11.487 -0.3866  1.0254 -0.1925
 5041SOL     OW26758   4.526   3.376   1.649 -0.0593  0.1675  1.0282
 5041SOL    HW126759   4.580   3.370   1.570  0.6662 -0.0711  1.5398
 5041SOL    HW226760   4.435   3.361   1.622  0.4399 -1.0352 -0.0167
 5042SOL     OW26761   3.907   0.702   3.874  0.5731 -0.1471  0.3225
 5042SOL    HW126762   3.852   0.780   3.877  1.2210  0.3781 -1.4767
 5042SOL    HW226763   3.937   0.715   3.784  3.4404  0.7951  1.3963
 5043SOL     OW26764   1.832   0.839  13.986 -0.2578  0.4015 -0.4281
 5043SOL    HW126765   1.923   0.825  14.013  0.1805  1.9223 -1.1320
 5043SOL    HW226766   1.782   0.809  14.062  1.8428 -1.5893  0.1580
 5044SOL     OW26767   1.558   3.352   0.784 -0.0690 -0.2621 -0.0465
 5044SOL    HW126768   1.480   3.395   0.818  1.3215  2.3894 -0.1506
 5044SOL    HW226769   1.539   3.265   0.818  1.9218 -0.2862  1.0220
 5045SOL     OW26770   2.494   1.727   4.952 -0.0659  0.1317  0.1988
 5045SOL    HW126771   2.506   1.817   4.920  3.0718 -0.5862 -0.6534
 5045SOL    HW226772   2.581   1.689   4.947  0.1110  0.2909  2.1330
 5046SOL     OW26773   4.187   3.788   5.252 -0.0508  0.3174  0.7397
 5046SOL    HW126774   4.135   3.759   5.326 -1.5383 -1.0303 -0.8214
 5046SOL    HW226775   4.270   3.817   5.289  0.1965 -0.0229  0.4508
 5047SOL     OW26776   0.111   4.306   3.402 -0.6314 -0.4033  0.0108
 5047SOL    HW126777   0.016   4.301   3.407 -0.5777 -2.3357 -0.6554
 5047SOL    HW226778   0.126   4.217   3.433 -1.9413 -0.8908 -0.7664
 5048SOL     OW26779   1.694   1.209   9.027  0.4674 -0.3236  0.3955
 5048SOL    HW126780   1.733   1.179   8.945  0.0017 -2.0144  0.7782
 5048SOL    HW226781   1.762   1.271   9.051 -1.7425  2.6950 -1.1243
 5049SOL     OW26782   4.608   3.883   4.574 -0.1408  0.3343  0.2390
 5049SOL    HW126783   4.662   3.804   4.578 -0.2237  0.1379 -2.6172
 5049SOL    HW226784   4.671   3.938   4.528 -0.0498  0.5385  0.6130
 5050SOL     OW26785   4.325   1.864   6.453 -0.1708  0.3438 -0.6288
 5050SOL    HW126786   4.357   1.940   6.503 -2.0964  0.2953  0.6822
 5050SOL    HW226787   4.339   1.899   6.365 -0.9032  2.5577  0.1143
 5051SOL     OW26788   3.576   0.597  14.461  0.2492  0.4425 -0.2969
 5051SOL    HW126789   3.534   0.511  14.461 -1.5900  1.3448 -0.3904
 5051SOL    HW226790   3.568   0.635  14.373  0.5528  0.1591 -0.4453
 5052SOL     OW26791   4.181   2.046   5.785 -0.2556  0.0015 -0.2201
 5052SOL    HW126792   4.174   2.098   5.705  1.1930  0.2121 -0.2186
 5052SOL    HW226793   4.107   1.987   5.777 -1.1122  0.9137  0.8222
 5053SOL     OW26794   0.331   3.180  10.111  0.3164 -0.3838  0.1792
 5053SOL    HW126795   0.396   3.115  10.086  0.2820 -0.0370 -0.8145
 5053SOL    HW226796   0.253   3.161  10.059 -0.1733  1.0633  0.3832
 5054SOL     OW26797   0.039   4.599  16.716  0.0426 -0.0221  0.0349
 5054SOL    HW126798   4.710   4.654  16.675 -0.4518 -1.1270 -0.6190
 5054SOL    HW226799   4.718   4.544  16.768 -1.8111  1.5833 -0.3329
 5055SOL     OW26800   2.201   3.772   2.613 -0.2872  0.6622  0.7389
 5055SOL    HW126801   2.129   3.819   2.656 -0.8828 -0.3096  0.7986
 5055SOL    HW226802   2.270   3.838   2.608 -0.2952  0.6019 -0.1584
 5056SOL     OW26803   0.526   2.165   1.133 -0.0542 -0.0020 -0.1570
 5056SOL    HW126804   0.540   2.071   1.119  0.8469  0.2710 -1.0478
 5056SOL    HW226805   0.431   2.161   1.143 -0.0923 -0.1925 -0.6111
 5057SOL     OW26806   1.381   0.196   2.711  0.2749  0.3813  0.1393
 5057SOL    HW126807   1.354   0.280   2.673  0.0802 -0.4917 -1.6612
 5057SOL    HW226808   1.462   0.227   2.752  0.0244  2.8668 -1.2354
 5058SOL     OW26809   3.653   3.962   2.340  0.3626  0.0998  0.2123
 5058SOL    HW126810   3.623   3.886   2.290  1.5718  0.6219 -1.3320
 5058SOL    HW226811   3.742   3.971   2.306  0.6536  2.0220  1.4823
 5059SOL     OW26812   1.256   0.053   4.457  0.1183 -0.8951  0.4389
 5059SOL    HW126813   1.189   0.122   4.451  0.9265 -0.2062 -0.5295
 5059SOL    HW226814   1.211   4.731   4.518  0.6331 -1.6956  0.0312
 5060SOL     OW26815   1.921   1.036  12.984 -0.7085 -0.1645 -0.2191
 5060SOL    HW126816   1.875   1.021  13.067  0.1595  0.0628  0.3093
 5060SOL    HW226817   2.006   1.053  13.024 -2.1360  2.1551  1.9212
 5061SOL     OW26818   3.430   3.625   6.181  0.2327 -0.0913 -0.1207
 5061SOL    HW126819   3.379   3.565   6.235 -0.4786 -1.1324 -1.9339
 5061SOL    HW226820   3.413   3.708   6.224  1.2447 -0.6232  1.3035
 5062SOL     OW26821   2.599   2.848   8.486  0.1610  0.2356  0.0886
 5062SOL    HW126822   2.516   2.865   8.531 -1.0263 -0.5481 -1.8220
 5062SOL    HW226823   2.641   2.804   8.560  1.4772 -0.8563 -1.3193
 5063SOL     OW26824   0.178   0.950   5.944 -0.1670  0.2262 -0.0850
 5063SOL    HW126825   0.096   0.993   5.970 -0.4379  1.2054 -2.5418
 5063SOL    HW226826   0.196   0.877   6.004  0.6944  0.5398  0.0267
 5064SOL     OW26827   2.868   4.357   1.583  0.5183 -0.3166  0.7801
 5064SOL    HW126828   2.903   4.439   1.616  0.4884  1.0569 -2.5581
 5064SOL    HW226829   2.777   4.377   1.563  1.2329  1.9142 -0.2829
 5065SOL     OW26830   4.224   1.725   6.180 -0.0331  0.2045 -0.3510
 5065SOL    HW126831   4.175   1.754   6.257  0.3613 -1.0530  0.3617
 5065SOL    HW226832   4.227   1.631   6.196 -0.3073  0.4956  1.4155
 5066SOL     OW26833   2.440   2.814   2.063 -0.1495  0.4686  0.2557
 5066SOL    HW126834   2.515   2.873   2.058  0.8588 -0.9527 -1.4149
 5066SOL    HW226835   2.478   2.741   2.111 -1.3098  0.4274  1.1158
 5067SOL     OW26836   2.179   4.631  12.852  0.1284  0.3005  0.0996
 5067SOL    HW126837   2.116   4.570  12.890 -0.2552 -1.0181 -2.6450
 5067SOL    HW226838   2.189   4.591  12.765 -0.0785  0.0668  0.1836
 5068SOL     OW26839   3.415   3.658   5.920 -0.0084 -0.1509 -0.4355
 5068SOL    HW126840   3.321   3.642   5.918 -0.0526  0.1341 -0.6746
 5068SOL    HW226841   3.420   3.651   6.016 -0.3104 -2.1605 -0.5632
 5069SOL     OW26842   0.255   2.289  17.052 -0.0800  0.6686 -0.9652
 5069SOL    HW126843   0.262   2.289  16.957 -2.6556 -0.1241 -1.1454
 5069SOL    HW226844   0.220   2.201  17.066 -0.5509  0.5505 -2.9501
 5070SOL     OW26845   0.439   4.131  10.606 -0.7574 -0.1218 -0.0325
 5070SOL    HW126846   0.502   4.066  10.637 -2.5413  0.0181  3.7993
 5070SOL    HW226847   0.435   4.119  10.511 -1.4435 -0.7902  0.0761
 5071SOL     OW26848   0.646   0.176  11.600  0.3640  0.2350  0.0843
 5071SOL    HW126849   0.659   0.175  11.695  1.3833 -1.3841 -0.0607
 5071SOL    HW226850   0.560   0.135  11.607 -0.0341  0.7885 -1.6342
 5072SOL     OW26851   4.134   3.690   2.294 -0.0551 -0.1812 -0.5342
 5072SOL    HW126852   4.168   3.705   2.206 -1.1019  1.7743 -0.6265
 5072SOL    HW226853   4.066   3.631   2.263  0.8286 -0.9042 -1.0918
 5073SOL     OW26854   3.977   4.155   8.173 -0.1406  0.1051 -0.2275
 5073SOL    HW126855   3.959   4.098   8.248  2.4460 -0.5210 -0.0685
 5073SOL    HW226856   3.910   4.124   8.112 -2.0597  0.3675  1.7548
 5074SOL     OW26857   1.990   4.173   2.547  0.1181 -0.3973 -0.0942
 5074SOL    HW126858   1.938   4.249   2.521  0.1238  0.2222  1.7375
 5074SOL    HW226859   2.022   4.201   2.633  0.4863 -0.0940 -0.3288
 5075SOL     OW26860   1.676   1.785   7.528 -0.5803  0.6556  1.1448
 5075SOL    HW126861   1.722   1.734   7.595  1.5211  1.7840  0.5751
 5075SOL    HW226862   1.744   1.848   7.506  0.0019 -0.0168  1.0057
 5076SOL     OW26863   4.016   3.871   1.018 -0.1502  0.4721 -0.3641
 5076SOL    HW126864   4.047   3.955   0.984 -0.7345 -0.1320 -2.3910
 5076SOL    HW226865   3.921   3.869   1.006 -0.3308  1.8584  0.8000
 5077SOL     OW26866   2.725   1.248   8.061  0.0951 -0.3423 -0.4679
 5077SOL    HW126867   2.650   1.276   8.114  1.3838  0.0549  1.1327
 5077SOL    HW226868   2.684   1.191   7.996 -0.2883 -0.5093 -0.0806
 5078SOL     OW26869   1.595   2.400  15.341  0.3846  0.4408  0.2286
 5078SOL    HW126870   1.541   2.408  15.262 -0.1435  1.2921  0.6717
 5078SOL    HW226871   1.588   2.491  15.373 -3.0558  0.1964  0.1538
 5079SOL     OW26872   4.317   0.791   5.191  0.0603 -0.2160 -0.2772
 5079SOL    HW126873   4.388   0.854   5.196  0.5784 -0.7316 -1.1726
 5079SOL    HW226874   4.294   0.794   5.098  0.6101 -0.6738 -0.4271
 5080SOL     OW26875   4.642   3.556   4.410 -0.0294 -0.2562 -0.4839
 5080SOL    HW126876   4.680   3.481   4.455  2.6963  0.4255 -1.6743
 5080SOL    HW226877   4.703   3.581   4.341  1.1108 -1.4515  0.1048
 5081SOL     OW26878   4.061   0.850   5.550 -0.1730  0.2717 -0.5576
 5081SOL    HW126879   3.993   0.835   5.616  1.0155  0.6033  0.7305
 5081SOL    HW226880   4.060   0.762   5.512  0.6036 -0.3849  0.9491
 5082SOL     OW26881   2.009   4.559   3.244 -0.1937 -0.2943  0.1609
 5082SOL    HW126882   1.986   4.608   3.165 -2.0674 -1.7920 -0.2477
 5082SOL    HW226883   1.966   4.474   3.234 -1.0912 -0.0716  2.0933
 5083SOL     OW26884   4.525   1.682  12.685  0.3390 -0.8352 -0.0113
 5083SOL    HW126885   4.522   1.654  12.777 -0.6945 -0.9622 -0.0780
 5083SOL    HW226886   4.496   1.610  12.628  0.4599 -0.4689 -0.5285
 5084SOL     OW26887   1.405   0.913   6.123  0.0789  0.0386  0.5103
 5084SOL    HW126888   1.495   0.914   6.089  0.1660  0.0989  0.7387
 5084SOL    HW226889   1.411   0.904   6.218  4.2447  1.0167  0.3502
 5085SOL     OW26890   1.151   3.605  11.140 -0.2997  0.0281 -0.0484
 5085SOL    HW126891   1.179   3.515  11.128  0.9619  0.2624  1.0671
 5085SOL    HW226892   1.232   3.648  11.170 -1.1022  1.9002 -0.5585
 5086SOL     OW26893   2.506   3.298   9.110  0.1954 -0.5006 -0.5712
 5086SOL    HW126894   2.538   3.229   9.169  1.9024 -0.3500 -1.3130
 5086SOL    HW226895   2.412   3.296   9.125  0.3929 -2.1197  0.4946
 5087SOL     OW26896   4.536   2.568   5.888 -0.0129  0.4475 -0.4833
 5087SOL    HW126897   4.522   2.663   5.894 -1.6231  0.1207  0.6870
 5087SOL    HW226898   4.511   2.532   5.973  1.6958 -1.9969 -1.0153
 5088SOL     OW26899   0.227   1.923   4.797  0.0627 -0.0601 -0.3944
 5088SOL    HW126900   0.152   1.933   4.855  1.4155 -0.9288  1.5187
 5088SOL    HW226901   0.274   1.848   4.836  1.9691  0.5111 -1.5778
 5089SOL     OW26902   4.053   0.705  17.559 -0.1543  0.0785  0.1968
 5089SOL    HW126903   3.958   0.710  17.557 -0.0571  1.7282 -0.4280
 5089SOL    HW226904   4.073   0.619  17.521 -2.4000  0.5261 -2.0350
 5090SOL     OW26905   1.878   4.486   7.403  0.2191 -0.5077 -0.3756
 5090SOL    HW126906   1.960   4.509   7.447 -0.3805  0.1313  0.3990
 5090SOL    HW226907   1.843   4.420   7.462  1.0120  2.4307  3.3786
 5091SOL     OW26908   3.833   1.655   7.907 -0.1499  0.6133 -0.5474
 5091SOL    HW126909   3.750   1.617   7.878 -1.1562  1.2630  1.5043
 5091SOL    HW226910   3.891   1.634   7.834  0.7439  0.4509  0.2214
 5092SOL     OW26911   4.571   3.465   5.366 -0.2513 -0.0238  0.1329
 5092SOL    HW126912   4.568   3.558   5.347  1.2930  0.4875  2.3949
 5092SOL    HW226913   4.480   3.446   5.386  0.4790 -0.1370  3.2515
 5093SOL     OW26914   1.715   3.578   9.791 -0.0716  0.2913  0.0530
 5093SOL    HW126915   1.716   3.591   9.697 -3.7592  0.2990 -0.0015
 5093SOL    HW226916   1.644   3.641   9.810  0.2592  0.1289  1.8804
 5094SOL     OW26917   1.277   1.691   8.024  0.2989 -0.0187 -0.3479
 5094SOL    HW126918   1.271   1.786   8.028 -0.8893 -0.0823 -0.7377
 5094SOL    HW226919   1.339   1.671   7.953  2.0983  1.5058  0.8139
 5095SOL     OW26920   4.385   3.384   5.748 -0.2608 -0.4342 -0.2161
 5095SOL    HW126921   4.446   3.320   5.713  1.6388  0.9457  0.5853
 5095SOL    HW226922   4.441   3.449   5.790 -1.5562  0.0644  0.7229
 5096SOL     OW26923   4.672   0.032   7.131 -0.0585  0.2710 -0.0078
 5096SOL    HW126924   0.011   4.736   7.180  0.1495  0.2343 -0.3583
 5096SOL    HW226925   4.700   0.033   7.040 -1.1045  0.5871 -0.3243
 5097SOL     OW26926   3.099   0.027  16.510  0.1864 -0.0049 -1.0361
 5097SOL    HW126927   3.036   4.693  16.498  1.2457 -1.8252  4.1955
 5097SOL    HW226928   3.067   0.078  16.584  2.5385  1.0778 -0.7744
 5098SOL     OW26929   0.011   1.329   7.102  0.7415 -0.2052 -0.1467
 5098SOL    HW126930   0.038   1.403   7.047  0.0053 -0.5612 -0.9793
 5098SOL    HW226931   0.070   1.342   7.176  0.6749  1.9230 -0.4536
 5099SOL     OW26932   1.740   2.618   1.199  0.1551 -0.4591  0.4835
 5099SOL    HW126933   1.739   2.703   1.155 -2.0363 -1.1073 -0.7223
 5099SOL    HW226934   1.804   2.564   1.153  0.3852 -0.3636  0.6900
 5100SOL     OW26935   4.210   0.500   4.422 -0.6241  0.3090  0.1375
 5100SOL    HW126936   4.274   0.500   4.352 -0.3033  1.3801  0.4254
 5100SOL    HW226937   4.178   0.589   4.407  0.9037  0.8162 -0.0744
 5101SOL     OW26938   4.322   1.944   5.064  0.3596  0.2860 -0.2025
 5101SOL    HW126939   4.376   2.020   5.046  2.1359 -0.9845 -0.2526
 5101SOL    HW226940   4.341   1.926   5.156 -0.2048  0.3258 -0.0734
 5102SOL     OW26941   0.103   1.558   4.205  0.3926 -0.4352 -0.8545
 5102SOL    HW126942   0.039   1.548   4.275  0.4512  1.6216 -0.5205
 5102SOL    HW226943   0.185   1.575   4.252 -0.4888  0.8780  0.1962
 5103SOL     OW26944   1.050   4.724  14.797  0.7169  0.5836  0.4864
 5103SOL    HW126945   1.068   0.012  14.888  0.7410  0.1761  0.5944
 5103SOL    HW226946   1.059   0.070  14.750  1.6010  0.3108  0.1640
 5104SOL     OW26947   1.570   2.403   1.255  0.0667  0.3329  1.0182
 5104SOL    HW126948   1.515   2.440   1.185 -2.3681 -0.0121  2.7571
 5104SOL    HW226949   1.640   2.469   1.253  0.2875  0.0759  0.3595
 5105SOL     OW26950   4.080   1.892   4.304  0.0390  0.2084  0.3217
 5105SOL    HW126951   4.025   1.925   4.234  1.5533 -0.7313 -1.2924
 5105SOL    HW226952   4.121   1.967   4.348 -0.4211  0.0383  1.0541
 5106SOL     OW26953   3.877   2.615   9.633  0.0982 -0.9195  1.1307
 5106SOL    HW126954   3.938   2.568   9.689  1.5334 -1.3106 -0.7499
 5106SOL    HW226955   3.866   2.546   9.567 -0.7339 -1.8388  2.2418
 5107SOL     OW26956   3.826   0.472   6.146  0.1804  0.4275  0.5358
 5107SOL    HW126957   3.756   0.414   6.178 -0.9323  0.5098 -1.7162
 5107SOL    HW226958   3.778   0.518   6.077 -1.6742 -0.6229  1.1054
 5108SOL     OW26959   4.217   4.340   7.462  0.0119  0.4722 -0.5527
 5108SOL    HW126960   4.151   4.287   7.417  0.7536 -1.5285  0.7373
 5108SOL    HW226961   4.193   4.323   7.553  0.7211  1.2314 -0.2235
 5109SOL     OW26962   4.141   2.594   8.376  0.3922 -0.2087 -0.2592
 5109SOL    HW126963   4.192   2.658   8.325 -0.9462 -0.4475 -1.8979
 5109SOL    HW226964   4.212   2.540   8.411 -1.2741  0.3512  3.9323
 5110SOL     OW26965   3.327   3.964   2.827 -0.3987  0.0235  0.5714
 5110SOL    HW126966   3.285   4.047   2.852  0.9900  0.6280  0.9433
 5110SOL    HW226967   3.413   3.989   2.795 -1.0536 -0.3424 -1.4357
 5111SOL     OW26968   3.334   2.044  15.219  0.4137  0.5405 -0.0369
 5111SOL    HW126969   3.325   2.013  15.129  1.4692  0.7122 -0.2007
 5111SOL    HW226970   3.354   1.966  15.270  0.5010  1.4189  1.2777
 5112SOL     OW26971   2.696   3.820   4.280 -0.2111  0.8390 -0.0669
 5112SOL    HW126972   2.647   3.900   4.298 -1.4250  0.2400 -0.6905
 5112SOL    HW226973   2.786   3.846   4.299  1.4662 -4.1624 -1.1263
 5113SOL     OW26974   1.502   2.486   1.535 -0.0328  0.1386 -0.2950
 5113SOL    HW126975   1.586   2.514   1.570  0.7995 -2.3104 -0.3038
 5113SOL    HW226976   1.500   2.529   1.450  1.2140  2.1096  0.6805
 5114SOL     OW26977   0.922   1.584   7.526 -0.4688 -0.0278  0.2682
 5114SOL    HW126978   1.010   1.618   7.535  0.0621 -0.8704 -1.6252
 5114SOL    HW226979   0.887   1.664   7.565 -0.6836  0.6200 -1.2350
 5115SOL     OW26980   0.837   4.241   2.289  0.4525  0.1532  0.3234
 5115SOL    HW126981   0.754   4.262   2.330 -0.9381 -0.0912 -2.3679
 5115SOL    HW226982   0.800   4.236   2.201  2.9289  0.5597 -0.7410
 5116SOL     OW26983   2.656   4.015   8.193  0.8856 -0.4617  0.1775
 5116SOL    HW126984   2.578   4.028   8.138  0.9779 -2.6944 -0.5072
 5116SOL    HW226985   2.690   3.929   8.169 -0.3533 -0.9697  0.2065
 5117SOL     OW26986   4.540   0.111   9.651 -0.5767  0.7954 -0.5576
 5117SOL    HW126987   4.613   0.163   9.683 -0.2330 -0.1173  0.1383
 5117SOL    HW226988   4.565   0.109   9.558  0.9063 -0.8017 -0.1188
 5118SOL     OW26989   0.326   1.018   7.944 -0.1122  0.0201 -0.9938
 5118SOL    HW126990   0.254   0.969   7.903  0.7334 -0.9151 -1.3464
 5118SOL    HW226991   0.281   1.041   8.025  0.0405  1.2723 -1.2625
 5119SOL     OW26992   3.830   0.552   8.572 -0.4281 -0.6123 -0.3016
 5119SOL    HW126993   3.925   0.551   8.562 -0.1961  0.0010  1.9060
 5119SOL    HW226994   3.800   0.608   8.500 -1.4570  0.8977  1.2914
 5120SOL     OW26995   4.065   3.603   3.398  0.2348 -0.3604  0.9129
 5120SOL    HW126996   4.059   3.615   3.493 -2.5197 -1.3389  0.8798
 5120SOL    HW226997   4.102   3.686   3.366  1.3923 -1.8115 -1.5142
 5121SOL     OW26998   1.003   3.885  13.193 -0.2337  0.2569  0.7404
 5121SOL    HW126999   0.978   3.815  13.253  0.7407 -0.2852  0.5138
 5121SOL    HW227000   1.089   3.855  13.163 -1.4474  0.4805 -2.9864
 5122SOL     OW27001   0.937   1.619   1.607  0.2165 -0.6047  0.0174
 5122SOL    HW127002   0.868   1.616   1.541  0.0684 -1.9327  0.2437
 5122SOL    HW227003   0.964   1.710   1.591  0.4365 -0.9077 -1.3044
 5123SOL     OW27004   1.884   4.600  10.735 -0.0523 -0.3106  0.1376
 5123SOL    HW127005   1.871   4.693  10.717 -0.6115 -0.1320  1.5037
 5123SOL    HW227006   1.831   4.588  10.813 -1.2068  2.1774 -0.2622
 5124SOL     OW27007   2.863   3.142   3.456 -0.2909  0.6873  0.2263
 5124SOL    HW127008   2.866   3.077   3.385  0.0998 -1.0189  1.7960
 5124SOL    HW227009   2.788   3.114   3.508 -0.4845 -0.2146 -0.5330
 5125SOL     OW27010   2.920   4.620   4.754  0.0540  0.0825  0.3162
 5125SOL    HW127011   2.972   4.692   4.719 -0.5997  0.8226  0.8492
 5125SOL    HW227012   2.834   4.659   4.771  0.4184  0.5463  1.1183
 5126SOL     OW27013   0.044   4.458   6.754  0.1508  0.0416  0.4725
 5126SOL    HW127014   0.099   4.528   6.789  1.5419 -0.6608 -0.3067
 5126SOL    HW227015   0.066   4.457   6.661  0.6170  0.6263  0.5767
 5127SOL     OW27016   3.353   3.967   4.324 -0.5145  0.4108 -0.2663
 5127SOL    HW127017   3.362   4.044   4.267 -0.0502 -0.3193 -1.1876
 5127SOL    HW227018   3.409   3.901   4.284  0.7138  1.0394  0.4291
 5128SOL     OW27019   1.596   2.670   6.113 -0.5380 -0.0798 -0.1595
 5128SOL    HW127020   1.514   2.681   6.065 -1.4080  0.4106  1.4387
 5128SOL    HW227021   1.658   2.725   6.065  0.2538  0.9133  2.0078
 5129SOL     OW27022   1.407   4.514   8.626  0.8774  0.0445 -0.2599
 5129SOL    HW127023   1.452   4.508   8.711  0.1150 -0.8313  0.0818
 5129SOL    HW227024   1.348   4.438   8.628 -1.1912  1.6869  1.7193
 5130SOL     OW27025   2.621   1.833   3.659 -0.0846 -0.4779 -0.7062
 5130SOL    HW127026   2.673   1.900   3.616 -2.6134  4.5003  3.9241
 5130SOL    HW227027   2.603   1.771   3.588 -0.2479 -1.2076 -0.0306
 5131SOL     OW27028   1.539   3.650   7.457 -0.1196 -0.1279  0.5097
 5131SOL    HW127029   1.518   3.733   7.414 -2.3824 -0.0585  1.7885
 5131SOL    HW227030   1.469   3.626   7.517  1.2330 -1.0816  1.7197
 5132SOL     OW27031   3.005   2.947  10.318  0.3705 -0.1259  0.3866
 5132SOL    HW127032   3.047   2.910  10.395  1.0657  0.6837  0.3907
 5132SOL    HW227033   2.914   2.955  10.346 -0.8117  1.3800 -3.8369
 5133SOL     OW27034   2.079   3.303   6.438  0.3383 -0.5310  0.1950
 5133SOL    HW127035   2.055   3.215   6.469  2.5920 -1.2423 -0.0891
 5133SOL    HW227036   2.101   3.343   6.522  0.7498  0.8620 -0.5909
 5134SOL     OW27037   2.127   0.088  13.114 -0.1773  0.3177 -0.4959
 5134SOL    HW127038   2.186   0.085  13.039  0.4775  1.8680 -0.0258
 5134SOL    HW227039   2.166   0.018  13.166 -1.0935  0.6942  0.6812
 5135SOL     OW27040   1.320   1.325   1.982 -0.0376 -0.0024 -0.6064
 5135SOL    HW127041   1.334   1.309   2.076 -2.0653  0.4966 -0.2178
 5135SOL    HW227042   1.369   1.252   1.944  1.7723  1.4398 -1.0545
 5136SOL     OW27043   2.839   4.499   6.687 -0.3657 -0.0782 -0.1150
 5136SOL    HW127044   2.894   4.561   6.734 -0.3400 -0.9054  0.9318
 5136SOL    HW227045   2.753   4.537   6.705 -0.2163  0.2133 -0.0256
 5137SOL     OW27046   3.887   2.135   4.936  0.3295 -0.0473 -0.1995
 5137SOL    HW127047   3.980   2.117   4.949  1.0004  1.4617 -3.0291
 5137SOL    HW227048   3.895   2.199   4.865 -0.0820  0.6316  0.3714
 5138SOL     OW27049   3.835   1.504  10.973  0.1783 -0.1428  0.2205
 5138SOL    HW127050   3.798   1.584  11.011  2.3455  1.2394 -0.5984
 5138SOL    HW227051   3.758   1.481  10.922 -1.4257  1.1370  2.0510
 5139SOL     OW27052   0.535   0.315   6.939  1.1738 -0.5416 -0.1659
 5139SOL    HW127053   0.454   0.321   6.889  0.3527 -1.1423  1.1108
 5139SOL    HW227054   0.520   0.388   6.999 -4.4617 -1.4942 -0.4223
 5140SOL     OW27055   1.932   0.111   8.544 -0.2465 -0.0729  0.0999
 5140SOL    HW127056   2.000   0.163   8.587 -0.1125  0.3483 -0.6303
 5140SOL    HW227057   1.863   0.177   8.543 -0.7692 -0.6034  0.9952
 5141SOL     OW27058   2.253   0.408   9.911  0.2339 -0.3909  0.1896
 5141SOL    HW127059   2.214   0.491   9.881  0.8574 -0.4376 -0.7422
 5141SOL    HW227060   2.202   0.351   9.853  1.0908 -0.2333 -0.7146
 5142SOL     OW27061   1.356   2.126   8.383  0.2141  0.0313 -0.2932
 5142SOL    HW127062   1.334   2.063   8.315 -1.5221 -0.2338  0.5056
 5142SOL    HW227063   1.349   2.208   8.334  0.2958  0.3582  0.2383
 5143SOL     OW27064   1.237   3.327   1.566  0.1655 -0.5470 -0.9406
 5143SOL    HW127065   1.152   3.346   1.605  0.7064 -0.9797  0.4334
 5143SOL    HW227066   1.259   3.406   1.517 -0.2653  0.5549  0.6631
 5144SOL     OW27067   2.171   3.265   8.831 -0.2911  1.1114 -0.3329
 5144SOL    HW127068   2.144   3.345   8.785 -1.1703 -0.3974 -2.4472
 5144SOL    HW227069   2.152   3.297   8.919 -1.6079  2.3558 -1.0664
 5145SOL     OW27070   0.863   3.958   7.131  0.1818 -0.3132  0.0668
 5145SOL    HW127071   0.890   4.037   7.084 -3.4513  1.5663  1.1401
 5145SOL    HW227072   0.849   3.993   7.219  2.1215  0.7642 -0.0546
 5146SOL     OW27073   0.873   0.206   8.449  0.3319 -0.3832 -0.2262
 5146SOL    HW127074   0.952   0.180   8.497 -1.1449 -1.9041  1.3666
 5146SOL    HW227075   0.821   0.127   8.458  0.8440 -0.7949 -0.8525
 5147SOL     OW27076   2.155   2.736   9.010  0.3651 -0.0134  0.2574
 5147SOL    HW127077   2.246   2.766   9.011  0.1975  0.4842  0.0966
 5147SOL    HW227078   2.173   2.645   8.986  1.0942 -0.0930  1.0809
 5148SOL     OW27079   0.439   3.427  12.966  0.3854 -0.1486 -0.0292
 5148SOL    HW127080   0.480   3.350  13.003 -2.0343 -1.5428 -0.2717
 5148SOL    HW227081   0.416   3.403  12.876  1.6376 -1.7817  0.0990
 5149SOL     OW27082   1.805   4.261   6.003 -0.4912  0.0465 -0.2813
 5149SOL    HW127083   1.767   4.232   5.920 -3.9933  1.0510  0.9669
 5149SOL    HW227084   1.829   4.175   6.035 -1.3274 -0.9703 -2.3680
 5150SOL     OW27085   4.048   4.397   0.041  0.0979 -0.3717  0.1249
 5150SOL    HW127086   3.972   4.405  17.731  0.2270  2.1329  0.2689
 5150SOL    HW227087   3.999   4.399   0.123  0.2513  1.6092  0.1702
 5151SOL     OW27088   0.650   2.771   2.474  0.3668  0.1847 -0.3001
 5151SOL    HW127089   0.690   2.776   2.561 -0.9838 -1.5702  0.4301
 5151SOL    HW227090   0.622   2.860   2.453  0.0642  0.4712  1.3050
 5152SOL     OW27091   1.287   4.533  15.274  0.9091  0.1531  0.2392
 5152SOL    HW127092   1.376   4.506  15.295  0.3751 -3.6861 -2.4974
 5152SOL    HW227093   1.261   4.447  15.240 -0.1858  0.9138 -0.8453
 5153SOL     OW27094   4.354   0.660   6.318  0.4560 -0.3949  0.1165
 5153SOL    HW127095   4.300   0.645   6.241 -1.9214  2.7130  1.1648
 5153SOL    HW227096   4.414   0.585   6.314 -0.0933 -0.6507 -2.8086
 5154SOL     OW27097   4.328   1.159  15.767 -0.2806 -0.5136  0.5896
 5154SOL    HW127098   4.397   1.119  15.820 -1.5040 -2.5336  0.6813
 5154SOL    HW227099   4.298   1.225  15.830  1.5234  1.4598 -0.6584
 5155SOL     OW27100   3.651   4.298  11.331 -0.1023  0.3502 -0.0352
 5155SOL    HW127101   3.627   4.358  11.401 -0.1090  1.8680 -1.3252
 5155SOL    HW227102   3.574   4.242  11.324 -0.4618  0.6912  1.2362
 5156SOL     OW27103   1.287   2.073  12.367 -0.0848 -0.4416  0.1073
 5156SOL    HW127104   1.219   2.132  12.402 -0.6763 -0.7744 -0.4984
 5156SOL    HW227105   1.368   2.119  12.390  0.8121 -1.3481 -1.3186
 5157SOL     OW27106   1.649   3.454  16.089  0.3553  0.1200 -0.5333
 5157SOL    HW127107   1.621   3.534  16.133 -2.6850 -0.6620 -1.0352
 5157SOL    HW227108   1.587   3.443  16.016  0.4419  0.8363 -0.7213
 5158SOL     OW27109   2.628   3.584  17.418  0.0694 -0.1627 -0.1019
 5158SOL    HW127110   2.544   3.608  17.380  0.4258 -0.6195 -1.1756
 5158SOL    HW227111   2.683   3.563  17.342 -1.2892  0.4398 -1.2441
 5159SOL     OW27112   3.659   4.658   6.130  0.6122  0.4526  0.2626
 5159SOL    HW127113   3.568   4.689   6.130 -0.3266 -2.2936 -0.0090
 5159SOL    HW227114   3.697   4.733   6.084  0.1132  0.2367 -0.4990
 5160SOL     OW27115   2.376   4.228  12.415 -0.0122  0.1883  0.4388
 5160SOL    HW127116   2.471   4.233  12.431  0.1676  0.4302 -0.6668
 5160SOL    HW227117   2.373   4.234  12.319 -2.1497 -0.3538  0.4746
 5161SOL     OW27118   2.415   1.965   3.963  0.7708  0.4677 -0.0784
 5161SOL    HW127119   2.478   2.031   3.936  0.3729  1.1695  0.7298
 5161SOL    HW227120   2.348   2.008   4.015 -0.1701 -1.2482  0.1475
 5162SOL     OW27121   0.263   4.716   3.651 -0.2785 -0.0405  0.3629
 5162SOL    HW127122   0.308   4.728   3.567 -2.2368 -2.5584 -1.0375
 5162SOL    HW227123   0.201   0.052   3.645  0.5700  0.5306 -1.5359
 5163SOL     OW27124   3.914   4.691   4.384 -0.4895 -0.0229  0.2903
 5163SOL    HW127125   3.896   0.030   4.329 -2.4797  0.3101  1.3577
 5163SOL    HW227126   3.866   4.623   4.337  0.4201 -0.4467 -0.0021
 5164SOL     OW27127   0.753   1.620  10.016 -0.4171 -0.5189  0.1790
 5164SOL    HW127128   0.658   1.633  10.017 -0.2365  0.9242 -1.1203
 5164SOL    HW227129   0.784   1.707  10.043  0.7135 -0.7474 -0.3768
 5165SOL     OW27130   4.315   2.447   5.375 -0.1070 -0.3812 -0.4393
 5165SOL    HW127131   4.387   2.500   5.340  1.1300 -1.6737  0.1557
 5165SOL    HW227132   4.346   2.449   5.466  0.1777  1.3261 -0.5743
 5166SOL     OW27133   3.831   0.494  14.574 -0.1269 -0.3651  0.6320
 5166SOL    HW127134   3.739   0.517  14.581 -0.2176  0.2599 -2.4001
 5166SOL    HW227135   3.829   0.446  14.491 -1.6865 -2.0473  1.6401
 5167SOL     OW27136   3.150   4.568   3.348 -0.0389  0.0514  0.4030
 5167SOL    HW127137   3.143   4.554   3.443 -1.4635 -1.2638  0.0955
 5167SOL    HW227138   3.100   4.649   3.349  2.3540  1.5291 -0.3259
 5168SOL     OW27139   4.008   0.274   0.380 -0.9774  0.5262  0.4044
 5168SOL    HW127140   4.007   0.369   0.388 -1.2691  0.7380 -2.3172
 5168SOL    HW227141   3.971   0.266   0.292 -2.7315 -1.2893  1.3038
 5169SOL     OW27142   4.016   2.707   0.427 -0.0752 -0.1679 -0.1778
 5169SOL    HW127143   3.981   2.655   0.355 -2.8067 -1.0134  1.7684
 5169SOL    HW227144   4.107   2.727   0.404  0.6254 -1.2085  1.6649
 5170SOL     OW27145   4.006   2.248   8.338 -0.1742 -0.7819 -0.8972
 5170SOL    HW127146   3.969   2.275   8.423  1.7054 -1.2678  0.0738
 5170SOL    HW227147   4.016   2.153   8.345  2.7615 -0.3725  0.4153
 5171SOL     OW27148   2.320   3.871  16.036 -0.1943  0.0366 -0.0916
 5171SOL    HW127149   2.379   3.895  15.964 -1.0342 -0.6216 -1.0044
 5171SOL    HW227150   2.296   3.956  16.072 -1.2539  0.3143 -1.4516
 5172SOL     OW27151   1.886   2.840   6.493  0.3368  0.1279  0.4829
 5172SOL    HW127152   1.909   2.932   6.503  1.0110  0.0356 -0.1453
 5172SOL    HW227153   1.956   2.801   6.545  1.1580  0.9673  0.0124
 5173SOL     OW27154   0.769   1.229   5.291  0.0584  0.4679 -0.1601
 5173SOL    HW127155   0.703   1.296   5.305 -2.0750 -1.4367 -1.0556
 5173SOL    HW227156   0.852   1.271   5.312  0.6395 -1.5230  1.6013
 5174SOL     OW27157   2.717   2.919   5.811 -0.1520  0.9178 -0.3914
 5174SOL    HW127158   2.624   2.923   5.832 -0.2573 -2.2994 -0.2210
 5174SOL    HW227159   2.737   2.991   5.870 -2.6305  1.3941 -0.1480
 5175SOL     OW27160   4.158   0.961   1.206 -0.8610 -0.0161  0.4354
 5175SOL    HW127161   4.138   0.867   1.211  1.1322 -0.5616 -1.7600
 5175SOL    HW227162   4.113   0.985   1.125 -3.0800 -0.8761  1.4293
 5176SOL     OW27163   2.914   1.811   9.512  0.4340  0.4899  0.0145
 5176SOL    HW127164   3.009   1.813   9.515  0.3174  2.9255  2.0326
 5176SOL    HW227165   2.906   1.806   9.417  2.9987  0.7460 -0.2143
 5177SOL     OW27166   0.890   2.529   2.684  0.0569  0.1618  0.5265
 5177SOL    HW127167   0.879   2.522   2.778 -1.1146  0.1532  0.3876
 5177SOL    HW227168   0.956   2.599   2.679  0.0326  0.2653  1.6124
 5178SOL     OW27169   1.189   1.914   9.794 -0.1193  0.0030  0.8674
 5178SOL    HW127170   1.112   1.896   9.740 -2.2995  0.8408  3.6490
 5178SOL    HW227171   1.178   2.005   9.822 -0.9485 -0.1413  1.0407
 5179SOL     OW27172   0.385   1.948   8.983 -0.0503  0.2136 -0.2707
 5179SOL    HW127173   0.298   1.985   8.967 -0.8239 -1.0183  1.0759
 5179SOL    HW227174   0.435   2.008   8.927  0.6346  0.1742  0.3105
 5180SOL     OW27175   1.603   1.963   7.151  0.5638  0.2974  0.2955
 5180SOL    HW127176   1.566   1.896   7.209  0.4694  0.4559  0.4169
 5180SOL    HW227177   1.551   1.949   7.072  0.0404  0.0010  0.6888
 5181SOL     OW27178   2.595   2.286   6.819 -0.3927  0.1529  0.0511
 5181SOL    HW127179   2.537   2.356   6.789  1.9983  1.6604 -1.0240
 5181SOL    HW227180   2.628   2.324   6.901  1.8389 -1.5939 -0.0589
 5182SOL     OW27181   3.634   1.988  13.093  0.0509  0.0736  1.0860
 5182SOL    HW127182   3.659   1.960  13.181  0.8887  0.3825  0.9445
 5182SOL    HW227183   3.721   2.018  13.065 -0.1106  2.4266  3.0870
 5183SOL     OW27184   1.396   4.396   8.007 -0.1529 -0.2823  0.0991
 5183SOL    HW127185   1.375   4.473   8.060 -0.7428 -0.4606  0.1230
 5183SOL    HW227186   1.408   4.326   8.072 -1.0058 -0.6481 -0.1360
 5184SOL     OW27187   2.888   2.433   6.234  0.1559 -0.3363 -0.5639
 5184SOL    HW127188   2.943   2.354   6.241  0.1898 -0.3485 -0.9673
 5184SOL    HW227189   2.808   2.401   6.276 -0.5009  0.7922 -0.9698
 5185SOL     OW27190   3.742   0.907   7.181  0.1113 -0.4102 -0.0014
 5185SOL    HW127191   3.727   0.928   7.088  1.8950 -2.8742 -0.8630
 5185SOL    HW227192   3.794   0.827   7.174  0.4853 -0.2093  0.5161
 5186SOL     OW27193   3.301   1.163   8.671 -0.4979 -0.3429 -0.1829
 5186SOL    HW127194   3.285   1.250   8.706  0.6023 -0.2204 -0.0035
 5186SOL    HW227195   3.248   1.175   8.592 -0.3213  2.1787  0.0900
 5187SOL     OW27196   2.513   0.161   7.076 -0.1024  0.3288  0.1782
 5187SOL    HW127197   2.586   0.200   7.028  1.7831 -1.2326  1.8031
 5187SOL    HW227198   2.456   0.238   7.081 -2.1102 -1.0794 -0.8203
 5188SOL     OW27199   1.119   1.948   9.151 -0.4309  0.2614 -0.6920
 5188SOL    HW127200   1.164   1.927   9.068 -2.4908 -0.7849 -1.5409
 5188SOL    HW227201   1.122   1.864   9.197 -0.3085 -0.6880 -2.4320
 5189SOL     OW27202   3.044   4.085   9.739  0.1083  1.0511 -0.7119
 5189SOL    HW127203   3.009   4.172   9.717 -2.9056  0.3399  1.3366
 5189SOL    HW227204   3.089   4.112   9.819 -0.4912 -0.8030  0.2499
 5190SOL     OW27205   2.316   4.389   3.337 -0.6186  0.2425 -0.0973
 5190SOL    HW127206   2.257   4.391   3.413 -0.7251  1.0579 -0.1915
 5190SOL    HW227207   2.341   4.482   3.331  1.4927 -0.2904  0.4749
 5191SOL     OW27208   0.004   3.144   3.638  0.3381  0.2742  0.4536
 5191SOL    HW127209   4.674   3.165   3.704 -1.6476 -2.1686 -0.7943
 5191SOL    HW227210   0.025   3.234   3.615 -0.0334 -0.1949 -1.7030
 5192SOL     OW27211   4.281   3.614  13.427  0.5664  0.2986 -0.4220
 5192SOL    HW127212   4.195   3.581  13.452  0.6877  0.0099 -0.3870
 5192SOL    HW227213   4.281   3.695  13.479 -0.1451 -0.7015  1.1472
 5193SOL     OW27214   4.229   2.450   3.657 -0.1045 -0.0224 -0.3401
 5193SOL    HW127215   4.267   2.489   3.578  2.9292  0.3407  1.3114
 5193SOL    HW227216   4.305   2.429   3.711 -0.6194 -1.9507 -0.3838
 5194SOL     OW27217   0.129   2.107   8.400 -0.4412 -0.3450  0.1176
 5194SOL    HW127218   0.152   2.029   8.350 -3.5417  0.0702 -1.9337
 5194SOL    HW227219   0.202   2.113   8.462  0.1621 -1.8097 -0.4606
 5195SOL     OW27220   3.104   3.621   6.547 -0.4747 -0.1807 -0.0627
 5195SOL    HW127221   3.008   3.616   6.537 -0.3563 -2.3723 -0.1094
 5195SOL    HW227222   3.114   3.697   6.604 -0.2384  0.9037 -1.5490
 5196SOL     OW27223   2.363   4.633   3.487 -0.1288  0.1304  0.0147
 5196SOL    HW127224   2.458   4.638   3.480 -0.1842  1.7540  0.3949
 5196SOL    HW227225   2.351   4.596   3.574 -1.8814 -0.0669 -0.3019
 5197SOL     OW27226   4.371   0.322   4.029 -0.0439  0.0616  0.2308
 5197SOL    HW127227   4.419   0.245   3.998 -0.6658 -0.3566  0.3206
 5197SOL    HW227228   4.391   0.377   3.953  2.9957 -2.3054 -0.7006
 5198SOL     OW27229   0.217   0.497   3.418  0.3288 -0.4198  0.2361
 5198SOL    HW127230   0.216   0.452   3.334 -1.9862 -3.2146  1.7243
 5198SOL    HW227231   0.279   0.440   3.465  0.0131  0.0118  1.1830
 5199SOL     OW27232   4.346   3.038   2.335  0.5780  0.0225 -0.2174
 5199SOL    HW127233   4.273   2.977   2.324  2.0302 -1.2789 -2.9111
 5199SOL    HW227234   4.405   2.983   2.386 -0.2004 -2.2279 -1.6978
 5200SOL     OW27235   2.839   0.876   3.104 -0.0723 -0.1432 -0.3401
 5200SOL    HW127236   2.870   0.863   3.193 -1.5811  1.0291  0.3636
 5200SOL    HW227237   2.872   0.964   3.088 -1.8141  0.8315  1.3906
 5201SOL     OW27238   3.354   2.233   2.763  0.6428 -0.4798 -0.3134
 5201SOL    HW127239   3.416   2.297   2.797 -2.0578  1.9755 -0.0332
 5201SOL    HW227240   3.293   2.282   2.709  1.3204  1.0713  0.3487
 5202SOL     OW27241   3.124   3.044   6.500  0.4411 -0.2618  0.3642
 5202SOL    HW127242   3.205   3.071   6.456 -1.3239  1.1572 -1.9999
 5202SOL    HW227243   3.140   3.067   6.591  1.1146 -0.5739  0.3265
 5203SOL     OW27244   3.087   3.591  16.865 -0.1640 -0.2760  0.1370
 5203SOL    HW127245   3.014   3.555  16.915 -0.9379  2.5310  1.0332
 5203SOL    HW227246   3.056   3.678  16.839 -0.0221 -1.1492 -2.9967
 5204SOL     OW27247   1.797   4.415   4.171 -0.1024 -0.0898 -0.0604
 5204SOL    HW127248   1.816   4.399   4.263 -2.1561  0.8435  0.5277
 5204SOL    HW227249   1.701   4.418   4.175 -0.0763 -0.1156  0.6242
 5205SOL     OW27250   1.955   3.059   1.071 -0.1791  0.4710  0.8168
 5205SOL    HW127251   1.938   3.115   1.146 -0.3180  1.2172  0.2231
 5205SOL    HW227252   1.896   3.091   1.003 -0.6308 -0.9777  0.5060
 5206SOL     OW27253   3.636   1.811  17.212  0.1825 -0.3052  0.1554
 5206SOL    HW127254   3.695   1.825  17.138  0.8356  0.4839  0.8244
 5206SOL    HW227255   3.636   1.898  17.252  2.5909 -0.2644  0.0739
 5207SOL     OW27256   0.037   0.800   9.604 -0.6341 -0.0219 -0.4581
 5207SOL    HW127257   0.122   0.755   9.605  0.1253  1.3811 -0.8779
 5207SOL    HW227258   0.031   0.844   9.520 -0.0229  1.7985  0.4453
 5208SOL     OW27259   4.531   1.523  11.791  0.3749  0.1425  0.1238
 5208SOL    HW127260   4.560   1.451  11.848 -1.4431 -2.8496 -2.7763
 5208SOL    HW227261   4.457   1.561  11.839  0.5168 -0.2060  0.6206
 5209SOL     OW27262   4.142   0.925  15.736  0.1584  0.4810  0.0775
 5209SOL    HW127263   4.201   0.998  15.750  1.2729 -0.4655  0.2966
 5209SOL    HW227264   4.061   0.968  15.765 -0.8964 -0.3817 -1.5664
 5210SOL     OW27265   2.482   0.867   6.477  0.4922  0.2134  0.2592
 5210SOL    HW127266   2.540   0.918   6.421 -0.8318  0.9345 -0.4482
 5210SOL    HW227267   2.513   0.777   6.461 -1.4330  0.3163 -3.9650
 5211SOL     OW27268   3.866   0.221   8.591  0.2882 -0.5661  0.2801
 5211SOL    HW127269   3.936   0.263   8.542 -0.7477  0.7575 -0.0464
 5211SOL    HW227270   3.909   0.203   8.675  0.3197 -0.4331  0.2916
 5212SOL     OW27271   2.422   1.250  12.955  0.5542  0.2471 -0.0502
 5212SOL    HW127272   2.388   1.330  12.995 -1.4294 -0.0576 -1.1291
 5212SOL    HW227273   2.347   1.222  12.903 -0.4308 -0.2715  1.6334
 5213SOL     OW27274   1.575   1.865  13.305  0.1854 -0.2809  0.7470
 5213SOL    HW127275   1.523   1.785  13.314 -0.6221  0.1987  0.3897
 5213SOL    HW227276   1.558   1.898  13.217 -0.2616  0.3779  1.0882
 5214SOL     OW27277   4.236   3.870   2.089  0.0112  0.4255  0.2027
 5214SOL    HW127278   4.255   3.943   2.148 -2.2759 -0.6103  2.2454
 5214SOL    HW227279   4.318   3.822   2.097  0.2302  0.5280 -1.3448
 5215SOL     OW27280   3.441   1.154   5.034 -0.4219  0.5712  0.9462
 5215SOL    HW127281   3.428   1.220   4.965 -0.4724 -0.3002  0.1136
 5215SOL    HW227282   3.528   1.132   5.002 -0.7838 -0.7416  0.8743
 5216SOL     OW27283   0.430   2.488   5.749 -0.0111  0.0699 -0.0697
 5216SOL    HW127284   0.347   2.453   5.717 -1.1879  1.8082  1.0352
 5216SOL    HW227285   0.474   2.515   5.668  0.9779  0.3618  0.5563
 5217SOL     OW27286   3.182   4.044   8.960 -0.0425  0.2243  0.3630
 5217SOL    HW127287   3.144   4.122   8.921  0.6537  1.3810  2.0228
 5217SOL    HW227288   3.167   4.048   9.054  1.2756  1.0512  0.5298
 5218SOL     OW27289   2.813   4.294   7.364 -0.0450 -0.5069  0.2001
 5218SOL    HW127290   2.861   4.217   7.394  1.3659  0.1174 -0.4775
 5218SOL    HW227291   2.722   4.266   7.350 -0.3648  0.4059  0.5238
 5219SOL     OW27292   2.237   0.612  15.299 -0.3822  0.3563  0.5732
 5219SOL    HW127293   2.217   0.616  15.205 -1.0964 -0.1482  0.7024
 5219SOL    HW227294   2.145   0.594  15.321 -0.1300 -2.0000 -0.3517
 5220SOL     OW27295   1.684   4.085  14.217 -0.0426 -0.2065  0.3785
 5220SOL    HW127296   1.754   4.033  14.177  0.3386  0.7753 -0.2379
 5220SOL    HW227297   1.643   4.109  14.134  0.2016  1.6195  0.7703
 5221SOL     OW27298   1.436   0.730   9.983 -0.2135  0.3428  0.5724
 5221SOL    HW127299   1.457   0.791   9.913  0.9302 -0.4609  0.2194
 5221SOL    HW227300   1.341   0.735   9.996 -0.1660 -0.4074  1.2005
 5222SOL     OW27301   1.624   1.768   3.661  0.2692  0.0802  0.7125
 5222SOL    HW127302   1.663   1.685   3.634 -0.0387  0.2372 -0.2426
 5222SOL    HW227303   1.567   1.752   3.736  1.0891 -0.1734  1.2728
 5223SOL     OW27304   0.231   3.757   7.441 -0.5690  0.0880  0.1636
 5223SOL    HW127305   0.152   3.751   7.494 -1.5607  0.3846 -1.2619
 5223SOL    HW227306   0.268   3.671   7.461  0.6932  0.3897 -0.8746
 5224SOL     OW27307   2.224   3.674  14.963  0.2244 -0.5536  0.2793
 5224SOL    HW127308   2.179   3.689  15.046 -0.1668 -0.7310  0.0965
 5224SOL    HW227309   2.161   3.713  14.903  1.6182 -1.5759 -1.8379
 5225SOL     OW27310   1.637   4.405  14.357 -0.1828  0.5981 -0.3603
 5225SOL    HW127311   1.616   4.492  14.322  3.6554  0.1143 -3.8271
 5225SOL    HW227312   1.588   4.344  14.302  1.9660 -2.5408  1.1888
 5226SOL     OW27313   1.419   2.853   4.822 -0.2638 -0.3707  0.0741
 5226SOL    HW127314   1.368   2.827   4.898  4.1297 -2.7838  2.1792
 5226SOL    HW227315   1.470   2.773   4.809 -0.7888 -0.4527 -1.5862
 5227SOL     OW27316   0.692   2.437  11.712  0.0502  0.2142 -0.2507
 5227SOL    HW127317   0.648   2.410  11.792 -0.3048 -1.2030 -0.9455
 5227SOL    HW227318   0.632   2.441  11.637  0.2751  0.9149 -0.4021
 5228SOL     OW27319   3.911   2.807   1.971 -0.3216 -0.5575 -0.0962
 5228SOL    HW127320   3.995   2.806   1.925 -0.1605 -0.5387  0.2018
 5228SOL    HW227321   3.874   2.890   1.941  0.3760 -0.4018 -0.5070
 5229SOL     OW27322   3.719   3.132  17.388 -0.1640  0.3038  0.0974
 5229SOL    HW127323   3.727   3.179  17.305  1.1140 -1.3550 -0.7224
 5229SOL    HW227324   3.810   3.137  17.415 -0.5450  3.2668  0.8637
 5230SOL     OW27325   0.495   4.205   7.520  0.2302  0.7544 -0.1271
 5230SOL    HW127326   0.429   4.275   7.525 -1.3336 -0.5666 -1.8466
 5230SOL    HW227327   0.467   4.157   7.442 -2.7361  0.1440  1.2838
 5231SOL     OW27328   2.703   4.515  14.789  0.0880  0.3330 -0.0544
 5231SOL    HW127329   2.796   4.495  14.785  0.3939  1.8585 -0.7255
 5231SOL    HW227330   2.680   4.507  14.696  4.3097  0.1363 -1.0734
 5232SOL     OW27331   2.620   1.987   2.911  0.3592 -0.2423 -0.2803
 5232SOL    HW127332   2.599   2.080   2.905 -1.5999 -0.6895 -0.3812
 5232SOL    HW227333   2.623   1.988   3.006 -2.3235  1.2650 -0.2123
 5233SOL     OW27334   0.164   2.957   9.099 -1.0551  0.1451 -0.6397
 5233SOL    HW127335   0.152   2.954   9.004 -3.5134 -0.3637 -0.3091
 5233SOL    HW227336   0.201   2.873   9.126 -3.2537 -0.6049  0.0152
 5234SOL     OW27337   0.800   2.960   8.637  0.6411  0.3336 -0.6072
 5234SOL    HW127338   0.865   2.912   8.585  0.5033 -0.5365  0.0255
 5234SOL    HW227339   0.731   2.895   8.649  1.1127 -0.1023 -0.2638
 5235SOL     OW27340   2.044   4.389   3.544  0.0474 -0.2082  0.2534
 5235SOL    HW127341   1.967   4.366   3.493 -0.4944  0.6079  0.6937
 5235SOL    HW227342   2.037   4.345   3.629  0.1437  0.7567  0.7705
 5236SOL     OW27343   0.252   0.652   9.658  0.0364 -0.4397 -0.5025
 5236SOL    HW127344   0.241   0.673   9.751 -3.1273 -2.1467 -0.4754
 5236SOL    HW227345   0.343   0.624   9.649  1.0218  2.0142  1.8782
 5237SOL     OW27346   1.552   1.211   8.154  0.0380  0.4504 -0.3205
 5237SOL    HW127347   1.483   1.164   8.202  0.4872 -0.1820 -0.2853
 5237SOL    HW227348   1.603   1.135   8.124  1.4029  1.3865 -0.3591
 5238SOL     OW27349   4.355   0.395   0.292 -0.0423  0.2772  0.2464
 5238SOL    HW127350   4.407   0.375   0.214  1.1576  0.9969  0.8611
 5238SOL    HW227351   4.315   0.309   0.303 -1.0521  0.6143 -0.9342
 5239SOL     OW27352   3.289   3.961   8.483  0.4104 -0.6955  0.3046
 5239SOL    HW127353   3.209   3.912   8.499  0.0280  0.2579  1.3209
 5239SOL    HW227354   3.311   3.988   8.572 -2.1880 -0.3444  0.8400
 5240SOL     OW27355   0.850   2.632   7.724  0.1757 -0.3359  0.3870
 5240SOL    HW127356   0.805   2.708   7.762  1.5490  0.5316  0.2766
 5240SOL    HW227357   0.863   2.569   7.795  1.2399 -0.1820  0.3296
 5241SOL     OW27358   1.821   1.940   6.682 -0.4611 -0.1476  0.3551
 5241SOL    HW127359   1.905   1.897   6.668 -0.4351 -0.0181  0.1142
 5241SOL    HW227360   1.766   1.904   6.612  0.9392 -0.1759 -0.7265
 5242SOL     OW27361   1.599   1.951   2.502  0.0670 -0.2626  0.0429
 5242SOL    HW127362   1.651   2.027   2.527  1.2020 -1.3254  0.9236
 5242SOL    HW227363   1.582   1.917   2.590 -0.0580  0.3398  0.2523
 5243SOL     OW27364   0.014   0.642   8.938  0.1024  0.1388  0.8848
 5243SOL    HW127365   0.092   0.603   8.898  0.5104  1.1419  0.6832
 5243SOL    HW227366   0.050   0.700   9.005 -0.2128  2.2747 -0.7588
 5244SOL     OW27367   1.902   0.438   5.597 -0.1635 -0.0004  0.2077
 5244SOL    HW127368   1.974   0.414   5.538  0.8627  0.5390  1.2619
 5244SOL    HW227369   1.933   0.524   5.626 -0.4408 -0.1973  1.0740
 5245SOL     OW27370   3.603   0.446   6.457  0.3211  0.5044  0.5569
 5245SOL    HW127371   3.535   0.511   6.436  0.8685  0.6137 -0.8889
 5245SOL    HW227372   3.560   0.361   6.464  0.4077  0.3449 -0.8490
 5246SOL     OW27373   3.311   0.545  11.948 -0.1139 -0.4014 -0.7924
 5246SOL    HW127374   3.393   0.590  11.927 -0.0341 -0.0697  0.2535
 5246SOL    HW227375   3.329   0.473  11.887  2.1293 -0.5497  0.0567
 5247SOL     OW27376   3.163   0.010  12.880 -0.0920 -0.6377 -0.3415
 5247SOL    HW127377   3.099   0.021  12.810 -0.8460 -3.0037 -0.0475
 5247SOL    HW227378   3.159   0.102  12.906  1.0977 -0.4123 -0.9691
 5248SOL     OW27379   2.409   0.325  16.744  0.0681  0.0203  0.1170
 5248SOL    HW127380   2.461   0.331  16.664  1.7760 -0.8938  1.1558
 5248SOL    HW227381   2.470   0.330  16.818 -1.5528  2.2702  1.2922
 5249SOL     OW27382   3.646   0.657   4.372 -0.5159  0.3154  0.3530
 5249SOL    HW127383   3.604   0.621   4.451 -1.0836  1.7209  0.6890
 5249SOL    HW227384   3.735   0.672   4.405 -0.4926 -1.9021  1.2991
 5250SOL     OW27385   0.591   3.808   6.526 -0.2887 -0.0676 -0.3386
 5250SOL    HW127386   0.631   3.881   6.478 -0.7048 -0.5489 -1.4103
 5250SOL    HW227387   0.596   3.850   6.611  0.7572  0.1948 -0.5224
 5251SOL     OW27388   1.723   3.552   9.541 -0.2365  0.4047 -0.2842
 5251SOL    HW127389   1.638   3.541   9.498 -0.3755 -1.1510  0.3788
 5251SOL    HW227390   1.776   3.589   9.470  0.1882  0.4534  0.0598
 5252SOL     OW27391   3.536   4.664   8.065  0.0574  0.1375  0.4409
 5252SOL    HW127392   3.598   4.654   8.137  0.2973  0.3296  0.2601
 5252SOL    HW227393   3.563   4.592   8.007 -0.1129 -0.6060  1.2767
 5253SOL     OW27394   2.872   2.894   3.316 -0.2160  0.2408 -0.5126
 5253SOL    HW127395   2.810   2.868   3.248 -1.5364  0.5634  0.5698
 5253SOL    HW227396   2.937   2.825   3.303 -0.2839  0.1396 -0.3063
 5254SOL     OW27397   2.603   1.534  13.468 -0.2098  0.0636  0.4949
 5254SOL    HW127398   2.538   1.464  13.474 -2.0752  1.8206  1.0081
 5254SOL    HW227399   2.547   1.608  13.494 -0.9658 -0.1360 -0.5756
 5255SOL     OW27400   0.228   2.986   3.354  0.4551  0.1060 -0.4751
 5255SOL    HW127401   0.140   2.990   3.317  0.5951 -1.8259 -1.0173
 5255SOL    HW227402   0.238   3.070   3.398 -0.8791 -0.8367  1.6271
 5256SOL     OW27403   0.311   2.948   2.933 -0.0955 -0.0891 -0.0918
 5256SOL    HW127404   0.234   3.003   2.946 -1.0994 -1.5268  0.1287
 5256SOL    HW227405   0.315   2.948   2.837  1.2523  1.8967 -0.0177
 5257SOL     OW27406   1.587   0.964   4.868 -0.4898  0.0683  0.2717
 5257SOL    HW127407   1.573   1.052   4.903  1.5852  0.4076  0.2574
 5257SOL    HW227408   1.501   0.921   4.870 -0.5252  0.1488  0.4572
 5258SOL     OW27409   0.269   0.864   3.250 -0.0949 -0.0089 -0.5413
 5258SOL    HW127410   0.280   0.773   3.224  0.7178  0.4423 -1.7969
 5258SOL    HW227411   0.283   0.872   3.344  1.6568 -0.6775 -0.7452
 5259SOL     OW27412   2.055   2.612   5.988 -0.2322 -0.1440 -0.2690
 5259SOL    HW127413   1.968   2.652   5.987  0.3828  1.2406  0.9429
 5259SOL    HW227414   2.037   2.518   5.986  0.0423 -0.2421  2.0633
 5260SOL     OW27415   4.087   4.128   6.122  0.3064  0.0122  0.4294
 5260SOL    HW127416   4.022   4.174   6.069 -0.6097 -0.3943  1.2110
 5260SOL    HW227417   4.042   4.044   6.135  0.0362  0.0935  0.0200
 5261SOL     OW27418   4.282   2.311   9.378  0.1097  0.2989 -0.3186
 5261SOL    HW127419   4.325   2.386   9.419 -1.7174 -0.5477  3.1186
 5261SOL    HW227420   4.349   2.245   9.393 -0.8035 -0.5651 -0.0545
 5262SOL     OW27421   4.240   3.972   9.106  0.0841  0.5527  0.3815
 5262SOL    HW127422   4.211   4.027   9.179 -2.2431  0.4610 -0.4770
 5262SOL    HW227423   4.165   3.915   9.086 -0.2478  2.1596 -2.8859
 5263SOL     OW27424   2.565   2.565   4.049  0.2260  0.1655 -0.0165
 5263SOL    HW127425   2.534   2.480   4.079  1.4527 -0.0911  0.4909
 5263SOL    HW227426   2.480   2.604   4.030  0.0433 -0.3668 -0.2836
 5264SOL     OW27427   1.425   3.393   4.490  0.4061  0.1736  0.1881
 5264SOL    HW127428   1.345   3.348   4.517 -1.0690  3.4015  1.1036
 5264SOL    HW227429   1.493   3.328   4.511  0.6175  0.4927  0.4811
 5265SOL     OW27430   3.362   3.214   4.728  0.0671 -0.0606  0.1119
 5265SOL    HW127431   3.266   3.210   4.726 -0.0740  2.0793  2.9224
 5265SOL    HW227432   3.378   3.187   4.819  0.1458  3.4310  1.1189
 5266SOL     OW27433   0.684   4.255   7.276  0.0899  1.1060 -0.2527
 5266SOL    HW127434   0.646   4.335   7.312 -1.9696 -0.6172  1.3432
 5266SOL    HW227435   0.773   4.288   7.264  1.4601 -2.1308  1.1588
 5267SOL     OW27436   3.756   3.361  11.980 -0.0519 -0.1466  0.2481
 5267SOL    HW127437   3.818   3.346  12.051  1.2052  0.5501 -0.7022
 5267SOL    HW227438   3.671   3.354  12.024  0.4477 -0.5655  1.1553
 5268SOL     OW27439   0.761   3.146  15.179  0.1988 -0.2837 -0.3001
 5268SOL    HW127440   0.678   3.178  15.142 -0.5664 -0.9217  0.8620
 5268SOL    HW227441   0.730   3.119  15.265 -0.7665  2.1077  0.1110
 5269SOL     OW27442   1.963   2.417   3.676  0.6747  0.0582  0.0860
 5269SOL    HW127443   1.968   2.391   3.768  0.0764 -2.0699 -0.4662
 5269SOL    HW227444   2.018   2.495   3.670  1.6533 -0.5773  0.5305
 5270SOL     OW27445   2.488   0.681   8.833  0.2559  0.1724  0.7079
 5270SOL    HW127446   2.426   0.671   8.906 -0.5705 -0.8925 -0.1364
 5270SOL    HW227447   2.441   0.636   8.762  0.6859 -0.1931  0.6541
 5271SOL     OW27448   2.204   1.846   4.985  0.3795 -0.4153 -0.2774
 5271SOL    HW127449   2.148   1.770   5.003  1.6518 -1.1355  0.5947
 5271SOL    HW227450   2.225   1.831   4.893  2.1305  0.2719  0.0176
 5272SOL     OW27451   1.765   4.708   8.378 -0.3318 -0.3988 -0.3633
 5272SOL    HW127452   1.817   0.023   8.439 -1.8072 -0.3984  0.8910
 5272SOL    HW227453   1.784   4.622   8.415 -0.2782  0.4803  1.6743
 5273SOL     OW27454   1.609   2.310   3.960 -0.5670  0.4794 -0.4843
 5273SOL    HW127455   1.588   2.403   3.972  0.7790  0.7525 -0.1953
 5273SOL    HW227456   1.610   2.308   3.865 -2.4049 -0.3077 -0.4957
 5274SOL     OW27457   3.210   1.239   5.203  0.3177 -0.0590  0.8406
 5274SOL    HW127458   3.179   1.324   5.172  1.8046  0.0547 -0.3011
 5274SOL    HW227459   3.255   1.215   5.122 -1.0302  1.3663 -0.3261
 5275SOL     OW27460   3.986   0.627   0.655 -0.2316 -0.5179  0.1002
 5275SOL    HW127461   3.912   0.631   0.716  0.7806  1.6205  1.2146
 5275SOL    HW227462   4.062   0.657   0.706 -0.5535 -1.7551  1.3149
 5276SOL     OW27463   1.027   4.060  17.409 -0.1612 -0.4053  0.7972
 5276SOL    HW127464   1.014   4.084  17.501  0.7258 -0.6051  0.9727
 5276SOL    HW227465   0.941   4.023  17.392  0.2262 -1.4858  1.2466
 5277SOL     OW27466   4.280   0.033   9.194  0.5638 -0.0682  0.0147
 5277SOL    HW127467   4.332   4.711   9.140 -0.6720  0.2986 -1.5859
 5277SOL    HW227468   4.211   0.068   9.137  0.5532 -0.8637 -0.4550
 5278SOL     OW27469   3.612   4.043   1.268  0.2866 -0.3726 -0.8774
 5278SOL    HW127470   3.571   4.129   1.271  0.1834 -0.4813  0.4725
 5278SOL    HW227471   3.549   3.995   1.214  0.4487 -1.8468  0.2364
 5279SOL     OW27472   0.905   0.210   7.946 -0.2563  0.0497  0.3232
 5279SOL    HW127473   0.895   0.266   8.023 -4.3044  0.9773 -0.8590
 5279SOL    HW227474   0.892   0.267   7.870 -1.4371  0.6324  0.9609
 5280SOL     OW27475   2.903   0.625   2.858  0.7542  0.4167 -0.6976
 5280SOL    HW127476   2.938   0.659   2.941 -1.8738  1.4684 -0.0254
 5280SOL    HW227477   2.871   0.542   2.892  0.0133  1.1911  0.5212
 5281SOL     OW27478   0.233   1.329   3.607 -0.5815 -0.3589  0.3953
 5281SOL    HW127479   0.216   1.370   3.522  0.6489 -0.4303  0.1138
 5281SOL    HW227480   0.147   1.307   3.641 -0.0261 -1.5172  1.0587
 5282SOL     OW27481   1.730   2.899   3.908 -0.0640  0.1793 -0.4013
 5282SOL    HW127482   1.777   2.816   3.911 -0.3625  0.0545  1.0988
 5282SOL    HW227483   1.756   2.930   3.821  0.2946  0.5363 -0.1701
 5283SOL     OW27484   1.371   0.953   9.288  0.0971 -0.0777  0.1751
 5283SOL    HW127485   1.466   0.949   9.286  0.0899 -0.5271  0.4772
 5283SOL    HW227486   1.361   1.016   9.360  2.0375 -1.6691  1.8415
 5284SOL     OW27487   1.178   0.455   2.948 -0.0175  0.0316 -0.4235
 5284SOL    HW127488   1.139   0.373   2.979 -1.4038  1.4197  1.4018
 5284SOL    HW227489   1.206   0.428   2.860 -0.6892 -0.7412 -0.3948
 5285SOL     OW27490   1.835   4.713   0.605  0.1499 -0.3420 -0.0056
 5285SOL    HW127491   1.748   4.716   0.645  2.0829 -0.1863  4.1787
 5285SOL    HW227492   1.818   0.026   0.526 -2.3445 -1.2628 -0.0414
 5286SOL     OW27493   0.344   2.877   5.482 -0.2460 -0.0616 -0.5488
 5286SOL    HW127494   0.339   2.863   5.387  3.4774  1.1450 -0.8868
 5286SOL    HW227495   0.269   2.820   5.501 -1.3229  0.5278 -2.9883
 5287SOL     OW27496   3.582   4.200   3.185 -0.3755 -0.0904  0.4618
 5287SOL    HW127497   3.565   4.293   3.171  0.2754 -0.1298 -0.6245
 5287SOL    HW227498   3.558   4.200   3.277 -2.5848 -0.6135 -0.1086
 5288SOL     OW27499   0.661   0.396   3.840  0.3838 -0.1796 -0.4751
 5288SOL    HW127500   0.733   0.422   3.897  0.1693 -0.5617 -0.0386
 5288SOL    HW227501   0.709   0.386   3.757 -1.1810 -1.9748 -1.1488
 5289SOL     OW27502   3.325   1.842   0.432 -0.1338 -0.3311 -0.4786
 5289SOL    HW127503   3.262   1.787   0.385  1.1519 -1.7749 -0.4914
 5289SOL    HW227504   3.398   1.832   0.372 -0.3344  1.3098 -0.9744
 5290SOL     OW27505   1.176   1.566   4.331  0.0747  0.7011 -0.0393
 5290SOL    HW127506   1.151   1.646   4.377  0.4698 -0.6768  2.5566
 5290SOL    HW227507   1.096   1.513   4.340  1.2595 -0.9274  0.7944
 5291SOL     OW27508   4.579   4.492  10.433  0.1273 -0.2121  0.0401
 5291SOL    HW127509   4.628   4.464  10.510  3.4797 -0.0835 -2.0379
 5291SOL    HW227510   4.506   4.542  10.468  0.6905  0.3311  0.4465
 5292SOL     OW27511   2.326   1.551   4.246 -0.2254 -0.2648  0.4230
 5292SOL    HW127512   2.377   1.618   4.201  0.7175 -0.7446  0.7542
 5292SOL    HW227513   2.333   1.579   4.337  1.8558 -0.8430  0.4464
 5293SOL     OW27514   1.906   3.964   6.392  0.4350  0.1230 -0.1679
 5293SOL    HW127515   1.864   3.879   6.404  1.7849 -0.3081  1.4938
 5293SOL    HW227516   1.868   4.011   6.467  0.8607 -0.0014  0.1217
 5294SOL     OW27517   3.240   2.566   8.120 -0.2661  0.1731  0.5303
 5294SOL    HW127518   3.285   2.607   8.194 -0.4468  1.1747  0.0849
 5294SOL    HW227519   3.180   2.506   8.164 -0.7638  1.0769  1.0695
 5295SOL     OW27520   0.281   1.639   7.001 -0.0515 -0.0237  0.1621
 5295SOL    HW127521   0.303   1.707   6.937  0.7809  1.0309  1.5546
 5295SOL    HW227522   0.354   1.641   7.063  0.0320  2.6496 -0.0041
 5296SOL     OW27523   2.912   0.821   1.838  0.5272 -0.0333 -0.1763
 5296SOL    HW127524   2.822   0.798   1.861  0.2873 -0.6031 -1.6656
 5296SOL    HW227525   2.942   0.889   1.898  1.1333 -0.7095  0.2775
 5297SOL     OW27526   2.712   4.507   8.762 -0.7052 -0.3105  0.3455
 5297SOL    HW127527   2.624   4.494   8.797 -0.4898  0.1736  1.0740
 5297SOL    HW227528   2.725   4.421   8.722 -0.8215 -0.6110  0.9612
 5298SOL     OW27529   0.850   3.547   5.352 -0.1819  0.3538 -0.0614
 5298SOL    HW127530   0.871   3.635   5.381  2.6238 -0.5271  0.6198
 5298SOL    HW227531   0.899   3.503   5.422 -0.9679  1.0253  0.9018
 5299SOL     OW27532   1.278   4.550   8.209 -0.2642  0.2056 -0.1381
 5299SOL    HW127533   1.342   4.498   8.257  0.0296 -0.3949 -1.1923
 5299SOL    HW227534   1.282   4.632   8.259  2.6375  0.4458 -0.7959
 5300SOL     OW27535   1.497   2.911   1.207 -0.6587  0.0881 -0.1131
 5300SOL    HW127536   1.588   2.889   1.185 -0.5034 -1.1421  1.7659
 5300SOL    HW227537   1.502   2.992   1.156 -0.2002  0.0848 -0.0796
 5301SOL     OW27538   0.029   4.268   3.116 -0.2990 -0.4010  0.5885
 5301SOL    HW127539   0.041   4.304   3.204 -1.6648 -0.5195  0.8200
 5301SOL    HW227540   0.111   4.220   3.103  0.0642  0.6728 -1.0959
 5302SOL     OW27541   4.421   4.510   4.513  0.6780 -0.2386  0.6064
 5302SOL    HW127542   4.360   4.450   4.471  0.1040  0.1765  0.8573
 5302SOL    HW227543   4.510   4.480   4.492 -0.5478 -1.2487 -3.1033
 5303SOL     OW27544   4.215   1.742   1.201  0.2727 -0.0636  0.0898
 5303SOL    HW127545   4.270   1.820   1.194 -0.0057  0.1771  0.6125
 5303SOL    HW227546   4.273   1.679   1.157  1.8607  1.1945  0.3940
 5304SOL     OW27547   3.186   1.601   0.591 -0.1471 -0.4716 -0.8916
 5304SOL    HW127548   3.268   1.555   0.610 -0.7477 -1.3480 -0.3801
 5304SOL    HW227549   3.152   1.617   0.679  0.4027 -1.3506 -0.5158
 5305SOL     OW27550   2.991   2.064   7.619 -0.2108 -0.3238 -0.0716
 5305SOL    HW127551   3.065   2.093   7.672 -0.3419  0.6457 -0.4213
 5305SOL    HW227552   3.028   1.998   7.560  1.9918  0.4884  0.3960
 5306SOL     OW27553   3.922   0.833  16.855  0.0285 -0.0494  0.1538
 5306SOL    HW127554   3.905   0.788  16.773 -3.6396 -1.1133  1.4915
 5306SOL    HW227555   4.017   0.844  16.844  0.1721 -1.1072  0.4132
 5307SOL     OW27556   4.157   1.199  16.743 -0.6040 -0.0567  0.1072
 5307SOL    HW127557   4.082   1.161  16.788 -0.1279 -0.7084  0.3443
 5307SOL    HW227558   4.205   1.118  16.727 -0.7063 -0.3584  1.3376
 5308SOL     OW27559   1.215   0.827   5.922 -0.2723  0.4380 -0.2005
 5308SOL    HW127560   1.291   0.841   5.866  0.0142 -0.5341 -0.0646
 5308SOL    HW227561   1.250   0.857   6.006 -2.6221 -0.9457  1.2772
 5309SOL     OW27562   2.853   4.408  15.470 -0.0708 -0.2216  0.0166
 5309SOL    HW127563   2.830   4.315  15.470 -0.6467 -0.0708  2.6901
 5309SOL    HW227564   2.929   4.414  15.528  0.7518  1.4189 -1.2086
 5310SOL     OW27565   4.230   3.922  16.890 -0.7988 -0.2116 -0.2560
 5310SOL    HW127566   4.208   3.863  16.963 -0.2408 -0.6731 -0.4562
 5310SOL    HW227567   4.164   3.990  16.901 -1.1877 -0.4671 -1.0584
 5311SOL     OW27568   2.889   0.144   4.485 -0.3180 -0.2939 -0.0106
 5311SOL    HW127569   2.855   0.109   4.568  2.0643  2.4281  2.1114
 5311SOL    HW227570   2.824   0.211   4.464  0.0708  0.1206  0.1206
 5312SOL     OW27571   3.283   1.069   5.877 -0.5913 -0.0643 -0.5579
 5312SOL    HW127572   3.281   1.148   5.824 -2.8687  0.2112 -0.0351
 5312SOL    HW227573   3.194   1.037   5.865 -1.0072  0.9549 -0.1824
 5313SOL     OW27574   3.039   4.413   2.528  0.3121  0.1663  0.0876
 5313SOL    HW127575   3.072   4.385   2.443  0.5206  0.7163 -0.0151
 5313SOL    HW227576   3.022   4.505   2.508  1.0237  0.2282 -0.2249
 5314SOL     OW27577   2.863   2.241  12.128 -0.0948 -0.1854  0.1648
 5314SOL    HW127578   2.931   2.308  12.124  0.2527 -0.5548 -0.0789
 5314SOL    HW227579   2.917   2.172  12.089 -1.4466 -0.5917 -0.9748
 5315SOL     OW27580   3.227   0.699  14.370  0.2351  0.1288  0.4741
 5315SOL    HW127581   3.171   0.708  14.447 -2.0416  0.0531 -1.1408
 5315SOL    HW227582   3.272   0.782  14.357 -0.3350 -0.0563 -2.7696
 5316SOL     OW27583   1.439   0.975   4.054 -0.2562  0.2610 -0.1678
 5316SOL    HW127584   1.406   1.061   4.079 -0.7171 -0.2129  0.8651
 5316SOL    HW227585   1.447   0.997   3.961 -1.5507 -0.7345 -0.5282
 5317SOL     OW27586   3.836   3.750   9.237  0.6235 -0.4872  0.2351
 5317SOL    HW127587   3.894   3.701   9.180  0.2883 -2.0603  1.2492
 5317SOL    HW227588   3.850   3.708   9.322  0.4957 -0.3094  0.3459
 5318SOL     OW27589   3.345   2.153  13.583  0.2185 -0.3854 -0.4370
 5318SOL    HW127590   3.330   2.107  13.500  0.9997  1.3804 -1.5768
 5318SOL    HW227591   3.258   2.192  13.594  0.1763 -0.3382 -0.9356
 5319SOL     OW27592   3.832   3.191  11.209  0.4043 -0.0842 -0.3876
 5319SOL    HW127593   3.876   3.144  11.138 -0.6656 -0.0497 -1.0809
 5319SOL    HW227594   3.889   3.267  11.215  0.7206 -0.2633 -1.1257
 5320SOL     OW27595   3.377   1.655   5.081 -0.4220 -0.2928  0.1361
 5320SOL    HW127596   3.426   1.581   5.044  0.1337  0.2076 -0.1250
 5320SOL    HW227597   3.434   1.726   5.052 -1.6404  1.1374  1.2845
 5321SOL     OW27598   4.054   2.454  17.456  0.1021  0.4478  0.2436
 5321SOL    HW127599   3.964   2.426  17.445  0.1189  0.6230 -0.3470
 5321SOL    HW227600   4.098   2.401  17.390 -1.2847 -2.3749  1.6217
 5322SOL     OW27601   2.927   2.199   1.293 -0.3880  0.1449  0.3608
 5322SOL    HW127602   3.003   2.191   1.236  1.3819  1.5103  2.5502
 5322SOL    HW227603   2.968   2.184   1.378 -2.4554  0.0318  1.3318
 5323SOL     OW27604   3.275   4.709   0.397 -0.7425 -0.6478  0.3425
 5323SOL    HW127605   3.299   0.023   0.320  3.6699 -4.8239 -1.0564
 5323SOL    HW227606   3.358   4.710   0.445 -1.3133  2.9603  1.2397
 5324SOL     OW27607   2.120   3.593   5.315 -0.0617  0.0767  0.5512
 5324SOL    HW127608   2.177   3.526   5.352 -0.3115  0.1114  1.0001
 5324SOL    HW227609   2.194   3.621   5.262 -0.9329  0.8236 -0.2717
 5325SOL     OW27610   1.107   3.702   4.361 -0.0374 -1.2502 -0.2684
 5325SOL    HW127611   1.090   3.610   4.340 -3.2394 -0.1366 -2.5066
 5325SOL    HW227612   1.082   3.698   4.453  2.5243 -0.6419  0.4685
 5326SOL     OW27613   3.451   0.843  15.303 -0.3419  0.4990  0.7147
 5326SOL    HW127614   3.383   0.910  15.315 -0.0607  0.7336  0.9788
 5326SOL    HW227615   3.508   0.898  15.250  0.5601  0.1663  1.3487
 5327SOL     OW27616   4.520   3.924   7.563  0.6290 -1.1969  0.4182
 5327SOL    HW127617   4.494   4.002   7.612  2.2723 -0.6691  0.4639
 5327SOL    HW227618   4.444   3.866   7.567 -1.3284  1.1993 -1.8971
 5328SOL     OW27619   1.378   1.024   2.032 -0.5747  0.4112  0.2562
 5328SOL    HW127620   1.391   1.009   2.125  0.7732 -0.1123 -0.0068
 5328SOL    HW227621   1.434   0.949   2.011 -0.7445 -0.0434  1.4414
 5329SOL     OW27622   3.716   0.125   3.240  0.3667  0.2194 -0.5482
 5329SOL    HW127623   3.718   0.069   3.163  0.1851 -0.6765  0.0935
 5329SOL    HW227624   3.704   0.055   3.304  0.6906  1.4832  0.9294
 5330SOL     OW27625   4.574   3.898   3.429 -0.2737  0.1644 -0.8255
 5330SOL    HW127626   4.665   3.898   3.458 -0.3809 -0.8652 -0.4874
 5330SOL    HW227627   4.540   3.975   3.473 -2.7579 -1.2123 -0.3672
 5331SOL     OW27628   1.841   4.019   6.130 -0.1377 -0.3685 -0.2615
 5331SOL    HW127629   1.762   3.972   6.156 -0.2694 -0.6464 -1.1657
 5331SOL    HW227630   1.900   4.010   6.205 -1.7100  3.3926  1.4654
 5332SOL     OW27631   4.552   3.685   9.903 -0.0064 -0.2647  0.1479
 5332SOL    HW127632   4.521   3.638   9.981  0.9634  0.6560  1.1010
 5332SOL    HW227633   4.592   3.759   9.950 -0.8384  1.2114 -1.4803
 5333SOL     OW27634   3.181   2.486  15.912 -0.4878 -0.7694  0.2993
 5333SOL    HW127635   3.191   2.573  15.951  3.6518 -0.5174 -1.3217
 5333SOL    HW227636   3.271   2.480  15.882 -0.2864  0.5540  0.6456
 5334SOL     OW27637   2.996   0.706  17.698 -0.6724 -0.2106 -0.5120
 5334SOL    HW127638   3.079   0.746  17.724  0.6642 -2.5622 -1.1642
 5334SOL    HW227639   2.940   0.782  17.711 -0.2725 -0.1797  0.9334
 5335SOL     OW27640   0.494   1.973   6.493  0.1439 -0.6011 -0.2956
 5335SOL    HW127641   0.505   2.023   6.411 -1.1812  0.3949  0.1356
 5335SOL    HW227642   0.546   2.038   6.541 -0.9823 -2.0935  2.8980
 5336SOL     OW27643   0.862   0.614  10.122 -0.4547  0.1095 -0.4456
 5336SOL    HW127644   0.944   0.574  10.152 -0.7734 -1.4036 -1.6077
 5336SOL    HW227645   0.805   0.585  10.193 -1.5061  0.1624 -1.2730
 5337SOL     OW27646   1.574   0.296   5.194  0.1514 -0.2144  0.4983
 5337SOL    HW127647   1.538   0.349   5.123 -1.4939 -1.2857  0.5415
 5337SOL    HW227648   1.660   0.275   5.159 -1.7728 -0.8561 -3.8781
 5338SOL     OW27649   3.704   0.879   6.040  0.4504 -0.3006  0.1780
 5338SOL    HW127650   3.620   0.906   6.077 -0.2571 -0.7149 -1.1330
 5338SOL    HW227651   3.702   0.934   5.961 -0.3736  0.0736  0.4508
 5339SOL     OW27652   0.811   0.632   2.345 -0.4493 -0.1141  0.3498
 5339SOL    HW127653   0.769   0.582   2.414 -3.1723 -0.5508 -1.6123
 5339SOL    HW227654   0.769   0.716   2.360  0.5128  0.5650 -0.7690
 5340SOL     OW27655   2.848   4.180   2.521 -0.0751  0.0804 -0.3553
 5340SOL    HW127656   2.923   4.236   2.504  0.5442 -1.3451 -2.2420
 5340SOL    HW227657   2.773   4.233   2.549 -0.1804 -0.0204 -0.4484
 5341SOL     OW27658   0.623   1.229   7.303 -0.5155 -0.4857 -0.2642
 5341SOL    HW127659   0.564   1.223   7.227 -0.4523  3.8269 -0.6415
 5341SOL    HW227660   0.550   1.223   7.364  0.3918  1.3721  0.9747
 5342SOL     OW27661   0.959   1.350   4.147  0.3038  0.1184 -0.2267
 5342SOL    HW127662   0.946   1.365   4.241 -0.3281 -1.2921 -0.0824
 5342SOL    HW227663   0.958   1.254   4.145  2.8538  0.0054  3.4612
 5343SOL     OW27664   0.195   4.638   7.745  0.9679  0.1191  0.6650
 5343SOL    HW127665   0.180   4.635   7.840 -0.1810 -0.4766  0.4664
 5343SOL    HW227666   0.202   4.733   7.739 -2.1061  0.2653 -0.4152
 5344SOL     OW27667   1.501   3.865   1.944  0.4830  0.0801  0.1904
 5344SOL    HW127668   1.528   3.773   1.938 -0.4561 -0.0719 -1.7567
 5344SOL    HW227669   1.464   3.876   2.032  0.6661 -0.7223  0.3658
 5345SOL     OW27670   1.635   2.636   0.098  0.1873  0.3550 -0.0581
 5345SOL    HW127671   1.694   2.560   0.098 -0.5038 -0.1917  0.6529
 5345SOL    HW227672   1.642   2.671   0.010 -1.4172 -0.1997 -0.4079
 5346SOL     OW27673   2.717   2.242   2.227  0.1791  0.2065 -0.6394
 5346SOL    HW127674   2.778   2.283   2.166  1.4537  0.0366  0.5385
 5346SOL    HW227675   2.750   2.277   2.309 -0.4526  1.6898 -1.0239
 5347SOL     OW27676   3.222   0.594   1.723  0.2380 -0.2764 -0.4628
 5347SOL    HW127677   3.209   0.689   1.715  1.9199 -0.1838 -2.2266
 5347SOL    HW227678   3.137   0.562   1.693 -0.0147  1.9531 -2.1188
 5348SOL     OW27679   0.730   0.522   9.083  0.2844 -0.0923  0.0786
 5348SOL    HW127680   0.638   0.507   9.060 -0.2246 -0.2019  2.1365
 5348SOL    HW227681   0.779   0.498   9.004 -0.4607 -2.8902  0.4627
 5349SOL     OW27682   4.374   2.116   3.516  0.5359 -0.0460 -0.0237
 5349SOL    HW127683   4.387   2.025   3.541  2.5782  0.1983 -0.1664
 5349SOL    HW227684   4.415   2.159   3.591 -0.3853  0.1741  0.3586
 5350SOL     OW27685   2.666   2.170   5.845 -0.1359 -0.5524 -0.0459
 5350SOL    HW127686   2.727   2.238   5.873  0.4884 -1.4499  0.7565
 5350SOL    HW227687   2.588   2.183   5.898  0.7119  1.4102  0.7181
 5351SOL     OW27688   2.095   3.759   8.631 -0.3369  0.6295  0.1595
 5351SOL    HW127689   2.044   3.839   8.620  1.1719  1.7033  1.1078
 5351SOL    HW227690   2.183   3.793   8.616 -0.0020 -0.3481 -0.1350
 5352SOL     OW27691   1.933   0.592   8.999 -0.5164  0.5704  0.6582
 5352SOL    HW127692   1.909   0.635   9.081 -2.6473  0.5389  0.0555
 5352SOL    HW227693   2.025   0.575   9.017 -0.8534 -1.2969  0.6337
 5353SOL     OW27694   0.551   4.034   5.441 -0.3918 -0.0065  0.1643
 5353SOL    HW127695   0.484   4.062   5.379  0.2743  3.1383  0.8439
 5353SOL    HW227696   0.495   3.996   5.508 -1.6732 -1.4749 -1.7662
 5354SOL     OW27697   1.703   1.576   1.764 -0.3417  0.4473 -0.9418
 5354SOL    HW127698   1.679   1.548   1.852  1.1017  0.1631 -0.6280
 5354SOL    HW227699   1.706   1.495   1.713 -1.6427  1.0087 -1.9080
 5355SOL     OW27700   2.326   2.664  10.312 -0.2793  0.1682  0.5473
 5355SOL    HW127701   2.310   2.621  10.395  0.5115  0.4931  0.8643
 5355SOL    HW227702   2.255   2.729  10.303  0.8060  1.4041  0.9358
 5356SOL     OW27703   3.189   2.778   6.617 -0.5055 -0.7750 -0.4135
 5356SOL    HW127704   3.122   2.737   6.561 -0.4447  0.0803 -1.1032
 5356SOL    HW227705   3.174   2.871   6.603 -2.3543 -0.8708  0.8213
 5357SOL     OW27706   2.261   4.381   7.319  0.9257 -0.5400 -0.3703
 5357SOL    HW127707   2.355   4.379   7.303  1.0546 -0.9554  0.4360
 5357SOL    HW227708   2.250   4.474   7.298  0.8580 -0.0142  1.9703
 5358SOL     OW27709   2.418   1.482  11.109  0.1872  0.3186  0.2910
 5358SOL    HW127710   2.505   1.522  11.114  1.1408 -1.7477  0.0049
 5358SOL    HW227711   2.401   1.501  11.017  2.3962  1.3404  0.0894
 5359SOL     OW27712   0.475   1.720   8.864  0.1790 -0.2375 -0.5764
 5359SOL    HW127713   0.568   1.712   8.884 -0.2760 -1.5690  1.0311
 5359SOL    HW227714   0.454   1.810   8.889 -0.6161 -0.5414 -0.1290
 5360SOL     OW27715   2.301   3.360   4.100 -0.1227  0.3133  0.3000
 5360SOL    HW127716   2.389   3.349   4.065  0.1349  0.0942  1.0233
 5360SOL    HW227717   2.280   3.431   4.039 -0.7657 -0.2871 -0.1838
 5361SOL     OW27718   3.846   2.637   7.473  0.3194  0.0369  0.0719
 5361SOL    HW127719   3.855   2.685   7.556  0.3938 -0.6662  0.4646
 5361SOL    HW227720   3.850   2.710   7.410 -3.2552  0.7493  0.6794
 5362SOL     OW27721   3.978   1.530   7.590  0.4694  0.5440  0.0110
 5362SOL    HW127722   4.036   1.606   7.586 -0.2207  0.9994 -1.4635
 5362SOL    HW227723   3.913   1.561   7.527 -0.3720 -1.8792 -0.3046
 5363SOL     OW27724   0.027   3.365   9.520  0.5689  0.8234 -0.7556
 5363SOL    HW127725   4.710   3.291   9.549 -0.2294  1.8351  0.3209
 5363SOL    HW227726   0.034   3.425   9.593 -1.2897  1.1290 -0.8355
 5364SOL     OW27727   3.647   0.215   2.918 -0.0189 -0.2205 -0.1139
 5364SOL    HW127728   3.687   0.300   2.901 -0.3135  0.2819  1.7724
 5364SOL    HW227729   3.578   0.254   2.971 -0.6447 -0.0415 -1.0506
 5365SOL     OW27730   3.403   0.296   4.776  0.0784  0.0162 -0.3836
 5365SOL    HW127731   3.355   0.348   4.840  0.9819  1.4678 -0.8816
 5365SOL    HW227732   3.419   0.360   4.707  0.0928 -0.7919 -1.1287
 5366SOL     OW27733   1.528   3.138   4.507 -0.1664  0.6749  0.2536
 5366SOL    HW127734   1.441   3.145   4.469  0.2703  1.8900 -0.5258
 5366SOL    HW227735   1.548   3.049   4.478 -0.1513  0.1135  1.9814
 5367SOL     OW27736   3.424   2.332   1.239 -0.3664 -0.0369 -0.2532
 5367SOL    HW127737   3.428   2.369   1.151  0.7833  1.4895  0.4471
 5367SOL    HW227738   3.514   2.301   1.245 -0.6175 -0.7794 -0.3243
 5368SOL     OW27739   3.886   1.602  11.374 -0.9375 -0.1433 -0.1346
 5368SOL    HW127740   3.810   1.609  11.316 -0.8192 -1.3107 -0.4146
 5368SOL    HW227741   3.949   1.560  11.317 -0.4127 -0.0659  0.3899
 5369SOL     OW27742   3.648   1.180   1.057  0.3802  0.4475  0.2794
 5369SOL    HW127743   3.744   1.177   1.062  0.3523 -1.8634 -0.5979
 5369SOL    HW227744   3.629   1.174   1.150  1.4199  0.3181  0.4895
 5370SOL     OW27745   0.798   2.471   7.485 -0.1232  0.0834 -0.4124
 5370SOL    HW127746   0.824   2.543   7.543  0.8990 -1.4575  1.0511
 5370SOL    HW227747   0.703   2.476   7.492 -0.2599  0.8485 -2.8693
 5371SOL     OW27748   3.160   2.093   8.592  0.3557 -0.0928  0.7389
 5371SOL    HW127749   3.232   2.148   8.624  2.5215 -1.2204 -2.2997
 5371SOL    HW227750   3.184   2.003   8.615  1.6166 -0.0022 -0.2565
 5372SOL     OW27751   0.320   0.366  12.682  0.5260 -0.4245  0.0115
 5372SOL    HW127752   0.241   0.320  12.711  0.2748  0.1087  0.1704
 5372SOL    HW227753   0.320   0.447  12.733 -1.1748 -1.8467  2.3335
 5373SOL     OW27754   1.014   3.701   7.162 -0.3102  0.5248  0.6444
 5373SOL    HW127755   0.980   3.790   7.156  0.8868  1.1270  2.7364
 5373SOL    HW227756   0.994   3.657   7.080 -0.1386  1.5383  0.0658
 5374SOL     OW27757   4.351   2.428   6.978 -0.4998  0.1440  0.6084
 5374SOL    HW127758   4.345   2.469   6.892 -1.0677  1.0972  1.1098
 5374SOL    HW227759   4.335   2.335   6.959 -2.3740  0.3828  0.9763
 5375SOL     OW27760   1.327   1.608   2.777 -0.7209  0.1063 -0.5865
 5375SOL    HW127761   1.410   1.593   2.732  0.8885  1.3058  2.0105
 5375SOL    HW227762   1.277   1.662   2.714 -2.6825  0.8003  1.5717
 5376SOL     OW27763   0.453   4.428  16.385 -0.0928  0.5293 -0.5360
 5376SOL    HW127764   0.396   4.502  16.408 -0.6808 -0.2743  0.5894
 5376SOL    HW227765   0.448   4.429  16.290  1.8514  0.9271 -0.6278
 5377SOL     OW27766   3.502   1.743  13.909 -0.0166 -0.3239 -0.0470
 5377SOL    HW127767   3.482   1.832  13.881 -3.5554 -0.8701  0.7171
 5377SOL    HW227768   3.591   1.742  13.874  0.3453  0.8986  0.8285
 5378SOL     OW27769   4.502   4.312   8.970 -0.4704 -0.3957  0.1254
 5378SOL    HW127770   4.484   4.220   8.992 -1.8461 -0.7247 -2.2870
 5378SOL    HW227771   4.557   4.290   8.894  1.0091  2.0296  0.5025
 5379SOL     OW27772   1.784   1.050  13.234  0.2066  0.1224 -0.0188
 5379SOL    HW127773   1.709   1.081  13.184  0.4762  1.4760  0.4194
 5379SOL    HW227774   1.740   0.991  13.295 -3.0066 -0.5133 -2.9810
 5380SOL     OW27775   4.120   4.090   0.899  0.3835 -0.3351 -0.4014
 5380SOL    HW127776   4.150   4.165   0.950 -2.0008  1.2542 -1.3334
 5380SOL    HW227777   4.082   4.135   0.824  1.3170  1.3692  0.1436
 5381SOL     OW27778   1.416   1.337   7.069  0.3572  0.3068  0.1384
 5381SOL    HW127779   1.413   1.252   7.113 -3.9406  0.0930 -0.5685
 5381SOL    HW227780   1.336   1.379   7.099 -0.4180 -0.6553 -0.5525
 5382SOL     OW27781   3.589   1.599   8.805  0.3750  0.3885  0.1053
 5382SOL    HW127782   3.581   1.683   8.761 -2.1999  0.8928  1.5604
 5382SOL    HW227783   3.685   1.594   8.805  0.2898 -1.2793  3.7065
 5383SOL     OW27784   4.659   0.361   0.372 -0.1712  0.3791 -0.0149
 5383SOL    HW127785   0.001   0.414   0.366  0.1206 -0.2307 -1.6178
 5383SOL    HW227786   4.668   0.318   0.457 -0.6591 -0.3596 -0.3280
 5384SOL     OW27787   3.933   3.268   7.168 -0.6299 -0.2759 -0.1105
 5384SOL    HW127788   3.965   3.357   7.179 -1.5761 -0.0272  0.6483
 5384SOL    HW227789   3.858   3.261   7.228 -0.3512 -3.0993 -0.0929
 5385SOL     OW27790   0.883   3.834   2.671  0.8558 -0.2885 -0.0545
 5385SOL    HW127791   0.860   3.924   2.693  0.7204 -0.5481  0.8603
 5385SOL    HW227792   0.841   3.818   2.586  1.7601 -0.4096 -0.4816
 5386SOL     OW27793   2.491   2.536   6.741  0.0193  0.2656 -0.1349
 5386SOL    HW127794   2.398   2.559   6.737 -0.0558 -0.1050 -0.5686
 5386SOL    HW227795   2.533   2.621   6.749 -0.6193  0.5079  0.5836
 5387SOL     OW27796   0.389   0.969   2.255  0.3409  0.1845 -0.1596
 5387SOL    HW127797   0.412   0.987   2.164  1.3744 -0.4369 -0.0252
 5387SOL    HW227798   0.357   0.879   2.244 -0.5676  0.5750 -0.7419
 5388SOL     OW27799   3.364   3.806  17.297  0.5760 -0.0026  0.2808
 5388SOL    HW127800   3.395   3.770  17.381 -0.4624 -2.2058 -0.3136
 5388SOL    HW227801   3.310   3.739  17.257 -2.6991  1.2521  2.6123
 5389SOL     OW27802   2.345   2.540  17.124 -0.1035 -0.0136  0.4322
 5389SOL    HW127803   2.364   2.550  17.217  1.7488 -0.1299  0.0587
 5389SOL    HW227804   2.411   2.597  17.086 -0.2392 -0.9103 -1.1578
 5390SOL     OW27805   2.058   1.772   7.307 -0.1340 -0.3029 -0.2303
 5390SOL    HW127806   2.082   1.865   7.302 -0.6137 -0.2481 -1.5580
 5390SOL    HW227807   1.971   1.768   7.268 -0.7368 -0.4152  1.1283
 5391SOL     OW27808   1.956   2.271   1.702 -0.0892 -0.0702  0.0005
 5391SOL    HW127809   1.880   2.214   1.686 -2.2939  3.0244 -0.3861
 5391SOL    HW227810   1.991   2.215   1.771 -1.5300 -1.2344 -0.2063
 5392SOL     OW27811   2.817   1.313  16.819 -0.6507 -0.4479 -0.7346
 5392SOL    HW127812   2.911   1.312  16.839 -0.6319  0.8628 -0.7039
 5392SOL    HW227813   2.815   1.368  16.740 -2.8854  0.5239  0.0044
 5393SOL     OW27814   0.159   2.983  14.997  0.2987 -0.2228  0.3705
 5393SOL    HW127815   0.141   3.033  15.077  0.4968  1.8434 -0.8722
 5393SOL    HW227816   0.200   3.057  14.952 -0.8480 -0.8245 -1.6372
 5394SOL     OW27817   1.480   1.472   3.528 -0.2578 -0.7686 -0.1089
 5394SOL    HW127818   1.396   1.502   3.563 -0.1405  0.9791 -1.3541
 5394SOL    HW227819   1.458   1.430   3.445 -0.1229  0.5369 -0.8083
 5395SOL     OW27820   2.806   3.310   2.369 -0.1726  0.0816 -0.3113
 5395SOL    HW127821   2.787   3.367   2.294  0.3699 -0.2239 -0.6819
 5395SOL    HW227822   2.751   3.234   2.349  0.1428 -0.2443  0.0588
 5396SOL     OW27823   3.771   2.168   5.181  0.1489  0.4160  0.4454
 5396SOL    HW127824   3.810   2.256   5.189  4.6766 -1.3720 -2.0164
 5396SOL    HW227825   3.792   2.149   5.090  0.7076  2.2635  0.1928
 5397SOL     OW27826   1.824   1.123  13.956  0.3372  0.5975  0.3779
 5397SOL    HW127827   1.743   1.134  13.905  1.6568  1.5487 -1.5279
 5397SOL    HW227828   1.819   1.028  13.965  0.4683  0.8474  2.9309
 5398SOL     OW27829   3.183   0.776   7.592 -0.0003  0.4554  0.0709
 5398SOL    HW127830   3.246   0.738   7.654 -0.1707  1.1898  0.6858
 5398SOL    HW227831   3.103   0.727   7.611  0.6421 -0.4136  0.5810
 5399SOL     OW27832   2.763   1.023   7.707 -0.5230 -0.2352  0.0265
 5399SOL    HW127833   2.680   1.050   7.746 -1.0981  1.1387 -2.1800
 5399SOL    HW227834   2.763   1.070   7.623  1.7628  0.5254  0.4564
 5400SOL     OW27835   1.129   3.034   8.952 -0.0981 -0.1523  0.0665
 5400SOL    HW127836   1.047   3.051   8.906  0.3795  1.7220 -0.0971
 5400SOL    HW227837   1.189   3.045   8.878 -0.0937  0.3422  0.1453
 5401SOL     OW27838   1.724   2.574   8.579 -0.0302 -0.3509  0.5015
 5401SOL    HW127839   1.717   2.486   8.542 -0.3120 -0.4394  0.7696
 5401SOL    HW227840   1.819   2.578   8.589 -0.0150  0.7703 -0.0831
 5402SOL     OW27841   3.385   2.775  13.528 -0.3426  0.1815 -0.0784
 5402SOL    HW127842   3.399   2.806  13.438  0.9092 -1.7152 -0.5550
 5402SOL    HW227843   3.430   2.691  13.522 -1.2632 -0.2322 -1.2771
 5403SOL     OW27844   4.474   3.209   8.960  0.3180  0.2235  0.5982
 5403SOL    HW127845   4.459   3.136   9.021 -0.3258  0.1401  0.3423
 5403SOL    HW227846   4.386   3.245   8.949  1.2129  2.3325  0.3831
 5404SOL     OW27847   2.785   3.068   4.905  0.2987 -0.0935  0.3741
 5404SOL    HW127848   2.849   3.097   4.970  0.0296 -0.1004  0.6440
 5404SOL    HW227849   2.709   3.058   4.963 -0.8640 -0.3751 -1.1761
 5405SOL     OW27850   2.207   3.946   1.856 -0.3326  0.0800  0.1023
 5405SOL    HW127851   2.136   3.962   1.794 -1.7083 -0.7717  1.4559
 5405SOL    HW227852   2.175   3.984   1.938 -0.8837  0.4509 -0.2799
 5406SOL     OW27853   2.621   2.281   5.593  0.2972 -0.3308  0.0383
 5406SOL    HW127854   2.643   2.368   5.626 -0.6055 -0.3597  0.7082
 5406SOL    HW227855   2.631   2.228   5.672  1.2508 -0.8849 -0.4505
 5407SOL     OW27856   2.905   3.205  15.152 -0.0129 -0.5391  0.3309
 5407SOL    HW127857   2.833   3.207  15.088 -1.0610 -1.7203  1.4776
 5407SOL    HW227858   2.903   3.112  15.174 -1.5415 -0.3511  0.9882
 5408SOL     OW27859   3.398   2.574   0.459  0.1768 -0.1068  0.4463
 5408SOL    HW127860   3.341   2.511   0.414  0.2334 -0.9716  1.5986
 5408SOL    HW227861   3.349   2.589   0.540  1.0215  1.7690  0.6096
 5409SOL     OW27862   2.179   0.994   9.495  0.0005  0.3684 -0.0541
 5409SOL    HW127863   2.160   1.084   9.468  0.3787  0.0871 -1.2275
 5409SOL    HW227864   2.251   0.999   9.558 -2.3714  0.6135  2.6483
 5410SOL     OW27865   1.828   2.276  15.294 -0.2598 -0.2855 -0.6163
 5410SOL    HW127866   1.752   2.317  15.335 -0.3270 -2.1405  1.1351
 5410SOL    HW227867   1.892   2.346  15.309 -1.6280  0.4133  1.9958
 5411SOL     OW27868   2.115   3.916  17.347 -0.1282  0.2333 -0.2379
 5411SOL    HW127869   2.053   3.863  17.396 -0.0094 -0.4966 -0.8805
 5411SOL    HW227870   2.094   3.882  17.260 -3.7414 -1.5035  1.3226
 5412SOL     OW27871   3.971   2.081   6.277  0.4907 -0.1715 -0.1169
 5412SOL    HW127872   3.917   2.159   6.259 -0.1521  0.0926  3.0870
 5412SOL    HW227873   3.953   2.085   6.371  1.0388  2.7684 -0.1509
 5413SOL     OW27874   4.203   1.974   1.002  0.7370 -0.3210  0.2415
 5413SOL    HW127875   4.150   2.045   0.965 -0.3794 -2.1070 -1.5911
 5413SOL    HW227876   4.135   1.914   1.032 -0.0645  0.6743  0.4127
 5414SOL     OW27877   3.497   4.213   7.286  0.0039  0.0172 -0.0737
 5414SOL    HW127878   3.520   4.269   7.212  0.7096 -0.6885 -0.3892
 5414SOL    HW227879   3.486   4.127   7.246 -2.1666 -0.3215  1.2509
 5415SOL     OW27880   2.316   0.075   0.794 -0.2496 -0.4588  0.2312
 5415SOL    HW127881   2.265   0.024   0.731 -2.0060 -0.1236  1.3942
 5415SOL    HW227882   2.330   0.157   0.747  1.5032 -2.0722 -2.0302
 5416SOL     OW27883   4.226   3.007   6.911 -0.0654 -0.4128 -0.0753
 5416SOL    HW127884   4.243   2.933   6.853 -0.1828  1.1951 -2.1717
 5416SOL    HW227885   4.189   3.067   6.846 -0.5858 -0.9914 -0.3141
 5417SOL     OW27886   1.864   3.225  16.929 -0.1150 -0.2871  0.1194
 5417SOL    HW127887   1.805   3.226  17.005 -2.0497 -1.8357 -1.3622
 5417SOL    HW227888   1.811   3.204  16.852 -1.8169  4.4569 -0.0020
 5418SOL     OW27889   4.212   1.496  12.185  0.2673  0.3272 -0.1763
 5418SOL    HW127890   4.192   1.584  12.216  1.6657  0.3598  0.6190
 5418SOL    HW227891   4.286   1.520  12.129 -0.2768  0.0711 -1.0087
 5419SOL     OW27892   3.607   1.893   3.675  0.1001 -0.5758 -0.3199
 5419SOL    HW127893   3.622   1.886   3.769 -1.2412  0.6940 -0.0084
 5419SOL    HW227894   3.630   1.986   3.673 -1.7919 -0.1188 -0.5891
 5420SOL     OW27895   1.484   1.127   3.475 -0.0814  0.0622  0.4869
 5420SOL    HW127896   1.493   1.163   3.387 -0.9879  0.8329  0.7119
 5420SOL    HW227897   1.431   1.191   3.523 -1.7826 -1.4662  0.6515
 5421SOL     OW27898   1.546   2.762   8.521  0.4283 -0.0458 -0.8729
 5421SOL    HW127899   1.469   2.712   8.547  0.1109  0.0518 -1.6117
 5421SOL    HW227900   1.618   2.708   8.554 -0.2436 -0.0997  0.5117
 5422SOL     OW27901   1.022   0.028   9.649  0.2792 -0.2895 -0.2872
 5422SOL    HW127902   0.993   4.673   9.653  0.9098 -0.5025 -0.6838
 5422SOL    HW227903   0.995   0.042   9.558 -3.0450  3.7998  1.3513
 5423SOL     OW27904   2.719   1.811  13.508 -0.2147 -0.3148  0.0852
 5423SOL    HW127905   2.707   1.719  13.486  0.1206 -0.3194 -0.0876
 5423SOL    HW227906   2.767   1.801  13.590 -2.7570  1.8600  1.8082
 5424SOL     OW27907   0.378   4.061  15.287  0.2532  0.6124 -0.2535
 5424SOL    HW127908   0.430   3.991  15.247  0.2275  0.8564 -0.7085
 5424SOL    HW227909   0.296   4.046  15.239 -0.8175 -1.5369  2.2034
 5425SOL     OW27910   4.642   3.079  15.726  0.1220 -0.2303  0.9406
 5425SOL    HW127911   4.691   3.071  15.644 -0.5474  0.7210  0.4534
 5425SOL    HW227912   4.701   3.121  15.789  1.8453  0.3488 -1.0825
 5426SOL     OW27913   1.462   2.206   4.489 -0.5940  0.2783  0.1660
 5426SOL    HW127914   1.451   2.253   4.406 -2.8263 -0.0711  0.2612
 5426SOL    HW227915   1.435   2.265   4.560 -2.9909  0.7267 -1.0928
 5427SOL     OW27916   4.163   1.035  13.806  0.1288  0.4816  0.2645
 5427SOL    HW127917   4.247   0.989  13.804 -0.4478 -0.6563  1.9261
 5427SOL    HW227918   4.180   1.103  13.741  1.2524  0.6842  0.7603
 5428SOL     OW27919   2.041   2.696  17.537 -0.5989 -0.7723  0.4690
 5428SOL    HW127920   2.035   2.646  17.619  1.2988 -1.9911 -0.1357
 5428SOL    HW227921   2.088   2.772  17.571 -2.6485  0.9342 -0.5232
 5429SOL     OW27922   3.716   0.218  10.500  0.0965  0.3293  0.1875
 5429SOL    HW127923   3.631   0.186  10.531 -0.2173  1.3076  0.3227
 5429SOL    HW227924   3.699   0.311  10.485 -1.5510 -0.1779 -1.1577
 5430SOL     OW27925   3.145   3.498  11.943 -0.1367  0.2812  0.1225
 5430SOL    HW127926   3.158   3.445  12.021 -1.0940  3.5402  2.4764
 5430SOL    HW227927   3.178   3.580  11.978 -1.7473  0.4350  1.2532
 5431SOL     OW27928   1.719   0.580  17.185 -0.2142  0.7353  0.4086
 5431SOL    HW127929   1.718   0.595  17.279 -3.7606  1.3392  0.2886
 5431SOL    HW227930   1.694   0.667  17.154 -2.9134 -0.3994 -0.5821
 5432SOL     OW27931   3.336   0.969  14.874 -0.0586  1.0274  0.2763
 5432SOL    HW127932   3.372   0.916  14.802  1.6412 -1.5816  3.0732
 5432SOL    HW227933   3.313   1.049  14.826 -3.6688 -1.5260 -2.2571
 5433SOL     OW27934   0.273   0.410  15.184 -0.0878  0.1148 -0.0435
 5433SOL    HW127935   0.336   0.482  15.196 -0.6867  0.3730  1.5112
 5433SOL    HW227936   0.249   0.391  15.274 -1.7749  0.4521 -0.4212
 5434SOL     OW27937   4.635   0.711   6.919  0.2758 -0.0625  0.5008
 5434SOL    HW127938   4.699   0.780   6.935  0.8247 -0.0849 -1.5549
 5434SOL    HW227939   4.673   0.635   6.964  2.0137  0.4410 -0.1101
 5435SOL     OW27940   3.044   1.484  12.179  0.6067  0.1251  0.4405
 5435SOL    HW127941   2.956   1.515  12.158  0.3102  1.4786  3.7925
 5435SOL    HW227942   3.079   1.507  12.093 -1.4892 -0.1672 -0.4881
 5436SOL     OW27943   2.741   1.146   9.553 -0.3073  0.1146 -0.2307
 5436SOL    HW127944   2.724   1.104   9.469  2.1197  0.1880 -0.7356
 5436SOL    HW227945   2.764   1.233   9.521 -0.9701  0.4275  0.1318
 5437SOL     OW27946   3.751   4.069  16.187 -0.6892  0.5578  0.1456
 5437SOL    HW127947   3.697   4.012  16.133 -2.6709  2.0390  0.5797
 5437SOL    HW227948   3.753   4.017  16.268 -1.0019  3.4266  1.9914
 5438SOL     OW27949   0.545   0.113   2.904  0.0427 -0.8703 -0.7036
 5438SOL    HW127950   0.463   0.102   2.952 -1.1651  2.1215 -2.0384
 5438SOL    HW227951   0.585   0.196   2.933 -3.5738  0.8713 -0.7129
 5439SOL     OW27952   3.988   1.194   6.714 -0.0131  0.3353  0.9249
 5439SOL    HW127953   3.916   1.160   6.661 -0.0917  2.2076 -0.1886
 5439SOL    HW227954   4.018   1.122   6.769  0.6892  0.2210  0.3968
 5440SOL     OW27955   4.558   0.734  14.675  0.0007 -0.0914  0.4085
 5440SOL    HW127956   4.583   0.653  14.718  1.6298 -0.7859 -1.8509
 5440SOL    HW227957   4.551   0.786  14.755  2.8906  0.5368  0.2383
 5441SOL     OW27958   3.695   3.529   8.562  0.1659 -0.2057 -0.6020
 5441SOL    HW127959   3.677   3.442   8.526  3.3055 -0.7124 -0.9875
 5441SOL    HW227960   3.738   3.571   8.488  0.7410  1.1972  0.5291
 5442SOL     OW27961   1.711   2.533   4.628 -0.1600 -0.5921 -0.5577
 5442SOL    HW127962   1.657   2.611   4.621 -0.5378 -0.9074 -1.2372
 5442SOL    HW227963   1.647   2.475   4.669  0.3200  0.3634  1.5308
 5443SOL     OW27964   0.809   1.414   8.585 -0.4407 -0.3711 -0.0528
 5443SOL    HW127965   0.752   1.491   8.579 -0.9042 -0.6685  0.5600
 5443SOL    HW227966   0.743   1.349   8.561 -0.1087 -0.6919 -0.0823
 5444SOL     OW27967   1.012   4.565  16.288  0.3379  0.3420  0.2494
 5444SOL    HW127968   1.033   4.495  16.350 -1.6552 -1.2229 -0.8632
 5444SOL    HW227969   1.046   4.521  16.210  1.5986  1.4997  0.1422
 5445SOL     OW27970   3.443   3.293   2.141 -0.1212 -0.1332 -0.0055
 5445SOL    HW127971   3.514   3.323   2.085  0.3178  1.0097  1.1435
 5445SOL    HW227972   3.419   3.215   2.091 -0.3456 -0.3917  0.5064
 5446SOL     OW27973   3.474   2.470   3.789  0.2779  0.1925 -0.1969
 5446SOL    HW127974   3.460   2.522   3.710  3.5390  4.1665  1.8197
 5446SOL    HW227975   3.427   2.522   3.854 -0.4623  0.8133 -1.2321
 5447SOL     OW27976   3.793   2.461   2.184  0.2247  0.0965 -0.5979
 5447SOL    HW127977   3.878   2.503   2.194 -1.1755  2.5171  1.1123
 5447SOL    HW227978   3.774   2.472   2.091  1.7236 -1.0690 -1.0458
 5448SOL     OW27979   4.045   3.452   9.552  0.7936  0.3439  0.0988
 5448SOL    HW127980   3.961   3.474   9.593  0.2142  0.3214 -1.0952
 5448SOL    HW227981   4.016   3.394   9.482 -0.4774 -0.4408  1.2812
 5449SOL     OW27982   3.192   0.983   7.114  0.1570 -0.2904  0.0372
 5449SOL    HW127983   3.209   1.015   7.202 -2.1107 -2.1634  1.1531
 5449SOL    HW227984   3.144   0.901   7.127  1.5521 -1.2483 -0.8995
 5450SOL     OW27985   3.157   0.611  15.002 -0.1337 -0.4168  0.0783
 5450SOL    HW127986   3.098   0.615  15.077  1.2087 -4.9084  1.3921
 5450SOL    HW227987   3.237   0.620  15.054  0.7118  1.7263 -1.5837
 5451SOL     OW27988   3.603   1.507  14.796  0.1631 -0.1501 -0.8192
 5451SOL    HW127989   3.546   1.457  14.737 -0.7724 -1.7081  1.3571
 5451SOL    HW227990   3.667   1.439  14.817 -0.3002 -0.9203 -1.9320
 5452SOL     OW27991   0.425   0.696   7.785 -0.4253 -0.3817 -0.8755
 5452SOL    HW127992   0.463   0.646   7.713 -2.3008  0.8552 -2.7117
 5452SOL    HW227993   0.480   0.667   7.858 -0.4095  2.9059  0.4321
 5453SOL     OW27994   3.749   0.260  14.876  0.3424  0.3529 -0.1699
 5453SOL    HW127995   3.828   0.314  14.888  0.3138  0.1872  0.7654
 5453SOL    HW227996   3.782   0.188  14.822 -0.3847 -0.2882  0.2488
 5454SOL     OW27997   0.309   3.410   6.324  0.4086 -0.1875 -0.4466
 5454SOL    HW127998   0.257   3.491   6.314  1.4960  0.7428  1.5352
 5454SOL    HW227999   0.397   3.444   6.335  0.5493 -0.5865 -0.3510
 5455SOL     OW28000   0.747   2.879  15.576  0.2393 -0.0491 -0.2131
 5455SOL    HW128001   0.818   2.816  15.587 -1.9767 -2.6692 -0.7443
 5455SOL    HW228002   0.757   2.908  15.485 -0.5926  0.8885 -0.0036
 5456SOL     OW28003   3.495   1.285   4.443  0.1076  0.3355 -0.7516
 5456SOL    HW128004   3.543   1.219   4.494 -0.5787 -0.3370 -0.9753
 5456SOL    HW228005   3.406   1.252   4.430  0.3273 -1.6252  2.5613
 5457SOL     OW28006   2.165   1.798   6.246 -0.3835  0.3148 -0.4345
 5457SOL    HW128007   2.148   1.742   6.170 -1.2030 -1.2086  0.8819
 5457SOL    HW228008   2.259   1.799   6.268 -0.9741  0.6484  2.0889
 5458SOL     OW28009   0.011   0.981   2.698  0.0462  0.2681  0.3500
 5458SOL    HW128010   4.719   1.040   2.628 -0.8876 -1.4343 -0.6697
 5458SOL    HW228011   0.081   0.937   2.651 -0.1728  0.2760  0.0218
 5459SOL     OW28012   0.313   4.008   6.299 -0.2307  0.1074 -0.3068
 5459SOL    HW128013   0.330   3.985   6.208 -0.6754  0.0965 -0.3904
 5459SOL    HW228014   0.217   4.005   6.304 -0.1116  0.2360  2.1944
 5460SOL     OW28015   0.723   0.228   1.445 -0.2127  0.5869  0.8629
 5460SOL    HW128016   0.777   0.184   1.379 -0.3793  0.1657  1.0101
 5460SOL    HW228017   0.764   0.210   1.529  0.2459 -1.6024  0.1643
 5461SOL     OW28018   2.119   1.051   6.401  0.0581 -0.5079  0.4123
 5461SOL    HW128019   2.118   1.133   6.351 -1.3030  0.1641  1.5654
 5461SOL    HW228020   2.134   0.992   6.327 -2.0363 -1.5003  0.7981
 5462SOL     OW28021   1.600   0.121   3.715  0.1457 -0.3036  0.0602
 5462SOL    HW128022   1.510   0.146   3.692  0.0608  0.8138  1.6196
 5462SOL    HW228023   1.642   0.156   3.637  0.5918 -1.8982 -0.4240
 5463SOL     OW28024   0.929   3.965   4.094 -0.3448  0.2049  0.3245
 5463SOL    HW128025   1.022   3.962   4.074 -0.2557  0.2002  0.7392
 5463SOL    HW228026   0.892   4.007   4.016 -1.7672  0.2913  1.0436
 5464SOL     OW28027   1.652   3.018  15.852 -0.2828  0.2460 -0.2498
 5464SOL    HW128028   1.574   2.992  15.803 -0.7747  0.3526  0.4877
 5464SOL    HW228029   1.624   3.104  15.885 -0.6694 -0.8000  2.1200
 5465SOL     OW28030   1.923   3.835   9.871 -0.0629 -0.0795  0.0766
 5465SOL    HW128031   1.946   3.754   9.916 -1.8959 -0.2653  0.6954
 5465SOL    HW228032   1.971   3.827   9.789 -0.7114  0.0929 -0.3178
 5466SOL     OW28033   0.585   0.990   7.842  0.0015 -0.2450  0.3086
 5466SOL    HW128034   0.602   0.969   7.934  1.1141 -1.0312 -0.0757
 5466SOL    HW228035   0.492   1.000   7.862 -0.5612 -2.7640 -1.0760
 5467SOL     OW28036   4.650   0.922  15.793 -0.3476  0.3257 -0.0170
 5467SOL    HW128037   4.597   0.867  15.851 -0.3821  1.6607  1.2195
 5467SOL    HW228038   0.002   0.901  15.820 -0.4446 -1.0617 -0.7720
 5468SOL     OW28039   1.684   2.645   1.739  0.0935  0.4695  0.4078
 5468SOL    HW128040   1.780   2.654   1.741  0.2446 -0.5792 -2.1390
 5468SOL    HW228041   1.658   2.720   1.684  0.4947  0.9714  0.9017
 5469SOL     OW28042   3.526   4.698  15.013  0.0613  0.4776 -0.0535
 5469SOL    HW128043   3.583   4.637  14.965  0.2832 -0.4395  1.3640
 5469SOL    HW228044   3.562   0.048  14.997  0.1648  0.2015 -1.2654
 5470SOL     OW28045   4.490   2.123   4.457 -0.3010  0.4139  0.4511
 5470SOL    HW128046   4.504   2.040   4.502  0.3190  0.3599  0.1579
 5470SOL    HW228047   4.578   2.160   4.466  0.5737 -1.3381 -0.8571
 5471SOL     OW28048   3.752   0.344   9.289 -0.3250 -0.1554  0.0765
 5471SOL    HW128049   3.763   0.438   9.305  1.1824 -0.0076 -1.9636
 5471SOL    HW228050   3.726   0.341   9.197  2.9186 -0.5926 -0.8193
 5472SOL     OW28051   1.737   4.587   5.207 -0.0966 -0.1431 -0.5360
 5472SOL    HW128052   1.779   4.540   5.135 -0.5996 -1.0818 -0.2079
 5472SOL    HW228053   1.647   4.603   5.177  0.3036  0.0628 -1.6503
 5473SOL     OW28054   4.647   4.107   3.654  0.4368 -0.6589  0.0993
 5473SOL    HW128055   0.002   4.103   3.681 -0.0914  0.7648  2.2075
 5473SOL    HW228056   4.641   4.201   3.637 -2.7874 -0.7964  0.3636
 5474SOL     OW28057   3.918   4.621   7.227 -0.2846  0.0054 -0.8174
 5474SOL    HW128058   4.005   4.582   7.217 -0.2070  0.0430 -0.2757
 5474SOL    HW228059   3.906   4.621   7.322 -2.0471 -1.5973 -1.0178
 5475SOL     OW28060   3.872   2.869   7.344 -0.6041  0.0910 -0.3609
 5475SOL    HW128061   3.870   2.952   7.391  1.4446 -0.2572  0.3312
 5475SOL    HW228062   3.965   2.856   7.362 -0.9634 -1.5683  0.2748
 5476SOL     OW28063   2.240   0.835   9.273  0.1448  0.3273  0.2433
 5476SOL    HW128064   2.262   0.917   9.228 -0.5238  0.6308  0.4671
 5476SOL    HW228065   2.225   0.868   9.362 -1.6001  0.2041  0.0024
 5477SOL     OW28066   2.530   1.890  15.056  0.1953  0.1629  0.0565
 5477SOL    HW128067   2.624   1.870  15.053  0.5731  2.2647 -2.1761
 5477SOL    HW228068   2.518   1.978  15.020  1.5131  0.2806 -0.0934
 5478SOL     OW28069   3.065   1.764   5.502 -0.0049 -0.6564 -0.3363
 5478SOL    HW128070   3.117   1.736   5.426  0.1333  2.1715 -1.2690
 5478SOL    HW228071   3.002   1.821   5.458  2.2532  1.1948 -1.1767
 5479SOL     OW28072   3.964   0.050   3.069 -0.3749  0.3691  0.6311
 5479SOL    HW128073   4.035   4.731   3.100 -1.0864 -1.2307 -0.6065
 5479SOL    HW228074   3.976   0.136   3.110 -1.3246  1.3406 -1.1168
 5480SOL     OW28075   0.608   0.188  13.137 -0.5507  0.0574  0.4253
 5480SOL    HW128076   0.530   0.171  13.084  0.4010 -1.8261 -0.3415
 5480SOL    HW228077   0.674   0.136  13.091 -0.7553  0.9126 -0.8549
 5481SOL     OW28078   0.019   2.894   2.781 -0.4791  0.0053 -0.5808
 5481SOL    HW128079   0.061   2.968   2.738  1.2162 -0.1972  0.7316
 5481SOL    HW228080   4.667   2.919   2.805 -0.8688 -0.0503 -2.0000
 5482SOL     OW28081   3.924   0.942   2.843 -0.2837  0.5293  0.0642
 5482SOL    HW128082   4.016   0.917   2.848 -0.4200  0.2990  1.3131
 5482SOL    HW228083   3.893   0.927   2.932  2.4839 -0.2738  0.8933
 5483SOL     OW28084   2.501   4.343   8.931  0.2685 -0.0366  0.4397
 5483SOL    HW128085   2.479   4.250   8.919  1.1903  0.0225 -1.7648
 5483SOL    HW228086   2.551   4.335   9.012 -2.6628  3.1304  2.5400
 5484SOL     OW28087   3.536   1.508   9.072  0.6789  0.5010  0.9237
 5484SOL    HW128088   3.625   1.511   9.107  2.1159  0.3923 -2.7196
 5484SOL    HW228089   3.547   1.537   8.981  0.7795  1.6328  1.2972
 5485SOL     OW28090   2.625   1.990   8.646 -0.4026  0.3621 -0.1886
 5485SOL    HW128091   2.586   2.073   8.621  1.2024  0.5641 -2.0045
 5485SOL    HW228092   2.595   1.979   8.736 -1.1326 -3.9977 -0.9164
 5486SOL     OW28093   1.640   0.439   7.210 -0.3597  0.4776 -0.3446
 5486SOL    HW128094   1.668   0.373   7.274 -1.8325 -0.4520 -0.6588
 5486SOL    HW228095   1.632   0.512   7.272 -0.1845  0.0819  0.1510
 5487SOL     OW28096   4.109   2.404  14.795  0.5375 -0.3933 -0.1927
 5487SOL    HW128097   4.157   2.486  14.806  0.5745 -0.2129 -1.7990
 5487SOL    HW228098   4.177   2.341  14.819  0.0765 -0.6094  0.5637
 5488SOL     OW28099   3.404   0.496   0.280 -0.0704  0.4323  0.3340
 5488SOL    HW128100   3.347   0.521   0.353  0.1544  0.8420  0.3713
 5488SOL    HW228101   3.379   0.574   0.230 -0.8055  0.9356  1.4695
 5489SOL     OW28102   2.033   3.704   1.804  0.1966  0.0993  0.0446
 5489SOL    HW128103   1.987   3.645   1.864  1.7837  0.7748  1.9276
 5489SOL    HW228104   2.095   3.752   1.859  0.3150  0.0841 -0.0728
 5490SOL     OW28105   1.157   2.163  16.850  0.0768  0.1868  0.4407
 5490SOL    HW128106   1.224   2.138  16.786 -0.4561 -0.2402  0.0537
 5490SOL    HW228107   1.094   2.224  16.811  0.2600 -2.1046 -3.4030
 5491SOL     OW28108   2.457   1.441   9.508  0.1132 -0.2938 -0.0434
 5491SOL    HW128109   2.470   1.495   9.585  0.5084 -0.9024  0.3143
 5491SOL    HW228110   2.510   1.489   9.444 -0.6416  0.8289  0.1692
 5492SOL     OW28111   3.937   3.838   2.049 -0.5850  0.3048 -0.4506
 5492SOL    HW128112   4.010   3.895   2.071 -0.3856 -0.4349  0.8239
 5492SOL    HW228113   3.951   3.767   2.112 -1.1037 -0.5286 -1.2633
 5493SOL     OW28114   2.841   4.228   4.380  0.4161  0.6380 -0.4413
 5493SOL    HW128115   2.922   4.264   4.342  0.2286  2.2046  0.6391
 5493SOL    HW228116   2.817   4.306   4.431 -0.5711 -0.4846  0.7881
 5494SOL     OW28117   2.652   1.060   8.325  0.2584  0.0596  0.1834
 5494SOL    HW128118   2.593   1.068   8.400  0.1728  0.9288  0.0184
 5494SOL    HW228119   2.610   1.126   8.270 -1.9062  0.5736  2.4526
 5495SOL     OW28120   4.107   1.321   6.949  0.2630 -0.1614  0.1327
 5495SOL    HW128121   4.073   1.268   7.021  4.5450 -1.6793  1.0552
 5495SOL    HW228122   4.173   1.272   6.901  2.1743  2.1480  0.3903
 5496SOL     OW28123   1.664   0.415   8.201 -0.4044 -0.1020  0.4041
 5496SOL    HW128124   1.718   0.344   8.168 -1.3759  0.5747 -2.7170
 5496SOL    HW228125   1.735   0.472   8.231  0.6735 -1.0501 -0.3752
 5497SOL     OW28126   0.630   3.284   6.951  0.0051 -0.2026 -0.1013
 5497SOL    HW128127   0.621   3.290   6.856  0.4382  1.6634 -0.0422
 5497SOL    HW228128   0.726   3.282   6.951  0.0372  1.0175 -2.1038
 5498SOL     OW28129   0.601   2.355   2.337 -0.8828  0.1226 -0.4931
 5498SOL    HW128130   0.619   2.434   2.287 -0.5454  1.5787  1.9416
 5498SOL    HW228131   0.623   2.287   2.272  0.5953 -0.6066  0.7557
 5499SOL     OW28132   4.194   4.419  15.451 -0.4703  0.2393  0.3587
 5499SOL    HW128133   4.125   4.484  15.467  2.2267  3.5207 -1.3540
 5499SOL    HW228134   4.143   4.340  15.469  1.4227 -1.3244 -1.0705
 5500SOL     OW28135   0.711   3.836   1.765 -0.2952 -0.5897 -0.0372
 5500SOL    HW128136   0.645   3.768   1.754 -0.3497 -0.8346  1.7761
 5500SOL    HW228137   0.785   3.791   1.725  0.4779  0.6038  0.0399
 5501SOL     OW28138   1.554   3.453   7.253 -0.4863 -0.7418  0.1480
 5501SOL    HW128139   1.580   3.519   7.318 -1.5930 -0.4110  0.2430
 5501SOL    HW228140   1.518   3.392   7.318  0.0887 -1.2039  0.0318
 5502SOL     OW28141   4.444   1.229   2.485 -0.0747  0.1643 -0.3644
 5502SOL    HW128142   4.466   1.194   2.571 -3.2576 -0.9011  0.0071
 5502SOL    HW228143   4.534   1.217   2.456 -0.3764  1.0542 -1.6654
 5503SOL     OW28144   0.809   3.931   4.985  0.4383  0.0563 -0.5109
 5503SOL    HW128145   0.895   3.917   5.025  0.4354  2.9393  0.4868
 5503SOL    HW228146   0.777   3.987   5.055  1.4446  1.1479 -0.9158
 5504SOL     OW28147   0.713   3.402   8.496  0.1413 -0.1987 -0.8306
 5504SOL    HW128148   0.647   3.460   8.459  0.0934  0.3732  0.1320
 5504SOL    HW228149   0.682   3.325   8.450  0.1876 -2.0315  2.1994
 5505SOL     OW28150   0.738   3.401   8.811 -0.4034 -0.1676 -0.4655
 5505SOL    HW128151   0.701   3.322   8.850  1.5638 -0.9365 -0.1666
 5505SOL    HW228152   0.746   3.382   8.717 -0.0975  1.2287 -0.7349
 5506SOL     OW28153   3.234   2.028   4.989  0.3572  0.4588 -0.1259
 5506SOL    HW128154   3.249   2.013   5.082 -0.3623 -3.1296 -0.5874
 5506SOL    HW228155   3.139   2.038   4.995  0.2066 -0.4815 -0.8886
 5507SOL     OW28156   3.513   1.757   0.265  0.3885 -0.0880  0.2938
 5507SOL    HW128157   3.573   1.683   0.282  1.0676  0.8573  2.0942
 5507SOL    HW228158   3.542   1.778   0.177  1.9151  1.4745  1.1724
 5508SOL     OW28159   4.030   2.662   0.834  0.4352 -0.1962  0.1619
 5508SOL    HW128160   3.956   2.721   0.824  1.9973  1.8163  0.4442
 5508SOL    HW228161   4.096   2.729   0.852 -0.6916  1.1048 -0.5829
 5509SOL     OW28162   2.042   2.838   4.295  0.1442 -0.4990  0.2232
 5509SOL    HW128163   2.103   2.859   4.366  0.8278 -1.7157  0.0083
 5509SOL    HW228164   2.040   2.923   4.253 -0.2355 -1.4089 -1.6065
 5510SOL     OW28165   2.427   2.019  14.669  0.0397 -0.3491 -0.5701
 5510SOL    HW128166   2.395   1.935  14.701 -0.4664  0.4529  1.0612
 5510SOL    HW228167   2.402   2.012  14.577 -0.7850 -0.4929 -0.3350
 5511SOL     OW28168   3.532   4.000  16.348 -0.8765  0.4183 -0.1407
 5511SOL    HW128169   3.605   4.023  16.405 -1.1198  0.2952  0.2267
 5511SOL    HW228170   3.504   4.089  16.329  0.6899  0.9216 -0.0178
 5512SOL     OW28171   2.085   1.579   4.946 -0.2178  0.1736 -0.3363
 5512SOL    HW128172   2.004   1.558   4.899 -0.3939 -0.0858  0.0774
 5512SOL    HW228173   2.098   1.494   4.988  0.3068  0.4713  0.0976
 5513SOL     OW28174   3.349   4.386   5.266  0.0473 -0.7573  0.2303
 5513SOL    HW128175   3.331   4.447   5.338  1.1620 -1.5553  1.1818
 5513SOL    HW228176   3.292   4.418   5.195 -0.9668  0.0313  1.3855
 5514SOL     OW28177   3.057   0.991  14.073 -0.5191 -0.1699  0.5494
 5514SOL    HW128178   3.037   0.966  13.983  1.9128 -3.4309  0.9104
 5514SOL    HW228179   3.127   0.933  14.103  2.0553  1.1515 -2.8211
 5515SOL     OW28180   4.347   1.783   8.240  0.1048  0.5132 -0.5115
 5515SOL    HW128181   4.431   1.750   8.209 -0.7227 -2.5469  0.5758
 5515SOL    HW228182   4.300   1.732   8.175 -0.3480 -0.2650  0.4218
 5516SOL     OW28183   1.741   1.809   9.562 -0.1328 -0.1821  0.4245
 5516SOL    HW128184   1.807   1.862   9.518  0.3233 -1.1240 -0.0286
 5516SOL    HW228185   1.802   1.760   9.617 -0.0783  0.3953  0.8657
 5517SOL     OW28186   0.677   3.064   3.300  0.3248 -0.3499  0.2464
 5517SOL    HW128187   0.669   3.153   3.265  0.5388  0.3783  2.0476
 5517SOL    HW228188   0.606   3.029   3.247  0.4589 -0.2539  0.0033
 5518SOL     OW28189   3.156   3.755   5.488  0.2638  0.1754  0.0569
 5518SOL    HW128190   3.105   3.743   5.568 -0.0047 -1.2163 -0.3080
 5518SOL    HW228191   3.246   3.752   5.520  0.0691  1.7626  0.7198
 5519SOL     OW28192   0.968   4.451   9.627 -0.1959 -0.5271  0.2786
 5519SOL    HW128193   1.027   4.425   9.556 -3.1830 -0.1921 -2.3628
 5519SOL    HW228194   1.011   4.413   9.704  1.2574 -0.3129 -0.4243
 5520SOL     OW28195   3.774   4.483  17.033  0.6277  0.6913 -0.0382
 5520SOL    HW128196   3.694   4.505  16.985  1.3567 -0.6433 -1.8551
 5520SOL    HW228197   3.806   4.430  16.960  2.4213  0.8820  0.6222
 5521SOL     OW28198   1.163   2.953   2.794  0.6190 -0.2395  0.7168
 5521SOL    HW128199   1.199   3.006   2.723  1.1312 -1.0264  0.3754
 5521SOL    HW228200   1.079   2.993   2.815  0.0587 -0.0501 -1.8534
 5522SOL     OW28201   4.621   3.172   2.586  0.3227  0.1889 -0.2473
 5522SOL    HW128202   4.622   3.081   2.558 -0.1332 -0.4615  1.8649
 5522SOL    HW228203   4.584   3.176   2.674 -1.8890  0.5882 -1.2143
 5523SOL     OW28204   1.401   3.375   3.006 -0.2202  0.0766  0.0085
 5523SOL    HW128205   1.392   3.333   2.920  2.0369 -1.7174  0.6348
 5523SOL    HW228206   1.344   3.336   3.071  1.7920 -0.4630  1.4630
 5524SOL     OW28207   4.528   4.245   6.272  0.1422  0.3610 -0.3380
 5524SOL    HW128208   4.598   4.296   6.231  1.2533 -0.5414  0.4561
 5524SOL    HW228209   4.473   4.222   6.197 -0.3070  1.0944 -0.2376
 5525SOL     OW28210   1.040   3.335   2.194  0.0952  0.1510 -0.6730
 5525SOL    HW128211   1.034   3.352   2.100  1.1140  1.5632 -0.4880
 5525SOL    HW228212   1.027   3.240   2.202 -0.4971  0.3265  0.4887
 5526SOL     OW28213   0.411   4.467  15.120  0.4870  0.6753 -0.1109
 5526SOL    HW128214   0.471   4.535  15.149 -0.2581  1.7466 -1.0992
 5526SOL    HW228215   0.352   4.512  15.060 -0.9678  1.4233  1.8631
 5527SOL     OW28216   2.457   4.379  11.687  0.2358 -0.2626  0.4251
 5527SOL    HW128217   2.387   4.319  11.662 -0.2167  0.3555  0.2018
 5527SOL    HW228218   2.412   4.429  11.755  0.5888  1.3035 -0.4825
 5528SOL     OW28219   4.121   3.996   5.052  0.2435  0.2194 -0.4920
 5528SOL    HW128220   4.195   3.955   5.007 -0.1140 -0.2042 -0.6954
 5528SOL    HW228221   4.102   3.925   5.114  0.9817  0.1294 -0.3723
 5529SOL     OW28222   2.403   4.637   9.673  0.1750  0.0477  0.8502
 5529SOL    HW128223   2.442   4.579   9.739 -0.0106 -0.5555  0.4307
 5529SOL    HW228224   2.312   4.644   9.701 -0.9627 -0.2242 -2.8308
 5530SOL     OW28225   2.429   0.207   1.996  0.1893 -0.1556 -0.7235
 5530SOL    HW128226   2.372   0.284   1.988  0.1337  0.0736  1.8692
 5530SOL    HW228227   2.502   0.233   1.939 -0.2035  2.2549 -0.1340
 5531SOL     OW28228   1.326   2.779   6.871 -0.5614 -0.2968 -0.0085
 5531SOL    HW128229   1.380   2.836   6.817  0.8538 -0.0572  1.6523
 5531SOL    HW228230   1.336   2.697   6.822 -0.2066 -1.3209  1.7718
 5532SOL     OW28231   2.757   1.099  15.483 -0.0395 -0.1258  0.6369
 5532SOL    HW128232   2.697   1.168  15.510 -0.2080  0.0173 -0.1037
 5532SOL    HW228233   2.834   1.146  15.451  0.3254 -2.2165 -1.5969
 5533SOL     OW28234   4.305   4.696   1.083 -0.3329  0.4148 -0.2935
 5533SOL    HW128235   4.242   4.633   1.049  0.3299 -1.1663  1.3874
 5533SOL    HW228236   4.296   0.029   1.019  2.1436  1.6367  0.7082
 5534SOL     OW28237   4.707   3.905  11.577  0.3741  0.0509  0.8537
 5534SOL    HW128238   4.648   3.919  11.651 -0.0201 -1.6104  0.8542
 5534SOL    HW228239   4.716   3.997  11.552  2.0214  0.1690  1.9025
 5535SOL     OW28240   2.052   1.600   6.435 -0.0892  0.7722 -0.4041
 5535SOL    HW128241   2.147   1.586   6.441 -1.0802 -5.2310  1.2731
 5535SOL    HW228242   2.048   1.695   6.437 -1.7315  0.7134 -1.3393
 5536SOL     OW28243   3.050   3.471  13.635 -0.3019  0.5550 -0.3092
 5536SOL    HW128244   3.144   3.478  13.617 -0.7512  1.8347 -2.2079
 5536SOL    HW228245   3.028   3.557  13.599 -0.9762  0.6995  0.4349
 5537SOL     OW28246   0.658   3.417  15.385  0.2904 -0.6762 -0.2793
 5537SOL    HW128247   0.695   3.329  15.373 -0.8744 -0.8741 -2.3413
 5537SOL    HW228248   0.720   3.454  15.448  2.0996 -1.1591 -1.8022
 5538SOL     OW28249   2.333   2.644   7.798 -0.6402  0.2531  0.0448
 5538SOL    HW128250   2.380   2.726   7.810  1.2141 -1.0321  1.4686
 5538SOL    HW228251   2.388   2.605   7.729 -0.9158  0.6657 -0.4102
 5539SOL     OW28252   3.791   0.011  16.814  0.5748 -0.0898 -0.0116
 5539SOL    HW128253   3.767   0.089  16.763 -1.7130  0.4062  1.7696
 5539SOL    HW228254   3.874   0.039  16.853  0.7882  0.0780 -0.5913
 5540SOL     OW28255   4.198   1.754   6.693 -0.6932 -0.5279  0.1326
 5540SOL    HW128256   4.235   1.753   6.605 -0.7999 -0.7087  0.0892
 5540SOL    HW228257   4.271   1.797   6.737  0.1532 -1.3249 -0.4929
 5541SOL     OW28258   3.392   3.581   2.104 -0.7398  0.1576 -0.3142
 5541SOL    HW128259   3.355   3.622   2.182 -1.0287  0.6834 -0.7225
 5541SOL    HW228260   3.382   3.489   2.127 -4.1767  0.9522  1.4247
 5542SOL     OW28261   4.299   4.686   9.696  0.0258 -0.4324 -0.2818
 5542SOL    HW128262   4.267   4.719   9.612  1.8899 -1.4849 -1.4222
 5542SOL    HW228263   4.382   4.734   9.701 -0.9344  0.7975  3.5311
 5543SOL     OW28264   1.260   4.327   4.803 -0.6593  0.2033 -0.0209
 5543SOL    HW128265   1.196   4.390   4.835 -1.6216 -0.3061 -0.9259
 5543SOL    HW228266   1.193   4.266   4.772 -0.6546 -0.3090  0.9728
 5544SOL     OW28267   3.765   1.459   6.266  0.1792  0.4199  0.3607
 5544SOL    HW128268   3.795   1.462   6.175  1.6041 -1.5313  0.7565
 5544SOL    HW228269   3.807   1.541   6.293 -0.2621  0.9083 -0.4525
 5545SOL     OW28270   2.574   3.362   4.015 -0.8575 -0.3859  0.1655
 5545SOL    HW128271   2.662   3.345   4.047 -1.1150 -0.4418  0.8515
 5545SOL    HW228272   2.599   3.416   3.941  0.1790  0.1087  0.8857
 5546SOL     OW28273   2.054   2.161  15.975  0.5111 -0.2943  0.1584
 5546SOL    HW128274   2.015   2.176  15.889  2.2843  2.2259 -0.2088
 5546SOL    HW228275   2.011   2.080  16.000  0.4558 -0.0512  0.8469
 5547SOL     OW28276   4.265   2.166   6.816  0.0690  0.3690  0.6320
 5547SOL    HW128277   4.198   2.098   6.818  0.5350 -0.0727  1.4931
 5547SOL    HW228278   4.295   2.162   6.725 -1.2402 -0.8094  0.2511
 5548SOL     OW28279   1.133   3.664   9.828 -0.1798 -0.2688  0.0886
 5548SOL    HW128280   1.164   3.660   9.919  0.4789 -0.0759 -0.1285
 5548SOL    HW228281   1.079   3.585   9.830 -1.0196  0.3407  1.3715
 5549SOL     OW28282   4.210   3.528   4.213 -0.7036  0.5674  0.2245
 5549SOL    HW128283   4.257   3.482   4.143  2.0369 -0.3393  2.6446
 5549SOL    HW228284   4.253   3.614   4.218  0.2677  0.0807  0.2358
 5550SOL     OW28285   1.194   0.164   8.165  0.5125 -0.5722 -0.0988
 5550SOL    HW128286   1.241   0.126   8.239  1.3861 -0.8064 -0.7819
 5550SOL    HW228287   1.230   0.119   8.089 -1.3692 -2.1009 -0.0779
 5551SOL     OW28288   3.794   4.709  15.204 -0.7303  0.6301 -0.2723
 5551SOL    HW128289   3.769   4.638  15.145 -6.1088  1.7133  0.7626
 5551SOL    HW228290   3.711   0.013  15.228 -0.2306  1.5496 -0.1475
 5552SOL     OW28291   4.519   1.819   4.324 -0.3628  0.3423  0.0441
 5552SOL    HW128292   4.544   1.835   4.233 -1.4184  1.5484 -0.0365
 5552SOL    HW228293   4.539   1.725   4.325  1.2698  0.6833 -0.6891
 5553SOL     OW28294   1.430   3.552  15.455  0.4672 -0.0952 -0.0627
 5553SOL    HW128295   1.521   3.582  15.457  0.2921  0.4081  0.6114
 5553SOL    HW228296   1.387   3.635  15.474  1.9853  0.7266 -0.2389
 5554SOL     OW28297   3.574   4.415   6.799 -0.0233  0.1563 -0.1569
 5554SOL    HW128298   3.491   4.390   6.760 -0.8136  0.5055  1.3063
 5554SOL    HW228299   3.627   4.446   6.725 -2.0105 -1.2015 -2.1320
 5555SOL     OW28300   3.461   2.826   9.116  0.2079 -0.3119 -0.1251
 5555SOL    HW128301   3.471   2.769   9.039  0.2284 -0.5547  0.0593
 5555SOL    HW228302   3.476   2.764   9.187  0.2641  1.0359  1.0507
 5556SOL     OW28303   1.205   1.524   1.336 -0.2793 -0.7482 -0.9314
 5556SOL    HW128304   1.217   1.565   1.422 -1.1232 -2.0173 -0.2087
 5556SOL    HW228305   1.144   1.457   1.367  0.2145 -0.3535  0.8820
 5557SOL     OW28306   0.362   2.181  13.999  0.0414 -0.1784 -0.7096
 5557SOL    HW128307   0.353   2.181  14.094 -1.3691  1.3188 -0.8267
 5557SOL    HW228308   0.351   2.274  13.978 -0.2626  0.7134  3.3826
 5558SOL     OW28309   1.568   2.650   4.873  0.4109  0.8663  0.2968
 5558SOL    HW128310   1.610   2.565   4.881 -4.0477 -1.3302  0.1417
 5558SOL    HW228311   1.601   2.698   4.949 -1.9944  0.6424  1.4680
 5559SOL     OW28312   4.697   0.262   9.848 -0.2567  0.4697  0.0646
 5559SOL    HW128313   4.709   0.167   9.855 -0.7070  0.5213  1.4356
 5559SOL    HW228314   4.726   0.286   9.936 -2.9003  4.7128 -0.2528
 5560SOL     OW28315   0.703   1.234  14.769  0.4591 -0.0221 -0.0359
 5560SOL    HW128316   0.647   1.250  14.845 -0.4358 -2.2429 -0.2396
 5560SOL    HW228317   0.790   1.249  14.807  0.8247  0.5823 -1.1005
 5561SOL     OW28318   2.104   1.421   7.979 -0.2638  0.2725 -0.5575
 5561SOL    HW128319   2.067   1.503   8.013 -1.5258 -1.3040  1.8784
 5561SOL    HW228320   2.020   1.381   7.956  0.8167 -1.2584 -1.8977
 5562SOL     OW28321   4.358   4.673  15.063 -0.2129  0.4487 -1.0970
 5562SOL    HW128322   4.424   4.701  15.126 -1.1895  0.5612 -0.1201
 5562SOL    HW228323   4.381   4.583  15.039 -0.4063  0.4459 -1.2710
 5563SOL     OW28324   1.981   0.158   6.348 -0.4562  0.9720  0.1067
 5563SOL    HW128325   1.909   0.119   6.398  0.0933  0.5913  0.6083
 5563SOL    HW228326   2.029   0.083   6.312 -0.5488  1.4730 -1.0563
 5564SOL     OW28327   2.324   2.489   5.604 -0.0328  0.3825 -0.1418
 5564SOL    HW128328   2.379   2.489   5.525  1.4014 -1.7026  0.8529
 5564SOL    HW228329   2.363   2.556   5.660 -2.0158  1.8246 -0.4847
 5565SOL     OW28330   3.101   2.205  12.449  0.5765  0.2032  0.0964
 5565SOL    HW128331   3.194   2.221  12.433  0.3816  1.1753 -0.0785
 5565SOL    HW228332   3.090   2.118  12.411  1.9450  1.4341 -3.1012
 5566SOL     OW28333   2.781   1.969   7.387 -0.3182 -0.1656 -0.1668
 5566SOL    HW128334   2.810   1.878   7.387  1.0536  0.2747 -0.2640
 5566SOL    HW228335   2.761   1.981   7.480 -0.1462  2.0920 -0.4098
 5567SOL     OW28336   3.378   3.674  12.581  0.3488 -0.1567 -0.5876
 5567SOL    HW128337   3.437   3.599  12.584 -1.1170 -1.4038 -2.3439
 5567SOL    HW228338   3.291   3.634  12.570  0.7855 -1.3204  0.2203
 5568SOL     OW28339   0.927   1.513   9.844 -0.4819 -0.2848 -0.2259
 5568SOL    HW128340   0.911   1.537   9.936 -2.5203  0.2719 -0.7264
 5568SOL    HW228341   0.934   1.420   9.863 -2.3197 -0.2834  0.4805
 5569SOL     OW28342   2.097   1.965   1.546 -0.4750  0.4407  0.1868
 5569SOL    HW128343   2.083   2.012   1.464 -0.3924 -0.0429 -0.1052
 5569SOL    HW228344   2.065   2.036   1.602  0.3709 -0.6144  2.0018
 5570SOL     OW28345   2.234   2.793   7.005  0.1029  0.2493  0.1333
 5570SOL    HW128346   2.225   2.715   6.951 -1.3202 -0.2064  1.0287
 5570SOL    HW228347   2.289   2.747   7.068  0.0857  2.2769  1.6273
 5571SOL     OW28348   3.924   4.727   0.309 -0.1640  0.6348 -0.0443
 5571SOL    HW128349   4.008   4.708   0.267  0.5398 -1.4225  2.2617
 5571SOL    HW228350   3.870   0.007   0.233  0.3402 -0.5318 -0.6624
 5572SOL     OW28351   1.678   2.166   7.649  0.7324  0.1182  0.1330
 5572SOL    HW128352   1.747   2.152   7.584  1.8064  1.9907  0.8623
 5572SOL    HW228353   1.669   2.261   7.652 -1.4302 -0.1120  0.6969
 5573SOL     OW28354   4.348   4.203   6.074 -0.2745 -0.2007  0.1198
 5573SOL    HW128355   4.328   4.288   6.034  0.4153 -0.1667 -0.1601
 5573SOL    HW228356   4.261   4.182   6.107  0.3490  1.6796  2.9487
 5574SOL     OW28357   2.994   2.140   6.188 -0.5709  0.2027  0.4916
 5574SOL    HW128358   2.912   2.106   6.223  0.2815 -0.4690  1.8713
 5574SOL    HW228359   3.052   2.075   6.228 -1.2090 -0.1730  0.8040
 5575SOL     OW28360   2.392   2.840   5.271  0.3555 -1.4724 -0.7669
 5575SOL    HW128361   2.373   2.746   5.274 -4.1790 -0.4998  0.9637
 5575SOL    HW228362   2.323   2.866   5.211 -0.4999  1.2569  1.4489
 5576SOL     OW28363   3.134   2.550  14.100 -0.2292  0.4403 -0.2011
 5576SOL    HW128364   3.182   2.627  14.070  0.8126 -0.0125  0.3209
 5576SOL    HW228365   3.185   2.472  14.077  0.4458  1.7348 -3.1622
 5577SOL     OW28366   4.682   3.788  10.807 -0.4333  0.0000 -0.4371
 5577SOL    HW128367   0.023   3.772  10.859 -1.5748 -3.2985  0.2891
 5577SOL    HW228368   4.645   3.700  10.818  0.9168 -0.6136 -0.9123
 5578SOL     OW28369   4.559   3.744   8.814 -0.3380 -0.4756  0.0589
 5578SOL    HW128370   4.505   3.716   8.888 -1.5417  0.6817 -0.3732
 5578SOL    HW228371   4.617   3.669   8.801 -0.1909 -0.5888  1.4466
 5579SOL     OW28372   0.953   0.147   3.828  0.0180  0.3752  0.1645
 5579SOL    HW128373   1.039   0.188   3.831  0.3227 -0.2470 -0.0310
 5579SOL    HW228374   0.894   0.222   3.820  1.0671  1.1463 -0.2474
 5580SOL     OW28375   1.271   0.289   2.270 -0.5155 -0.6647  0.1580
 5580SOL    HW128376   1.290   0.366   2.216  1.5110  0.5516  2.6041
 5580SOL    HW228377   1.214   0.329   2.335  0.5674 -2.5457  2.3046
 5581SOL     OW28378   4.361   0.738  16.334  0.7554 -0.2530  0.3833
 5581SOL    HW128379   4.303   0.812  16.319 -0.0594 -1.0149 -0.2516
 5581SOL    HW228380   4.419   0.747  16.259 -0.0650 -0.5662 -0.2873
 5582SOL     OW28381   2.581   1.527   9.278 -0.4040  0.1831 -0.4064
 5582SOL    HW128382   2.669   1.541   9.242 -0.9745  0.4691 -1.6693
 5582SOL    HW228383   2.555   1.452   9.226  1.4146  0.9882 -2.4488
 5583SOL     OW28384   1.636   3.110   9.558  0.1020  0.1834 -0.0293
 5583SOL    HW128385   1.551   3.154   9.567 -0.3937 -1.0827  1.4399
 5583SOL    HW228386   1.632   3.043   9.626  1.9329 -1.1008 -1.2016
 5584SOL     OW28387   4.249   1.039   2.508 -0.0728  0.1758  0.1488
 5584SOL    HW128388   4.300   1.114   2.478  0.5618 -0.3116  0.0027
 5584SOL    HW228389   4.165   1.081   2.528  0.1716 -0.1836  1.9465
 5585SOL     OW28390   2.148   0.866   7.099 -0.2023  0.1319 -0.8458
 5585SOL    HW128391   2.160   0.961   7.101 -0.1044  0.1070 -0.1871
 5585SOL    HW228392   2.204   0.848   7.023  0.7269  0.8937 -0.3465
 5586SOL     OW28393   0.089   0.539  10.907  0.3886 -0.4832  0.4653
 5586SOL    HW128394   0.036   0.541  10.827 -0.8264 -1.3372  1.2377
 5586SOL    HW228395   0.126   0.625  10.924 -1.4430  0.8525 -2.2886
 5587SOL     OW28396   4.190   2.740   3.778  0.3484  0.1143  0.4467
 5587SOL    HW128397   4.111   2.721   3.727 -0.7472  2.7829  1.1612
 5587SOL    HW228398   4.172   2.682   3.852  0.4082 -0.9494 -0.3535
 5588SOL     OW28399   1.952   1.909  17.683  0.5921  0.7172 -0.7168
 5588SOL    HW128400   1.990   1.841  17.738  2.1371 -0.1375 -2.8412
 5588SOL    HW228401   1.866   1.866  17.676  0.9931 -0.2846  0.5520
 5589SOL     OW28402   3.361   3.546   9.137 -0.8700 -0.0557 -0.0784
 5589SOL    HW128403   3.406   3.625   9.168  1.3251 -1.1951 -0.3949
 5589SOL    HW228404   3.434   3.491   9.109  0.4133  1.3547  0.4822
 5590SOL     OW28405   0.457   2.174   8.826  0.1460  0.2360 -0.1887
 5590SOL    HW128406   0.543   2.215   8.821  0.4844 -0.3764  0.6728
 5590SOL    HW228407   0.404   2.242   8.867  2.0014  0.7292  1.3803
 5591SOL     OW28408   0.046   1.890   5.136 -0.7308 -0.3714 -0.2939
 5591SOL    HW128409   4.729   1.923   5.207  1.5244  0.1095  1.2133
 5591SOL    HW228410   0.048   1.976   5.092 -1.8281 -1.5668 -2.7032
 5592SOL     OW28411   3.444   1.659   1.732  0.5385  0.0435 -0.3681
 5592SOL    HW128412   3.493   1.654   1.814  1.2305  2.4620 -0.6387
 5592SOL    HW228413   3.363   1.694   1.767 -0.2941 -1.2600 -0.9841
 5593SOL     OW28414   3.355   4.715  16.331 -0.1508 -0.2933  0.1002
 5593SOL    HW128415   3.294   4.651  16.294  0.8592 -0.1805 -1.7285
 5593SOL    HW228416   3.299   4.728  16.408  1.2827  0.0854  1.0799
 5594SOL     OW28417   4.407   0.291   6.697  0.1756 -0.5071  0.3141
 5594SOL    HW128418   4.323   0.337   6.702  0.6378  0.3055  0.7007
 5594SOL    HW228419   4.460   0.361   6.659 -0.9560 -0.1412 -0.5876
 5595SOL     OW28420   2.962   4.458  14.747  0.4528 -0.2796 -0.0690
 5595SOL    HW128421   3.029   4.469  14.680 -1.1345 -3.5034 -2.1407
 5595SOL    HW228422   2.974   4.535  14.803 -2.1005  0.5820 -0.6528
 5596SOL     OW28423   3.666   2.868  16.676  0.1113  0.0900 -0.1056
 5596SOL    HW128424   3.624   2.790  16.640  1.2015 -0.7495  0.4418
 5596SOL    HW228425   3.685   2.929  16.604 -0.5153 -1.2018 -1.3613
 5597SOL     OW28426   1.875   2.460   8.001 -0.2124  0.0040  0.6104
 5597SOL    HW128427   1.940   2.519   8.039 -1.0159  2.2717 -1.4825
 5597SOL    HW228428   1.910   2.374   8.024 -1.4307 -0.9012 -0.9010
 5598SOL     OW28429   2.680   3.245   8.894 -0.1871 -0.1093 -0.5473
 5598SOL    HW128430   2.631   3.285   8.966  1.4864 -1.7770  1.5125
 5598SOL    HW228431   2.654   3.155   8.913 -0.8570  0.5738  1.8544
 5599SOL     OW28432   3.273   1.290   3.038 -0.1042  0.6131 -0.1363
 5599SOL    HW128433   3.331   1.232   2.988  0.3563  0.0658  1.0374
 5599SOL    HW228434   3.258   1.245   3.121  2.0615 -2.4374 -1.3647
 5600SOL     OW28435   0.127   1.494   7.299  0.8372 -0.6107 -0.9241
 5600SOL    HW128436   0.070   1.558   7.341 -1.1560 -1.5162 -2.2159
 5600SOL    HW228437   0.204   1.547   7.280  2.8457 -3.1546  0.1508
 5601SOL     OW28438   1.488   1.378   8.901 -0.1050 -0.5946  0.3338
 5601SOL    HW128439   1.546   1.323   8.954  0.4340  0.0391  0.3975
 5601SOL    HW228440   1.440   1.310   8.854 -0.5858  1.2007 -1.7265
 5602SOL     OW28441   0.668   0.616  12.236  0.5416  0.6979  0.7168
 5602SOL    HW128442   0.622   0.599  12.154  0.8530 -1.5817  1.0156
 5602SOL    HW228443   0.717   0.698  12.225  2.7297 -0.8297 -0.6993
 5603SOL     OW28444   0.650   0.274  10.691 -0.2862 -0.2304 -0.4109
 5603SOL    HW128445   0.573   0.217  10.683 -1.7786  1.5551  1.1671
 5603SOL    HW228446   0.644   0.312  10.604 -0.9544 -2.5945 -1.3947
 5604SOL     OW28447   1.190   2.096   4.257  0.5678 -0.2031  0.0948
 5604SOL    HW128448   1.100   2.073   4.233  0.8067 -2.1789  1.0390
 5604SOL    HW228449   1.173   2.177   4.304 -3.1489 -0.5429 -0.6581
 5605SOL     OW28450   4.461   2.480   5.631  0.1243 -0.5916 -0.1685
 5605SOL    HW128451   4.466   2.385   5.630 -1.7986 -0.6951  0.5839
 5605SOL    HW228452   4.475   2.496   5.724  0.9312 -0.7160 -0.2741
 5606SOL     OW28453   3.550   4.005   1.515  0.1349 -0.2100 -0.5229
 5606SOL    HW128454   3.591   4.010   1.429 -0.5112  2.3100 -0.6728
 5606SOL    HW228455   3.479   4.069   1.505 -0.8180 -0.9094  1.7143
 5607SOL     OW28456   1.252   0.962   7.306  0.1480 -0.2484  0.3988
 5607SOL    HW128457   1.269   0.886   7.362  0.3997  0.1051  0.7987
 5607SOL    HW228458   1.160   0.940   7.289 -0.0743 -0.2135  1.6054
 5608SOL     OW28459   0.628   3.210   9.260  0.3155 -0.5969  0.1949
 5608SOL    HW128460   0.583   3.246   9.184 -0.9685  0.0220  1.2323
 5608SOL    HW228461   0.709   3.261   9.266  0.0142 -0.2024  1.0194
 5609SOL     OW28462   4.478   1.122   7.786  0.5529 -0.2174 -0.3806
 5609SOL    HW128463   4.528   1.199   7.759  1.3312 -0.6394 -0.1236
 5609SOL    HW228464   4.507   1.125   7.877  0.6892 -0.2456 -0.4229
 5610SOL     OW28465   0.450   3.800   3.688 -0.4547  0.4910  0.2631
 5610SOL    HW128466   0.465   3.889   3.719  0.5691  0.3453  0.1843
 5610SOL    HW228467   0.469   3.817   3.596  2.7835  2.7433  1.3427
 5611SOL     OW28468   2.164   2.347   6.565 -0.2270  0.6830  0.0178
 5611SOL    HW128469   2.179   2.329   6.657 -0.4590 -0.2506 -0.1289
 5611SOL    HW228470   2.069   2.335   6.565  0.1233 -1.9161  0.9885
 5612SOL     OW28471   3.556   0.556  15.606  0.2122 -0.3408  0.2551
 5612SOL    HW128472   3.619   0.587  15.670 -0.1240  0.3625  0.2429
 5612SOL    HW228473   3.603   0.550  15.523 -1.3191  1.8745 -0.7826
 5613SOL     OW28474   3.831   2.293   6.252  0.5294  0.9133  0.5547
 5613SOL    HW128475   3.853   2.381   6.283  0.1038  0.2674  2.6703
 5613SOL    HW228476   3.738   2.294   6.272 -0.0835 -1.5601 -2.2647
 5614SOL     OW28477   2.770   4.438   6.075 -0.5067 -0.3760 -0.2269
 5614SOL    HW128478   2.831   4.430   6.002  0.1175  0.1074  0.2363
 5614SOL    HW228479   2.815   4.398   6.150  1.1253 -0.4403 -1.2367
 5615SOL     OW28480   4.305   1.095  11.572 -0.0631 -0.1724 -0.2956
 5615SOL    HW128481   4.326   1.016  11.521 -1.7007 -1.9518  1.7966
 5615SOL    HW228482   4.275   1.154  11.503  1.6637 -0.1630 -1.0426
 5616SOL     OW28483   1.510   3.934  12.806 -0.4242 -0.3555 -0.3628
 5616SOL    HW128484   1.479   3.855  12.850 -0.1689 -0.4996 -0.4426
 5616SOL    HW228485   1.434   3.991  12.800  0.0431  0.2868 -0.2791
 5617SOL     OW28486   1.939   2.175  17.378 -0.8953  0.0518 -0.0583
 5617SOL    HW128487   1.973   2.263  17.360 -0.3290 -0.2561 -0.4878
 5617SOL    HW228488   1.850   2.179  17.344 -1.6899 -2.1818  1.7930
 5618SOL     OW28489   3.829   2.860   4.492  0.0757  0.0387 -0.3378
 5618SOL    HW128490   3.865   2.847   4.405 -2.2627 -1.9942 -1.0208
 5618SOL    HW228491   3.734   2.846   4.491  0.0003  0.2710  1.7686
 5619SOL     OW28492   4.671   0.024   5.648 -0.0428 -0.0976  0.1418
 5619SOL    HW128493   0.002   0.042   5.713  0.0532  1.5005 -0.3976
 5619SOL    HW228494   4.723   0.035   5.569 -1.4485 -1.4864 -0.9647
 5620SOL     OW28495   4.707   3.223  13.657 -0.3564 -0.1444  0.0543
 5620SOL    HW128496   0.044   3.284  13.648 -0.7792  0.0136 -2.3207
 5620SOL    HW228497   4.685   3.223  13.750  0.2522 -3.5903  0.2011
 5621SOL     OW28498   3.606   0.390   7.493 -0.6496  0.6696 -0.1675
 5621SOL    HW128499   3.642   0.307   7.463 -0.1071  0.3978  1.2539
 5621SOL    HW228500   3.570   0.350   7.572 -1.5662  1.0824 -0.3783
 5622SOL     OW28501   4.446   4.608  15.697 -0.0996  0.0843  0.2918
 5622SOL    HW128502   4.534   4.580  15.674 -0.0382 -0.4296  1.1850
 5622SOL    HW228503   4.416   4.533  15.747 -0.6600  0.5358  0.6331
 5623SOL     OW28504   2.146   2.274   2.511  0.4837  0.0770  0.0276
 5623SOL    HW128505   2.095   2.295   2.589 -0.9085 -2.2330 -0.2677
 5623SOL    HW228506   2.164   2.360   2.472 -1.8105  0.9256  0.8221
 5624SOL     OW28507   3.418   0.730   0.157 -0.0677 -0.2684  0.7037
 5624SOL    HW128508   3.482   0.737   0.086  0.3752  0.7305  1.2112
 5624SOL    HW228509   3.345   0.775   0.113  1.1535  0.2562 -0.7617
 5625SOL     OW28510   2.237   1.787   9.090 -0.4420 -0.2338 -0.1026
 5625SOL    HW128511   2.318   1.797   9.139  0.1155  1.3781 -1.3607
 5625SOL    HW228512   2.215   1.873   9.056 -0.6785 -0.7788 -1.3288
 5626SOL     OW28513   2.467   1.992   5.741 -0.6032  0.1655 -0.5672
 5626SOL    HW128514   2.547   2.010   5.791 -1.7436  1.1576  0.8963
 5626SOL    HW228515   2.399   2.018   5.803 -0.6578 -1.5533  0.1070
 5627SOL     OW28516   4.141   2.805   7.417 -0.7173  0.1166  0.1427
 5627SOL    HW128517   4.194   2.730   7.447  0.7370 -0.1197 -3.0162
 5627SOL    HW228518   4.203   2.830   7.348 -0.3907 -2.5943 -0.5563
 5628SOL     OW28519   1.740   4.338  15.426  0.5239 -0.6302 -0.4768
 5628SOL    HW128520   1.788   4.379  15.354 -1.9172 -0.9948 -2.3081
 5628SOL    HW228521   1.803   4.266  15.433 -1.8149 -2.2781  3.3629
 5629SOL     OW28522   1.219   2.200   9.226 -0.8294  0.1683 -0.3280
 5629SOL    HW128523   1.180   2.113   9.242  1.9578 -0.8621  0.9549
 5629SOL    HW228524   1.255   2.193   9.138  0.9066 -0.0086  0.4031
 5630SOL     OW28525   1.694   0.578   1.416 -0.1782  0.0068 -0.6599
 5630SOL    HW128526   1.641   0.617   1.347  0.8790  2.0636 -0.3169
 5630SOL    HW228527   1.631   0.594   1.486  0.9337  0.7647  0.1727
 5631SOL     OW28528   1.398   2.790   0.144 -0.3671  0.2679  0.4221
 5631SOL    HW128529   1.357   2.734   0.078 -2.1566 -1.2397  2.8282
 5631SOL    HW228530   1.466   2.726   0.165 -1.7380 -1.4969 -0.5859
 5632SOL     OW28531   3.514   1.535   3.649  0.2172  0.5836  0.5546
 5632SOL    HW128532   3.488   1.462   3.705 -2.3912 -0.1709 -1.6433
 5632SOL    HW228533   3.595   1.558   3.694  1.4646  0.7150 -1.7455
 5633SOL     OW28534   3.734   0.547   7.276  0.2257  0.0457 -0.4952
 5633SOL    HW128535   3.714   0.623   7.331  0.2816  0.1228 -0.5803
 5633SOL    HW228536   3.697   0.477   7.329  0.4469  0.8293  0.6799
 5634SOL     OW28537   2.547   0.403  10.668 -0.2419  0.0419  0.7588
 5634SOL    HW128538   2.616   0.390  10.603  0.2511  1.9380  0.9032
 5634SOL    HW228539   2.583   0.472  10.723  0.8916  0.2557 -0.2692
 5635SOL     OW28540   4.671   1.280  15.426  0.1341  0.2455 -0.0273
 5635SOL    HW128541   4.710   1.299  15.511 -0.2371  1.2490 -0.0821
 5635SOL    HW228542   4.650   1.188  15.442  1.0362  0.0706  0.1375
 5636SOL     OW28543   3.710   4.236   8.291  0.3915 -0.2789 -0.1341
 5636SOL    HW128544   3.702   4.266   8.201  0.0366 -2.1603 -0.7162
 5636SOL    HW228545   3.627   4.191   8.297  0.2481 -0.2933 -2.4259
 5637SOL     OW28546   4.003   1.000   2.300 -0.0045  0.5354 -0.1103
 5637SOL    HW128547   4.035   1.060   2.367 -0.2761 -0.6317  1.0748
 5637SOL    HW228548   3.913   0.986   2.330 -1.0765  3.2454 -1.9924
 5638SOL     OW28549   0.259   3.759   4.077  0.0232  0.0359  0.5338
 5638SOL    HW128550   0.308   3.825   4.028 -0.1163 -0.5514 -0.4114
 5638SOL    HW228551   0.309   3.681   4.050  0.1701  0.3432 -0.0850
 5639SOL     OW28552   4.098   4.680   6.309 -0.1807 -0.2418  0.0788
 5639SOL    HW128553   4.105   0.034   6.337  0.3720 -0.2285 -0.1107
 5639SOL    HW228554   4.189   4.650   6.304 -0.0928 -0.3772  2.5840
 5640SOL     OW28555   2.913   0.907  17.442 -0.0967  0.1234 -0.1959
 5640SOL    HW128556   2.918   0.908  17.538 -1.2268  0.2436 -0.1463
 5640SOL    HW228557   2.932   0.998  17.419  1.3173  0.0188  0.5782
 5641SOL     OW28558   4.736   4.435   5.575  0.4405  0.0316 -0.4193
 5641SOL    HW128559   4.671   4.485   5.624  0.4093 -0.4207 -0.0063
 5641SOL    HW228560   4.691   4.351   5.571 -1.4853  1.0154  0.2181
 5642SOL     OW28561   0.993   1.536   3.591 -0.3459 -0.3746 -0.3645
 5642SOL    HW128562   1.051   1.561   3.519 -0.5326  1.5260  0.1471
 5642SOL    HW228563   1.062   1.548   3.656 -0.1505 -1.4917 -0.3593
 5643SOL     OW28564   0.560   4.553   5.251  0.4009  0.0125  0.3927
 5643SOL    HW128565   0.635   4.545   5.310  0.1348  0.3356  0.7763
 5643SOL    HW228566   0.560   4.648   5.235 -1.0402 -0.0846 -0.2483
 5644SOL     OW28567   1.571   3.878   5.779 -0.1171  0.6590  0.6234
 5644SOL    HW128568   1.587   3.831   5.861  0.1940  4.2060  2.5951
 5644SOL    HW228569   1.655   3.886   5.735 -1.0247 -0.1621 -1.2607
 5645SOL     OW28570   3.424   0.581   7.057  0.5079  0.3789 -0.1476
 5645SOL    HW128571   3.418   0.676   7.060  3.1304  0.5341  0.4505
 5645SOL    HW228572   3.377   0.555   7.136 -1.0448  1.6034 -0.6683
 5646SOL     OW28573   1.907   0.486   3.470 -0.5364 -0.4212  1.0094
 5646SOL    HW128574   1.887   0.548   3.400 -1.4603 -1.2950  0.5002
 5646SOL    HW228575   1.946   0.418   3.414 -0.3927 -1.1180  1.9562
 5647SOL     OW28576   3.298   0.822   6.851 -0.5127 -1.0305 -0.5726
 5647SOL    HW128577   3.331   0.842   6.939  2.0979 -0.9311 -1.5543
 5647SOL    HW228578   3.223   0.880   6.842 -0.3210 -0.5730  0.7205
 5648SOL     OW28579   0.387   0.672  15.244 -0.5861  0.2052 -0.2953
 5648SOL    HW128580   0.426   0.754  15.275  1.4836 -0.1897 -1.8456
 5648SOL    HW228581   0.421   0.667  15.154 -0.6538 -2.4041 -0.1806
 5649SOL     OW28582   0.375   1.805   6.177 -1.1135  0.0215  0.2795
 5649SOL    HW128583   0.440   1.737   6.158 -1.7706 -1.1249  2.0863
 5649SOL    HW228584   0.436   1.878   6.167 -0.1627 -0.9513 -1.0709
 5650SOL     OW28585   2.646   1.136  14.534  0.2471  0.1928  0.0687
 5650SOL    HW128586   2.713   1.099  14.592 -0.5030 -0.0451  0.7833
 5650SOL    HW228587   2.688   1.122  14.450 -2.1494  1.8980 -1.4163
 5651SOL     OW28588   1.917   3.837   7.799 -0.0918 -0.0938  0.2637
 5651SOL    HW128589   2.000   3.873   7.770  1.6472 -3.0086  1.6164
 5651SOL    HW228590   1.879   3.804   7.717 -0.9031  0.6142  0.3510
 5652SOL     OW28591   1.892   1.228  12.791  0.7103  0.9277 -0.0365
 5652SOL    HW128592   1.890   1.152  12.849  0.3789  1.6939  0.9684
 5652SOL    HW228593   1.797   1.236  12.785  0.6103  1.0559  1.5238
 5653SOL     OW28594   0.242   0.333  14.043  0.4991  0.1591  0.8251
 5653SOL    HW128595   0.320   0.356  13.994  2.4177 -1.5018  3.0870
 5653SOL    HW228596   0.208   0.259  13.992 -0.1730  1.5846 -0.7784
 5654SOL     OW28597   3.987   4.095   3.040  0.3840  0.0285  0.0170
 5654SOL    HW128598   4.019   4.183   3.018 -1.0602 -0.4348 -4.0004
 5654SOL    HW228599   4.022   4.041   2.970 -0.6504 -1.7403  0.8703
 5655SOL     OW28600   2.016   4.038   8.589  0.1653 -0.6209  0.0537
 5655SOL    HW128601   1.988   4.090   8.513  3.0393  1.6616  0.5584
 5655SOL    HW228602   2.032   4.112   8.647  1.8190 -1.4046  0.5967
 5656SOL     OW28603   3.529   0.412  14.900 -0.4261 -0.0881  0.1430
 5656SOL    HW128604   3.509   0.419  14.806  2.6373  2.5717 -0.2977
 5656SOL    HW228605   3.594   0.343  14.896 -1.7345 -1.1275 -4.1549
 5657SOL     OW28606   1.946   1.022   0.034  0.3706 -0.5688  0.3454
 5657SOL    HW128607   2.018   1.082   0.057  1.0411 -1.1205 -0.3061
 5657SOL    HW228608   2.000   0.956  17.738 -0.1339 -1.3715  0.9563
 5658SOL     OW28609   1.694   1.743  10.654 -0.3551 -0.8395  0.2520
 5658SOL    HW128610   1.762   1.811  10.649 -0.2470 -1.0412 -1.2580
 5658SOL    HW228611   1.736   1.689  10.721 -1.7714 -2.1304  0.0831
 5659SOL     OW28612   0.026   0.570   6.299  0.3211 -0.1107 -0.2420
 5659SOL    HW128613   0.076   0.489   6.309  0.7986  0.3530  1.0415
 5659SOL    HW228614   4.675   0.543   6.275  0.6363 -0.9345 -0.4872
 5660SOL     OW28615   2.465   3.955   0.800  0.5057  0.7266  0.5020
 5660SOL    HW128616   2.532   3.962   0.732  1.6132 -2.9534  1.2242
 5660SOL    HW228617   2.450   4.044   0.831  1.2282  0.3778  1.8684
 5661SOL     OW28618   4.174   3.196  10.103 -0.1612  0.0821 -0.0322
 5661SOL    HW128619   4.091   3.204  10.150 -0.9707  0.3450 -1.4896
 5661SOL    HW228620   4.155   3.241  10.020 -0.5917  1.0636  0.5986
 5662SOL     OW28621   2.862   1.312  17.554 -0.7677  0.3371 -0.1051
 5662SOL    HW128622   2.858   1.259  17.475  0.9681 -1.0521  0.7253
 5662SOL    HW228623   2.957   1.302  17.562 -1.1771 -1.3188  2.8690
 5663SOL     OW28624   1.201   0.394   4.297  0.2641  0.1447 -0.4466
 5663SOL    HW128625   1.293   0.369   4.292  0.6632  1.3328  0.9835
 5663SOL    HW228626   1.197   0.460   4.228  0.4483  0.1304 -0.4706
 5664SOL     OW28627   0.631   0.998   9.533 -0.3671  0.2183  0.2326
 5664SOL    HW128628   0.659   0.953   9.613 -0.1882  0.0587  0.0793
 5664SOL    HW228629   0.702   0.969   9.476 -1.2306 -1.4979  0.0447
 5665SOL     OW28630   4.509   2.988   1.524 -0.3455 -0.2450 -0.0336
 5665SOL    HW128631   4.491   3.081   1.540 -0.7543 -0.4216  0.5581
 5665SOL    HW228632   4.578   2.964   1.585  1.1460  0.5512 -1.4358
 5666SOL     OW28633   4.032   4.598   4.612 -0.2331  0.1067  0.5912
 5666SOL    HW128634   4.008   4.633   4.527 -2.0602 -1.1815  0.5768
 5666SOL    HW228635   3.941   4.589   4.640 -0.2995  0.6325  0.5297
 5667SOL     OW28636   3.137   4.497  10.779 -0.0812 -0.2296 -0.0810
 5667SOL    HW128637   3.098   4.585  10.782 -1.6612 -0.9210 -0.4131
 5667SOL    HW228638   3.065   4.452  10.734 -1.0485 -0.4280  1.6840
 5668SOL     OW28639   0.169   3.115   5.601 -0.3047  0.0726 -0.3610
 5668SOL    HW128640   0.135   3.056   5.534 -0.0225  0.3872 -0.7758
 5668SOL    HW228641   0.257   3.084   5.622 -0.1323  0.3169 -0.7403
 5669SOL     OW28642   2.536   2.961   7.114 -0.1996  0.0790 -0.2952
 5669SOL    HW128643   2.592   2.885   7.101 -0.4011  0.0291 -0.8919
 5669SOL    HW228644   2.508   2.977   7.024  0.3610 -1.7271 -0.8014
 5670SOL     OW28645   0.170   1.492   8.847 -0.6687 -0.2969 -0.3328
 5670SOL    HW128646   0.200   1.502   8.938 -2.0347  2.3135 -0.1668
 5670SOL    HW228647   0.098   1.554   8.836  0.9928  1.9920  1.6698
 5671SOL     OW28648   4.576   4.133  10.670  0.3696  0.0210 -0.3746
 5671SOL    HW128649   4.601   4.224  10.652  1.3941 -0.3325 -0.7447
 5671SOL    HW228650   4.482   4.139  10.690  0.9007 -0.9111  2.3134
 5672SOL     OW28651   0.331   2.720   1.053 -0.4500 -0.0467 -0.3066
 5672SOL    HW128652   0.278   2.765   0.988  1.5305  1.6196 -0.7652
 5672SOL    HW228653   0.421   2.744   1.033  0.0017 -1.6333 -0.1945
 5673SOL     OW28654   4.717   2.199   3.161 -0.4834 -0.2174 -0.3668
 5673SOL    HW128655   0.053   2.190   3.100  1.9669 -0.5161  2.6426
 5673SOL    HW228656   4.710   2.294   3.174  0.8106 -0.2676  0.5926
 5674SOL     OW28657   2.794   3.583   5.687  0.2631  0.0984 -0.3531
 5674SOL    HW128658   2.838   3.497   5.694 -1.0584 -0.4873  0.7756
 5674SOL    HW228659   2.860   3.630   5.738 -1.0503  0.7126  0.7766
 5675SOL     OW28660   4.680   0.207   6.551 -0.7839  0.2888 -0.0744
 5675SOL    HW128661   4.654   0.236   6.464 -2.2357  0.5369  0.4351
 5675SOL    HW228662   4.609   0.152   6.582 -0.8519  1.1388  1.2875
 5676SOL     OW28663   1.800   2.778   3.201  0.1231  0.4814  0.3416
 5676SOL    HW128664   1.845   2.850   3.157  0.6739 -1.8562 -2.9655
 5676SOL    HW228665   1.872   2.715   3.201  0.7355  1.1555 -2.2882
 5677SOL     OW28666   0.342   4.311   5.101 -0.3575 -0.5694 -0.6289
 5677SOL    HW128667   0.292   4.314   5.019  0.4294 -0.0425 -1.0914
 5677SOL    HW228668   0.275   4.365   5.142 -1.2412 -1.4296 -0.9325
 5678SOL     OW28669   2.297   4.387   1.861 -0.0875 -0.3326 -0.2976
 5678SOL    HW128670   2.341   4.304   1.843 -0.0571 -0.8700  2.1598
 5678SOL    HW228671   2.372   4.446   1.872  0.0043 -0.1514 -1.9201
 5679SOL     OW28672   0.498   3.246   4.046  0.5383 -0.1448  0.1625
 5679SOL    HW128673   0.430   3.181   4.065 -2.0996  2.2744 -0.9952
 5679SOL    HW228674   0.524   3.222   3.957  2.9929 -0.4603  0.9524
 5680SOL     OW28675   0.259   3.253   3.476 -0.0931  0.5517 -0.1165
 5680SOL    HW128676   0.324   3.323   3.484 -2.6117  2.9288  0.0317
 5680SOL    HW228677   0.259   3.233   3.570 -2.0602  2.4007  0.2863
 5681SOL     OW28678   1.317   4.571   9.304  0.2260  0.6460  0.0803
 5681SOL    HW128679   1.234   4.613   9.327  0.9009  1.9654  0.1360
 5681SOL    HW228680   1.374   4.606   9.373  0.4586 -1.3990  0.9317
 5682SOL     OW28681   4.127   2.351   1.783 -0.0556 -0.7638 -0.2200
 5682SOL    HW128682   4.135   2.351   1.688 -2.3040 -0.0047 -0.4143
 5682SOL    HW228683   4.157   2.262   1.802 -2.1732 -1.8137 -1.7751
 5683SOL     OW28684   3.239   3.107   2.563  0.1781 -0.3604  0.2734
 5683SOL    HW128685   3.252   3.155   2.645  1.3079  0.4415 -0.3817
 5683SOL    HW228686   3.160   3.137   2.518 -0.2285 -0.7007  0.7491
 5684SOL     OW28687   1.777   1.166  11.578  0.1783  0.0941  0.7599
 5684SOL    HW128688   1.844   1.171  11.510  0.0150  0.8777  0.6564
 5684SOL    HW228689   1.809   1.221  11.648  2.2719 -1.7338  1.2478
 5685SOL     OW28690   4.445   3.982   3.770  0.1073  0.4172  0.4682
 5685SOL    HW128691   4.419   4.021   3.853 -0.9229 -0.3002  0.4716
 5685SOL    HW228692   4.519   4.036   3.740  0.3875 -1.2032 -1.7356
 5686SOL     OW28693   1.632   1.580   4.160 -0.3538 -0.5275  0.2016
 5686SOL    HW128694   1.686   1.605   4.235 -0.4018  2.0346 -0.6466
 5686SOL    HW228695   1.564   1.534   4.210  1.6604 -0.3872  3.0896
 5687SOL     OW28696   1.216   0.756   3.194 -0.0765 -0.0045 -0.1072
 5687SOL    HW128697   1.276   0.738   3.122  2.2338 -3.1217  2.6044
 5687SOL    HW228698   1.264   0.827   3.237  1.5097 -1.3763  0.3731
 5688SOL     OW28699   3.495   4.462   0.669 -0.9157 -0.1616  0.2299
 5688SOL    HW128700   3.564   4.484   0.732  0.6882 -1.4424 -1.0902
 5688SOL    HW228701   3.519   4.523   0.599 -0.4290 -1.5747 -0.8412
 5689SOL     OW28702   1.061   4.643   4.581  0.0169  0.4104  0.0336
 5689SOL    HW128703   1.064   4.604   4.669 -1.0626  0.5971  0.1508
 5689SOL    HW228704   1.114   4.578   4.534  0.8908  1.6609 -0.7169
 5690SOL     OW28705   3.535   3.898  15.460  0.3153  0.4355 -0.2080
 5690SOL    HW128706   3.534   3.808  15.494 -0.6055 -0.3100 -2.2073
 5690SOL    HW228707   3.490   3.886  15.376 -0.1133  2.9479 -0.3277
 5691SOL     OW28708   4.398   0.899   3.694 -0.0122  0.0270  0.0048
 5691SOL    HW128709   4.354   0.816   3.676 -0.6265  0.3415  0.0543
 5691SOL    HW228710   4.403   0.943   3.609 -5.3280 -1.1082 -0.9252
 5692SOL     OW28711   4.592   3.471  15.991 -0.4040  0.1539 -0.1004
 5692SOL    HW128712   4.576   3.510  15.905  0.1965  0.7572  0.0615
 5692SOL    HW228713   4.520   3.504  16.046  0.8584  2.1648  0.3198
 5693SOL     OW28714   1.423   0.379   4.954  1.5014  0.0565  0.1420
 5693SOL    HW128715   1.373   0.365   4.873 -0.2155  0.5322  1.1227
 5693SOL    HW228716   1.488   0.440   4.918  0.0061  1.9102  0.6027
 5694SOL     OW28717   2.727   1.172  14.935 -0.3586  0.2584 -0.4484
 5694SOL    HW128718   2.690   1.174  15.023 -2.3470  0.2333 -1.2968
 5694SOL    HW228719   2.783   1.095  14.945  0.9369  1.0908 -1.1720
 5695SOL     OW28720   3.667   1.596   5.208 -0.1328  0.4583 -0.1731
 5695SOL    HW128721   3.642   1.571   5.120  1.2480  1.9508 -0.9950
 5695SOL    HW228722   3.707   1.680   5.186  0.5438  1.1137  3.5360
 5696SOL     OW28723   3.083   0.119   4.763 -0.1180  0.3908  0.1532
 5696SOL    HW128724   3.111   0.197   4.716  0.2729  0.4805  0.5437
 5696SOL    HW228725   3.052   0.158   4.844  0.1264  0.6410  0.1242
 5697SOL     OW28726   2.361   1.358   6.208 -0.2232 -0.4656 -0.1799
 5697SOL    HW128727   2.346   1.449   6.184 -4.6299 -0.9828  0.6021
 5697SOL    HW228728   2.425   1.374   6.278 -2.9553  1.1410  1.9405
 5698SOL     OW28729   4.698   0.981   4.643  0.3798  0.5533  0.4905
 5698SOL    HW128730   4.710   0.913   4.576 -0.7112 -0.8159  1.7013
 5698SOL    HW228731   4.609   0.959   4.669  1.3537 -3.2916  0.6561
 5699SOL     OW28732   3.721   4.697   2.981  0.2910  0.2117  0.0683
 5699SOL    HW128733   3.812   4.726   2.986  0.3217 -0.1409  1.6735
 5699SOL    HW228734   3.691   0.040   2.939 -0.3119  0.1214  0.3265
 5700SOL     OW28735   0.174   2.682   5.515  0.1904  0.7347 -0.4711
 5700SOL    HW128736   0.114   2.673   5.589  0.4472  0.7518 -0.2596
 5700SOL    HW228737   0.170   2.592   5.483  0.3438  0.1782  1.0806
 5701SOL     OW28738   3.997   0.413  15.447 -0.0928 -0.4181  0.3349
 5701SOL    HW128739   3.959   0.485  15.398 -0.0456 -1.1292 -0.7437
 5701SOL    HW228740   3.917   0.359  15.448 -0.9953  0.9284  0.0460
 5702SOL     OW28741   2.508   1.663   7.443 -0.2310  0.5170 -0.4720
 5702SOL    HW128742   2.433   1.611   7.471  0.0407  0.2649 -0.2123
 5702SOL    HW228743   2.577   1.650   7.508 -0.9972  3.0473  0.8092
 5703SOL     OW28744   0.477   1.605  10.238 -0.1071 -0.3297 -0.1330
 5703SOL    HW128745   0.538   1.556  10.292  0.7002  1.0334  0.1763
 5703SOL    HW228746   0.440   1.656  10.310  1.2696 -0.1645  0.4431
 5704SOL     OW28747   1.617   2.283   3.679 -0.6467 -0.2594 -0.0983
 5704SOL    HW128748   1.587   2.205   3.633 -0.7321  0.8456 -1.9511
 5704SOL    HW228749   1.626   2.343   3.605  1.3429 -1.9264 -1.2154
 5705SOL     OW28750   0.780   4.073   4.343  0.1525 -0.0936  0.3411
 5705SOL    HW128751   0.722   4.146   4.325 -0.9818 -1.3716 -1.1984
 5705SOL    HW228752   0.850   4.091   4.281 -0.1847 -0.2234 -0.0778
 5706SOL     OW28753   3.634   1.572   6.682 -0.6047 -0.6014  0.2503
 5706SOL    HW128754   3.697   1.621   6.735 -3.0686  1.2051  1.5284
 5706SOL    HW228755   3.661   1.480   6.684 -0.1211 -0.4548  0.6280
 5707SOL     OW28756   4.717   2.211   3.772 -0.5920 -0.3682 -0.3238
 5707SOL    HW128757   0.052   2.217   3.710  0.1735 -3.8944  0.2771
 5707SOL    HW228758   0.007   2.148   3.838 -1.9095 -1.6672 -1.0467
 5708SOL     OW28759   3.962   2.634   8.581  0.4898 -0.5268  0.1701
 5708SOL    HW128760   4.015   2.604   8.507  0.8308 -0.3038  0.3290
 5708SOL    HW228761   4.004   2.602   8.661 -1.5848  0.6297  1.7312
 5709SOL     OW28762   3.252   1.957  14.968  0.5060 -0.6324 -0.2086
 5709SOL    HW128763   3.175   2.013  14.980  0.0251 -1.6528  1.5591
 5709SOL    HW228764   3.257   1.940  14.874  0.7948  1.8708 -0.6494
 5710SOL     OW28765   2.261   3.287   6.740 -0.4114 -0.4724 -0.1611
 5710SOL    HW128766   2.340   3.334   6.766 -0.9922  1.0875 -1.2324
 5710SOL    HW228767   2.218   3.358   6.692 -1.6085  0.6215  2.5268
 5711SOL     OW28768   2.451   4.446   3.704  0.0656 -0.5795  0.2260
 5711SOL    HW128769   2.431   4.355   3.685 -0.6213 -0.3055 -0.3619
 5711SOL    HW228770   2.520   4.436   3.769  1.6813  1.3332 -1.2037
 5712SOL     OW28771   1.702   2.077   5.742 -0.2906  0.6429 -0.0132
 5712SOL    HW128772   1.709   1.990   5.781  0.4886  1.0751  0.8249
 5712SOL    HW228773   1.609   2.094   5.755 -0.2415  1.0278 -0.1598
 5713SOL     OW28774   2.238   3.489  10.022  0.8968  0.2559  0.1505
 5713SOL    HW128775   2.143   3.492  10.034  0.5723 -1.0426 -1.9634
 5713SOL    HW228776   2.255   3.548   9.949  0.3562  0.8158  0.4822
 5714SOL     OW28777   2.227   1.434   1.362 -0.2757  0.3708 -0.2994
 5714SOL    HW128778   2.254   1.525   1.355 -0.0167  0.4079  1.0273
 5714SOL    HW228779   2.159   1.431   1.295  1.9457 -2.0343 -2.4284
 5715SOL     OW28780   3.832   1.804   5.078 -0.3076 -0.3923 -0.2914
 5715SOL    HW128781   3.906   1.864   5.063 -0.4244 -0.2362 -0.2381
 5715SOL    HW228782   3.886   1.728   5.055 -2.0067 -1.2978 -1.2197
 5716SOL     OW28783   2.527   0.470   8.364  0.1922  0.2350  0.0017
 5716SOL    HW128784   2.490   0.460   8.452  0.4462 -2.4959 -0.2186
 5716SOL    HW228785   2.558   0.560   8.377  0.1155 -0.1958  3.1582
 5717SOL     OW28786   3.441   3.085   8.900  0.2763 -0.1269  0.2660
 5717SOL    HW128787   3.378   3.071   8.971  0.9211  2.0279  1.2627
 5717SOL    HW228788   3.429   3.180   8.899  0.1452 -0.1533 -0.9010
 5718SOL     OW28789   0.044   2.238  11.868  0.2244 -0.2560  0.1744
 5718SOL    HW128790   0.001   2.290  11.799  2.2437 -1.0501 -1.6686
 5718SOL    HW228791   0.058   2.155  11.822  0.7606 -0.7638  1.2692
 5719SOL     OW28792   3.429   1.969   1.233  0.5702 -0.2999 -0.6657
 5719SOL    HW128793   3.407   1.963   1.326  0.6978 -0.8816 -0.6733
 5719SOL    HW228794   3.507   2.024   1.240 -0.9979  1.7170  0.9036
 5720SOL     OW28795   3.001   0.502   1.887  0.0657  0.2718  0.7534
 5720SOL    HW128796   3.086   0.459   1.877 -0.4142 -0.6151  0.4400
 5720SOL    HW228797   3.029   0.588   1.916 -1.0636  0.6043  0.8481
 5721SOL     OW28798   3.632   0.681   0.510  0.3518  0.2495  0.5825
 5721SOL    HW128799   3.643   0.742   0.437  1.5776 -1.4256 -0.6124
 5721SOL    HW228800   3.578   0.741   0.562 -0.6025  0.3525 -0.5354
 5722SOL     OW28801   2.114   4.577   6.291  0.1611  0.6290 -0.0586
 5722SOL    HW128802   2.035   4.556   6.241  0.1323 -0.0402  0.2665
 5722SOL    HW228803   2.083   4.569   6.382  1.1783  2.1134  0.4155
 5723SOL     OW28804   4.108   2.482   9.706 -0.0049 -0.5950 -0.1895
 5723SOL    HW128805   4.162   2.475   9.785  0.0017  1.6802  0.0110
 5723SOL    HW228806   4.143   2.407   9.657  0.4302 -0.3632 -0.2374
 5724SOL     OW28807   2.279   1.374   6.717  0.7056 -0.2656 -0.2427
 5724SOL    HW128808   2.269   1.466   6.742  1.3195 -0.1420 -0.4676
 5724SOL    HW228809   2.335   1.379   6.640  0.9193 -3.6069 -0.3072
 5725SOL     OW28810   3.217   0.244   2.409  0.2568 -0.1038 -0.4104
 5725SOL    HW128811   3.257   0.158   2.391 -0.5541 -0.4626 -0.5018
 5725SOL    HW228812   3.217   0.264   2.315 -2.9243 -1.5388 -0.7303
 5726SOL     OW28813   2.783   1.484   4.272 -0.1709 -0.4786  0.6825
 5726SOL    HW128814   2.811   1.564   4.228 -4.0597 -0.2897 -1.4078
 5726SOL    HW228815   2.744   1.522   4.350 -2.2803 -0.1059 -0.5469
 5727SOL     OW28816   0.948   2.272   6.946  0.0460  0.3472 -0.0367
 5727SOL    HW128817   0.919   2.284   6.856  1.9779  2.9415 -0.3049
 5727SOL    HW228818   0.894   2.198   6.976 -0.4545  0.6838 -0.0997
 5728SOL     OW28819   4.161   0.248   3.172  0.1030 -0.3164  0.2099
 5728SOL    HW128820   4.255   0.230   3.162 -0.0428  0.0895 -1.7072
 5728SOL    HW228821   4.159   0.320   3.110  0.1335 -0.0275  0.5447
 5729SOL     OW28822   1.920   2.453   3.987  0.1782 -0.0759  0.3163
 5729SOL    HW128823   1.885   2.437   4.075 -0.4008 -3.7140 -0.5794
 5729SOL    HW228824   1.938   2.362   3.967 -0.1558 -0.2564  0.8393
 5730SOL     OW28825   3.297   0.312   7.517  0.3164 -0.2909  0.2945
 5730SOL    HW128826   3.237   0.242   7.543  0.7260 -0.0167  2.0238
 5730SOL    HW228827   3.342   0.323   7.601  1.4034 -1.3473 -0.1519
 5731SOL     OW28828   2.943   2.081   0.485 -0.1968  0.1974  0.4659
 5731SOL    HW128829   3.021   2.056   0.535 -1.7184 -0.6375  2.4724
 5731SOL    HW228830   2.963   2.018   0.416 -0.1500  0.6294  0.0937
 5732SOL     OW28831   3.721   0.132  17.670  0.2062  0.5716 -0.2398
 5732SOL    HW128832   3.802   0.143  17.619 -0.5907 -0.9743 -1.8592
 5732SOL    HW228833   3.659   0.101  17.603  1.2324 -0.9120 -0.5164
 5733SOL     OW28834   3.119   0.827   5.443 -0.3000  0.1257  0.1771
 5733SOL    HW128835   3.033   0.805   5.479  0.1779 -1.6455  0.2320
 5733SOL    HW228836   3.096   0.918   5.424  0.3626  0.4804  1.0628
 5734SOL     OW28837   1.034   4.350   8.343  1.0323  0.3274  0.5515
 5734SOL    HW128838   0.958   4.312   8.387  0.2126  0.8550 -0.3920
 5734SOL    HW228839   1.033   4.437   8.384 -1.9945  0.8509 -0.6471
 5735SOL     OW28840   3.485   4.478   2.497 -0.5882 -0.1364  0.2560
 5735SOL    HW128841   3.492   4.556   2.551 -0.0178  1.1954 -1.7448
 5735SOL    HW228842   3.424   4.429   2.553  0.7047 -0.1522  1.6270
 5736SOL     OW28843   4.501   3.443   2.766 -0.1911 -0.0716 -0.2065
 5736SOL    HW128844   4.507   3.509   2.698 -1.5237  0.6718  0.3953
 5736SOL    HW228845   4.427   3.388   2.740 -0.8107  0.7493 -0.1542
 5737SOL     OW28846   2.728   2.806   8.057 -0.5049 -0.1379  0.4683
 5737SOL    HW128847   2.765   2.891   8.081 -0.5802 -0.2017  0.8189
 5737SOL    HW228848   2.637   2.833   8.044 -0.5464  0.7706  2.6160
 5738SOL     OW28849   3.709   2.759   2.496 -0.7778 -0.4001  0.9930
 5738SOL    HW128850   3.654   2.817   2.548 -2.0277 -1.8895  1.3244
 5738SOL    HW228851   3.769   2.828   2.468 -2.3527 -0.1631 -1.7678
 5739SOL     OW28852   3.057   2.846   6.866 -0.5020  0.3423  0.6146
 5739SOL    HW128853   3.097   2.798   6.793 -0.1672  1.6559 -0.0714
 5739SOL    HW228854   3.121   2.857   6.936 -1.0984 -2.2014  1.5789
 5740SOL     OW28855   1.373   2.932   5.616  0.0233 -0.6972  0.0994
 5740SOL    HW128856   1.410   2.868   5.676  1.7994  0.9218  0.7531
 5740SOL    HW228857   1.297   2.877   5.599  0.2898 -1.7462  2.3657
 5741SOL     OW28858   2.864   4.733   2.704 -0.2497 -0.1780  0.2006
 5741SOL    HW128859   2.836   0.028   2.789 -2.2778 -0.4173 -0.3885
 5741SOL    HW228860   2.910   0.076   2.679 -0.5452 -0.0991 -0.0936
 5742SOL     OW28861   2.890   2.893   7.339  0.1401 -0.0400 -0.0827
 5742SOL    HW128862   2.965   2.837   7.360 -0.1882 -1.4123 -2.5166
 5742SOL    HW228863   2.928   2.963   7.285 -0.7568 -0.2486 -0.9848
 5743SOL     OW28864   4.619   2.667   5.203  0.0431  0.2032 -0.4432
 5743SOL    HW128865   4.679   2.603   5.165 -0.0068 -1.0276  1.5221
 5743SOL    HW228866   4.675   2.744   5.205 -2.2754  1.8202  1.2062
 5744SOL     OW28867   0.153   2.680  13.784 -0.0042  0.0792  0.2785
 5744SOL    HW128868   0.060   2.702  13.779  0.6462  2.7652 -0.3715
 5744SOL    HW228869   0.146   2.656  13.876  0.7987 -0.0855  0.2890
 5745SOL     OW28870   4.559   1.542   4.297  0.5060  0.3565 -0.2789
 5745SOL    HW128871   4.533   1.533   4.206  0.4794  1.1831 -0.3471
 5745SOL    HW228872   4.526   1.462   4.339  0.0478  0.3390 -0.6845
 5746SOL     OW28873   1.888   3.502  17.062  0.2409 -0.1200 -0.0735
 5746SOL    HW128874   1.828   3.428  17.064  2.0627 -1.6917 -2.6705
 5746SOL    HW228875   1.832   3.574  17.091  0.0495 -0.7040  0.9899
 5747SOL     OW28876   1.074   0.970   4.437 -0.6462 -0.4372  0.2667
 5747SOL    HW128877   1.005   0.942   4.376 -0.7136  0.0140  0.1361
 5747SOL    HW228878   1.112   0.886   4.463  0.5624 -0.0077 -0.1169
 5748SOL     OW28879   0.067   2.172  13.766 -0.7407  0.0750  0.2874
 5748SOL    HW128880   0.151   2.132  13.742  0.1759  1.6286  0.8982
 5748SOL    HW228881   0.054   2.123  13.847  1.8110  2.0397  1.8807
 5749SOL     OW28882   2.379   2.021  16.567 -0.1148 -0.2084  0.3541
 5749SOL    HW128883   2.428   2.035  16.647 -0.3668  0.3267  0.4149
 5749SOL    HW228884   2.297   2.010  16.616  0.7108 -0.6485  1.6145
 5750SOL     OW28885   0.341   0.960   4.507 -0.0168  0.1531 -0.1704
 5750SOL    HW128886   0.290   0.987   4.431  0.0088 -0.6263 -0.4693
 5750SOL    HW228887   0.284   0.991   4.578 -1.5016 -1.2696 -0.7376
 5751SOL     OW28888   0.837   1.698   8.799  0.1130  0.0078 -0.1130
 5751SOL    HW128889   0.788   1.682   8.880  0.0530  1.3020  0.1162
 5751SOL    HW228890   0.764   1.674   8.742 -0.1342  1.7451 -0.5424
 5752SOL     OW28891   4.661   1.627   4.649  0.1577 -0.2021  0.0056
 5752SOL    HW128892   0.012   1.608   4.682 -0.6405  0.3665  2.4408
 5752SOL    HW228893   4.621   1.542   4.633  0.0259  0.1341 -1.4665
 5753SOL     OW28894   0.562   3.797   3.451  0.3341  0.6877  0.0739
 5753SOL    HW128895   0.602   3.876   3.414  0.2104  0.6874 -0.0594
 5753SOL    HW228896   0.498   3.772   3.384 -0.8711  0.1063  1.4338
 5754SOL     OW28897   0.236   1.806   5.315 -0.4079  0.3468 -0.7915
 5754SOL    HW128898   0.172   1.829   5.247 -1.6919 -0.6292  0.0953
 5754SOL    HW228899   0.307   1.767   5.264  0.4710  2.3207 -1.1044
 5755SOL     OW28900   1.754   4.293   2.824 -0.3626  0.6176 -0.1340
 5755SOL    HW128901   1.809   4.370   2.809 -0.0196  0.2633 -0.6916
 5755SOL    HW228902   1.686   4.320   2.886 -0.4402  1.9789 -0.7905
 5756SOL     OW28903   4.677   0.389   4.223  0.5863 -0.0037  0.5097
 5756SOL    HW128904   0.021   0.345   4.247  0.7398 -0.6732 -1.2486
 5756SOL    HW228905   4.625   0.331   4.167  0.1313 -1.2330  2.2181
 5757SOL     OW28906   4.281   1.224   5.950  0.5112 -0.2131  0.3222
 5757SOL    HW128907   4.204   1.216   6.005 -0.2737 -0.3026 -0.7946
 5757SOL    HW228908   4.345   1.274   6.000 -0.1152  0.2541  0.6498
 5758SOL     OW28909   4.302   3.681   8.508 -0.1029  0.4802  0.1373
 5758SOL    HW128910   4.283   3.760   8.457  1.2562  0.9836  0.4057
 5758SOL    HW228911   4.255   3.618   8.454  3.8756 -1.7897 -0.6041
 5759SOL     OW28912   3.752   3.604  12.611 -0.7476 -0.4501 -0.0528
 5759SOL    HW128913   3.795   3.553  12.543 -1.2910  0.4434 -1.0629
 5759SOL    HW228914   3.674   3.554  12.637  0.6129 -2.9936 -0.9105
 5760SOL     OW28915   3.781   3.523   2.677 -0.6596  0.2697  1.0528
 5760SOL    HW128916   3.783   3.480   2.763 -2.2000  1.1036  1.5208
 5760SOL    HW228917   3.758   3.614   2.695  0.2309  0.6812  0.0599
 5761SOL     OW28918   0.437   4.376   4.380 -0.1923  0.3343 -0.2486
 5761SOL    HW128919   0.450   4.298   4.433  1.9116  1.1111  0.3910
 5761SOL    HW228920   0.495   4.377   4.303  0.0346  0.6988 -0.0758
 5762SOL     OW28921   2.183   4.005   8.196 -0.6871  0.4804  0.4389
 5762SOL    HW128922   2.159   4.094   8.223 -0.0397  1.2502 -1.4983
 5762SOL    HW228923   2.206   4.015   8.104 -2.3975  0.1750 -0.0224
 5763SOL     OW28924   2.579   3.853   7.119  0.1182 -0.2384  0.7305
 5763SOL    HW128925   2.637   3.835   7.193  0.7554  1.1281  0.5722
 5763SOL    HW228926   2.540   3.933   7.152  1.0915  0.6738 -0.3329
 5764SOL     OW28927   1.669   0.733   6.264  0.0273  0.1980 -0.0785
 5764SOL    HW128928   1.732   0.719   6.194 -0.1591  2.1968 -0.6359
 5764SOL    HW228929   1.595   0.678   6.240  0.0173  0.1711  0.0111
 5765SOL     OW28930   0.409   1.595  15.530 -0.1671  0.1984  0.3862
 5765SOL    HW128931   0.453   1.547  15.459  0.5572 -2.4849  2.6520
 5765SOL    HW228932   0.345   1.529  15.557 -0.6212  0.0286 -1.0900
 5766SOL     OW28933   3.200   2.744   6.269  0.1108  0.6349 -0.1642
 5766SOL    HW128934   3.156   2.729   6.186  2.1798  1.3735 -1.4074
 5766SOL    HW228935   3.145   2.811   6.310  1.0584  1.0408  0.4412
 5767SOL     OW28936   0.797   2.033   4.543 -0.3935  0.1193 -0.1319
 5767SOL    HW128937   0.806   1.944   4.507  0.6575  0.6754 -1.2454
 5767SOL    HW228938   0.836   2.018   4.629 -3.1415  1.0269  1.2580
 5768SOL     OW28939   2.138   2.894  17.715 -0.1393  0.1398 -0.1199
 5768SOL    HW128940   2.121   2.895   0.063  2.5673 -1.5553  0.3824
 5768SOL    HW228941   2.229   2.915  17.696  0.3442  1.0143  3.1638
 5769SOL     OW28942   4.028   3.071   6.350  0.2563  0.2281 -0.0482
 5769SOL    HW128943   4.106   3.026   6.385 -1.8565 -2.3403  1.3161
 5769SOL    HW228944   4.041   3.060   6.256 -0.1794  4.0530 -0.5184
 5770SOL     OW28945   1.656   1.362   5.649 -0.0256 -0.2231  0.6067
 5770SOL    HW128946   1.662   1.301   5.723  2.0112 -1.0290 -0.2262
 5770SOL    HW228947   1.617   1.316   5.575  0.9655  0.1912 -0.1756
 5771SOL     OW28948   1.546   2.747   4.575 -0.1335  0.0970 -0.6348
 5771SOL    HW128949   1.629   2.794   4.589  0.5422 -1.5493  0.8618
 5771SOL    HW228950   1.507   2.791   4.499 -0.7058  0.5020 -0.1021
 5772SOL     OW28951   4.270   0.145   0.897  0.0217  1.2878 -0.2721
 5772SOL    HW128952   4.326   0.107   0.829 -0.8470 -1.1438  0.3590
 5772SOL    HW228953   4.252   0.232   0.860 -2.6798  1.8600  2.4314
 5773SOL     OW28954   3.996   2.408   9.033  0.0487 -0.4014  0.1247
 5773SOL    HW128955   4.015   2.416   9.126  1.4691  3.2019 -0.4501
 5773SOL    HW228956   3.970   2.316   9.031 -1.4171  0.0696 -1.9601
 5774SOL     OW28957   4.442   2.390   0.100 -0.0461 -0.3647  0.2453
 5774SOL    HW128958   4.382   2.419   0.033  1.5072  3.9590  0.7602
 5774SOL    HW228959   4.480   2.477   0.108 -0.4021 -0.0253 -2.0801
 5775SOL     OW28960   3.355   2.614  17.626  0.2488  0.1827 -0.0857
 5775SOL    HW128961   3.378   2.607  17.533  1.7407 -1.7015  0.4136
 5775SOL    HW228962   3.375   2.707  17.639  0.1534  0.2823 -0.6234
 5776SOL     OW28963   0.523   3.262   7.417  0.1627  0.2766 -0.0138
 5776SOL    HW128964   0.516   3.232   7.326 -0.7499 -2.9894  1.1300
 5776SOL    HW228965   0.514   3.356   7.402  5.4898  1.0077  1.3935
 5777SOL     OW28966   1.683   3.483   1.607 -0.2986 -0.1035  0.2918
 5777SOL    HW128967   1.776   3.505   1.605 -0.9069  2.4758  0.1781
 5777SOL    HW228968   1.644   3.568   1.583 -0.1355 -0.1612 -0.1878
 5778SOL     OW28969   2.580   4.536   1.932  0.3556  1.0239  0.4953
 5778SOL    HW128970   2.658   4.480   1.936 -2.1908 -2.6792 -1.3029
 5778SOL    HW228971   2.608   4.589   1.858 -0.3133  1.3881  0.5065
 5779SOL     OW28972   0.759   1.464   1.102  0.1319  0.6597 -0.6276
 5779SOL    HW128973   0.665   1.479   1.116 -0.1499 -0.5664 -1.1608
 5779SOL    HW228974   0.759   1.392   1.039 -0.3473  1.9438 -2.1038
 5780SOL     OW28975   2.699   4.237  11.667  0.4662 -0.1939 -0.6046
 5780SOL    HW128976   2.611   4.273  11.674 -0.3203 -2.2015 -0.2813
 5780SOL    HW228977   2.695   4.144  11.689  1.4974 -0.1165 -0.0400
 5781SOL     OW28978   1.104   2.138   2.644 -0.0264 -0.1032  0.1362
 5781SOL    HW128979   1.010   2.148   2.659  0.3662  1.9579  1.2585
 5781SOL    HW228980   1.141   2.224   2.665 -3.4430  0.6150  3.1453
 5782SOL     OW28981   2.673   1.169   1.915 -0.5769  0.0430  0.1765
 5782SOL    HW128982   2.629   1.092   1.951 -0.4236 -1.0806 -2.1031
 5782SOL    HW228983   2.600   1.228   1.895 -0.5600 -0.2247 -0.6665
 5783SOL     OW28984   1.412   3.628   7.047  0.1238  0.0947  0.5597
 5783SOL    HW128985   1.449   3.646   7.133  1.9676  1.3188 -0.4877
 5783SOL    HW228986   1.465   3.554   7.018 -2.4918 -0.8766 -1.7827
 5784SOL     OW28987   1.637   0.702   9.186  0.4640 -0.8207  0.0263
 5784SOL    HW128988   1.723   0.682   9.222  1.0602  1.7992  0.0801
 5784SOL    HW228989   1.598   0.760   9.250  0.2901 -0.4782 -0.3863
 5785SOL     OW28990   2.501   4.588   7.002 -1.1474  0.3696 -0.1770
 5785SOL    HW128991   2.528   4.667   7.050 -2.7310 -1.5862  3.9714
 5785SOL    HW228992   2.467   4.529   7.069  1.5841 -0.6028  0.3074
 5786SOL     OW28993   0.181   0.832   8.265 -0.4636 -0.7726  0.2344
 5786SOL    HW128994   0.200   0.739   8.279  0.2844 -0.8792 -1.4410
 5786SOL    HW228995   0.252   0.866   8.319 -0.7477 -1.3820  0.9812
 5787SOL     OW28996   0.418   3.235   8.155  0.4485  0.4436  0.1905
 5787SOL    HW128997   0.344   3.196   8.107  0.9736 -0.9652  0.5297
 5787SOL    HW228998   0.393   3.325   8.134  0.5784  0.9176  2.1219
 5788SOL     OW28999   3.000   3.288   2.566  0.0326 -0.3677  0.0103
 5788SOL    HW129000   2.938   3.284   2.493 -0.2549  2.5355  0.1112
 5788SOL    HW229001   2.940   3.322   2.632 -0.7838 -0.8584 -0.4718
 5789SOL     OW29002   0.345   2.787  13.622  0.4613  0.2505  0.4330
 5789SOL    HW129003   0.340   2.879  13.651  0.0807  0.0543  0.9892
 5789SOL    HW229004   0.284   2.751  13.686 -1.9458  0.4353 -1.7451
 5790SOL     OW29005   0.703   3.371   2.327 -0.4200  0.7723 -0.5228
 5790SOL    HW129006   0.691   3.386   2.233  4.0550  1.6225 -0.9440
 5790SOL    HW229007   0.797   3.360   2.316 -0.4376  3.8490 -3.6948
 5791SOL     OW29008   0.493   3.055  14.973  0.3439 -0.7214  0.2745
 5791SOL    HW129009   0.450   3.084  14.892 -1.1233 -3.1484  0.2049
 5791SOL    HW229010   0.475   3.132  15.027  2.3722  0.5169 -0.8352
 5792SOL     OW29011   0.383   0.991   9.802  0.2615  0.0606  0.5118
 5792SOL    HW129012   0.345   0.962   9.885  0.0792  1.4675  0.9192
 5792SOL    HW229013   0.301   0.984   9.752  1.6840  0.9505 -1.9804
 5793SOL     OW29014   3.031   3.926   3.289 -0.4043 -0.1368  0.3025
 5793SOL    HW129015   3.012   3.899   3.199  1.9899 -1.6338  0.2222
 5793SOL    HW229016   3.078   3.846   3.314  1.1635  1.3479  2.0544
 5794SOL     OW29017   0.653   2.264   8.013  0.2094 -0.5507 -0.2496
 5794SOL    HW129018   0.598   2.313   7.953  0.3253  0.8144  0.7554
 5794SOL    HW229019   0.737   2.249   7.969  0.4733 -3.6825  1.2685
 5795SOL     OW29020   3.176   0.246   7.918 -0.1540 -0.4393 -0.2689
 5795SOL    HW129021   3.168   0.152   7.937 -0.6056 -0.1487  1.0164
 5795SOL    HW229022   3.119   0.276   7.990  1.5071  0.8393  0.5041
 5796SOL     OW29023   2.630   2.697   6.354  0.4457  0.0633  0.2339
 5796SOL    HW129024   2.563   2.730   6.295  1.0568 -0.6322 -0.8615
 5796SOL    HW229025   2.702   2.712   6.292 -0.7267 -0.8118 -1.3453
 5797SOL     OW29026   1.786   1.224  16.820 -0.8340  0.3566  0.6972
 5797SOL    HW129027   1.785   1.309  16.777  0.2742  0.1620  0.3078
 5797SOL    HW229028   1.757   1.249  16.908 -0.1945  0.1997  0.9522
 5798SOL     OW29029   2.301   1.476  14.671  0.2459  0.1887  0.2485
 5798SOL    HW129030   2.385   1.439  14.643  0.8161 -0.5961  3.0458
 5798SOL    HW229031   2.245   1.401  14.691 -0.9882  1.3682  1.1708
 5799SOL     OW29032   0.743   1.736   5.137  0.0811  0.0020 -0.0837
 5799SOL    HW129033   0.789   1.775   5.211 -0.4644  0.3905  0.0529
 5799SOL    HW229034   0.695   1.668   5.184 -0.3672 -1.2019 -2.2469
 5800SOL     OW29035   0.490   0.846   0.215 -0.7124  0.1148 -0.1796
 5800SOL    HW129036   0.410   0.876   0.260 -1.3351 -1.5370 -0.1728
 5800SOL    HW229037   0.541   0.818   0.291  0.4448  3.4048  0.2635
 5801SOL     OW29038   3.958   0.616   3.137  0.5508  0.1878  0.1738
 5801SOL    HW129039   3.989   0.576   3.056  0.9199 -2.1256  1.4525
 5801SOL    HW229040   3.898   0.549   3.171 -0.4543  1.5508  1.0727
 5802SOL     OW29041   1.032   2.592   3.567  0.2112 -0.1773 -0.3736
 5802SOL    HW129042   1.085   2.655   3.616  1.5814 -0.9877 -0.8106
 5802SOL    HW229043   1.005   2.526   3.631  0.1927  0.9693  0.8205
 5803SOL     OW29044   0.531   3.995   4.920  0.3832  0.0946 -0.1919
 5803SOL    HW129045   0.624   3.978   4.937  0.2986  0.8426  1.0319
 5803SOL    HW229046   0.499   3.919   4.969 -1.3223  0.4008 -0.8357
 5804SOL     OW29047   4.385   1.283   6.778  0.5047 -0.1681 -0.4911
 5804SOL    HW129048   4.417   1.241   6.859 -0.2761 -0.0842 -0.1389
 5804SOL    HW229049   4.384   1.374   6.806  2.9478 -0.3220  0.1193
 5805SOL     OW29050   0.007   2.957   3.140 -0.2530  0.2366 -0.3501
 5805SOL    HW129051   4.685   3.005   3.199 -0.6546 -1.1821  0.4219
 5805SOL    HW229052   0.012   3.025   3.074 -0.6650  1.6077  1.0322
 5806SOL     OW29053   1.062   3.761   9.394 -0.4380 -0.1166 -0.0937
 5806SOL    HW129054   1.021   3.687   9.439  1.9613 -0.4415  1.5606
 5806SOL    HW229055   1.121   3.787   9.465  1.3594 -0.3602 -1.4959
 5807SOL     OW29056   1.463   1.594   5.865 -0.0289  0.5977  0.2794
 5807SOL    HW129057   1.385   1.597   5.922  0.7599  1.7720  1.3149
 5807SOL    HW229058   1.518   1.527   5.906 -2.3352 -0.5081  1.5667
 5808SOL     OW29059   3.778   2.590   6.020 -0.2466  0.1026  0.3872
 5808SOL    HW129060   3.826   2.664   6.057  0.3869  0.2753 -0.7931
 5808SOL    HW229061   3.693   2.605   6.062 -1.0492 -0.4390 -1.0462
 5809SOL     OW29062   2.403   2.621   7.123  0.4033 -0.5849  0.7292
 5809SOL    HW129063   2.482   2.610   7.070 -0.4840 -1.1189 -0.5044
 5809SOL    HW229064   2.443   2.625   7.210  3.5762 -0.6552 -0.7059
 5810SOL     OW29065   2.694   3.694  16.709 -0.3679  0.0333  0.4663
 5810SOL    HW129066   2.687   3.603  16.739 -1.0822 -0.0660 -0.0082
 5810SOL    HW229067   2.628   3.694  16.640 -0.1214  1.0980  0.2366
 5811SOL     OW29068   3.521   2.240   6.628 -0.1981 -0.0740 -0.2517
 5811SOL    HW129069   3.476   2.311   6.674  1.1849  0.6229  0.0027
 5811SOL    HW229070   3.572   2.199   6.698  0.5051  0.5602 -0.3955
 5812SOL     OW29071   2.781   0.793  16.996 -0.7394 -0.4515  0.4546
 5812SOL    HW129072   2.828   0.743  17.063 -1.7166  0.4267  1.7932
 5812SOL    HW229073   2.792   0.727  16.928 -1.0283 -0.4222  0.3778
 5813SOL     OW29074   1.301   3.343   0.317 -0.3765  0.4518 -0.2797
 5813SOL    HW129075   1.250   3.301   0.386 -1.0030 -0.5962 -1.3684
 5813SOL    HW229076   1.242   3.418   0.310 -1.3214  0.0702  3.9302
 5814SOL     OW29077   2.341   1.060   9.146 -0.0072 -0.1599  0.2788
 5814SOL    HW129078   2.405   1.062   9.075 -1.2033 -2.1534 -0.8554
 5814SOL    HW229079   2.369   1.119   9.217  0.8467  1.1308 -1.1287
 5815SOL     OW29080   2.144   3.417   5.977  0.1260  0.6168 -0.3939
 5815SOL    HW129081   2.193   3.383   6.052  0.1640  1.4986 -0.0176
 5815SOL    HW229082   2.215   3.407   5.913 -0.3395 -0.3664 -0.7520
 5816SOL     OW29083   0.760   4.563   7.935  0.3437  0.2821  0.1454
 5816SOL    HW129084   0.674   4.534   7.965  0.1401  1.5042  0.7290
 5816SOL    HW229085   0.814   4.516   7.998  2.0020  2.1583  0.1115
 5817SOL     OW29086   0.710   1.628   4.744  0.2317 -0.0229  0.0282
 5817SOL    HW129087   0.798   1.660   4.724 -0.4345  2.1389  0.5389
 5817SOL    HW229088   0.692   1.566   4.673 -1.2735 -0.5027  0.8477
 5818SOL     OW29089   3.133   3.335   7.589  0.4620  0.1968 -0.2854
 5818SOL    HW129090   3.098   3.420   7.616 -0.3205 -0.6434  1.2963
 5818SOL    HW229091   3.052   3.285   7.595  1.2739 -1.2395 -1.2489
 5819SOL     OW29092   3.488   0.546   0.869 -0.1544  0.1457 -0.4997
 5819SOL    HW129093   3.463   0.486   0.798 -0.3996  2.1431 -2.1290
 5819SOL    HW229094   3.422   0.615   0.869 -0.2941  0.0274 -1.9982
 5820SOL     OW29095   3.938   3.749   8.637  0.5639  0.3580 -0.0448
 5820SOL    HW129096   3.958   3.670   8.586  0.5608  0.3328 -0.0068
 5820SOL    HW229097   3.870   3.709   8.691 -0.6443  0.8913 -1.1512
 5821SOL     OW29098   1.923   0.773  12.828  0.4261  0.1952 -0.3709
 5821SOL    HW129099   1.887   0.823  12.901 -0.4385  1.2671 -1.5309
 5821SOL    HW229100   1.903   0.825  12.749 -0.8047 -1.6030 -1.2360
 5822SOL     OW29101   0.312   2.384  13.753  0.3545 -0.1003 -0.2683
 5822SOL    HW129102   0.231   2.333  13.755  0.5261 -0.2769  1.4964
 5822SOL    HW229103   0.287   2.446  13.684 -1.3812  0.5116  0.9313
 5823SOL     OW29104   0.735   2.979   5.673 -0.2233  0.3990 -0.0991
 5823SOL    HW129105   0.810   3.036   5.690  0.2157 -0.2664  0.1658
 5823SOL    HW229106   0.672   3.038   5.631  0.2203 -0.3174 -1.7461
 5824SOL     OW29107   3.066   3.795   6.818 -0.2589 -0.1072 -0.4821
 5824SOL    HW129108   3.084   3.849   6.742 -2.1553  1.0401 -0.1083
 5824SOL    HW229109   2.971   3.797   6.817 -0.2172  2.2043  1.5905
 5825SOL     OW29110   2.965   3.221   6.290 -0.2836  0.5140 -0.4532
 5825SOL    HW129111   3.009   3.304   6.270  0.6636 -0.1949 -1.3215
 5825SOL    HW229112   2.965   3.220   6.386  0.8090  1.3232 -0.4426
 5826SOL     OW29113   1.320   4.532  14.089 -0.3612  0.0228 -0.0965
 5826SOL    HW129114   1.230   4.524  14.058 -0.3972 -4.0873  1.0605
 5826SOL    HW229115   1.353   4.451  14.051  1.2605  2.1755 -3.2973
 5827SOL     OW29116   4.602   3.207   9.693  0.4043  0.3091 -0.1536
 5827SOL    HW129117   4.634   3.183   9.780 -0.8788 -2.1938 -0.3677
 5827SOL    HW229118   4.588   3.302   9.689 -3.2248 -0.1843  0.4135
 5828SOL     OW29119   3.868   2.106   5.838 -0.6066 -0.5895 -0.0005
 5828SOL    HW129120   3.909   2.178   5.791  0.8624 -0.6838  1.1455
 5828SOL    HW229121   3.805   2.162   5.883  0.9639 -0.4136  1.9632
 5829SOL     OW29122   4.675   2.984  13.137 -0.0476  0.5368 -0.0440
 5829SOL    HW129123   4.734   3.033  13.195  0.6602  1.0371 -1.1758
 5829SOL    HW229124   4.635   2.918  13.193  0.9300  1.9495  2.3328
 5830SOL     OW29125   2.547   4.646   4.240 -0.1620  0.0827 -0.3873
 5830SOL    HW129126   2.492   4.603   4.174  0.0260 -1.8073  0.7176
 5830SOL    HW229127   2.586   4.570   4.282  0.7613  1.3850  1.1064
 5831SOL     OW29128   0.410   1.289   7.472 -0.1757 -0.2609  0.1542
 5831SOL    HW129129   0.447   1.377   7.476  0.5976 -0.5711 -0.1262
 5831SOL    HW229130   0.425   1.264   7.563 -0.8135 -0.4293  0.2122
 5832SOL     OW29131   4.543   1.988  15.264 -0.5492 -0.2051  0.4331
 5832SOL    HW129132   4.508   1.986  15.175 -0.9225  2.1938  0.5209
 5832SOL    HW229133   4.535   1.895  15.285 -0.3067 -0.8576 -2.4164
 5833SOL     OW29134   1.073   2.679   9.496 -0.4740 -0.2719 -0.2722
 5833SOL    HW129135   1.123   2.698   9.575  0.1035 -0.1669 -0.6650
 5833SOL    HW229136   1.113   2.734   9.429  1.6719 -2.2374 -0.6257
 5834SOL     OW29137   2.215   3.198   7.189 -0.1774 -0.5227 -0.1729
 5834SOL    HW129138   2.149   3.129   7.188 -0.0601 -0.6431  0.8631
 5834SOL    HW229139   2.178   3.266   7.133 -1.0213 -1.3790 -0.6519
 5835SOL     OW29140   4.549   2.978   7.091 -0.0033  0.0544 -0.2966
 5835SOL    HW129141   4.557   3.073   7.078 -2.2745  0.3337  0.2694
 5835SOL    HW229142   4.642   2.954   7.088 -0.6615 -2.4121 -0.9270
 5836SOL     OW29143   2.538   3.528  10.379  0.7253 -0.4687 -0.1557
 5836SOL    HW129144   2.566   3.543  10.288 -1.2980 -0.3819 -0.7667
 5836SOL    HW229145   2.586   3.599  10.422 -1.2264  0.8577 -0.1483
 5837SOL     OW29146   4.551   3.556   5.921  0.0963 -0.3935 -0.6460
 5837SOL    HW129147   4.613   3.573   5.850 -1.9694  1.4614 -2.0079
 5837SOL    HW229148   4.485   3.625   5.911  0.7550  0.4478  0.9055
 5838SOL     OW29149   3.069   0.198   4.206  0.6610  0.6619 -0.3230
 5838SOL    HW129150   3.108   0.239   4.283  0.4391 -0.5105  0.4145
 5838SOL    HW229151   2.991   0.250   4.187  0.5781  1.0709  1.1536
 5839SOL     OW29152   2.843   4.249   6.253 -0.0175 -0.2639 -0.1219
 5839SOL    HW129153   2.828   4.323   6.312  0.1244  0.0246 -0.4485
 5839SOL    HW229154   2.776   4.192   6.291 -0.2057 -1.0156 -1.6075
 5840SOL     OW29155   3.189   0.479  13.185  0.3554  0.4710  0.2497
 5840SOL    HW129156   3.184   0.386  13.166 -0.3684  0.5108  0.2712
 5840SOL    HW229157   3.244   0.472  13.264 -0.1514 -2.3651  0.3292
 5841SOL     OW29158   2.523   0.790  17.574 -0.1419  0.1567  0.0161
 5841SOL    HW129159   2.498   0.717  17.630  0.9917  0.5935  1.0985
 5841SOL    HW229160   2.562   0.852  17.636  0.6028 -2.0867  1.7838
 5842SOL     OW29161   1.113   0.310   1.375 -0.0756  0.0893 -0.2423
 5842SOL    HW129162   1.093   0.221   1.348  0.2741  0.0690 -0.4189
 5842SOL    HW229163   1.193   0.305   1.427 -0.6044 -0.3253  0.5500
 5843SOL     OW29164   4.501   4.552  17.274 -0.0694  0.1176 -0.2093
 5843SOL    HW129165   4.475   4.559  17.183  0.6109  0.0188 -0.4123
 5843SOL    HW229166   4.416   4.528  17.311  0.5259 -0.4059  0.8466
 5844SOL     OW29167   0.105   3.775   9.787  0.2140  0.3650 -0.7369
 5844SOL    HW129168   0.160   3.854   9.789 -0.3771  0.7693 -0.5608
 5844SOL    HW229169   0.044   3.791   9.859 -1.1471 -0.0739 -1.8034
 5845SOL     OW29170   3.347   4.217   1.537 -0.1146  0.2777  0.2060
 5845SOL    HW129171   3.251   4.211   1.529 -0.1339  2.0073 -0.9192
 5845SOL    HW229172   3.358   4.197   1.630  0.9821  2.3810  0.5130
 5846SOL     OW29173   2.813   0.775   7.842 -0.3053 -0.6617  0.0163
 5846SOL    HW129174   2.778   0.862   7.819  2.0694  0.3073  0.1321
 5846SOL    HW229175   2.857   0.753   7.760  2.6581  1.9433  0.9137
 5847SOL     OW29176   0.664   3.862   5.230 -0.5912 -0.4609  0.2379
 5847SOL    HW129177   0.747   3.829   5.264  1.6693  4.4433 -0.5189
 5847SOL    HW229178   0.649   3.949   5.267 -0.7293 -0.1184 -0.6208
 5848SOL     OW29179   3.196   4.676   3.783  0.2320  0.3085  0.0249
 5848SOL    HW129180   3.133   4.640   3.721 -0.8311 -0.8775  1.8064
 5848SOL    HW229181   3.141   4.697   3.859  0.0498 -0.8742  0.2113
 5849SOL     OW29182   0.471   2.871   6.279 -0.2373 -0.0231 -0.0091
 5849SOL    HW129183   0.421   2.903   6.354 -0.1473 -1.3384  0.6158
 5849SOL    HW229184   0.400   2.877   6.215 -0.0061  0.2926 -0.2357
 5850SOL     OW29185   0.553   2.541   7.447  0.1342 -0.1438  0.1014
 5850SOL    HW129186   0.497   2.616   7.426 -0.4255  0.1473  2.5835
 5850SOL    HW229187   0.490   2.472   7.469  0.3818  0.0444  1.4307
 5851SOL     OW29188   2.895   2.951   6.689  0.4209  0.2487 -0.3687
 5851SOL    HW129189   2.952   3.007   6.638 -3.0523  4.0096 -0.1100
 5851SOL    HW229190   2.946   2.914   6.761 -0.9194 -2.6619 -0.8835
 5852SOL     OW29191   1.021   0.961   3.062 -0.2679  0.2330 -0.6338
 5852SOL    HW129192   1.064   0.918   3.136  2.1349 -0.5442 -2.4959
 5852SOL    HW229193   0.988   1.043   3.100 -2.4493 -0.9275 -0.0330
 5853SOL     OW29194   4.097   3.010   2.669 -0.2224 -0.1210 -0.0605
 5853SOL    HW129195   4.035   2.964   2.614  1.9796 -2.4222 -0.6486
 5853SOL    HW229196   4.160   2.939   2.684 -1.2122 -0.8605  0.5435
 5854SOL     OW29197   0.945   4.164   3.637 -0.0817  0.7676  0.1371
 5854SOL    HW129198   0.901   4.228   3.694  0.9798  1.9420 -0.3584
 5854SOL    HW229199   1.005   4.127   3.701 -0.0991  1.2719  0.4455
 5855SOL     OW29200   0.999   2.053  16.530  0.4148 -0.2145  0.3322
 5855SOL    HW129201   1.047   1.999  16.592  0.1352  1.9766  2.4162
 5855SOL    HW229202   1.029   2.139  16.559 -0.6631  0.1736  0.2989
 5856SOL     OW29203   2.063   2.066   8.193 -0.3314  0.1006  0.4061
 5856SOL    HW129204   2.076   2.066   8.098 -2.7483 -0.9226  0.0649
 5856SOL    HW229205   1.978   2.108   8.207 -0.2166  0.6581 -0.5883
 5857SOL     OW29206   2.557   3.808   2.221 -0.0534  0.5690 -0.4772
 5857SOL    HW129207   2.604   3.871   2.275 -1.2773 -0.3084  1.6359
 5857SOL    HW229208   2.475   3.857   2.215 -0.4088 -0.0192 -0.4541
 5858SOL     OW29209   0.461   2.817   4.332  0.1691 -0.1205 -0.2900
 5858SOL    HW129210   0.525   2.887   4.344 -0.1591  0.4826 -2.1364
 5858SOL    HW229211   0.451   2.821   4.237 -1.9988 -0.0047 -0.0482
 5859SOL     OW29212   3.913   3.413  10.552 -0.1784 -0.4402 -0.4575
 5859SOL    HW129213   3.970   3.447  10.482 -0.6430 -1.9117 -1.5367
 5859SOL    HW229214   3.830   3.456  10.531 -0.7364 -1.3831 -0.1845
 5860SOL     OW29215   1.186   1.316   3.319 -0.1507 -0.2041 -0.3767
 5860SOL    HW129216   1.153   1.399   3.284 -0.0275  0.3223  0.7615
 5860SOL    HW229217   1.280   1.331   3.311 -0.4699  2.3146  0.5583
 5861SOL     OW29218   0.178   3.421  13.541 -0.0884  0.2463 -0.2380
 5861SOL    HW129219   0.243   3.374  13.490  0.5518  1.0332 -0.1573
 5861SOL    HW229220   0.140   3.473  13.470  1.9953  2.5651  0.3347
 5862SOL     OW29221   2.250   2.483   4.441 -0.3885 -0.2636  0.1554
 5862SOL    HW129222   2.268   2.513   4.351  0.2767  1.6469  0.9247
 5862SOL    HW229223   2.176   2.426   4.422 -0.2607 -0.0794 -0.9289
 5863SOL     OW29224   2.326   3.542   4.956 -0.0819  0.2476  0.5429
 5863SOL    HW129225   2.335   3.537   5.051  3.2119  1.6767  0.3045
 5863SOL    HW229226   2.420   3.556   4.942  0.5316 -3.2752  1.2007
 5864SOL     OW29227   4.061   4.296  11.166 -0.1680 -0.2686 -0.4429
 5864SOL    HW129228   4.054   4.329  11.076  0.4460  0.9438 -0.0366
 5864SOL    HW229229   4.132   4.231  11.161  0.2231  0.2147 -1.1814
 5865SOL     OW29230   3.091   4.648   8.742 -0.4434 -0.6600  0.1243
 5865SOL    HW129231   3.074   4.713   8.673 -0.4314 -1.1773 -0.3713
 5865SOL    HW229232   3.133   4.582   8.687 -1.1865  0.1990 -1.4940
 5866SOL     OW29233   1.787   3.366  13.004 -0.0323 -0.0493 -0.2529
 5866SOL    HW129234   1.856   3.353  13.069  0.1648  0.3340 -0.3858
 5866SOL    HW229235   1.768   3.277  12.972 -2.7568  0.4725 -0.0762
 5867SOL     OW29236   1.452   1.268  12.608  0.2253  0.1782 -0.0799
 5867SOL    HW129237   1.424   1.333  12.544 -3.5407 -1.6316 -0.3069
 5867SOL    HW229238   1.388   1.198  12.596 -0.4322  1.0888 -1.7781
 5868SOL     OW29239   3.839   1.077  12.483  0.2225  0.0761 -0.3274
 5868SOL    HW129240   3.852   1.011  12.551  0.3806 -0.8148 -1.2283
 5868SOL    HW229241   3.904   1.146  12.495  1.5143 -1.1221 -0.5552
 5869SOL     OW29242   4.612   3.350   6.107  0.3879  0.6430  0.1948
 5869SOL    HW129243   4.578   3.425   6.059  1.4540 -0.3295 -2.1068
 5869SOL    HW229244   4.532   3.299   6.118  0.4933  1.0789  2.8959
 5870SOL     OW29245   2.579   2.781   9.566 -0.1235  0.7294 -0.0858
 5870SOL    HW129246   2.608   2.870   9.587 -0.6774  0.3229  2.4226
 5870SOL    HW229247   2.494   2.787   9.609  0.0308  4.1673 -0.2428
 5871SOL     OW29248   3.273   1.451   7.927  0.7988  0.2188 -0.1840
 5871SOL    HW129249   3.357   1.496   7.929  1.3109 -0.7532  0.1287
 5871SOL    HW229250   3.252   1.454   8.020  1.0743  2.9413 -0.2152
 5872SOL     OW29251   3.761   4.609   6.675 -0.0852  0.1269 -0.0422
 5872SOL    HW129252   3.811   4.578   6.750 -1.7360  0.3390  1.1498
 5872SOL    HW229253   3.766   4.538   6.611 -3.1158  0.6624 -0.8612
 5873SOL     OW29254   4.591   3.855  10.435  0.1768  0.0286  0.4940
 5873SOL    HW129255   4.552   3.797  10.500 -1.5732  1.1480  0.4366
 5873SOL    HW229256   4.539   3.935  10.438 -1.6138 -1.1628  0.8815
 5874SOL     OW29257   1.495   1.700   2.977 -0.2846 -0.8335 -0.0850
 5874SOL    HW129258   1.431   1.670   2.912  0.9013 -2.8287 -0.3520
 5874SOL    HW229259   1.549   1.621   2.988  1.0660  0.1857  0.6047
 5875SOL     OW29260   3.122   2.794   1.741  0.1650  0.3345  0.0726
 5875SOL    HW129261   3.087   2.718   1.789 -1.3412 -0.2172 -1.9068
 5875SOL    HW229262   3.049   2.833   1.694 -1.6947 -2.6200  0.4706
 5876SOL     OW29263   0.629   0.022   7.124 -0.7670  0.2823 -0.1782
 5876SOL    HW129264   0.684   0.020   7.045  2.2067  0.9750  1.8629
 5876SOL    HW229265   0.584   0.106   7.110  0.4975  1.0469  0.3414
 5877SOL     OW29266   2.829   2.745   6.166  0.4481 -0.0312 -0.0926
 5877SOL    HW129267   2.886   2.816   6.195  0.2659 -0.1003  0.4326
 5877SOL    HW229268   2.848   2.739   6.072 -0.9599  2.4057 -0.5477
 5878SOL     OW29269   3.915   0.036   5.553 -0.8789 -0.1771 -0.2834
 5878SOL    HW129270   3.928   0.001   5.465  2.7877 -1.4745  0.7985
 5878SOL    HW229271   3.906   4.697   5.611 -0.8196 -1.5817 -2.1326
 5879SOL     OW29272   0.850   3.089   8.895 -0.3666 -0.3826  0.4657
 5879SOL    HW129273   0.846   3.064   8.802  1.5438  2.8716 -0.4805
 5879SOL    HW229274   0.818   3.007   8.933  0.4193 -2.1454 -2.6233
 5880SOL     OW29275   0.597   1.661  15.705 -0.0144  0.4426  0.1043
 5880SOL    HW129276   0.629   1.743  15.669  2.3830 -0.3071  0.5588
 5880SOL    HW229277   0.521   1.652  15.647 -1.1376  1.4534  1.4072
 5881SOL     OW29278   2.415   4.067   4.938 -0.4158  0.0880  1.0239
 5881SOL    HW129279   2.440   4.140   4.881 -1.6371  0.1522  0.5559
 5881SOL    HW229280   2.367   4.012   4.876  0.1517  1.1670 -0.3793
 5882SOL     OW29281   4.561   4.157   5.603 -0.1315 -0.5802 -0.0065
 5882SOL    HW129282   4.530   4.148   5.693  2.0452 -0.2785  0.7622
 5882SOL    HW229283   4.518   4.237   5.575 -1.3275 -0.0618  3.2937
 5883SOL     OW29284   1.132   2.170   3.104 -0.2125  0.0061  0.2241
 5883SOL    HW129285   1.075   2.128   3.041 -0.6474  0.5077  0.2831
 5883SOL    HW229286   1.156   2.094   3.157  1.9766  0.4243 -0.1351
 5884SOL     OW29287   2.919   0.538   5.284  0.2376 -0.0199 -0.6315
 5884SOL    HW129288   2.855   0.569   5.219  0.8812  0.9240 -0.8029
 5884SOL    HW229289   2.986   0.605   5.271 -0.6231  1.3517  2.1478
 5885SOL     OW29290   1.213   2.470  16.302 -0.4864  0.3898  0.4599
 5885SOL    HW129291   1.213   2.558  16.264 -1.0639  0.0814 -0.2455
 5885SOL    HW229292   1.188   2.483  16.394  1.6571  0.7655  0.9904
 5886SOL     OW29293   1.274   2.458  13.868  0.0620 -0.3295  0.0586
 5886SOL    HW129294   1.294   2.367  13.893  1.1825  0.4029  1.8671
 5886SOL    HW229295   1.273   2.444  13.774 -0.7018 -0.6500  0.1175
 5887SOL     OW29296   4.104   1.500  13.560  0.0699 -0.2580 -0.6389
 5887SOL    HW129297   4.099   1.404  13.570  1.5086 -0.2861 -0.2362
 5887SOL    HW229298   4.127   1.494  13.467 -0.1555 -2.2130 -0.5753
 5888SOL     OW29299   3.348   3.009  14.658  0.2091 -0.3210 -0.3725
 5888SOL    HW129300   3.369   3.096  14.690  1.0541 -0.1225 -1.4655
 5888SOL    HW229301   3.284   3.032  14.590 -2.4459 -0.1547  2.1818
 5889SOL     OW29302   0.503   0.497   7.992  1.0554  0.2862  0.5535
 5889SOL    HW129303   0.503   0.477   8.085  0.3671 -1.4768  0.1861
 5889SOL    HW229304   0.491   0.408   7.958 -1.0603  0.6763  0.2871
 5890SOL     OW29305   2.508   2.032  13.627 -0.3518  0.1150  0.1032
 5890SOL    HW129306   2.477   2.102  13.569  2.8187 -0.0113 -1.7662
 5890SOL    HW229307   2.479   2.062  13.713 -0.5868 -1.4468  0.5684
 5891SOL     OW29308   0.522   3.890  16.727  0.2474  0.1357  0.7634
 5891SOL    HW129309   0.561   3.954  16.786  0.2450  0.4915  0.3819
 5891SOL    HW229310   0.447   3.853  16.774 -0.2981  1.1615  0.6939
 5892SOL     OW29311   4.125   4.269   8.933  0.2308  0.5409  0.0115
 5892SOL    HW129312   4.197   4.296   8.990  0.3910 -0.0464  0.0793
 5892SOL    HW229313   4.062   4.245   9.000  1.8459  0.4148  1.4678
 5893SOL     OW29314   0.063   2.444   9.083  0.5364 -0.1574 -0.1604
 5893SOL    HW129315   0.040   2.351   9.095 -1.7086  0.5612  1.0431
 5893SOL    HW229316   0.061   2.471   9.175 -0.8256 -1.2285  0.1318
 5894SOL     OW29317   4.620   2.567   6.670 -0.1841 -0.1374  0.9175
 5894SOL    HW129318   4.622   2.655   6.631  2.5418 -0.5931  0.0952
 5894SOL    HW229319   4.707   2.560   6.708  0.6465 -1.1595 -1.1850
 5895SOL     OW29320   2.489   3.838   5.108 -0.3704  0.1025  0.0175
 5895SOL    HW129321   2.515   3.903   5.043  1.7313 -0.6618  0.0923
 5895SOL    HW229322   2.441   3.894   5.169 -0.9302  1.2003 -1.4518
 5896SOL     OW29323   3.373   4.293  11.386 -0.0537  0.4486  0.4582
 5896SOL    HW129324   3.411   4.353  11.450  0.2056  0.6641  0.1020
 5896SOL    HW229325   3.282   4.314  11.407 -0.3329  0.0950 -0.4015
 5897SOL     OW29326   4.269   0.644  15.176  0.7680 -0.1740 -0.1072
 5897SOL    HW129327   4.220   0.638  15.094 -0.1996 -0.8709  0.5235
 5897SOL    HW229328   4.293   0.552  15.191  0.1984 -0.2804  0.1469
 5898SOL     OW29329   0.283   2.110  13.262 -0.6383  0.2481 -0.0152
 5898SOL    HW129330   0.351   2.045  13.278  0.0287  0.8371 -0.4669
 5898SOL    HW229331   0.321   2.168  13.327 -0.1757 -0.3947  0.2959
 5899SOL     OW29332   2.715   0.328   8.200 -0.1393 -0.7392  0.2386
 5899SOL    HW129333   2.630   0.359   8.233  0.5656  0.3363  1.0511
 5899SOL    HW229334   2.751   0.414   8.178 -1.0197 -0.5812 -0.5858
 5900SOL     OW29335   4.144   0.383   2.389 -0.0376  0.1934  0.3535
 5900SOL    HW129336   4.114   0.294   2.370 -0.6863  0.9104 -2.0595
 5900SOL    HW229337   4.076   0.439   2.352 -0.2675 -1.2616 -1.4417
 5901SOL     OW29338   0.298   2.708   3.745  0.2113  0.7079 -0.7671
 5901SOL    HW129339   0.278   2.616   3.763  1.3445  0.8479  1.3107
 5901SOL    HW229340   0.303   2.722   3.651  1.8080 -0.5521 -0.8726
 5902SOL     OW29341   4.024   3.974   6.899 -0.0863  0.6441 -0.2195
 5902SOL    HW129342   3.967   4.026   6.956 -0.6739  0.6349 -0.7994
 5902SOL    HW229343   4.054   4.045   6.843  1.4241  1.2167  1.3111
 5903SOL     OW29344   0.438   2.275  17.248  0.4345 -0.3214  0.4430
 5903SOL    HW129345   0.492   2.349  17.221  0.6166  0.5094  3.0636
 5903SOL    HW229346   0.376   2.271  17.176  0.4882 -0.4972  0.4066
 5904SOL     OW29347   3.335   2.513   6.368  0.1440 -0.1943  0.4488
 5904SOL    HW129348   3.289   2.432   6.344  0.4787  0.5320 -2.7245
 5904SOL    HW229349   3.285   2.583   6.327  2.0855  1.0467  0.1976
 5905SOL     OW29350   0.120   0.303   8.479 -0.4836 -0.2361  0.1525
 5905SOL    HW129351   0.112   0.348   8.563 -1.1743  1.5592 -0.8726
 5905SOL    HW229352   0.041   0.250   8.492 -0.4819 -0.4377 -0.6635
 5906SOL     OW29353   1.234   1.803  10.349  0.5709 -0.3038  0.6423
 5906SOL    HW129354   1.188   1.885  10.333 -1.9688 -2.0929 -1.3273
 5906SOL    HW229355   1.208   1.800  10.441 -1.8218 -1.2333 -0.0497
 5907SOL     OW29356   4.229   4.495   8.470 -0.4943  0.4884  0.0907
 5907SOL    HW129357   4.177   4.568   8.503 -0.5222  1.1956 -1.4995
 5907SOL    HW229358   4.179   4.460   8.396 -1.5442 -2.5733  2.2596
 5908SOL     OW29359   1.425   4.408   9.106 -0.0307  0.3918 -0.6259
 5908SOL    HW129360   1.378   4.447   9.180  0.0343 -1.4151  0.3728
 5908SOL    HW229361   1.370   4.331   9.091 -0.6134  0.7872 -0.5270
 5909SOL     OW29362   0.421   1.102   3.062 -1.0402 -0.0489 -0.0118
 5909SOL    HW129363   0.423   1.083   2.969  1.5619 -0.4093  0.1202
 5909SOL    HW229364   0.366   1.029   3.092 -1.4840  0.3670  0.1909
 5910SOL     OW29365   1.177   0.328   1.739  0.1072 -0.0106 -0.6558
 5910SOL    HW129366   1.239   0.274   1.689  0.1728 -1.8829  1.4318
 5910SOL    HW229367   1.191   0.292   1.827 -0.4206 -0.5614 -0.7912
 5911SOL     OW29368   4.284   0.645   3.638 -0.1675 -0.3516 -0.2924
 5911SOL    HW129369   4.325   0.613   3.718 -2.7599 -1.9755  0.3700
 5911SOL    HW229370   4.302   0.577   3.572  1.2772 -1.4859  1.2785
 5912SOL     OW29371   0.005   1.829  12.140 -0.3285 -0.2115 -0.4773
 5912SOL    HW129372   0.004   1.910  12.191 -1.1183 -0.3856 -0.2263
 5912SOL    HW229373   4.726   1.858  12.050  0.1272 -1.3451 -0.9324
 5913SOL     OW29374   2.301   0.071   9.090  0.4044 -0.2949 -0.3821
 5913SOL    HW129375   2.350   0.043   9.168 -0.8283 -2.7726 -0.5024
 5913SOL    HW229376   2.354   0.030   9.022  1.2100  0.4050 -0.1729
 5914SOL     OW29377   4.360   4.058  10.328  0.1402 -0.1286  0.2692
 5914SOL    HW129378   4.311   4.107  10.394 -0.7741  1.6546 -1.7330
 5914SOL    HW229379   4.401   4.133  10.283  0.3586  0.9980  2.3270
 5915SOL     OW29380   4.389   2.854   6.701 -0.2706 -0.0157 -0.1686
 5915SOL    HW129381   4.482   2.869   6.718 -0.7031  1.5544  0.7945
 5915SOL    HW229382   4.361   2.930   6.651 -1.1110 -0.5803 -0.5383
 5916SOL     OW29383   4.384   0.997  13.498 -0.5728  0.0861  0.7310
 5916SOL    HW129384   4.412   1.002  13.407  0.4410  1.2270  1.1050
 5916SOL    HW229385   4.444   0.936  13.540  1.2519  1.1929 -0.2584
 5917SOL     OW29386   4.577   4.506   7.428  0.2147  0.3027 -0.1790
 5917SOL    HW129387   4.559   4.537   7.339 -0.0376  0.7540  0.0235
 5917SOL    HW229388   4.512   4.557   7.477  0.0028  0.5736 -0.7335
 5918SOL     OW29389   3.237   4.587  16.854 -0.2252 -0.2177 -0.2501
 5918SOL    HW129390   3.172   4.520  16.835 -1.2010  0.2651  1.3150
 5918SOL    HW229391   3.201   4.671  16.825  0.4093 -0.0204 -0.4711
 5919SOL     OW29392   1.301   2.580   8.870 -0.0261 -0.2378 -0.8007
 5919SOL    HW129393   1.278   2.670   8.893 -0.8503 -0.2145 -1.7011
 5919SOL    HW229394   1.213   2.541   8.871  0.5867 -1.5439  2.2615
 5920SOL     OW29395   1.540   0.822   8.322 -0.0412  0.0732  1.1686
 5920SOL    HW129396   1.479   0.839   8.250  0.1300 -0.3142  0.9280
 5920SOL    HW229397   1.497   0.752   8.371 -0.1438  0.2789  1.3684
 5921SOL     OW29398   2.417   2.221  12.169 -0.3143 -0.6107  0.5346
 5921SOL    HW129399   2.343   2.252  12.116 -0.3490 -1.3722  0.1378
 5921SOL    HW229400   2.478   2.179  12.107 -0.2388  1.4972 -0.8160
 5922SOL     OW29401   3.910   0.146   4.956 -0.5076 -0.2574 -0.0343
 5922SOL    HW129402   3.980   0.085   4.934 -0.6145 -0.4050  0.0351
 5922SOL    HW229403   3.945   0.230   4.984 -3.8120  1.3101 -0.6591
 5923SOL     OW29404   1.071   4.088   8.580 -0.3416  0.4631 -0.2625
 5923SOL    HW129405   1.080   4.060   8.488  1.2974  0.4193 -0.0916
 5923SOL    HW229406   1.084   4.008   8.632  2.2284 -0.0481 -1.6390
 5924SOL     OW29407   1.175   4.251   2.787  0.2919 -0.0108 -0.2391
 5924SOL    HW129408   1.122   4.242   2.708 -2.5779 -0.1072  1.7212
 5924SOL    HW229409   1.135   4.190   2.849 -1.7055  0.7563 -0.7890
 5925SOL     OW29410   1.634   1.481   2.988 -0.0499 -0.6142  0.3248
 5925SOL    HW129411   1.668   1.430   3.061  2.4919  1.1790  0.3966
 5925SOL    HW229412   1.712   1.479   2.931 -0.6353 -0.9792 -0.4630
 5926SOL     OW29413   4.382   1.260   7.531 -0.3701  0.3456 -0.0832
 5926SOL    HW129414   4.444   1.284   7.462 -1.5417  1.4940 -0.7347
 5926SOL    HW229415   4.382   1.165   7.547 -1.3716 -0.0501 -2.4556
 5927SOL     OW29416   3.139   1.585   9.013  0.3485 -0.1628  0.0386
 5927SOL    HW129417   3.134   1.494   9.042  0.2817  0.0151  0.5923
 5927SOL    HW229418   3.209   1.580   8.949 -0.0438  0.9328 -0.4886
 5928SOL     OW29419   2.977   0.749   4.877  0.2691 -0.2347  0.0092
 5928SOL    HW129420   2.957   0.689   4.805 -1.0777 -0.8983  0.9253
 5928SOL    HW229421   3.068   0.719   4.877  0.4150  0.2079  0.4248
 5929SOL     OW29422   3.891   2.885   8.635  0.1116 -0.2409  0.8393
 5929SOL    HW129423   3.911   2.796   8.608 -0.9932  0.0562 -0.9434
 5929SOL    HW229424   3.848   2.864   8.718 -2.7266 -0.0434 -0.5771
 5930SOL     OW29425   1.016   4.297   5.560  0.0695 -0.4811 -0.4008
 5930SOL    HW129426   1.064   4.368   5.518 -1.2148  0.9653  0.5563
 5930SOL    HW229427   0.975   4.337   5.637 -0.2965 -0.8043 -0.4220
 5931SOL     OW29428   1.015   4.683   7.361 -0.2192 -0.2181 -0.1677
 5931SOL    HW129429   1.104   4.719   7.358  0.1896 -1.1534  0.6065
 5931SOL    HW229430   0.995   4.694   7.454 -0.8953  0.0510 -0.3393
 5932SOL     OW29431   3.099   0.011  10.820 -0.1293 -0.0701 -0.1248
 5932SOL    HW129432   3.087   0.095  10.775  1.7483  1.4540  2.1924
 5932SOL    HW229433   3.114   0.041  10.909 -1.6925  0.1233  0.0717
 5933SOL     OW29434   4.241   2.251   9.718 -0.2473 -0.4602 -0.4374
 5933SOL    HW129435   4.330   2.233   9.747 -0.4588 -0.3946  0.2768
 5933SOL    HW229436   4.215   2.163   9.690 -0.8146 -1.1777  2.3091
 5934SOL     OW29437   0.907   0.184   5.648 -0.1975  0.9821  0.7497
 5934SOL    HW129438   0.891   0.199   5.741 -0.6474  1.5056  0.5862
 5934SOL    HW229439   0.940   0.272   5.628  0.7032  1.0037  2.3460
 5935SOL     OW29440   1.942   0.742   4.788  0.2789 -0.0600  0.6202
 5935SOL    HW129441   1.998   0.792   4.848  1.3280  0.5801 -0.8734
 5935SOL    HW229442   1.964   0.776   4.701  1.8851 -0.4072  0.8999
 5936SOL     OW29443   4.521   1.587   6.495 -0.4438  0.2173 -0.8563
 5936SOL    HW129444   4.472   1.513   6.531 -0.1931 -0.2680 -1.5021
 5936SOL    HW229445   4.450   1.649   6.477 -3.1645 -2.2268  1.4564
 5937SOL     OW29446   2.735   3.086   7.467  0.2118 -0.0372  0.4464
 5937SOL    HW129447   2.756   3.001   7.429 -0.0216  0.3298 -0.4881
 5937SOL    HW229448   2.648   3.066   7.503  0.1024 -0.4279 -0.0369
 5938SOL     OW29449   2.428   1.770  13.530  0.1648 -0.4990  0.6474
 5938SOL    HW129450   2.462   1.857  13.552  1.1053 -0.5133 -0.7424
 5938SOL    HW229451   2.386   1.797  13.448  0.2548 -0.2752  0.6750
 5939SOL     OW29452   0.359   1.634   3.199  0.3443  0.5975  0.5528
 5939SOL    HW129453   0.311   1.551   3.192  0.6772  0.6860 -2.5060
 5939SOL    HW229454   0.440   1.604   3.240  0.0578 -0.3057  0.4589
 5940SOL     OW29455   1.373   1.866   3.546  0.2926  0.4092 -0.3082
 5940SOL    HW129456   1.312   1.915   3.601  1.1445  0.1667  0.8548
 5940SOL    HW229457   1.446   1.849   3.607  0.3539 -1.8668 -1.0197
 5941SOL     OW29458   1.536   0.006   7.318  0.4842 -0.0030 -0.6779
 5941SOL    HW129459   1.546   4.677   7.387 -0.9865  2.4080  1.8107
 5941SOL    HW229460   1.598   4.707   7.254  1.5712  1.2693 -0.3441
 5942SOL     OW29461   2.565   1.326   6.937  0.0971 -0.5102  0.0705
 5942SOL    HW129462   2.591   1.359   7.023  1.0228  0.5645 -0.6114
 5942SOL    HW229463   2.497   1.389   6.915  0.3357 -0.2435  0.0852
 5943SOL     OW29464   0.345   1.174   5.219  0.3446 -0.4673  0.0543
 5943SOL    HW129465   0.251   1.170   5.237  0.0409 -1.4035 -1.6929
 5943SOL    HW229466   0.387   1.181   5.304  0.1460 -3.6149  0.3952
 5944SOL     OW29467   1.542   1.345   7.558 -0.5969  0.1661  0.2975
 5944SOL    HW129468   1.576   1.325   7.471 -0.4917 -1.0792  0.6302
 5944SOL    HW229469   1.454   1.384   7.557  0.0865  1.6139 -1.6870
 5945SOL     OW29470   0.574   2.674   6.923  0.2013  0.2948 -0.2576
 5945SOL    HW129471   0.592   2.660   7.016  3.0206 -0.8498 -0.9919
 5945SOL    HW229472   0.645   2.737   6.911  1.3221 -1.0912 -0.7613
 5946SOL     OW29473   3.093   2.603   7.897 -0.2169  0.8073 -0.1497
 5946SOL    HW129474   3.147   2.591   7.975  0.0645 -0.1433 -0.4963
 5946SOL    HW229475   3.141   2.556   7.829 -1.3700  0.2977 -0.6023
 5947SOL     OW29476   1.896   4.447   0.250 -0.6646  0.4188  0.1025
 5947SOL    HW129477   1.956   4.517   0.223  0.2120 -0.2463  0.3394
 5947SOL    HW229478   1.943   4.418   0.328 -1.9184 -1.0059  0.3253
 5948SOL     OW29479   1.447   1.087   7.178  0.2892 -0.0544  0.4421
 5948SOL    HW129480   1.461   1.008   7.127 -0.8238 -1.4030  2.2271
 5948SOL    HW229481   1.378   1.054   7.236  0.6387 -0.8867  0.3771
 5949SOL     OW29482   3.042   4.170   1.721  0.7017 -0.2765  0.5859
 5949SOL    HW129483   2.964   4.219   1.696  0.5464 -0.5119  0.6110
 5949SOL    HW229484   3.011   4.140   1.806 -0.9893 -0.3843 -0.0800
 5950SOL     OW29485   3.324   0.440   6.139  0.5766  0.1815  0.2055
 5950SOL    HW129486   3.243   0.391   6.150  0.4665  0.7076  1.8326
 5950SOL    HW229487   3.364   0.387   6.070 -0.6725 -2.3690  1.4349
 5951SOL     OW29488   3.523   2.148   5.637 -0.1831  0.1633  0.3213
 5951SOL    HW129489   3.455   2.209   5.608 -1.5738  0.2436  3.6940
 5951SOL    HW229490   3.468   2.077   5.672  1.5786 -0.8330  1.0779
 5952SOL     OW29491   4.204   4.043   1.221 -0.0848 -0.2940  0.3612
 5952SOL    HW129492   4.291   4.019   1.252 -0.7862 -1.1766  1.6604
 5952SOL    HW229493   4.141   3.977   1.250 -0.8958  1.5062  2.7062
 5953SOL     OW29494   4.039   2.698  15.841 -0.0810  0.1547 -0.3150
 5953SOL    HW129495   4.124   2.735  15.866  0.7515 -2.4979  0.7550
 5953SOL    HW229496   4.055   2.623  15.784  3.0148  1.5774 -1.3182
 5954SOL     OW29497   4.494   2.203   6.023 -0.2040 -0.1186 -0.2452
 5954SOL    HW129498   4.561   2.270   6.036 -0.0643 -0.8201  2.4715
 5954SOL    HW229499   4.422   2.256   5.986 -1.1437 -0.4885  1.0454
 5955SOL     OW29500   1.519   2.953   8.104  0.2317 -0.0887  0.1963
 5955SOL    HW129501   1.534   2.906   8.022 -1.1142  0.5880 -0.4418
 5955SOL    HW229502   1.542   2.888   8.170  1.9907  0.6431  0.2779
 5956SOL     OW29503   3.420   4.258   2.685 -0.3700 -0.1266  0.3877
 5956SOL    HW129504   3.472   4.267   2.764  0.2399  1.0742 -0.1522
 5956SOL    HW229505   3.458   4.178   2.648 -2.2336 -0.3525 -1.0584
 5957SOL     OW29506   2.538   4.147   3.758 -0.0627 -0.1458 -0.1242
 5957SOL    HW129507   2.604   4.177   3.820 -0.5164  1.0599 -0.2168
 5957SOL    HW229508   2.581   4.137   3.673  1.3542 -0.1613  0.5986
 5958SOL     OW29509   1.781   1.882   3.938 -0.1973 -0.4097 -0.0109
 5958SOL    HW129510   1.807   1.955   3.881 -0.1893  0.2626  0.8660
 5958SOL    HW229511   1.695   1.918   3.958  0.1104  1.0389 -1.2562
 5959SOL     OW29512   2.641   0.335   3.949 -0.0183 -0.1967  0.5537
 5959SOL    HW129513   2.564   0.349   4.003  0.3348 -0.1500  1.0447
 5959SOL    HW229514   2.614   0.359   3.861 -2.9995  0.3584  1.6157
 5960SOL     OW29515   3.001   0.122  16.730 -0.5826 -0.0578 -0.2201
 5960SOL    HW129516   3.006   0.174  16.810 -1.3541 -0.2080 -0.0728
 5960SOL    HW229517   2.922   0.159  16.690  0.0271  0.7933 -0.6253
 5961SOL     OW29518   0.746   4.558   7.653 -0.0727  0.1149 -0.4903
 5961SOL    HW129519   0.828   4.605   7.668  0.6848 -0.6638 -2.2168
 5961SOL    HW229520   0.727   4.527   7.741  1.0218  0.7575 -0.0307
 5962SOL     OW29521   0.749   3.978   1.342  0.2112  0.3242 -0.4183
 5962SOL    HW129522   0.769   4.039   1.271  0.5629  2.5528  1.6142
 5962SOL    HW229523   0.655   3.971   1.324 -0.5447  0.4345  3.3955
 5963SOL     OW29524   2.789   1.556   2.952  0.4387 -0.1749 -0.0906
 5963SOL    HW129525   2.867   1.549   3.008  0.2571 -1.7336 -0.0198
 5963SOL    HW229526   2.797   1.651   2.946  1.8976 -0.1330  2.5402
 5964SOL     OW29527   0.691   1.358   3.540  0.3094 -0.1808 -0.2928
 5964SOL    HW129528   0.767   1.312   3.576 -0.5232 -0.0603  1.6385
 5964SOL    HW229529   0.648   1.289   3.490 -0.2984  0.7929 -1.1224
 5965SOL     OW29530   0.531   0.047  17.120  0.1659 -0.1172 -0.3209
 5965SOL    HW129531   0.439   0.025  17.130  0.1949 -0.6171 -1.1394
 5965SOL    HW229532   0.539   0.129  17.168  1.4018  1.2773 -2.9310
 5966SOL     OW29533   2.818   1.988  12.597  0.4124 -0.8085  0.2860
 5966SOL    HW129534   2.785   1.973  12.686  0.9691 -0.4898  0.5474
 5966SOL    HW229535   2.753   1.953  12.536 -0.2340 -1.6322  1.4560
 5967SOL     OW29536   3.211   4.186   2.973  0.1575  0.2279 -0.1246
 5967SOL    HW129537   3.117   4.207   2.978  0.3649  0.8724  1.2716
 5967SOL    HW229538   3.232   4.192   3.067  0.9193  1.4233 -0.3738
 5968SOL     OW29539   4.150   2.526   2.000  0.6589  0.9854 -0.2223
 5968SOL    HW129540   4.152   2.468   1.924 -0.5041  0.6628 -0.0034
 5968SOL    HW229541   4.124   2.467   2.071  0.2945  2.2652  0.7062
 5969SOL     OW29542   2.280   0.444   3.600 -0.2127  0.7309  0.1872
 5969SOL    HW129543   2.372   0.432   3.621 -0.3590  0.9628  0.9954
 5969SOL    HW229544   2.280   0.430   3.506 -0.2147  0.1589  0.2735
 5970SOL     OW29545   2.336   2.715   8.491  0.4922 -0.0570  0.6070
 5970SOL    HW129546   2.267   2.713   8.425  0.2413 -2.3677  0.9444
 5970SOL    HW229547   2.416   2.698   8.441 -0.7923  1.2178 -1.9116
 5971SOL     OW29548   0.987   0.212   5.939 -0.3406 -0.1468 -0.5242
 5971SOL    HW129549   1.080   0.201   5.958 -0.0178  1.5337 -1.1206
 5971SOL    HW229550   0.965   0.279   6.003 -0.0382 -1.8904  1.4161
 5972SOL     OW29551   2.340   2.004  17.356 -0.1649  0.2795  0.0160
 5972SOL    HW129552   2.246   1.990  17.347 -0.9388  4.8922  0.6645
 5972SOL    HW229553   2.362   2.033  17.445  3.3006 -1.4499 -0.2788
 5973SOL     OW29554   1.651   0.917   5.675  0.0977 -0.0521  0.0183
 5973SOL    HW129555   1.705   0.988   5.641 -0.9310  0.9274  0.4177
 5973SOL    HW229556   1.715   0.847   5.683  0.8808  0.8418  1.4653
 5974SOL     OW29557   4.716   4.183  17.575 -0.0068  0.1466 -0.1397
 5974SOL    HW129558   4.704   4.257  17.516  2.0572  1.4136  1.0687
 5974SOL    HW229559   0.052   4.142  17.529  0.6106  0.1275  0.8517
 5975SOL     OW29560   3.147   3.153   6.104  0.2442  0.7523  0.4327
 5975SOL    HW129561   3.068   3.164   6.156  1.2078  0.5649  1.9146
 5975SOL    HW229562   3.211   3.180   6.169  1.7804  1.9625 -1.5485
 5976SOL     OW29563   2.902   2.497   2.604  0.0135  0.4724  0.4514
 5976SOL    HW129564   2.988   2.464   2.628 -0.0770 -1.7185 -2.2551
 5976SOL    HW229565   2.856   2.516   2.686 -1.0602  0.7626 -0.2150
 5977SOL     OW29566   3.965   1.785  12.159  0.0816 -0.3469 -0.4344
 5977SOL    HW129567   4.048   1.778  12.207 -1.0796 -2.7345  1.2007
 5977SOL    HW229568   3.951   1.694  12.135 -0.3256 -0.8826  1.8989
 5978SOL     OW29569   0.204   3.666   5.049  0.0428 -0.5511 -0.1340
 5978SOL    HW129570   0.297   3.689   5.046  0.4489 -2.3502 -1.1402
 5978SOL    HW229571   0.172   3.686   5.137 -1.1332 -2.0320 -0.2214
 5979SOL     OW29572   0.929   2.011   7.417  0.4511 -0.1339  0.6710
 5979SOL    HW129573   0.903   1.956   7.492  1.2775  1.2809  1.9902
 5979SOL    HW229574   1.006   1.967   7.381 -1.5278 -1.3951 -2.0536
 5980SOL     OW29575   3.692   0.374   7.927  0.1669  0.2815 -0.0084
 5980SOL    HW129576   3.749   0.360   8.002  1.6193 -2.4523 -1.6234
 5980SOL    HW229577   3.637   0.297   7.935  2.8089 -1.8804 -2.8074
 5981SOL     OW29578   0.526   2.044  16.169  0.1573 -0.0188 -0.2251
 5981SOL    HW129579   0.480   2.032  16.252  0.1890  0.5352 -0.1294
 5981SOL    HW229580   0.459   2.083  16.114  1.6941 -0.2731 -2.2742
 5982SOL     OW29581   0.879   0.829   6.927 -0.2616 -0.6151  0.3323
 5982SOL    HW129582   0.818   0.761   6.899 -0.9107 -0.4965  1.4450
 5982SOL    HW229583   0.854   0.838   7.019 -0.8377  0.4435  0.0765
 5983SOL     OW29584   2.101   2.286   6.284  0.5150  0.6534  0.3111
 5983SOL    HW129585   2.090   2.195   6.313 -0.7855  0.7378  0.0485
 5983SOL    HW229586   2.113   2.327   6.369  1.4533  0.5583  0.2290
 5984SOL     OW29587   1.076   2.233  12.426  0.2206 -0.0806 -0.5322
 5984SOL    HW129588   1.047   2.323  12.416 -0.6768 -0.5970 -2.6897
 5984SOL    HW229589   1.000   2.190  12.386  1.0973 -0.6565 -1.5664
 5985SOL     OW29590   4.711   1.439  12.082 -0.4087 -0.7926  0.6785
 5985SOL    HW129591   0.054   1.388  12.097 -0.7406 -1.1619  1.2115
 5985SOL    HW229592   4.669   1.370  12.031 -2.5163  0.0696  1.2816
 5986SOL     OW29593   3.945   4.007   8.687  0.0779 -0.1037 -0.0902
 5986SOL    HW129594   3.959   3.918   8.655 -1.2889  0.8403 -3.3821
 5986SOL    HW229595   3.861   4.010   8.640  0.3871  1.2337 -0.5545
 5987SOL     OW29596   4.210   2.750   8.892 -0.1744 -0.3173 -0.3166
 5987SOL    HW129597   4.176   2.835   8.919  0.3070 -0.5944  1.2166
 5987SOL    HW229598   4.147   2.693   8.936  0.2102 -0.4470  0.0737
 5988SOL     OW29599   1.484   0.693   7.933 -0.1797  0.3525  0.2358
 5988SOL    HW129600   1.442   0.763   7.983 -1.3878 -0.6414  0.6335
 5988SOL    HW229601   1.465   0.615   7.985 -4.2147  0.8156 -0.5408
 5989SOL     OW29602   3.375   1.330  11.926 -0.1479  0.2418  0.0490
 5989SOL    HW129603   3.444   1.359  11.986  0.2825 -2.3303  0.8129
 5989SOL    HW229604   3.321   1.307  12.002  0.1200 -1.6033 -0.3096
 5990SOL     OW29605   3.841   2.886  16.863  0.2669  0.4935 -0.1410
 5990SOL    HW129606   3.786   2.877  16.785 -2.1782 -0.9642  1.7499
 5990SOL    HW229607   3.918   2.932  16.830  1.3161 -0.1996  1.3514
 5991SOL     OW29608   1.520   0.351   2.955  0.4473  0.5572  0.5017
 5991SOL    HW129609   1.429   0.351   2.984  0.1875 -0.6838 -0.3224
 5991SOL    HW229610   1.548   0.270   2.997 -1.2044 -0.0672  0.3841
 5992SOL     OW29611   1.993   1.021  17.388 -0.0500 -0.3199  0.5845
 5992SOL    HW129612   2.014   1.097  17.443  2.2179 -0.4830 -0.0653
 5992SOL    HW229613   2.080   0.981  17.381 -0.0842 -0.7766  2.6980
 5993SOL     OW29614   1.725   2.990   5.449 -0.4539  0.4832  0.4113
 5993SOL    HW129615   1.780   2.920   5.483 -0.7421 -1.4399 -3.1279
 5993SOL    HW229616   1.709   2.955   5.361 -1.1822  0.9887  0.3432
 5994SOL     OW29617   0.644   0.427   5.709  0.1592  0.4209  0.5521
 5994SOL    HW129618   0.586   0.443   5.635  1.3450 -1.5168 -0.8008
 5994SOL    HW229619   0.730   0.443   5.672 -0.3768 -1.6998 -1.6118
 5995SOL     OW29620   2.871   4.299   2.176 -0.2182  0.5796  0.8025
 5995SOL    HW129621   2.901   4.214   2.207  1.3771  0.7272 -0.3295
 5995SOL    HW229622   2.944   4.354   2.204 -1.0682  0.6721  2.8114
 5996SOL     OW29623   1.556   1.725   9.795 -0.7962  0.2582  0.3990
 5996SOL    HW129624   1.534   1.780   9.720  0.3031 -0.4411 -0.4446
 5996SOL    HW229625   1.540   1.788   9.866  0.9726 -0.9999  1.9262
 5997SOL     OW29626   4.133   4.560  15.155 -0.6374 -0.3524  0.3161
 5997SOL    HW129627   4.099   4.649  15.150  0.6109  0.0284 -1.1471
 5997SOL    HW229628   4.227   4.576  15.151 -0.8862  1.1872  0.5792
 5998SOL     OW29629   2.954   2.122   5.087  0.4677 -0.3686  0.0768
 5998SOL    HW129630   3.004   2.203   5.095 -2.8717  1.6095  0.9797
 5998SOL    HW229631   2.875   2.166   5.118 -0.1299 -0.1547 -1.7908
 5999SOL     OW29632   0.741   3.712  14.211  0.2741 -0.8684  0.7950
 5999SOL    HW129633   0.802   3.774  14.251 -2.2199  2.1141 -0.0614
 5999SOL    HW229634   0.718   3.750  14.127  1.4832  0.6889  1.1642
 6000SOL     OW29635   0.691   1.360   0.176 -0.0649  0.0509 -0.3526
 6000SOL    HW129636   0.710   1.339   0.268  1.1052 -1.2932 -0.9019
 6000SOL    HW229637   0.598   1.336   0.177 -0.2899  0.9188 -1.2925
 6001SOL     OW29638   4.567   3.216   4.359  0.2435 -0.2248  0.2962
 6001SOL    HW129639   4.540   3.305   4.381 -0.4725 -1.1868  3.3692
 6001SOL    HW229640   4.660   3.224   4.378 -0.0429  1.5363  1.0242
 6002SOL     OW29641   3.745   2.348  12.348 -0.3005  0.0743 -0.6296
 6002SOL    HW129642   3.693   2.280  12.305 -0.4167 -1.0981  1.3675
 6002SOL    HW229643   3.738   2.324  12.440  3.5370 -1.9717 -0.8471
 6003SOL     OW29644   4.673   0.691  13.053  0.2006  0.0391  0.0734
 6003SOL    HW129645   4.689   0.610  13.004  1.5705  0.6193 -0.4485
 6003SOL    HW229646   4.711   0.754  12.991  0.3789  0.6415  0.8018
 6004SOL     OW29647   1.963   2.155  11.424 -0.0923  0.3316 -0.4137
 6004SOL    HW129648   1.929   2.082  11.372 -0.3864  0.0170  0.2066
 6004SOL    HW229649   1.999   2.208  11.353  3.0455 -2.7948 -1.1536
 6005SOL     OW29650   2.656   3.619   0.355  0.7094  0.1554  0.1546
 6005SOL    HW129651   2.632   3.617   0.263 -0.5344 -3.5095  0.5728
 6005SOL    HW229652   2.746   3.587   0.349  1.1109  0.9729  1.8655
 6006SOL     OW29653   0.837   4.634   5.400 -0.5993 -0.0959  0.3134
 6006SOL    HW129654   0.884   4.598   5.324 -1.9631 -0.7583 -0.2046
 6006SOL    HW229655   0.841   4.727   5.379  1.9760 -0.3215 -0.3051
 6007SOL     OW29656   0.121   3.190  15.519 -0.1815 -0.3000  0.6437
 6007SOL    HW129657   0.193   3.229  15.569  0.4513 -2.3858  1.3201
 6007SOL    HW229658   0.140   3.222  15.430 -0.0310  0.2665  0.8801
 6008SOL     OW29659   4.355   2.647   2.177  0.0025  0.0792  0.4311
 6008SOL    HW129660   4.261   2.656   2.161  0.0413  1.4733  0.9885
 6008SOL    HW229661   4.363   2.552   2.188  0.9533  0.1335  0.2361
 6009SOL     OW29662   1.754   3.043   5.822 -0.1905 -0.1901 -0.4784
 6009SOL    HW129663   1.684   3.098   5.785  1.4571  0.9665 -1.8649
 6009SOL    HW229664   1.826   3.106   5.820 -1.0490  0.7820 -1.2607
 6010SOL     OW29665   4.327   2.371   2.236  1.0168  0.1181 -0.0562
 6010SOL    HW129666   4.233   2.364   2.220  0.9964  1.2721 -0.4442
 6010SOL    HW229667   4.334   2.348   2.328 -0.2872 -1.8508 -0.4462
 6011SOL     OW29668   1.421   0.788   5.678  0.4065  0.2542 -0.7190
 6011SOL    HW129669   1.448   0.696   5.679  0.2308  0.1820 -2.0999
 6011SOL    HW229670   1.504   0.835   5.681 -0.8883  2.5524 -1.3291
 6012SOL     OW29671   2.675   4.590   0.155 -0.3735  0.1600  0.4621
 6012SOL    HW129672   2.756   4.621   0.195  0.8476 -2.0054 -0.3257
 6012SOL    HW229673   2.635   4.666   0.112  1.6237  1.6636  1.2514
 6013SOL     OW29674   3.803   3.979   3.185  0.0093 -0.1119  0.0205
 6013SOL    HW129675   3.869   4.034   3.142 -1.3843  1.4167 -0.2003
 6013SOL    HW229676   3.737   4.046   3.203 -1.5341 -1.9214  1.1137
 6014SOL     OW29677   2.628   3.902   0.395  0.1237  0.3444 -0.0959
 6014SOL    HW129678   2.655   3.810   0.388 -0.1393  0.1841  0.9480
 6014SOL    HW229679   2.647   3.926   0.304 -0.3793 -1.9346 -0.8211
 6015SOL     OW29680   0.654   0.981  14.901 -0.9690  0.0420  0.3875
 6015SOL    HW129681   0.650   1.064  14.852  1.1137 -0.1635 -0.1552
 6015SOL    HW229682   0.643   1.007  14.992 -2.3432  1.7722 -0.2688
 6016SOL     OW29683   1.163   0.038  16.193 -0.1044 -0.2167  0.4693
 6016SOL    HW129684   1.119   4.697  16.226  1.0442 -0.0765  2.2953
 6016SOL    HW229685   1.115   0.119  16.210  0.4819  0.3836 -0.7151
 6017SOL     OW29686   4.505   3.960  16.623 -0.5862 -0.5920 -0.5651
 6017SOL    HW129687   4.533   4.005  16.703  0.5374  2.1811 -2.5154
 6017SOL    HW229688   4.418   3.927  16.645 -0.3349  1.0713  2.9828
 6018SOL     OW29689   3.539   0.886   0.331 -0.1623  0.7029 -0.1822
 6018SOL    HW129690   3.625   0.925   0.315  0.6762 -0.6470  1.0983
 6018SOL    HW229691   3.512   0.830   0.258 -1.5033  0.2997  0.6199
 6019SOL     OW29692   2.063   2.214  15.088  0.3104 -0.1614 -0.6393
 6019SOL    HW129693   2.061   2.286  15.025 -0.9086 -1.0710 -1.6419
 6019SOL    HW229694   1.992   2.239  15.147 -0.3883 -2.7300 -0.3843
 6020SOL     OW29695   4.374   3.706   5.565  0.5388 -0.1078  0.2509
 6020SOL    HW129696   4.377   3.737   5.655  1.6741 -0.9831  0.5167
 6020SOL    HW229697   4.389   3.784   5.512  0.5229 -1.0942 -1.2257
 6021SOL     OW29698   4.382   3.751   5.868 -0.3613 -0.1600 -0.5859
 6021SOL    HW129699   4.289   3.757   5.888 -0.1442  0.4803  0.2666
 6021SOL    HW229700   4.413   3.838   5.896  0.1527  0.0094 -1.6953
 6022SOL     OW29701   1.590   2.568   2.431 -0.5881 -0.4185 -0.0209
 6022SOL    HW129702   1.661   2.607   2.482 -0.6644 -1.1182  0.6261
 6022SOL    HW229703   1.580   2.634   2.363 -1.0323 -0.8134 -0.3415
 6023SOL     OW29704   1.033   0.696   2.878  0.4256 -0.3156  0.0047
 6023SOL    HW129705   1.061   0.612   2.915 -1.6429 -1.3226 -0.7440
 6023SOL    HW229706   1.061   0.758   2.946  0.7617  0.4002 -0.7900
 6024SOL     OW29707   0.380   2.566  14.365  0.3702  0.0506  0.3117
 6024SOL    HW129708   0.476   2.560  14.362  0.3056 -0.4448 -0.9362
 6024SOL    HW229709   0.371   2.648  14.412  2.5028  1.1806 -1.2199
 6025SOL     OW29710   2.407   1.896   1.445  0.3116  0.5159 -0.1179
 6025SOL    HW129711   2.467   1.945   1.501 -0.3889  0.1491  0.9661
 6025SOL    HW229712   2.333   1.957   1.447  0.6254  0.9121 -0.4813
 6026SOL     OW29713   1.713   4.085   2.656 -0.3323 -0.2345 -0.5513
 6026SOL    HW129714   1.740   4.144   2.726  0.5161 -0.5796 -0.5788
 6026SOL    HW229715   1.776   4.099   2.586 -3.2986  2.0046 -2.7512
 6027SOL     OW29716   3.416   3.687   2.889  0.5798  0.5879  0.1426
 6027SOL    HW129717   3.393   3.774   2.857  1.4227  0.3456 -1.1177
 6027SOL    HW229718   3.469   3.655   2.816  1.8982 -0.2125  1.4487
 6028SOL     OW29719   3.499   0.095  14.259  0.1810 -0.1225  0.5226
 6028SOL    HW129720   3.471   0.043  14.335 -1.2125 -1.6520 -1.0252
 6028SOL    HW229721   3.503   0.185  14.290  0.5641 -0.1845  0.6521
 6029SOL     OW29722   1.682   2.452  17.528 -0.4625 -0.0718 -0.3679
 6029SOL    HW129723   1.686   2.427  17.621  2.0177  0.0715 -0.4249
 6029SOL    HW229724   1.775   2.453  17.505 -0.4657 -1.7693 -0.4710
 6030SOL     OW29725   1.852   3.454   0.135 -0.5957  0.2586  0.7444
 6030SOL    HW129726   1.858   3.360   0.151  1.6528  0.9574  3.9752
 6030SOL    HW229727   1.903   3.485   0.210  0.9742  0.3740 -0.3762
 6031SOL     OW29728   4.249   1.117   2.198 -0.1986 -0.5041  0.1743
 6031SOL    HW129729   4.236   1.211   2.213  1.4878  0.0807 -2.0013
 6031SOL    HW229730   4.160   1.084   2.214  0.6134 -1.0434  3.4789
 6032SOL     OW29731   2.502   3.558   8.949  0.2907  0.0481 -0.9941
 6032SOL    HW129732   2.428   3.542   9.008 -1.3080  0.9750 -2.7714
 6032SOL    HW229733   2.571   3.502   8.983 -0.2359  1.1505  1.8948
 6033SOL     OW29734   3.815   4.315   5.721  0.5112 -0.2514  0.0387
 6033SOL    HW129735   3.778   4.229   5.698 -0.4291  0.6746 -1.9326
 6033SOL    HW229736   3.852   4.297   5.807  0.1444 -3.9405 -0.5405
 6034SOL     OW29737   3.361   4.380   8.955 -0.0798 -0.2173  0.2788
 6034SOL    HW129738   3.403   4.346   8.877  0.0576  1.0197 -0.1852
 6034SOL    HW229739   3.278   4.333   8.951 -0.4127  0.3318  0.6390
 6035SOL     OW29740   1.737   2.815   7.389  0.1300 -0.4527  0.4066
 6035SOL    HW129741   1.691   2.843   7.469 -2.8895 -2.3116 -0.7069
 6035SOL    HW229742   1.827   2.832   7.418 -0.1621 -1.6649  2.0514
 6036SOL     OW29743   3.663   4.649   5.770 -0.0037  0.6432  0.0774
 6036SOL    HW129744   3.675   4.555   5.756  0.8918  0.7100  0.4077
 6036SOL    HW229745   3.714   4.674   5.847  0.4310  0.7243 -0.2371
 6037SOL     OW29746   2.525   3.434   5.495 -0.5039 -0.4690 -0.5889
 6037SOL    HW129747   2.610   3.420   5.454  0.0475  1.9046 -0.2459
 6037SOL    HW229748   2.550   3.513   5.543  0.5999 -2.7690  2.6237
 6038SOL     OW29749   2.342   2.338  14.850  0.2651  0.5129  0.4925
 6038SOL    HW129750   2.408   2.377  14.794  0.0700  0.6574  0.3611
 6038SOL    HW229751   2.274   2.405  14.845  1.4940  1.6468 -0.9705
 6039SOL     OW29752   4.205   0.637  12.891 -0.2605 -0.1659  0.1043
 6039SOL    HW129753   4.180   0.717  12.938 -0.8151 -0.7046  0.7347
 6039SOL    HW229754   4.140   0.637  12.821 -0.1381  2.0725 -0.0196
 6040SOL     OW29755   1.108   1.669   8.759  0.4274 -0.2954  0.4085
 6040SOL    HW129756   1.015   1.680   8.778  0.4001 -1.1492  0.7685
 6040SOL    HW229757   1.105   1.699   8.669 -0.1107 -1.0215  0.1783
 6041SOL     OW29758   2.388   1.590   4.491  0.0629  0.2828  0.5068
 6041SOL    HW129759   2.359   1.524   4.554 -0.4745  0.8656  0.8675
 6041SOL    HW229760   2.477   1.556   4.483  0.3553  1.2219 -0.1181
 6042SOL     OW29761   1.006   3.421   9.843  0.5664 -0.1012 -0.6548
 6042SOL    HW129762   1.027   3.346   9.787  1.2214  0.6145 -1.3541
 6042SOL    HW229763   0.912   3.414   9.858  0.4052 -1.1291 -2.1568
 6043SOL     OW29764   3.326   1.098   0.144 -0.7813  0.2933  0.9777
 6043SOL    HW129765   3.409   1.139   0.167 -1.6993  2.1654  0.9758
 6043SOL    HW229766   3.266   1.172   0.154 -2.6210 -1.0302 -0.1737
 6044SOL     OW29767   4.226   2.809   4.526  0.7910  0.6556 -0.7349
 6044SOL    HW129768   4.274   2.867   4.467 -0.5824 -0.9044 -3.3518
 6044SOL    HW229769   4.154   2.868   4.549  0.4124 -0.4750  1.0090
 6045SOL     OW29770   3.353   0.974   3.415 -0.6975 -0.0241  0.2310
 6045SOL    HW129771   3.298   1.047   3.388 -0.7355  0.2212  0.9737
 6045SOL    HW229772   3.390   1.020   3.490 -1.2201 -1.2835  1.2560
 6046SOL     OW29773   2.305   0.350   7.579 -0.4717  0.2862 -0.0760
 6046SOL    HW129774   2.216   0.381   7.596 -0.9646 -1.4752  0.6365
 6046SOL    HW229775   2.355   0.429   7.598  1.4015 -1.1755  1.1406
 6047SOL     OW29776   0.013   3.198   5.791 -0.3684  0.1953 -0.1967
 6047SOL    HW129777   0.078   3.166   5.728  1.2468 -0.7091  1.9336
 6047SOL    HW229778   4.712   3.274   5.746 -0.8650 -0.6726 -1.2452
 6048SOL     OW29779   0.817   1.313   6.961 -0.1234 -0.0466  0.3147
 6048SOL    HW129780   0.860   1.307   7.046 -0.4801  3.1458  0.7202
 6048SOL    HW229781   0.787   1.403   6.967 -1.4979 -0.3711 -1.6033
 6049SOL     OW29782   1.829   3.087   6.939 -0.0477  0.5699 -0.1285
 6049SOL    HW129783   1.858   2.997   6.921 -0.1777  0.2665  1.1764
 6049SOL    HW229784   1.776   3.080   7.018  1.4513 -1.7570  0.6632
 6050SOL     OW29785   3.576   1.204   0.190 -0.9374  0.0101 -0.3061
 6050SOL    HW129786   3.657   1.178   0.147 -0.4642  1.7437 -0.4691
 6050SOL    HW229787   3.604   1.211   0.282 -0.0049  2.0180 -0.7534
 6051SOL     OW29788   4.719   4.355  10.677 -0.5107  0.5372  0.2125
 6051SOL    HW129789   0.036   4.425  10.715 -0.4564  0.8634 -0.4639
 6051SOL    HW229790   0.051   4.318  10.622  0.2603  0.9409  0.9017
 6052SOL     OW29791   3.713   3.011   9.135 -0.0843  0.1221  0.1179
 6052SOL    HW129792   3.692   3.049   9.221 -0.7889 -1.7635  0.7799
 6052SOL    HW229793   3.643   2.945   9.136  0.4956 -0.4964 -0.0291
 6053SOL     OW29794   2.905   3.561   6.984  0.4529 -0.4525 -0.2877
 6053SOL    HW129795   2.952   3.609   7.053  0.0695  1.5982 -1.4322
 6053SOL    HW229796   2.841   3.622   6.948  1.8591  0.4474 -1.3020
 6054SOL     OW29797   0.142   2.509   6.736  0.5748  0.0139  0.0616
 6054SOL    HW129798   0.210   2.551   6.684  0.8006 -0.0741  0.2876
 6054SOL    HW229799   0.178   2.514   6.824 -1.3389  1.1573  0.7899
 6055SOL     OW29800   3.800   1.501   9.162 -0.3300 -0.5562  0.4413
 6055SOL    HW129801   3.851   1.582   9.167 -0.4757 -0.3831 -0.7941
 6055SOL    HW229802   3.812   1.488   9.068  0.5481  0.2786  0.4390
 6056SOL     OW29803   3.132   0.427  12.703 -0.0793 -0.3349 -0.3477
 6056SOL    HW129804   3.071   0.497  12.681 -0.8124 -0.2221  2.0445
 6056SOL    HW229805   3.169   0.420  12.615  0.8926  2.5507 -0.1522
 6057SOL     OW29806   2.381   0.715   8.348 -0.4038  0.2671  0.5130
 6057SOL    HW129807   2.324   0.720   8.424 -1.0194  1.0001  0.0093
 6057SOL    HW229808   2.441   0.789   8.352 -2.9094  2.3321  0.3285
 6058SOL     OW29809   2.283   1.066   0.598 -0.1641 -0.2152  0.1132
 6058SOL    HW129810   2.241   1.125   0.660  0.6524  0.1277  0.3421
 6058SOL    HW229811   2.301   1.125   0.526 -0.3664 -1.3299 -0.8548
 6059SOL     OW29812   2.956   3.916   0.894 -0.4466  0.2267  0.6937
 6059SOL    HW129813   2.947   4.010   0.910 -0.0581  0.5344 -0.9084
 6059SOL    HW229814   2.872   3.900   0.851  0.1146 -2.4143  0.5747
 6060SOL     OW29815   0.994   4.697   7.885  0.2111 -0.2452  0.2911
 6060SOL    HW129816   0.910   4.658   7.911  0.8287 -1.7331  0.0394
 6060SOL    HW229817   0.996   0.039   7.939  0.6940 -0.4621  0.5973
 6061SOL     OW29818   1.949   4.013  12.989  0.1980 -0.2585 -0.3621
 6061SOL    HW129819   2.005   4.039  12.917 -0.1155  1.9663  0.1887
 6061SOL    HW229820   1.867   4.053  12.958  0.3987 -0.7507 -1.5049
 6062SOL     OW29821   1.889   1.299  15.517 -0.3613  0.1422  0.8851
 6062SOL    HW129822   1.890   1.382  15.564  0.5523  0.6642 -0.0579
 6062SOL    HW229823   1.813   1.256  15.557  0.0135 -1.8255 -0.4863
 6063SOL     OW29824   0.314   1.324   0.936 -0.0709  0.4055  0.5340
 6063SOL    HW129825   0.224   1.345   0.963 -0.7079 -0.6237 -0.8166
 6063SOL    HW229826   0.297   1.277   0.855 -0.9757 -0.3758  1.1747
 6064SOL     OW29827   1.200   1.456   7.152 -0.2610 -0.0383  0.2077
 6064SOL    HW129828   1.131   1.522   7.144 -2.2777 -2.0187  1.1979
 6064SOL    HW229829   1.156   1.400   7.217 -2.0218  2.0056  0.7666
 6065SOL     OW29830   2.965   1.194  15.313 -0.2639  0.1880 -0.3695
 6065SOL    HW129831   3.007   1.276  15.341  2.9095 -1.6270  0.1512
 6065SOL    HW229832   2.978   1.195  15.218 -0.7742  2.2039 -0.4306
 6066SOL     OW29833   0.034   0.552  13.965 -0.4714 -0.3702 -0.4335
 6066SOL    HW129834   4.701   0.496  13.931  0.1875 -2.0650  1.0161
 6066SOL    HW229835   0.109   0.496  13.984 -0.1990 -0.8078 -2.6883
 6067SOL     OW29836   1.985   0.497  12.893 -0.0506  0.6668 -0.4700
 6067SOL    HW129837   1.953   0.583  12.866 -3.7596 -0.2404  1.0320
 6067SOL    HW229838   2.074   0.524  12.912  0.0110 -0.7366  1.3056
 6068SOL     OW29839   0.841   4.041   7.386 -0.1392  0.0338  0.1815
 6068SOL    HW129840   0.923   4.083   7.413 -1.2553  2.8666 -0.8570
 6068SOL    HW229841   0.780   4.115   7.391  2.5798  2.2499  0.7752
 6069SOL     OW29842   0.636   0.602  11.968  0.3246  0.5192  0.2652
 6069SOL    HW129843   0.641   0.696  11.948 -1.3413  0.2319 -1.5407
 6069SOL    HW229844   0.634   0.578  11.875  1.3140 -0.8229  0.5869
 6070SOL     OW29845   3.029   3.413   4.435 -0.2567 -0.1957 -0.2557
 6070SOL    HW129846   2.976   3.471   4.380  1.6481  0.3795 -1.4969
 6070SOL    HW229847   3.071   3.476   4.493  1.1242 -0.7732 -0.6195
 6071SOL     OW29848   0.563   2.918  15.204  0.2366  0.0115 -0.6057
 6071SOL    HW129849   0.519   2.834  15.200 -1.5741  0.8299  2.4907
 6071SOL    HW229850   0.542   2.963  15.122  1.1097 -1.0514 -1.4196
 6072SOL     OW29851   4.342   4.367  16.418 -0.1886 -0.4223  0.3458
 6072SOL    HW129852   4.274   4.370  16.350 -0.2515 -0.8642  0.3861
 6072SOL    HW229853   4.376   4.456  16.413 -1.9439  0.1858 -0.8845
 6073SOL     OW29854   1.503   1.954   6.423 -0.2879  0.2616 -0.0409
 6073SOL    HW129855   1.491   1.943   6.329 -1.6760  0.5454  0.1001
 6073SOL    HW229856   1.555   1.875   6.437  0.7086  1.3001  2.2121
 6074SOL     OW29857   1.871   3.272   2.362  0.0548 -0.2051  0.1255
 6074SOL    HW129858   1.961   3.288   2.392 -0.3457  1.0922  0.6538
 6074SOL    HW229859   1.837   3.223   2.437 -2.7662  2.0617  0.3095
 6075SOL     OW29860   3.177   0.835  17.334  0.1167  0.1436  0.2062
 6075SOL    HW129861   3.180   0.850  17.239  0.8814 -0.0744  0.1943
 6075SOL    HW229862   3.089   0.858  17.365 -0.8359 -0.7771 -1.7970
 6076SOL     OW29863   1.110   4.386  16.470  0.0290 -0.0494 -0.2405
 6076SOL    HW129864   1.118   4.330  16.548 -2.5600 -0.1641 -0.0789
 6076SOL    HW229865   1.182   4.360  16.412  1.3477  0.2323  1.2545
 6077SOL     OW29866   0.797   1.962   3.466 -0.0615 -0.0401  0.1239
 6077SOL    HW129867   0.834   2.050   3.457 -0.6975  0.2397  0.2371
 6077SOL    HW229868   0.861   1.914   3.519 -0.6074 -1.2055 -0.2771
 6078SOL     OW29869   0.631   0.382   2.969  0.1832 -0.2892 -0.1340
 6078SOL    HW129870   0.691   0.444   3.010  1.3979 -1.3265 -0.3464
 6078SOL    HW229871   0.607   0.432   2.891  0.2666  1.4397  0.9525
 6079SOL     OW29872   0.921   0.234  12.959  1.0519  0.0781 -0.4636
 6079SOL    HW129873   0.989   0.242  13.026  1.1230  0.1259 -0.5416
 6079SOL    HW229874   0.891   0.146  12.980  0.5876  0.3682  0.0994
 6080SOL     OW29875   4.358   0.450  16.388  0.0241 -0.0254 -0.3825
 6080SOL    HW129876   4.393   0.459  16.476 -0.5698 -1.9919  0.0370
 6080SOL    HW229877   4.371   0.537  16.349 -1.0815 -0.7057 -2.2744
 6081SOL     OW29878   1.500   3.263   8.450  0.1509  0.6147 -0.0080
 6081SOL    HW129879   1.560   3.196   8.481  0.0884  1.4248  1.8432
 6081SOL    HW229880   1.517   3.279   8.357  0.2860 -0.9798 -0.2586
 6082SOL     OW29881   4.231   0.049   5.730  0.4583  0.6739 -0.0786
 6082SOL    HW129882   4.291   4.712   5.732 -2.1391 -1.4383  0.1861
 6082SOL    HW229883   4.184   0.024   5.651 -1.8361 -0.6538  1.6957
 6083SOL     OW29884   3.786   3.199   8.957 -0.2020 -0.4749 -0.3545
 6083SOL    HW129885   3.755   3.135   9.021 -0.1301 -0.6666 -0.5088
 6083SOL    HW229886   3.751   3.162   8.876  0.0055 -0.5107 -0.4278
 6084SOL     OW29887   4.247   0.217   4.863 -0.7138  0.4066  0.1278
 6084SOL    HW129888   4.237   0.200   4.769  0.4963  1.8519 -0.2810
 6084SOL    HW229889   4.321   0.160   4.883 -2.1197  0.3554  5.1585
 6085SOL     OW29890   3.779   3.692  13.428 -0.1879 -0.3984  0.4456
 6085SOL    HW129891   3.801   3.779  13.394 -0.2280 -1.3088 -1.8651
 6085SOL    HW229892   3.687   3.688  13.401 -0.4461 -1.1335  1.4369
 6086SOL     OW29893   0.315   1.314  12.300 -0.6987 -0.2258 -0.5651
 6086SOL    HW129894   0.332   1.234  12.250 -1.8829 -1.5281  1.0854
 6086SOL    HW229895   0.391   1.370  12.285  1.3593 -2.7699  0.1656
 6087SOL     OW29896   3.983   2.013   2.818  0.1589  0.3761  0.1291
 6087SOL    HW129897   3.933   1.933   2.835  1.5050 -0.4976 -0.0359
 6087SOL    HW229898   4.072   1.980   2.804  0.9643  2.5802  0.1007
 6088SOL     OW29899   0.098   3.525   8.847 -0.3454 -0.1799  0.2210
 6088SOL    HW129900   0.094   3.500   8.755 -0.6521  0.0908  0.1605
 6088SOL    HW229901   0.006   3.526   8.875  0.2181  0.3492  2.0707
 6089SOL     OW29902   3.205   0.965   0.797 -0.2055  0.3231  0.2730
 6089SOL    HW129903   3.297   0.969   0.771 -1.1135  0.7592 -2.8710
 6089SOL    HW229904   3.213   1.013   0.879  0.6692  0.5062  0.0805
 6090SOL     OW29905   3.743   2.327  11.135 -0.0722 -0.5007  0.4483
 6090SOL    HW129906   3.685   2.358  11.204  0.3429  2.2134 -0.4529
 6090SOL    HW229907   3.772   2.409  11.095  0.6393 -0.0167  1.9610
 6091SOL     OW29908   1.010   1.202   8.169 -0.3023 -0.2761 -0.1092
 6091SOL    HW129909   0.933   1.243   8.208 -0.0815 -0.4477  0.4994
 6091SOL    HW229910   1.047   1.151   8.241  1.0833 -0.4429 -0.9426
 6092SOL     OW29911   3.606   2.812   5.140  0.3737  0.2168 -0.7556
 6092SOL    HW129912   3.660   2.805   5.061  2.0877 -1.5559  0.5896
 6092SOL    HW229913   3.572   2.902   5.138 -0.2900 -0.0369 -0.8860
 6093SOL     OW29914   3.741   4.446   2.214 -0.3450 -0.8079 -0.2689
 6093SOL    HW129915   3.653   4.468   2.244  0.3510  0.5788  0.7477
 6093SOL    HW229916   3.769   4.373   2.271 -0.5833  0.8559  1.9823
 6094SOL     OW29917   1.156   3.989  10.194  0.0530  0.5090  0.2251
 6094SOL    HW129918   1.195   4.008  10.109  1.3568  0.4326  0.7978
 6094SOL    HW229919   1.067   3.980  10.161 -0.3873 -2.4632  2.2059
 6095SOL     OW29920   4.203   1.900   7.854 -0.3124 -0.2017 -0.3825
 6095SOL    HW129921   4.291   1.892   7.892 -0.2823  0.2899 -0.3549
 6095SOL    HW229922   4.141   1.857   7.913 -0.3257 -0.4568 -0.5787
 6096SOL     OW29923   0.037   2.809  14.846  0.2652 -0.3327  0.4554
 6096SOL    HW129924   0.056   2.843  14.759 -0.1343 -0.2359  0.4057
 6096SOL    HW229925   0.079   2.875  14.901  2.3843 -1.7474  0.5381
 6097SOL     OW29926   4.157   4.540   7.160  0.3985 -0.6261 -0.8185
 6097SOL    HW129927   4.232   4.599   7.166 -1.7480  1.9639  0.8603
 6097SOL    HW229928   4.186   4.468   7.105  1.5630 -0.6227 -0.2125
 6098SOL     OW29929   1.066   1.290   2.769 -0.0646 -0.2269  0.4329
 6098SOL    HW129930   1.116   1.348   2.712  0.8040 -0.9180  0.4758
 6098SOL    HW229931   1.002   1.347   2.812  0.0153 -0.0333  0.2933
 6099SOL     OW29932   3.729   1.792   3.080  0.3276  0.2733 -0.0586
 6099SOL    HW129933   3.692   1.710   3.110  0.1224  0.8725  1.3463
 6099SOL    HW229934   3.656   1.848   3.108 -0.8045 -1.4464  0.3901
 6100SOL     OW29935   3.811   3.251   3.207 -0.7503 -0.0191  0.2442
 6100SOL    HW129936   3.761   3.172   3.187  1.2855 -1.3581  0.4643
 6100SOL    HW229937   3.783   3.261   3.299  0.7376 -1.9591  0.9068
 6101SOL     OW29938   0.262   0.402  17.010 -0.5624  0.3074  0.5928
 6101SOL    HW129939   0.178   0.433  17.045 -0.5680 -0.4691  1.2619
 6101SOL    HW229940   0.250   0.315  17.046  1.8885 -0.5844 -0.7250
 6102SOL     OW29941   0.837   2.198   2.750  0.5624  0.0041  0.1641
 6102SOL    HW129942   0.829   2.286   2.787  0.5009 -0.0908  0.3787
 6102SOL    HW229943   0.828   2.223   2.659  1.4023  0.4096  0.2022
 6103SOL     OW29944   1.435   3.048   9.873  0.1189 -0.0536 -0.1312
 6103SOL    HW129945   1.481   2.964   9.880 -2.2815 -1.4537 -1.2492
 6103SOL    HW229946   1.498   3.115   9.898  1.2035 -0.8592 -0.6736
 6104SOL     OW29947   4.120   0.743   4.346 -0.2256  0.0682 -0.6577
 6104SOL    HW129948   4.099   0.766   4.256 -1.9814  3.5897  0.6717
 6104SOL    HW229949   4.127   0.827   4.390  1.6822 -1.0033  1.0965
 6105SOL     OW29950   4.284   1.162   0.333  0.0885  0.0402 -0.7707
 6105SOL    HW129951   4.257   1.243   0.376 -1.3042 -0.7472 -0.1864
 6105SOL    HW229952   4.216   1.101   0.360 -0.4396  0.9347 -0.0839
 6106SOL     OW29953   3.264   3.913   4.990  0.9267  0.5695  0.1156
 6106SOL    HW129954   3.218   3.976   4.935 -0.4454 -0.5025  0.0547
 6106SOL    HW229955   3.341   3.969   4.999  2.0314 -0.5907 -1.8988
 6107SOL     OW29956   0.268   1.993  11.354 -0.7361  0.2816 -0.3305
 6107SOL    HW129957   0.198   2.052  11.384 -0.9165 -0.2332  0.2703
 6107SOL    HW229958   0.290   1.938  11.430  0.3209  1.3702  0.1522
 6108SOL     OW29959   4.216   1.162   5.368 -0.5136  0.4249  0.1799
 6108SOL    HW129960   4.154   1.161   5.441 -1.7625  1.0701 -0.8688
 6108SOL    HW229961   4.278   1.100   5.404 -0.0236  0.4911 -0.5494
 6109SOL     OW29962   1.166   4.454   2.970 -0.2540 -0.4507  0.1547
 6109SOL    HW129963   1.172   4.398   2.892 -1.4495 -0.1972 -0.1094
 6109SOL    HW229964   1.209   4.393   3.031  2.0884  1.2121  0.1685
 6110SOL     OW29965   0.620   0.550   9.876 -0.0927  0.4977  0.1448
 6110SOL    HW129966   0.560   0.487   9.918 -0.5487 -0.5244 -2.0429
 6110SOL    HW229967   0.703   0.561   9.922  0.3235 -1.2403 -0.1917
 6111SOL     OW29968   2.533   2.352   2.482  0.2063  0.4598  0.1413
 6111SOL    HW129969   2.615   2.310   2.506 -1.8445 -2.3746  2.2203
 6111SOL    HW229970   2.532   2.336   2.387 -0.6975 -0.2283  0.2612
 6112SOL     OW29971   0.939   3.890   7.948 -0.7409 -0.1833 -0.2398
 6112SOL    HW129972   0.877   3.947   7.902 -0.0505  1.6741  1.1609
 6112SOL    HW229973   0.887   3.881   8.029  2.2098 -1.0042  1.5450
 6113SOL     OW29974   0.479   3.857  15.120  0.3998  0.1223 -0.5854
 6113SOL    HW129975   0.402   3.799  15.120  1.0662 -0.7171  2.5165
 6113SOL    HW229976   0.544   3.792  15.144  0.4100  0.2900 -0.1682
 6114SOL     OW29977   1.923   4.682   5.994  0.1061  0.2810 -0.0368
 6114SOL    HW129978   1.991   4.655   5.932 -0.3734  0.4954 -0.6537
 6114SOL    HW229979   1.941   0.038   5.980  1.9452  0.0121  0.5578
 6115SOL     OW29980   4.605   3.405   8.175 -0.0834 -0.2805 -0.4934
 6115SOL    HW129981   4.669   3.429   8.108  0.8287 -1.8046 -0.1626
 6115SOL    HW229982   4.555   3.487   8.171 -0.9514 -0.7572  0.5533
 6116SOL     OW29983   1.668   1.647  14.608  0.2734  0.4438  0.3358
 6116SOL    HW129984   1.656   1.690  14.523  0.2798  0.8035  0.5151
 6116SOL    HW229985   1.730   1.708  14.649  0.6387 -0.5346  1.2380
 6117SOL     OW29986   0.410   3.066   7.731  0.2451 -0.5887  0.5871
 6117SOL    HW129987   0.412   3.159   7.754 -1.2821 -0.0781 -1.2883
 6117SOL    HW229988   0.321   3.050   7.763 -0.5091  1.8751 -0.2620
 6118SOL     OW29989   4.452   2.429   3.963  0.1736 -0.2944 -0.0143
 6118SOL    HW129990   4.403   2.386   4.032 -1.0683  0.0051 -0.7212
 6118SOL    HW229991   4.535   2.436   4.011  0.7918 -1.3225 -0.9272
 6119SOL     OW29992   3.929   2.249  13.521  0.2674 -0.2910 -0.5760
 6119SOL    HW129993   3.846   2.242  13.569 -0.1617 -0.7526 -1.3781
 6119SOL    HW229994   3.964   2.330  13.556 -1.1934 -0.3588  1.0258
 6120SOL     OW29995   0.123   0.166   7.820 -0.3240 -0.5008  0.2011
 6120SOL    HW129996   0.082   0.242   7.862  0.8463  0.6605 -0.7583
 6120SOL    HW229997   0.107   0.112   7.897  0.3397 -0.7695  0.1590
 6121SOL     OW29998   1.724   0.706   5.443  0.4267 -0.0662  0.3256
 6121SOL    HW129999   1.777   0.670   5.372 -0.9531  1.4659 -1.4823
 6121SOL    HW230000   1.752   0.657   5.521 -1.7436 -1.1940  0.4021
 6122SOL     OW30001   2.925   2.946  13.178  0.1185  0.0594  0.4921
 6122SOL    HW130002   2.931   2.852  13.197  1.9996  0.3275  1.1939
 6122SOL    HW230003   2.888   2.942  13.090 -2.0197  1.5443  1.3334
 6123SOL     OW30004   3.723   2.917   6.409 -0.3158 -0.3773 -0.0419
 6123SOL    HW130005   3.659   2.864   6.362  0.5072  0.3252 -1.9417
 6123SOL    HW230006   3.758   2.968   6.337  0.3493  0.4180  0.8418
 6124SOL     OW30007   0.691   0.571   5.949  0.2029 -0.4609  0.2996
 6124SOL    HW130008   0.660   0.520   5.873  2.3974  1.6354 -1.9841
 6124SOL    HW230009   0.629   0.643   5.945 -0.4878 -1.1299 -1.1890
 6125SOL     OW30010   3.483   3.726   9.324 -0.1151  0.8680 -0.0554
 6125SOL    HW130011   3.528   3.779   9.391  0.2553 -0.0359  0.4049
 6125SOL    HW230012   3.479   3.642   9.369 -1.3762  0.3860 -1.0949
 6126SOL     OW30013   0.529   4.372   4.682 -0.3135  0.0895  0.4562
 6126SOL    HW130014   0.534   4.355   4.776  2.3825 -1.6755  0.0127
 6126SOL    HW230015   0.581   4.299   4.649  0.2454  1.3525 -1.4522
 6127SOL     OW30016   2.465   2.946   1.591 -0.3838 -0.3709 -0.1106
 6127SOL    HW130017   2.428   2.982   1.672 -1.1788  3.2504 -2.1234
 6127SOL    HW230018   2.393   2.898   1.549 -1.2099  1.7531 -1.1055
 6128SOL     OW30019   1.766   2.066   1.670  0.0872 -0.4203 -0.2462
 6128SOL    HW130020   1.671   2.077   1.683  0.1285  0.8835 -1.0905
 6128SOL    HW230021   1.770   1.972   1.655  0.9219 -0.7371  1.9236
 6129SOL     OW30022   1.345   0.934   8.620 -0.2157 -0.0354 -1.0753
 6129SOL    HW130023   1.324   0.866   8.683  0.2969  1.0411  0.2682
 6129SOL    HW230024   1.254   0.951   8.596 -0.5246  1.0536  0.8744
 6130SOL     OW30025   0.247   1.714   8.390  0.5112 -0.4088  0.6045
 6130SOL    HW130026   0.284   1.765   8.461  1.7921 -2.1814  1.2084
 6130SOL    HW230027   0.222   1.783   8.328  0.3673 -1.0959 -0.1097
 6131SOL     OW30028   1.670   1.767   6.516 -0.4061 -0.5114 -0.3978
 6131SOL    HW130029   1.653   1.692   6.573 -5.3975 -0.5761 -1.9356
 6131SOL    HW230030   1.716   1.719   6.447 -0.0429 -1.3603  0.4370
 6132SOL     OW30031   3.637   3.042  11.583 -0.3232  0.0620  0.4555
 6132SOL    HW130032   3.707   3.023  11.520  1.6275  1.7341  2.1166
 6132SOL    HW230033   3.680   3.059  11.667  0.6200 -2.2630  0.4390
 6133SOL     OW30034   3.833   4.473   5.403  0.2196 -0.2862 -0.0834
 6133SOL    HW130035   3.791   4.408   5.459 -0.0629  0.3033  0.3976
 6133SOL    HW230036   3.913   4.473   5.457  2.0126  1.4148 -2.7833
 6134SOL     OW30037   3.289   3.418  12.381 -0.0430  0.6793  0.0328
 6134SOL    HW130038   3.251   3.367  12.310  2.1879  2.3338 -2.3738
 6134SOL    HW230039   3.311   3.353  12.447  1.8570  0.1129 -1.1539
 6135SOL     OW30040   4.438   3.569   7.311  0.1557 -0.1203 -0.1842
 6135SOL    HW130041   4.409   3.615   7.390  0.4268 -2.0867  1.0758
 6135SOL    HW230042   4.520   3.534   7.346  0.4904 -1.8334 -2.7045
 6136SOL     OW30043   4.003   3.029   9.218 -0.4176  0.6534  0.1707
 6136SOL    HW130044   4.050   2.980   9.285  0.0604 -0.1475 -0.7378
 6136SOL    HW230045   3.914   2.994   9.227  0.2589 -0.5932  1.9596
 6137SOL     OW30046   0.752   0.295   6.724  0.1869  0.1936  0.7372
 6137SOL    HW130047   0.677   0.302   6.783  0.6724  0.0119  1.3753
 6137SOL    HW230048   0.761   0.200   6.732  1.0433  0.3780  1.9848
 6138SOL     OW30049   4.444   3.273   3.073  0.2579 -0.3654  0.3837
 6138SOL    HW130050   4.502   3.349   3.078 -0.3498 -0.0945  3.1643
 6138SOL    HW230051   4.367   3.300   3.122  0.3817  0.8760 -0.1234
 6139SOL     OW30052   2.239   2.114   4.103 -0.1890  0.3164 -0.0859
 6139SOL    HW130053   2.149   2.106   4.070 -0.6860  3.5667  0.5158
 6139SOL    HW230054   2.225   2.119   4.197 -2.4976 -0.7069 -0.3624
 6140SOL     OW30055   0.312   3.811   5.345  0.4163  0.0319 -0.3677
 6140SOL    HW130056   0.242   3.749   5.361  1.4170 -0.8307  0.6744
 6140SOL    HW230057   0.276   3.861   5.271 -0.8517 -1.0038 -0.4410
 6141SOL     OW30058   0.644   2.179  13.480  0.6110  0.4488 -0.2847
 6141SOL    HW130059   0.718   2.221  13.436  1.5812  0.7554  1.6539
 6141SOL    HW230060   0.657   2.215  13.567  0.3801 -0.8044  0.2652
 6142SOL     OW30061   1.864   0.698  12.402  0.5375  0.7723 -0.5258
 6142SOL    HW130062   1.855   0.767  12.468  1.9258  0.2468  0.2132
 6142SOL    HW230063   1.959   0.688  12.395  0.4942  0.7142 -1.0362
 6143SOL     OW30064   0.660   4.284   5.398  0.0341  0.3193 -0.0423
 6143SOL    HW130065   0.615   4.208   5.433  2.3834 -0.8087  0.5565
 6143SOL    HW230066   0.736   4.308   5.451  1.1973 -0.5597 -1.3129
 6144SOL     OW30067   4.158   1.405   0.623  0.0958 -0.6480 -0.4396
 6144SOL    HW130068   4.189   1.452   0.546 -1.9430  2.1040  0.4269
 6144SOL    HW230069   4.194   1.456   0.695 -4.0066  1.4668  0.1090
 6145SOL     OW30070   1.842   2.652   4.316 -0.9974  0.5072 -0.0512
 6145SOL    HW130071   1.837   2.645   4.412 -1.3942 -0.7489 -0.1706
 6145SOL    HW230072   1.916   2.712   4.301 -0.2669 -0.8249 -1.6826
 6146SOL     OW30073   4.038   0.320   1.824  0.3941 -0.5279 -0.4902
 6146SOL    HW130074   4.133   0.328   1.816  0.5875 -1.1278  1.3396
 6146SOL    HW230075   4.037   0.231   1.858 -0.8435 -0.4857 -0.4101
 6147SOL     OW30076   4.602   3.493  17.565  0.0207  0.1433  0.5433
 6147SOL    HW130077   4.539   3.448  17.622 -1.3514  0.8215 -0.4408
 6147SOL    HW230078   4.668   3.523  17.628  1.9999 -2.2164 -0.4021
 6148SOL     OW30079   3.613   3.819   3.579  0.2859 -0.0305  0.0075
 6148SOL    HW130080   3.550   3.791   3.645 -0.9846  2.5391 -0.1237
 6148SOL    HW230081   3.651   3.737   3.546  2.1375 -0.0774  2.2203
 6149SOL     OW30082   4.219   3.057   4.682 -0.0074  0.0812  0.3504
 6149SOL    HW130083   4.221   2.998   4.757  1.1025  0.3253  0.5085
 6149SOL    HW230084   4.308   3.066   4.649 -0.2774  0.8306 -0.1890
 6150SOL     OW30085   3.398   0.812   8.383  0.4328  0.3608  0.0484
 6150SOL    HW130086   3.481   0.841   8.420  0.9484 -2.1425  0.8922
 6150SOL    HW230087   3.434   0.776   8.302  0.1752 -2.0184  0.9709
 6151SOL     OW30088   3.571   1.584   3.142 -0.4611 -0.6294  0.2114
 6151SOL    HW130089   3.541   1.588   3.051  0.7338 -3.7613 -0.3182
 6151SOL    HW230090   3.581   1.490   3.155  2.4982 -0.6753 -2.4285
 6152SOL     OW30091   0.893   2.049   4.790 -0.1649 -0.0213  0.1437
 6152SOL    HW130092   0.986   2.042   4.809  0.4544 -0.2449 -2.9036
 6152SOL    HW230093   0.842   2.000   4.855 -2.5486  0.6368 -1.2006
 6153SOL     OW30094   0.940   2.959   3.332 -0.4113 -0.2630  0.5003
 6153SOL    HW130095   0.921   2.900   3.405 -0.2434 -0.4722  0.3751
 6153SOL    HW230096   0.861   3.012   3.323  1.1367  1.6875 -1.2843
 6154SOL     OW30097   1.741   0.634   4.650  0.3059  0.4833 -0.6245
 6154SOL    HW130098   1.808   0.654   4.715  0.6595 -0.7451 -0.6007
 6154SOL    HW230099   1.785   0.621   4.567 -0.0003  1.4421 -0.9287
 6155SOL     OW30100   4.043   0.078  15.165 -0.5615 -0.3659  0.1212
 6155SOL    HW130101   3.958   0.045  15.191  0.3133 -2.4539  0.3445
 6155SOL    HW230102   4.011   0.165  15.144 -0.2163 -0.2491  0.0723
 6156SOL     OW30103   0.274   2.618   6.489  0.1197  0.9370 -0.4836
 6156SOL    HW130104   0.188   2.612   6.448  0.2853  2.6321 -1.0614
 6156SOL    HW230105   0.292   2.709   6.511 -0.2915  1.2491 -1.4308
 6157SOL     OW30106   4.416   0.943  15.951 -0.1511  0.3479  0.4501
 6157SOL    HW130107   4.413   0.911  16.041 -0.6039 -2.0206 -0.4300
 6157SOL    HW230108   4.438   1.035  15.969 -0.0753  0.1376  1.4209
 6158SOL     OW30109   4.673   2.342  12.203 -0.4923  0.2627 -0.1670
 6158SOL    HW130110   4.684   2.401  12.278 -1.5447 -0.3015  0.4433
 6158SOL    HW230111   4.729   2.393  12.144 -1.1566  0.2157 -0.8300
 6159SOL     OW30112   1.277   3.774  13.160 -0.8627 -0.3627 -0.0021
 6159SOL    HW130113   1.355   3.758  13.107 -2.6027  0.6278 -2.8311
 6159SOL    HW230114   1.303   3.851  13.210 -1.8663 -0.0321 -0.0001
 6160SOL     OW30115   3.239   3.650   1.865  0.1365 -0.3274  0.5396
 6160SOL    HW130116   3.248   3.741   1.836 -2.1323 -0.3629 -0.2672
 6160SOL    HW230117   3.294   3.646   1.944 -0.1513  1.6188  0.8368
 6161SOL     OW30118   2.631   2.745  16.453 -0.2639 -0.1847  0.1969
 6161SOL    HW130119   2.579   2.814  16.495  0.6595 -0.7524  2.2573
 6161SOL    HW230120   2.575   2.727  16.378 -1.3354 -1.4242  1.3119
 6162SOL     OW30121   2.803   2.391  13.813 -0.5951 -0.6894  0.0865
 6162SOL    HW130122   2.788   2.299  13.790  3.1778 -1.1976 -0.3363
 6162SOL    HW230123   2.716   2.420  13.841 -0.5148 -2.8143  2.5234
 6163SOL     OW30124   0.150   0.898  12.175  0.0084  1.0220 -0.0148
 6163SOL    HW130125   0.178   0.807  12.168 -0.2841  0.9120  0.2686
 6163SOL    HW230126   0.057   0.888  12.196  0.1528  0.4921  0.3668
 6164SOL     OW30127   2.065   2.965  13.855 -0.4254 -0.1644  0.0267
 6164SOL    HW130128   2.146   2.926  13.885 -0.2827  1.0427  1.2392
 6164SOL    HW230129   2.049   3.012  13.937 -2.0828 -1.9492  0.7269
 6165SOL     OW30130   0.233   1.789  13.143  0.3182 -0.4018 -0.2443
 6165SOL    HW130131   0.268   1.865  13.097  2.0802  1.3831  4.0622
 6165SOL    HW230132   0.208   1.725  13.076 -2.1164 -1.6740  1.8456
 6166SOL     OW30133   0.122   3.642   8.565 -0.2342 -0.1926 -0.1165
 6166SOL    HW130134   0.162   3.713   8.615 -1.0562  0.7038 -0.7297
 6166SOL    HW230135   0.030   3.668   8.558  0.7687  2.5793 -2.8553
 6167SOL     OW30136   2.411   0.248   0.601 -0.0245 -0.1980 -0.1626
 6167SOL    HW130137   2.425   0.160   0.566  2.5725  0.6570 -1.2848
 6167SOL    HW230138   2.375   0.290   0.522 -0.9465  1.4426  1.1239
 6168SOL     OW30139   0.450   2.061   9.437  0.1810 -0.0116  0.2495
 6168SOL    HW130140   0.367   2.023   9.406  1.5215 -3.4107  0.8981
 6168SOL    HW230141   0.426   2.154   9.436 -3.7446 -1.0058  0.8010
 6169SOL     OW30142   1.005   1.566   5.554 -0.0763  0.0196 -0.3652
 6169SOL    HW130143   0.930   1.562   5.613  0.6894 -0.5840  0.5781
 6169SOL    HW230144   0.990   1.483   5.509 -1.5807  0.0775  0.0157
 6170SOL     OW30145   0.561   3.772   5.900 -0.2468  0.1049 -0.2384
 6170SOL    HW130146   0.562   3.691   5.951  3.1933  0.1728 -0.2421
 6170SOL    HW230147   0.627   3.737   5.841  0.7350  0.5603  0.5940
 6171SOL     OW30148   1.694   0.777   4.380  0.1194 -0.1418 -0.0653
 6171SOL    HW130149   1.698   0.858   4.329  0.5163  0.5711  1.1154
 6171SOL    HW230150   1.705   0.802   4.471 -1.4193 -0.0997  0.1081
 6172SOL     OW30151   3.478   1.700   6.514  0.2093 -0.6942  0.4914
 6172SOL    HW130152   3.548   1.651   6.557  2.4758 -0.5078 -2.8766
 6172SOL    HW230153   3.482   1.777   6.570  2.2217 -0.0171 -0.5745
 6173SOL     OW30154   3.043   2.617  14.339 -0.1665  0.2560 -0.5056
 6173SOL    HW130155   3.097   2.558  14.286  2.5857  0.7579  1.7437
 6173SOL    HW230156   3.079   2.612  14.428  1.9753  1.9590 -1.2762
 6174SOL     OW30157   4.651   0.809  14.975 -0.1399 -0.0321  0.4695
 6174SOL    HW130158   4.559   0.806  14.948 -0.2158  1.2449  0.6161
 6174SOL    HW230159   4.642   0.839  15.065 -2.2959 -1.2172  0.6493
 6175SOL     OW30160   1.833   1.987   3.506 -0.3254  0.1095  0.5500
 6175SOL    HW130161   1.751   1.964   3.462 -0.4031 -0.2966  0.9026
 6175SOL    HW230162   1.847   2.079   3.485  2.7054 -0.1272  1.5987
 6176SOL     OW30163   4.337   0.536   2.461  0.5672 -0.0842  0.0400
 6176SOL    HW130164   4.269   0.472   2.440  0.6202  0.2949 -1.2786
 6176SOL    HW230165   4.300   0.595   2.526  1.5627 -0.3969  0.8940
 6177SOL     OW30166   3.555   2.039   7.112  0.1112 -0.5990 -0.5951
 6177SOL    HW130167   3.494   1.970   7.085  0.1431  0.2346 -2.7810
 6177SOL    HW230168   3.514   2.118   7.078 -0.7059 -0.8828 -0.2714
 6178SOL     OW30169   1.260   0.513   4.038 -0.2052 -0.4016  0.8696
 6178SOL    HW130170   1.276   0.606   4.055  0.4291 -0.5789  1.1976
 6178SOL    HW230171   1.240   0.520   3.945 -0.6789  1.7229  1.1251
 6179SOL     OW30172   1.897   1.973   2.578 -0.2279 -0.2777 -0.2989
 6179SOL    HW130173   1.858   1.954   2.493 -0.4150 -1.3695  0.0420
 6179SOL    HW230174   1.954   1.897   2.585  0.2224  0.0095 -0.8072
 6180SOL     OW30175   4.417   1.306   4.086  0.5433  1.0350  0.1599
 6180SOL    HW130176   4.436   1.396   4.058  0.7397  0.8782 -0.2175
 6180SOL    HW230177   4.335   1.317   4.133 -0.1507  1.0693 -1.0395
 6181SOL     OW30178   4.508   3.952  14.742 -0.0287 -0.5573 -0.0733
 6181SOL    HW130179   4.428   3.936  14.693 -0.5696  1.2832  0.2348
 6181SOL    HW230180   4.497   3.896  14.819 -0.5172  1.5694  1.4173
 6182SOL     OW30181   0.450   2.930   8.755 -0.5865  0.5364  0.3675
 6182SOL    HW130182   0.469   2.851   8.703  1.0869  1.7262 -0.8513
 6182SOL    HW230183   0.360   2.903   8.771 -0.2667 -1.0808 -0.4836
 6183SOL     OW30184   2.079   2.863   3.777 -0.3836 -0.5836 -0.3270
 6183SOL    HW130185   2.008   2.918   3.743 -0.0087  0.1342  0.0494
 6183SOL    HW230186   2.145   2.927   3.802  0.3555 -1.8038  0.8582
 6184SOL     OW30187   0.613   0.096   5.255  0.1445  0.0012  0.9851
 6184SOL    HW130188   0.706   0.117   5.260  0.1161  0.4719 -0.5484
 6184SOL    HW230189   0.585   0.171   5.202 -0.9277 -2.0584 -1.3892
 6185SOL     OW30190   3.550   0.028  17.482 -0.2376  0.4109  0.5284
 6185SOL    HW130191   3.543   4.728  17.395 -2.0861 -0.7209  1.1624
 6185SOL    HW230192   3.458   0.054  17.483  0.1491  1.7992  0.9208
 6186SOL     OW30193   4.201   1.146  10.579 -0.1530  0.3394 -0.4477
 6186SOL    HW130194   4.219   1.222  10.634 -0.0230  0.8091 -1.1401
 6186SOL    HW230195   4.112   1.138  10.613 -0.2848  1.6404 -0.4970
 6187SOL     OW30196   0.707   0.292   1.770  0.1472 -0.2993 -0.4335
 6187SOL    HW130197   0.688   0.226   1.837 -2.0730 -0.3930 -1.1612
 6187SOL    HW230198   0.795   0.263   1.744  0.7898  1.3102 -0.0227
 6188SOL     OW30199   3.584   4.726   0.251 -0.0350 -0.0577 -0.4247
 6188SOL    HW130200   3.618   4.642   0.281 -2.1318 -0.6459  0.3206
 6188SOL    HW230201   3.634   0.005   0.171  0.6286 -0.5306 -0.1034
 6189SOL     OW30202   0.955   1.746   4.090 -0.5261 -0.5661 -0.3964
 6189SOL    HW130203   0.902   1.667   4.098  0.4980 -1.2601 -0.4299
 6189SOL    HW230204   0.902   1.788   4.022 -1.5533 -1.2880 -0.0268
 6190SOL     OW30205   2.777   0.375   3.197 -0.2487 -1.1689  0.6398
 6190SOL    HW130206   2.839   0.425   3.142 -1.8124  0.3061  0.2104
 6190SOL    HW230207   2.804   0.388   3.288 -1.9142 -3.0790  1.4023
 6191SOL     OW30208   1.268   2.576   1.269  0.3898  0.0313  0.0559
 6191SOL    HW130209   1.268   2.659   1.316 -3.7670 -0.1364  0.3640
 6191SOL    HW230210   1.248   2.508   1.334 -0.9310  0.7211  0.3578
 6192SOL     OW30211   1.039   1.427   0.964 -0.3875  1.0617 -0.3425
 6192SOL    HW130212   0.944   1.428   0.971 -0.4388 -1.1925 -0.9308
 6192SOL    HW230213   1.063   1.418   0.872  1.1635 -2.5808  0.4327
 6193SOL     OW30214   3.212   4.337   0.010 -0.3475 -0.2853 -0.2625
 6193SOL    HW130215   3.135   4.391  17.740 -0.9431 -1.0095  0.1068
 6193SOL    HW230216   3.174   4.250   0.023  1.3113 -0.8663  0.6929
 6194SOL     OW30217   1.723   1.528  11.428 -0.2191  0.1102 -0.2431
 6194SOL    HW130218   1.769   1.584  11.490 -1.1581  1.9089 -1.1455
 6194SOL    HW230219   1.641   1.498  11.466  0.2149 -2.2754 -1.1841
 6195SOL     OW30220   4.160   4.210  16.737 -0.6821 -0.0735 -0.3847
 6195SOL    HW130221   4.236   4.221  16.679 -1.7854  0.5530 -1.7072
 6195SOL    HW230222   4.210   4.195  16.818 -0.4393 -1.1646 -0.7350
 6196SOL     OW30223   0.584   2.641   0.935 -0.1257 -0.3167 -0.4868
 6196SOL    HW130224   0.671   2.645   0.895  0.4936 -3.5415  0.5057
 6196SOL    HW230225   0.587   2.551   0.967 -1.1710 -0.3830 -0.5808
 6197SOL     OW30226   3.854   3.965   7.405 -0.4341 -0.4773  0.3978
 6197SOL    HW130227   3.817   3.952   7.318  1.1090  0.9425 -0.4632
 6197SOL    HW230228   3.795   3.931   7.473 -2.4277 -0.5266 -1.3778
 6198SOL     OW30229   0.216   4.399   9.270  0.4219 -0.5299 -0.4841
 6198SOL    HW130230   0.201   4.384   9.177 -0.7966 -0.0036 -0.3669
 6198SOL    HW230231   0.136   4.370   9.313  0.4136  0.8641  0.4600
 6199SOL     OW30232   0.559   4.516   2.055  0.3984 -0.0243  0.2453
 6199SOL    HW130233   0.520   4.494   1.970 -0.7796  3.0809 -0.0210
 6199SOL    HW230234   0.494   4.474   2.111  1.9625  0.0363  2.1101
 6200SOL     OW30235   3.944   2.205  14.747 -0.1541  0.4054  0.1960
 6200SOL    HW130236   4.008   2.143  14.782  2.2735  0.9851 -3.1950
 6200SOL    HW230237   3.996   2.284  14.761 -0.4184  0.5052  0.6196
 6201SOL     OW30238   2.706   4.487   2.697  0.6126 -0.9050 -0.1863
 6201SOL    HW130239   2.693   4.465   2.605 -2.8603 -1.7792  0.5306
 6201SOL    HW230240   2.772   4.556   2.685  0.0502 -0.3041  0.1468
 6202SOL     OW30241   3.787   1.000   4.415 -0.0723  0.9273 -0.4512
 6202SOL    HW130242   3.721   1.034   4.475 -1.9723  0.8694 -2.5131
 6202SOL    HW230243   3.864   1.001   4.472 -0.1354 -0.2717 -0.3395
 6203SOL     OW30244   4.623   1.083   2.920  0.5767  0.6729 -0.0529
 6203SOL    HW130245   4.662   1.061   2.835  0.9479 -2.0899  0.8345
 6203SOL    HW230246   4.687   1.052   2.983  0.8087  2.4814  0.6000
 6204SOL     OW30247   3.323   1.701  12.286  0.8074  0.3764  0.1600
 6204SOL    HW130248   3.346   1.667  12.200  3.1149 -0.8336  1.2635
 6204SOL    HW230249   3.383   1.775  12.297  0.4234  0.4356  1.8796
 6205SOL     OW30250   2.116   3.036   1.634 -0.5044 -0.5158 -0.1208
 6205SOL    HW130251   2.136   3.054   1.542 -0.6333  2.9164  0.5295
 6205SOL    HW230252   2.180   3.092   1.677  0.1687 -0.5887 -1.0271
 6206SOL     OW30253   2.325   2.772   3.331  0.3113 -0.0701  0.2216
 6206SOL    HW130254   2.258   2.840   3.333  1.2428  0.8481  0.0256
 6206SOL    HW230255   2.276   2.690   3.340  0.2709 -0.1595 -0.8475
 6207SOL     OW30256   3.058   1.590   7.844 -0.5821  0.0799  0.1703
 6207SOL    HW130257   3.141   1.542   7.850 -0.8605 -0.5341 -0.9562
 6207SOL    HW230258   3.013   1.537   7.911  2.0407 -1.2091  0.8990
 6208SOL     OW30259   0.898   3.632   6.117  0.2135  0.5705  0.5754
 6208SOL    HW130260   0.878   3.663   6.205 -1.6474 -0.3419  0.4604
 6208SOL    HW230261   0.934   3.714   6.084  0.4328 -0.3178 -1.4053
 6209SOL     OW30262   3.053   2.872   5.218 -0.2331  0.1383 -0.0867
 6209SOL    HW130263   3.037   2.964   5.198 -0.3034 -0.3187 -2.1883
 6209SOL    HW230264   3.066   2.865   5.312 -3.2566 -3.0234  0.0926
 6210SOL     OW30265   3.416   2.927   6.016  0.2360  0.6097 -0.6553
 6210SOL    HW130266   3.323   2.916   5.995 -0.2660  2.5820  0.4806
 6210SOL    HW230267   3.424   3.009   6.065  3.2203  0.3306 -0.6600
 6211SOL     OW30268   3.772   2.130   2.035  0.2939  0.0098 -0.2180
 6211SOL    HW130269   3.814   2.046   2.052 -2.2704 -1.5156 -1.3852
 6211SOL    HW230270   3.800   2.177   2.113  1.7328 -1.6059  0.2458
 6212SOL     OW30271   1.451   4.222   2.949  0.1199  0.1523 -0.5665
 6212SOL    HW130272   1.422   4.236   2.859  2.9903  2.9176 -1.0639
 6212SOL    HW230273   1.387   4.172   3.001 -0.0106  0.0433 -0.8321
 6213SOL     OW30274   4.162   3.619  12.267 -0.1405  0.0044  0.0208
 6213SOL    HW130275   4.250   3.616  12.306 -0.4943 -0.4501  0.7802
 6213SOL    HW230276   4.110   3.665  12.332 -0.9190 -0.4838 -0.2487
 6214SOL     OW30277   2.312   3.361  15.358 -0.2635 -0.1124  0.4399
 6214SOL    HW130278   2.308   3.288  15.296 -2.0191 -0.4931  1.0045
 6214SOL    HW230279   2.246   3.424  15.329  0.7604 -0.6093 -3.0189
 6215SOL     OW30280   2.815   2.867   2.965  0.0889 -0.0887 -0.5280
 6215SOL    HW130281   2.901   2.901   2.990 -0.6574  0.8442  0.8193
 6215SOL    HW230282   2.840   2.858   2.874  2.4504  1.0514 -0.0085
 6216SOL     OW30283   0.560   3.896  12.918  0.1913  0.0037  0.2723
 6216SOL    HW130284   0.597   3.915  13.005  0.1707  0.0541  0.2701
 6216SOL    HW230285   0.616   3.823  12.891  0.6572 -0.1035  1.5227
 6217SOL     OW30286   1.536   1.673   7.126  0.9608  0.4825 -0.4826
 6217SOL    HW130287   1.585   1.675   7.044  0.8829 -0.6936 -0.5477
 6217SOL    HW230288   1.446   1.669   7.093  0.2370 -1.0605  1.7222
 6218SOL     OW30289   4.341   4.165  13.071 -0.0443  0.4496  0.1551
 6218SOL    HW130290   4.280   4.100  13.037  0.3849 -0.2539  0.7177
 6218SOL    HW230291   4.427   4.131  13.044 -0.3397  0.6871 -1.0762
 6219SOL     OW30292   4.562   2.841   9.699 -0.0544 -0.0225 -0.3693
 6219SOL    HW130293   4.534   2.753   9.725  1.7698  0.4012  2.8874
 6219SOL    HW230294   4.624   2.861   9.769 -0.5460  0.6241 -0.1270
 6220SOL     OW30295   2.103   4.303   2.280 -0.5514 -0.4769 -0.0579
 6220SOL    HW130296   2.145   4.387   2.302 -2.2905  0.1830  0.7784
 6220SOL    HW230297   2.180   4.248   2.295 -0.0460 -0.1718 -1.5914
 6221SOL     OW30298   3.254   1.442  15.051 -0.2565  0.0959 -0.1043
 6221SOL    HW130299   3.210   1.510  15.000 -2.3386 -1.9285 -0.9898
 6221SOL    HW230300   3.348   1.463  15.044 -0.2892  0.0485 -0.7473
 6222SOL     OW30301   0.429   2.578   3.082 -0.6073  0.5813  0.0623
 6222SOL    HW130302   0.380   2.603   3.160 -0.7262 -0.0301  0.1892
 6222SOL    HW230303   0.487   2.654   3.084 -0.4357  0.5099 -2.2328
 6223SOL     OW30304   1.102   4.269   7.186 -0.5174 -0.1790 -0.2380
 6223SOL    HW130305   1.174   4.330   7.200 -0.3974 -0.5973  0.9194
 6223SOL    HW230306   1.055   4.283   7.268 -1.6464 -0.6993 -0.7877
 6224SOL     OW30307   1.204   3.891   4.023 -0.1961 -0.5198 -0.1341
 6224SOL    HW130308   1.276   3.942   4.060 -0.5547 -1.1772  1.4397
 6224SOL    HW230309   1.239   3.804   4.040  0.8938 -0.0593 -0.0099
 6225SOL     OW30310   2.357   2.266   9.403  0.6259  0.0830  0.3279
 6225SOL    HW130311   2.420   2.252   9.473  0.4125  0.4861  0.6040
 6225SOL    HW230312   2.399   2.337   9.355 -1.3207  0.3587 -0.9532
 6226SOL     OW30313   3.346   3.861  15.256  0.0353 -0.3975 -0.6403
 6226SOL    HW130314   3.312   3.829  15.173 -1.7314 -3.8854  1.4469
 6226SOL    HW230315   3.342   3.778  15.302 -0.0335  0.3863  0.7696
 6227SOL     OW30316   1.017   1.768  10.614  0.0838  0.0798 -0.3322
 6227SOL    HW130317   0.930   1.779  10.577 -0.1225 -0.9953 -0.1589
 6227SOL    HW230318   1.058   1.854  10.621  0.5065 -0.2337  1.1627
 6228SOL     OW30319   4.451   2.550  17.513 -0.6183  0.4788 -0.2697
 6228SOL    HW130320   4.436   2.460  17.487 -0.3278  0.1760  0.6001
 6228SOL    HW230321   4.498   2.581  17.436  0.6517 -0.5266  0.1142
 6229SOL     OW30322   0.114   0.283   1.633  0.2162 -0.0313 -0.2011
 6229SOL    HW130323   0.037   0.259   1.581 -0.5242 -0.2482  0.9939
 6229SOL    HW230324   0.142   0.206   1.683 -0.9305  1.4812  2.7506
 6230SOL     OW30325   2.022   0.526   1.976  0.6247  0.5146  0.2049
 6230SOL    HW130326   1.980   0.585   2.038  0.4859  1.5926 -0.9155
 6230SOL    HW230327   1.960   0.456   1.996  1.1618 -0.4104 -1.3835
 6231SOL     OW30328   4.426   2.243   3.752  0.0825  0.4125  0.0150
 6231SOL    HW130329   4.428   2.318   3.812 -0.3313  1.1239 -0.8736
 6231SOL    HW230330   4.516   2.212   3.762 -0.4220 -1.5371 -1.6637
 6232SOL     OW30331   2.922   0.981  17.721 -0.1165 -0.2907  0.1676
 6232SOL    HW130332   2.948   0.961   0.064 -0.4445  2.5380  0.8873
 6232SOL    HW230333   2.974   1.060  17.709 -1.0193  0.5629  1.8579
 6233SOL     OW30334   1.653   2.217  17.325 -0.5958 -0.3019  0.3267
 6233SOL    HW130335   1.599   2.277  17.376 -2.7019 -1.1293 -0.8940
 6233SOL    HW230336   1.663   2.269  17.245 -1.2550  1.2079  1.2290
 6234SOL     OW30337   0.833   2.118  13.211 -0.7072 -0.1528  0.0683
 6234SOL    HW130338   0.879   2.073  13.282 -1.2222 -1.3082 -0.3320
 6234SOL    HW230339   0.761   2.162  13.257 -0.7819 -2.5496  2.2082
 6235SOL     OW30340   2.057   3.996   1.623  0.5436  0.4222 -0.1446
 6235SOL    HW130341   2.021   4.081   1.649  1.4179  0.4471  0.9702
 6235SOL    HW230342   2.044   3.988   1.528  0.7389  0.3633 -0.1671
 6236SOL     OW30343   4.278   1.911   2.761 -0.2316  0.2330 -0.3152
 6236SOL    HW130344   4.326   1.933   2.841 -0.6323 -0.1635  0.0397
 6236SOL    HW230345   4.351   1.894   2.702 -0.3076  2.2006 -0.9553
 6237SOL     OW30346   4.239   0.161   0.343  0.2657 -0.0901 -0.3376
 6237SOL    HW130347   4.154   0.199   0.366  1.0830  1.4217  0.2016
 6237SOL    HW230348   4.205   0.102   0.276  0.9082 -0.7740 -0.0659
 6238SOL     OW30349   0.648   0.254   7.314 -0.5085  0.0369 -0.1152
 6238SOL    HW130350   0.586   0.324   7.333  1.2422  1.2510  1.1169
 6238SOL    HW230351   0.611   0.187   7.371  1.2906 -0.4702  0.4607
 6239SOL     OW30352   1.433   3.392  13.169 -0.4048 -0.5415  0.0070
 6239SOL    HW130353   1.485   3.324  13.211 -0.0914  0.0762  0.6242
 6239SOL    HW230354   1.427   3.451  13.245  0.3588 -0.4173 -0.0346
 6240SOL     OW30355   4.279   2.864   8.338  0.1310  0.1982  0.3672
 6240SOL    HW130356   4.374   2.861   8.330  0.2764 -0.9069  2.6059
 6240SOL    HW230357   4.277   2.850   8.432  0.4679  2.7203  0.7413
 6241SOL     OW30358   2.478   4.030  14.365  0.0730  0.3595  0.0982
 6241SOL    HW130359   2.418   3.987  14.305  0.7426  0.7397 -0.8557
 6241SOL    HW230360   2.460   3.982  14.446 -0.1139  2.2833  1.2167
 6242SOL     OW30361   0.684   4.728   8.384  0.3790  0.2637 -0.1877
 6242SOL    HW130362   0.634   0.071   8.367  0.2501  0.1356 -0.4158
 6242SOL    HW230363   0.663   4.676   8.306 -0.0943  0.0602  0.0800
 6243SOL     OW30364   2.407   3.365  13.453 -0.0724 -0.4933  0.2419
 6243SOL    HW130365   2.339   3.382  13.518  2.7019  1.3732  2.6112
 6243SOL    HW230366   2.368   3.349  13.367  3.8263  2.9473 -2.1795
 6244SOL     OW30367   2.990   4.713   3.925  0.4349 -0.4505 -0.0680
 6244SOL    HW130368   3.013   4.677   4.011 -0.6300  0.2909  0.5224
 6244SOL    HW230369   2.908   0.024   3.937  1.5766  0.9277  2.3426
 6245SOL     OW30370   1.252   3.012   7.881  0.2666 -0.0475 -0.3161
 6245SOL    HW130371   1.230   3.012   7.974  0.1834 -3.3289 -0.3268
 6245SOL    HW230372   1.277   2.920   7.868  1.1321 -0.0888  1.7225
 6246SOL     OW30373   3.565   4.358  16.061 -0.5736 -0.1141  0.2888
 6246SOL    HW130374   3.519   4.294  16.116  0.4512  0.8223  2.2447
 6246SOL    HW230375   3.551   4.439  16.110  3.1428  0.5204  0.3128
 6247SOL     OW30376   3.111   4.359  11.431  0.0976 -0.4326 -0.0575
 6247SOL    HW130377   3.053   4.380  11.504  0.6058  0.3900  0.0947
 6247SOL    HW230378   3.099   4.433  11.371  1.6498  1.0036  1.4209
 6248SOL     OW30379   2.709   0.644  17.430 -0.3099  0.3829  0.6524
 6248SOL    HW130380   2.674   0.723  17.469 -2.2730 -1.2296  2.1515
 6248SOL    HW230381   2.627   0.604  17.402  1.6024 -0.9172 -3.1036
 6249SOL     OW30382   4.116   0.156   7.581 -0.4151  0.1727  0.4861
 6249SOL    HW130383   4.085   0.220   7.517  1.7716  2.6779  1.9306
 6249SOL    HW230384   4.100   0.073   7.535 -1.7923 -0.2786  1.7985
 6250SOL     OW30385   2.157   3.068   1.370  0.5256 -0.4584 -0.0473
 6250SOL    HW130386   2.134   3.119   1.292 -1.2847  0.0944  0.8546
 6250SOL    HW230387   2.086   3.005   1.379  0.6356 -0.7603 -1.2457
 6251SOL     OW30388   4.018   4.072  10.505 -0.1394 -0.5813 -0.4718
 6251SOL    HW130389   4.005   4.042  10.415 -1.2330  0.7342 -0.7604
 6251SOL    HW230390   4.042   4.163  10.486 -0.0713 -0.3619  0.6539
 6252SOL     OW30391   1.470   0.050  11.959  0.1774  0.5420 -0.3952
 6252SOL    HW130392   1.511   4.716  11.909 -2.8251 -0.4755 -1.4346
 6252SOL    HW230393   1.517   0.130  11.934 -0.1832  0.8858  0.0274
 6253SOL     OW30394   4.180   0.752  11.318 -0.1801 -0.6273 -0.5215
 6253SOL    HW130395   4.252   0.716  11.267 -0.4947 -1.1152 -0.6189
 6253SOL    HW230396   4.217   0.755  11.406  0.7885 -1.0586 -0.9202
 6254SOL     OW30397   1.330   1.350  16.256  0.9271  0.7680 -0.3702
 6254SOL    HW130398   1.337   1.432  16.206  0.9587  0.1707 -1.3467
 6254SOL    HW230399   1.305   1.387  16.341 -4.3263 -0.0750 -1.6053
 6255SOL     OW30400   3.605   3.808   1.675 -0.6438 -0.0792 -0.5690
 6255SOL    HW130401   3.598   3.886   1.620 -1.2315  1.2207  1.3609
 6255SOL    HW230402   3.607   3.738   1.610 -0.7820  0.1574 -0.8266
 6256SOL     OW30403   4.378   3.763  12.648  0.0626  0.1369  0.0172
 6256SOL    HW130404   4.369   3.852  12.681 -0.6641 -0.1771  0.6818
 6256SOL    HW230405   4.363   3.706  12.724  0.5314  1.3468  1.0150
 6257SOL     OW30406   3.833   1.356   4.887 -0.1695 -0.0530  0.5763
 6257SOL    HW130407   3.845   1.335   4.794  0.2349 -0.4957  0.7320
 6257SOL    HW230408   3.922   1.344   4.921 -0.9150 -1.8834  1.8007
 6258SOL     OW30409   3.422   3.717   3.768 -0.7113 -0.1912 -0.0485
 6258SOL    HW130410   3.352   3.725   3.834 -0.6686  2.8576 -0.3566
 6258SOL    HW230411   3.438   3.623   3.773  1.0372  0.0758 -0.7446
 6259SOL     OW30412   0.896   0.808   5.453 -0.0547  0.3337  0.1192
 6259SOL    HW130413   0.970   0.830   5.396  0.7144  0.2757  1.1045
 6259SOL    HW230414   0.898   0.882   5.514 -0.5036  0.6969 -0.3076
 6260SOL     OW30415   2.063   3.250  10.830  0.9141 -0.1598  0.0928
 6260SOL    HW130416   2.064   3.311  10.757  2.1932 -0.5552 -0.2135
 6260SOL    HW230417   2.098   3.310  10.896  2.2636 -0.3926 -0.4173
 6261SOL     OW30418   1.847   1.605   2.565  0.2811 -0.2813  0.8087
 6261SOL    HW130419   1.897   1.523   2.569  0.1623 -0.3954  0.0223
 6261SOL    HW230420   1.896   1.644   2.493 -0.6193  1.2689  1.0303
 6262SOL     OW30421   3.697   2.552   8.781  0.3394 -0.0573  0.3607
 6262SOL    HW130422   3.738   2.629   8.742  1.7045 -0.4348  1.0432
 6262SOL    HW230423   3.720   2.568   8.872  0.2316  0.8054  0.2305
 6263SOL     OW30424   3.653   2.289   8.065  0.1637  0.4383 -0.0933
 6263SOL    HW130425   3.716   2.346   8.110 -0.1476  2.1523 -1.8321
 6263SOL    HW230426   3.599   2.361   8.031  0.4770 -0.1550 -1.8325
 6264SOL     OW30427   3.517   4.688   0.516 -0.2351  0.0174  0.4282
 6264SOL    HW130428   3.563   4.694   0.600  0.1973  3.4801 -0.0874
 6264SOL    HW230429   3.567   0.002   0.453  0.2243  0.1724  0.9186
 6265SOL     OW30430   0.294   2.008  12.070  0.2328 -0.0047 -0.4331
 6265SOL    HW130431   0.241   2.062  12.130  1.5594 -1.3222  1.9208
 6265SOL    HW230432   0.294   1.923  12.114 -1.8008 -0.2775 -0.9601
 6266SOL     OW30433   1.275   1.372   6.389 -0.2304  0.3934  0.1031
 6266SOL    HW130434   1.360   1.348   6.352 -1.4281 -2.0567 -1.0556
 6266SOL    HW230435   1.265   1.294   6.443 -0.6092  0.3262 -0.0628
 6267SOL     OW30436   1.249   2.119  16.335 -0.6732  0.4280 -1.0018
 6267SOL    HW130437   1.299   2.043  16.365  1.8416  0.8669 -4.0464
 6267SOL    HW230438   1.219   2.149  16.420  2.3820 -2.6020  1.1276
 6268SOL     OW30439   2.485   1.924   8.094 -0.4223 -0.3500 -0.0816
 6268SOL    HW130440   2.496   2.019   8.096 -1.4496 -0.2722  1.7907
 6268SOL    HW230441   2.499   1.907   8.187 -3.9117  2.1770  0.9175
 6269SOL     OW30442   0.812   3.669   5.668 -0.5974  0.0394 -0.3318
 6269SOL    HW130443   0.883   3.657   5.730 -1.2886 -1.6841  0.1206
 6269SOL    HW230444   0.830   3.759   5.640 -1.3336  0.5457  0.7916
 6270SOL     OW30445   4.685   1.144   2.465  0.2152 -0.2966 -0.0663
 6270SOL    HW130446   4.734   1.209   2.415 -0.9637 -1.1288 -2.2599
 6270SOL    HW230447   4.686   1.071   2.404  0.8252 -1.3283  1.1828
 6271SOL     OW30448   0.261   4.659   9.425 -0.4303 -0.0946  0.7694
 6271SOL    HW130449   0.236   0.001   9.378  1.2069 -0.3915 -0.6145
 6271SOL    HW230450   0.205   4.594   9.383  1.8076  0.7835 -3.6284
 6272SOL     OW30451   0.451   2.472   2.794  0.3861 -0.0355 -0.3444
 6272SOL    HW130452   0.483   2.557   2.765  0.0532  0.2265  0.0611
 6272SOL    HW230453   0.434   2.490   2.886 -0.7060  0.3014 -0.6176
 6273SOL     OW30454   4.223   1.375   1.699 -0.1007 -0.2043 -0.0132
 6273SOL    HW130455   4.258   1.294   1.737 -2.0869 -0.8765  0.3424
 6273SOL    HW230456   4.139   1.388   1.742 -0.4389 -1.3988 -0.2943
 6274SOL     OW30457   3.707   4.218  11.882 -0.4616 -1.0195 -0.0661
 6274SOL    HW130458   3.741   4.201  11.970  2.0814 -3.2776 -1.4796
 6274SOL    HW230459   3.626   4.166  11.879 -2.1233  1.5300  0.5214
 6275SOL     OW30460   2.534   0.451   7.299 -1.0999  0.6255  0.0084
 6275SOL    HW130461   2.562   0.493   7.218  3.6624 -4.1408 -0.7866
 6275SOL    HW230462   2.573   0.514   7.359 -1.2723 -0.0350  0.8104
 6276SOL     OW30463   1.134   2.150   8.527 -0.0443 -0.2616  0.8232
 6276SOL    HW130464   1.211   2.166   8.474 -0.1668 -2.8340 -0.1415
 6276SOL    HW230465   1.174   2.107   8.602 -0.9359 -1.0146  0.8771
 6277SOL     OW30466   2.551   0.818   7.147 -0.5302  0.0415  0.4181
 6277SOL    HW130467   2.529   0.904   7.112  0.2877  0.4780  0.9755
 6277SOL    HW230468   2.604   0.845   7.222  0.6346  2.9136 -1.4703
 6278SOL     OW30469   1.652   3.476   8.295 -0.1432  0.3082  0.7021
 6278SOL    HW130470   1.710   3.400   8.288  0.8460  1.2670 -1.5965
 6278SOL    HW230471   1.637   3.484   8.201 -1.9405  0.9331  1.0478
 6279SOL     OW30472   0.479   3.782   6.797 -0.0387  0.4027  0.7400
 6279SOL    HW130473   0.559   3.818   6.835  0.4740 -1.5475  1.4917
 6279SOL    HW230474   0.495   3.689   6.813  1.7610  0.2503 -1.9439
 6280SOL     OW30475   0.531   2.818   4.946 -0.0130  0.0174  0.2334
 6280SOL    HW130476   0.493   2.902   4.920 -1.4291 -0.2388  1.4655
 6280SOL    HW230477   0.492   2.807   5.033 -1.6444  1.7411 -0.2895
 6281SOL     OW30478   0.872   1.969  10.492 -0.5362  0.4887  1.0797
 6281SOL    HW130479   0.889   2.041  10.431  1.6529 -2.1592 -1.4333
 6281SOL    HW230480   0.799   2.000  10.545 -0.9000  3.6548 -1.2979
 6282SOL     OW30481   0.503   3.589   8.420 -0.1511  0.1063  0.3792
 6282SOL    HW130482   0.428   3.606   8.363 -1.0032  0.8453  1.7043
 6282SOL    HW230483   0.493   3.675   8.462  2.3921 -0.1012  1.3926
 6283SOL     OW30484   3.208   0.718   5.834  0.2917 -0.4868 -0.0893
 6283SOL    HW130485   3.209   0.784   5.904 -0.9730 -0.7210  0.1416
 6283SOL    HW230486   3.113   0.708   5.829  0.3389 -1.0296  0.0929
 6284SOL     OW30487   2.400   1.918  12.815  0.0489  0.8802 -0.3860
 6284SOL    HW130488   2.315   1.889  12.784  0.3890  1.0877 -1.5341
 6284SOL    HW230489   2.392   1.875  12.900  0.8134  1.5833  0.0443
 6285SOL     OW30490   1.900   2.972   2.706  0.3301  0.6405 -0.3044
 6285SOL    HW130491   1.899   3.064   2.681  1.6810  0.8248  0.3084
 6285SOL    HW230492   1.990   2.940   2.694  0.0084  0.2224 -1.5602
 6286SOL     OW30493   0.085   3.556   3.174 -0.6782 -0.2178 -0.4884
 6286SOL    HW130494   0.027   3.511   3.114  0.3370 -0.0085 -1.6248
 6286SOL    HW230495   0.022   3.624   3.198  0.9394  1.3766 -0.6961
 6287SOL     OW30496   0.724   3.016   4.630 -0.0900 -0.2194  0.0633
 6287SOL    HW130497   0.686   3.064   4.556  0.4012 -0.2952 -0.2355
 6287SOL    HW230498   0.727   2.923   4.605  3.6131 -0.4293  1.2253
 6288SOL     OW30499   0.429   3.130   5.687  0.1611  0.4377 -0.0294
 6288SOL    HW130500   0.466   3.191   5.623  1.0179  0.1244  0.1666
 6288SOL    HW230501   0.417   3.195   5.756  0.9377 -0.8044  1.2688
 6289SOL     OW30502   2.218   2.363   0.018  0.3660  0.6072  0.0826
 6289SOL    HW130503   2.262   2.286   0.054  0.0289  0.6616  0.6125
 6289SOL    HW230504   2.141   2.323  17.725  1.8102  1.2933 -3.3871
 6290SOL     OW30505   2.384   3.471   3.085 -0.0284 -0.4190  0.1188
 6290SOL    HW130506   2.404   3.531   3.013  1.0288  1.5148  2.0063
 6290SOL    HW230507   2.307   3.428   3.049 -1.8455  2.3561  0.7271
 6291SOL     OW30508   0.183   1.811   7.849  0.5006 -0.0324  0.1721
 6291SOL    HW130509   0.141   1.792   7.765 -0.5363 -2.9393  1.3229
 6291SOL    HW230510   0.231   1.730   7.867  1.6738  1.3152  3.1166
 6292SOL     OW30511   4.264   3.004   4.343 -0.2841 -0.0135  0.0947
 6292SOL    HW130512   4.243   3.097   4.357  1.3300  0.0768  1.8402
 6292SOL    HW230513   4.319   3.020   4.267 -0.8684  2.1970  0.1096
 6293SOL     OW30514   2.572   1.474   3.989 -0.2073 -0.0958  0.2360
 6293SOL    HW130515   2.564   1.493   3.896  1.1253 -1.3391 -0.1273
 6293SOL    HW230516   2.527   1.545   4.035  0.5376  3.1124 -3.9779
 6294SOL     OW30517   2.549   3.783  11.293 -0.5748 -0.1698 -0.1146
 6294SOL    HW130518   2.481   3.718  11.310  0.0886 -1.2217 -1.4532
 6294SOL    HW230519   2.627   3.726  11.298 -0.7047 -0.1792  1.6323
 6295SOL     OW30520   0.625   0.238   2.475  0.1000 -0.2110 -0.0693
 6295SOL    HW130521   0.565   0.206   2.543  0.5314  1.1957  0.9585
 6295SOL    HW230522   0.690   0.168   2.473 -0.4714 -0.7306 -0.8240
 6296SOL     OW30523   1.836   1.995   9.385  0.0644 -0.0495  0.7130
 6296SOL    HW130524   1.897   1.964   9.318 -1.5160 -0.6161 -0.4389
 6296SOL    HW230525   1.877   2.080   9.405  0.0766  0.4496 -1.4310
 6297SOL     OW30526   3.645   0.849   5.401  0.3170 -0.1419 -0.0520
 6297SOL    HW130527   3.563   0.891   5.378 -0.5779 -1.0650  1.4143
 6297SOL    HW230528   3.708   0.914   5.369 -0.1362 -0.2821 -1.2280
 6298SOL     OW30529   3.832   0.136   7.207 -0.4601  0.2566 -0.3466
 6298SOL    HW130530   3.883   0.056   7.203 -0.7616  0.0488  0.0060
 6298SOL    HW230531   3.791   0.148   7.121  1.5619  1.5228 -1.1415
 6299SOL     OW30532   0.882   0.406   4.001  0.0863  0.0552  0.1586
 6299SOL    HW130533   0.910   0.345   4.070  1.3122 -0.4815 -0.8289
 6299SOL    HW230534   0.953   0.462   3.970 -0.6987  0.8856 -0.1276
 6300SOL     OW30535   2.620   0.733  12.133  0.1575  0.3024 -0.8164
 6300SOL    HW130536   2.697   0.708  12.082  1.2839  0.8630  0.5778
 6300SOL    HW230537   2.566   0.763  12.061  1.2963  1.0366 -1.3580
 6301SOL     OW30538   2.995   4.670   6.828  0.2323 -0.1078  0.2435
 6301SOL    HW130539   2.999   0.016   6.877  0.3644 -1.0580  1.8471
 6301SOL    HW230540   3.067   4.681   6.767 -0.3327  0.8296 -0.2589
 6302SOL     OW30541   1.103   1.340   4.626  0.1670 -0.3045  0.2516
 6302SOL    HW130542   1.152   1.406   4.675 -0.3909  0.5774 -0.3926
 6302SOL    HW230543   1.036   1.302   4.683  1.1818 -0.7795  1.1278
 6303SOL     OW30544   1.907   0.385   2.479  0.0270  0.5937 -0.4443
 6303SOL    HW130545   1.861   0.427   2.551  0.5507  0.1231  0.1699
 6303SOL    HW230546   1.846   0.386   2.406  0.6251  1.6878 -0.9275
 6304SOL     OW30547   4.484   4.128   5.280 -0.2035 -0.4625 -0.2855
 6304SOL    HW130548   4.468   4.223   5.274  0.7812 -0.2806 -0.0342
 6304SOL    HW230549   4.561   4.129   5.223 -1.0282 -0.9218 -1.4128
 6305SOL     OW30550   3.814   2.355  17.380  0.3521  0.4455 -0.1179
 6305SOL    HW130551   3.779   2.367  17.292  2.7035  0.3276 -1.0533
 6305SOL    HW230552   3.746   2.316  17.435  1.3278  0.6982  1.2686
 6306SOL     OW30553   2.821   1.620   5.830 -0.8694 -0.5041  0.0399
 6306SOL    HW130554   2.815   1.687   5.762 -1.4847 -1.1193 -0.5190
 6306SOL    HW230555   2.915   1.601   5.824 -0.4329  2.3053 -1.9343
 6307SOL     OW30556   0.888   3.667   1.613  0.6062 -0.5341 -0.1729
 6307SOL    HW130557   0.872   3.572   1.616  0.2499 -0.4761 -0.2195
 6307SOL    HW230558   0.925   3.678   1.525  2.9265  0.9164  1.0103
 6308SOL     OW30559   1.162   0.898  10.145  0.1531  0.2400  0.3717
 6308SOL    HW130560   1.177   0.820  10.092  1.8179  0.7584  0.0812
 6308SOL    HW230561   1.202   0.882  10.231  1.1496 -1.5963 -0.4338
 6309SOL     OW30562   1.380   1.659   5.029  0.1984  0.0377  0.4588
 6309SOL    HW130563   1.351   1.665   5.120 -1.2914 -0.8282  0.0352
 6309SOL    HW230564   1.331   1.738   5.007 -0.4218 -0.6377 -0.5453
 6310SOL     OW30565   4.502   2.358   6.525 -0.0947  0.5875 -0.3001
 6310SOL    HW130566   4.548   2.427   6.572 -1.3531  1.6347 -0.5847
 6310SOL    HW230567   4.497   2.390   6.435 -0.3052 -0.5867 -0.7084
 6311SOL     OW30568   2.162   2.393   8.223 -0.0442 -0.1498  0.0684
 6311SOL    HW130569   2.209   2.384   8.140 -1.6085  2.1011 -1.0728
 6311SOL    HW230570   2.150   2.488   8.222 -0.0578 -0.1144  2.4067
 6312SOL     OW30571   4.161   1.607   3.861  0.0638  0.3437  0.2148
 6312SOL    HW130572   4.157   1.517   3.831  0.4442  0.0785  0.9556
 6312SOL    HW230573   4.244   1.612   3.909 -0.7714 -0.7498  1.7399
 6313SOL     OW30574   3.679   4.301   2.442  0.7321 -0.1014  0.1197
 6313SOL    HW130575   3.632   4.227   2.403 -0.3997  0.5795  0.1876
 6313SOL    HW230576   3.611   4.366   2.461 -0.0673  0.1096 -3.5201
 6314SOL     OW30577   3.611   0.803   8.759 -0.0555 -0.0023 -0.5127
 6314SOL    HW130578   3.661   0.839   8.685  1.5720  0.8856  1.0318
 6314SOL    HW230579   3.636   0.710   8.755  1.4676  0.5567 -3.8815
 6315SOL     OW30580   4.083   3.860   7.502 -0.1339  0.6116 -0.7974
 6315SOL    HW130581   3.997   3.897   7.481 -0.6225 -0.3770 -0.5330
 6315SOL    HW230582   4.062   3.825   7.589  2.0176 -1.0991 -0.9434
 6316SOL     OW30583   2.377   3.075   8.827  0.8228  0.6545  0.0510
 6316SOL    HW130584   2.300   3.132   8.832  0.0101 -0.4657  0.5415
 6316SOL    HW230585   2.426   3.112   8.754 -0.8096  2.7274  0.0172
 6317SOL     OW30586   3.770   4.168   2.091  0.1890  0.2914  0.2025
 6317SOL    HW130587   3.680   4.190   2.112  0.6787 -0.2118  2.7650
 6317SOL    HW230588   3.805   4.107   2.156 -0.4936  0.3467  0.6208
 6318SOL     OW30589   2.034   1.994   4.804 -0.2639 -0.4504 -0.2034
 6318SOL    HW130590   2.094   1.994   4.878 -0.1979 -1.1472 -0.2588
 6318SOL    HW230591   1.999   2.083   4.814 -2.2503 -1.0160 -2.1787
 6319SOL     OW30592   4.538   1.740   3.851  0.2663 -0.4114  0.1551
 6319SOL    HW130593   4.559   1.809   3.787 -1.4377 -0.5811 -0.5975
 6319SOL    HW230594   4.625   1.703   3.863  1.4017  2.3332  0.3355
 6320SOL     OW30595   3.029   0.921  10.939 -0.2106 -0.7172 -0.0090
 6320SOL    HW130596   3.034   0.912  11.035 -1.0947  2.2029  0.3196
 6320SOL    HW230597   3.102   0.864  10.916  2.5451  1.6695  2.7261
 6321SOL     OW30598   3.562   0.602  11.854  0.4082  0.0384  0.5543
 6321SOL    HW130599   3.585   0.510  11.872  0.8432  0.2423  1.0559
 6321SOL    HW230600   3.608   0.606  11.770 -0.8614  0.4823 -0.1022
 6322SOL     OW30601   3.883   4.056   7.690 -0.4623 -0.0937  0.0256
 6322SOL    HW130602   3.826   4.000   7.636 -0.1222  0.1629 -0.6009
 6322SOL    HW230603   3.816   4.097   7.744  0.1440  1.3167 -0.2941
 6323SOL     OW30604   3.837   0.993   1.165 -0.1751 -0.8436  0.2929
 6323SOL    HW130605   3.901   0.969   1.233 -0.6263  1.3151  1.5047
 6323SOL    HW230606   3.762   0.940   1.193 -1.8030  1.0331 -0.5083
 6324SOL     OW30607   4.400   1.490   7.659  0.2815  0.4703  0.0706
 6324SOL    HW130608   4.362   1.407   7.629 -1.7809  1.8464 -1.1297
 6324SOL    HW230609   4.465   1.497   7.589 -1.9029  1.4675 -1.8794
 6325SOL     OW30610   0.429   2.171   3.151 -0.0639 -0.7216  0.0014
 6325SOL    HW130611   0.346   2.170   3.103 -1.2679 -0.5332  2.1138
 6325SOL    HW230612   0.447   2.077   3.145  1.3195 -0.5108  0.8939
 6326SOL     OW30613   1.472   1.088   6.796 -0.4226  0.7748 -0.3530
 6326SOL    HW130614   1.431   1.002   6.798  1.7135 -0.1868  2.5367
 6326SOL    HW230615   1.416   1.133   6.860 -0.9129 -1.4872  0.8252
 6327SOL     OW30616   3.109   1.668   3.882 -0.3511 -0.2227  0.0435
 6327SOL    HW130617   3.167   1.709   3.818  0.2307 -1.1390 -0.0118
 6327SOL    HW230618   3.091   1.744   3.938 -0.5011 -1.6157  1.8918
 6328SOL     OW30619   1.272   1.161   4.458  0.2077 -0.3006  0.0289
 6328SOL    HW130620   1.240   1.218   4.528  0.9250  1.7126 -1.2672
 6328SOL    HW230621   1.189   1.117   4.443  0.4392 -0.8944  0.4962
 6329SOL     OW30622   0.593   0.242   8.742  0.2988  0.1356 -0.5921
 6329SOL    HW130623   0.502   0.270   8.741 -0.0259 -0.9134 -0.4858
 6329SOL    HW230624   0.608   0.205   8.655 -1.8832 -1.1222 -0.4251
 6330SOL     OW30625   1.894   1.153   4.263 -0.5513 -0.3305 -0.4465
 6330SOL    HW130626   1.808   1.113   4.257 -0.7727  0.4169 -2.2436
 6330SOL    HW230627   1.881   1.242   4.231  0.6809 -0.3597 -1.0339
 6331SOL     OW30628   2.077   1.067  16.585  0.4074  0.0498  0.1033
 6331SOL    HW130629   1.996   1.032  16.622  0.2117  0.3659 -0.0301
 6331SOL    HW230630   2.140   1.055  16.656 -1.1138  0.4084  1.5154
 6332SOL     OW30631   1.092   0.896   7.601  0.1371  0.7831 -0.1219
 6332SOL    HW130632   1.127   0.812   7.632 -0.0728  0.3779 -0.9809
 6332SOL    HW230633   1.037   0.876   7.525 -0.1889 -0.6134  0.4623
 6333SOL     OW30634   2.024   2.962  15.997  0.1608 -0.0009  0.4026
 6333SOL    HW130635   1.968   2.981  15.921 -0.0831 -2.2054  0.0483
 6333SOL    HW230636   2.099   2.950  15.939 -0.7008 -0.3042 -0.6593
 6334SOL     OW30637   2.351   0.051   5.793  0.0604  0.1095  0.5360
 6334SOL    HW130638   2.410   4.715   5.812 -0.0605 -0.2298 -0.4054
 6334SOL    HW230639   2.395   0.078   5.713  1.3193  0.3032  1.2875
 6335SOL     OW30640   3.082   4.308   3.212  0.3829 -0.2099 -0.1982
 6335SOL    HW130641   3.115   4.392   3.242  0.6402  0.0171 -1.1040
 6335SOL    HW230642   2.991   4.308   3.238  0.4037  0.8199 -0.1561
 6336SOL     OW30643   1.155   3.554   8.933  0.3144  0.3797 -0.0760
 6336SOL    HW130644   1.149   3.648   8.919 -1.4523 -0.0430 -2.1119
 6336SOL    HW230645   1.068   3.548   8.972  0.4504  0.0843  0.1820
 6337SOL     OW30646   4.341   4.600   0.641  0.1826  0.0148 -0.2584
 6337SOL    HW130647   4.353   4.694   0.656  0.4269 -0.1953  0.8901
 6337SOL    HW230648   4.347   4.596   0.546  1.3086  3.3179 -0.3284
 6338SOL     OW30649   4.549   2.765  10.091 -0.2422  0.1745  0.1106
 6338SOL    HW130650   4.623   2.806  10.047  1.7291 -2.3675  1.0916
 6338SOL    HW230651   4.488   2.839  10.087  3.1816  2.8804 -1.6506
 6339SOL     OW30652   1.753   3.890  10.257  0.6161 -0.1587 -0.4127
 6339SOL    HW130653   1.785   3.940  10.333 -3.0246  2.1328 -0.3893
 6339SOL    HW230654   1.833   3.841  10.237  1.2419  0.8796 -0.4711
 6340SOL     OW30655   1.832   1.256   8.234  0.4826 -0.2267  0.0247
 6340SOL    HW130656   1.868   1.294   8.154 -2.1102  0.3903 -0.8622
 6340SOL    HW230657   1.747   1.217   8.214  0.9999 -0.9224 -0.8196
 6341SOL     OW30658   2.595   4.411   4.404 -0.1013  0.3197  0.3390
 6341SOL    HW130659   2.521   4.435   4.460 -1.2874 -1.4082 -0.4942
 6341SOL    HW230660   2.548   4.363   4.336 -0.5982  1.0660  0.1537
 6342SOL     OW30661   4.624   2.219   8.407  0.0987  0.2487 -0.3039
 6342SOL    HW130662   4.554   2.157   8.385  1.3040 -0.5142 -2.0454
 6342SOL    HW230663   4.699   2.159   8.409 -1.2895 -1.5296 -1.2537
 6343SOL     OW30664   0.445   1.249   3.739 -0.2342  0.0274  0.1698
 6343SOL    HW130665   0.382   1.312   3.705  2.2723  0.8880 -2.9313
 6343SOL    HW230666   0.443   1.187   3.666  0.9534  2.0248 -1.5450
 6344SOL     OW30667   2.969   4.378   0.780 -0.0762 -0.3068  0.0224
 6344SOL    HW130668   3.059   4.398   0.756 -0.1535 -1.8900 -1.5779
 6344SOL    HW230669   2.924   4.460   0.801  2.2560  1.1965 -0.9578
 6345SOL     OW30670   2.287   0.921   8.794 -0.3150 -0.1966 -0.3068
 6345SOL    HW130671   2.266   1.007   8.829  0.4190 -0.9736  2.0344
 6345SOL    HW230672   2.315   0.864   8.865 -2.4035  0.9882  1.4489
 6346SOL     OW30673   2.515   2.305   8.424  0.0345 -0.3052 -0.3078
 6346SOL    HW130674   2.605   2.273   8.432  0.5309  1.3066  0.6072
 6346SOL    HW230675   2.537   2.334   8.336  0.1326 -0.1554 -0.2336
 6347SOL     OW30676   3.293   2.234  11.467 -0.5552  0.2177  0.4665
 6347SOL    HW130677   3.376   2.202  11.430  2.0907  4.5987  2.5411
 6347SOL    HW230678   3.277   2.171  11.537 -0.0572  1.6099  1.8478
 6348SOL     OW30679   3.298   0.776   9.020  0.0368 -1.0089 -0.4911
 6348SOL    HW130680   3.332   0.817   8.940  2.5379 -2.8498 -0.3545
 6348SOL    HW230681   3.204   0.793   9.012  0.1809 -0.2503 -0.6365
 6349SOL     OW30682   2.078   2.941   2.361  0.0397  0.1763  0.2745
 6349SOL    HW130683   2.113   2.911   2.278 -0.4048 -1.5981  0.7253
 6349SOL    HW230684   1.983   2.926   2.359  0.3156 -1.4386 -0.1443
 6350SOL     OW30685   0.061   0.018   9.864  0.0401 -0.2888 -0.1544
 6350SOL    HW130686   0.150   4.736   9.834  0.0992 -0.6688  0.2562
 6350SOL    HW230687   0.040   4.670   9.902  0.0279 -1.4352 -2.7070
 6351SOL     OW30688   3.150   3.731   8.128 -0.1009 -0.0037  0.1335
 6351SOL    HW130689   3.093   3.671   8.078 -0.1456  0.6969 -0.6439
 6351SOL    HW230690   3.182   3.675   8.199  1.1812  0.1043 -0.3754
 6352SOL     OW30691   0.905   4.627   2.326 -0.4211 -0.1008 -0.3188
 6352SOL    HW130692   0.939   4.568   2.258 -0.3710  1.3362 -1.5280
 6352SOL    HW230693   0.937   4.586   2.406  2.3572  1.7851 -0.4739
 6353SOL     OW30694   2.499   0.694  15.511 -0.1258 -0.2206  0.3970
 6353SOL    HW130695   2.577   0.741  15.538 -0.8395  0.5191  1.1589
 6353SOL    HW230696   2.484   0.645  15.592  1.8792 -0.1857  0.8006
 6354SOL     OW30697   4.515   0.157   0.261  0.2904  0.0462 -0.3651
 6354SOL    HW130698   4.427   0.146   0.295  0.8588 -0.0596  1.0647
 6354SOL    HW230699   4.547   0.239   0.299 -2.5127  0.4160  1.1884
 6355SOL     OW30700   0.972   3.297   7.513  0.2066  0.2278  0.3449
 6355SOL    HW130701   0.985   3.326   7.604  0.7811 -0.7281  0.5651
 6355SOL    HW230702   0.929   3.367   7.466 -0.0257 -1.1284 -1.4531
 6356SOL     OW30703   0.928   4.394   1.878  0.0879  0.1398 -0.4505
 6356SOL    HW130704   1.017   4.427   1.865  0.3263 -2.2053 -4.8830
 6356SOL    HW230705   0.914   4.333   1.806  1.5464  0.4420 -0.9819
 6357SOL     OW30706   1.243   1.586   1.914 -0.3140 -0.0596  0.1963
 6357SOL    HW130707   1.319   1.632   1.880 -2.4214  1.8260 -1.9355
 6357SOL    HW230708   1.276   1.497   1.925  0.9622  0.2052 -1.5248
 6358SOL     OW30709   2.863   0.881   7.068 -0.0333 -0.3181 -0.3173
 6358SOL    HW130710   2.878   0.792   7.038 -1.5004 -1.8908  3.6514
 6358SOL    HW230711   2.819   0.914   6.990 -0.7201 -1.1640 -0.2804
 6359SOL     OW30712   4.364   4.650  15.444 -0.3190  0.0969  0.3316
 6359SOL    HW130713   4.388   4.656  15.537  0.4387 -0.1322  0.1586
 6359SOL    HW230714   4.346   4.556  15.436 -0.6453  0.3756 -2.2992
 6360SOL     OW30715   3.442   3.602   6.546  0.3525  0.1603  0.1800
 6360SOL    HW130716   3.392   3.666   6.597 -0.9897  1.1384 -2.3819
 6360SOL    HW230717   3.439   3.526   6.604  0.5370 -0.7231 -0.9688
 6361SOL     OW30718   4.150   0.794   2.860 -0.1109 -0.3818  0.1859
 6361SOL    HW130719   4.110   0.719   2.904  0.3489 -1.4205 -1.1725
 6361SOL    HW230720   4.185   0.756   2.779 -0.0114 -0.8106  0.4315
 6362SOL     OW30721   2.929   0.104   1.726  0.0503 -0.0966 -0.0693
 6362SOL    HW130722   2.862   0.156   1.681 -0.0909 -2.4990 -2.6465
 6362SOL    HW230723   3.006   0.160   1.718  1.6437 -2.1468  0.9137
 6363SOL     OW30724   3.909   0.292   5.481  0.4392  0.4324  0.1975
 6363SOL    HW130725   3.895   0.352   5.555  2.8337  0.4249  0.6722
 6363SOL    HW230726   3.905   0.205   5.519 -2.6680  0.1943 -0.6313
 6364SOL     OW30727   4.297   3.420  12.527 -0.4374 -0.5634 -0.4290
 6364SOL    HW130728   4.210   3.431  12.564 -0.2249 -1.9622  0.4617
 6364SOL    HW230729   4.348   3.412  12.607  0.0784 -0.1500 -0.7128
 6365SOL     OW30730   0.852   3.179   5.361 -0.0822 -0.4934 -0.1594
 6365SOL    HW130731   0.914   3.241   5.400  0.7905 -0.4035 -1.7044
 6365SOL    HW230732   0.904   3.135   5.294  0.1099 -3.1547  1.7567
 6366SOL     OW30733   2.294   0.685  11.615 -0.0574  0.2905 -0.2523
 6366SOL    HW130734   2.210   0.708  11.576 -0.4130  0.5935  0.6904
 6366SOL    HW230735   2.274   0.592  11.620 -2.1082  0.6820 -0.9216
 6367SOL     OW30736   2.175   4.574   5.834 -0.2417  0.0899 -0.0036
 6367SOL    HW130737   2.224   4.501   5.871 -0.4748  0.8956  1.8879
 6367SOL    HW230738   2.243   4.640   5.825  1.2237 -1.2802  1.0293
 6368SOL     OW30739   0.466   3.157   7.148 -0.4362 -0.2119  0.0312
 6368SOL    HW130740   0.502   3.070   7.159  1.6091  0.7122  0.5357
 6368SOL    HW230741   0.525   3.185   7.078  0.0550  1.3567  1.0838
 6369SOL     OW30742   0.062   1.541   6.895  0.5240 -0.0281 -0.0812
 6369SOL    HW130743   0.083   1.580   6.810  3.3252 -0.1536  0.5500
 6369SOL    HW230744   0.139   1.562   6.948 -1.0970  0.3991  2.1134
 6370SOL     OW30745   3.501   4.245   2.159 -0.1205 -0.0517  0.3610
 6370SOL    HW130746   3.486   4.333   2.194 -2.1026 -0.6988  1.1788
 6370SOL    HW230747   3.440   4.194   2.213  0.0775 -1.8473 -1.1216
 6371SOL     OW30748   3.442   2.817   4.080  0.2156 -0.4722 -0.3984
 6371SOL    HW130749   3.416   2.735   4.037  0.5334 -0.9995  0.3992
 6371SOL    HW230750   3.428   2.802   4.174 -1.0153 -1.4689 -0.7472
 6372SOL     OW30751   1.378   1.208   8.724  0.2428  0.5502 -0.1715
 6372SOL    HW130752   1.441   1.204   8.652  0.7119 -0.0886  0.2657
 6372SOL    HW230753   1.371   1.120   8.760 -3.6508  0.4895 -1.0713
 6373SOL     OW30754   2.132   0.272   9.732 -0.7395 -0.2149 -0.4815
 6373SOL    HW130755   2.038   0.260   9.735 -0.6429 -0.4666  1.9337
 6373SOL    HW230756   2.151   0.217   9.656 -0.3388 -2.2218  1.0825
 6374SOL     OW30757   3.201   1.946   9.778 -0.7542 -0.0373 -0.4897
 6374SOL    HW130758   3.232   1.856   9.772 -2.8733 -0.6629 -2.0572
 6374SOL    HW230759   3.265   1.985   9.837 -0.4807 -1.1331 -0.0642
 6375SOL     OW30760   2.941   4.465   5.860 -0.2767 -0.6711 -0.1845
 6375SOL    HW130761   3.032   4.461   5.831 -0.3391  3.7918 -0.9736
 6375SOL    HW230762   2.925   4.557   5.840  1.1851 -0.0020  1.7281
 6376SOL     OW30763   2.954   4.531   8.230 -0.1638  0.3579  0.1468
 6376SOL    HW130764   2.876   4.558   8.181 -0.6607  0.6334  1.0991
 6376SOL    HW230765   2.916   4.505   8.314  1.4729  1.8511  1.3289
 6377SOL     OW30766   3.609   2.253   5.911 -0.2433  0.0616 -0.1090
 6377SOL    HW130767   3.600   2.244   5.816 -0.9089  0.3435 -0.0739
 6377SOL    HW230768   3.572   2.341   5.917  0.5908  0.4083 -0.1352
 6378SOL     OW30769   0.688   2.712   3.691 -0.2198  0.2023  0.3453
 6378SOL    HW130770   0.623   2.643   3.704 -2.2540  1.6939 -1.8421
 6378SOL    HW230771   0.730   2.712   3.777  0.8488  1.2418 -0.1836
 6379SOL     OW30772   2.984   1.143  17.335 -0.0743  0.1937  0.0853
 6379SOL    HW130773   3.049   1.199  17.292  1.4840 -1.5674  0.1423
 6379SOL    HW230774   2.931   1.119  17.258  0.1038 -0.3634  0.1361
 6380SOL     OW30775   3.190   1.663   0.268  0.9301 -0.6195 -0.4864
 6380SOL    HW130776   3.109   1.619   0.243  1.1481 -1.2379 -0.0963
 6380SOL    HW230777   3.247   1.588   0.283  1.9177 -0.5336 -3.8750
 6381SOL     OW30778   2.992   0.084   8.564  0.2680 -0.5395  0.1359
 6381SOL    HW130779   3.022   0.174   8.572  0.4990 -0.5925 -0.1065
 6381SOL    HW230780   3.026   0.068   8.476  2.1170  0.8694  0.6033
 6382SOL     OW30781   4.612   4.540  13.010  0.0411 -0.4314 -0.0478
 6382SOL    HW130782   4.629   4.447  13.025  1.6594 -0.2422 -0.7315
 6382SOL    HW230783   4.524   4.540  13.049  0.9679 -1.1384  2.0530
 6383SOL     OW30784   0.043   3.127   7.839  0.3963  0.1358  0.7925
 6383SOL    HW130785   0.032   3.222   7.841 -2.4559 -0.1930 -0.2677
 6383SOL    HW230786   4.690   3.099   7.822  0.4230 -0.2629  1.3207
 6384SOL     OW30787   3.592   4.572   8.843  0.4347 -0.3531 -0.2466
 6384SOL    HW130788   3.664   4.609   8.894 -0.3911  0.5506  0.2741
 6384SOL    HW230789   3.616   4.481   8.827  1.5799 -0.1791  0.5318
 6385SOL     OW30790   2.280   1.981   2.953 -0.3554 -1.0922 -0.4143
 6385SOL    HW130791   2.346   1.930   3.001 -1.5086 -1.0536  1.1947
 6385SOL    HW230792   2.243   2.037   3.020 -0.8001  0.1532 -1.7051
 6386SOL     OW30793   0.287   1.210  11.284  0.7003  0.3456  0.2169
 6386SOL    HW130794   0.355   1.267  11.248  0.4421  0.1224 -0.6177
 6386SOL    HW230795   0.211   1.227  11.229 -0.1185 -1.4980  0.7853
 6387SOL     OW30796   4.206   0.061   6.610  0.2207 -0.3906  0.2519
 6387SOL    HW130797   4.166   0.074   6.696  0.7961  0.2447  0.4190
 6387SOL    HW230798   4.185   4.706   6.598  1.4637 -0.6318 -0.0680
 6388SOL     OW30799   1.851   0.350   1.446 -0.1310  0.0655  0.1416
 6388SOL    HW130800   1.933   0.383   1.481 -0.9156  1.9482  0.1973
 6388SOL    HW230801   1.795   0.427   1.436  0.1867  0.3385  0.5102
 6389SOL     OW30802   2.306   3.663  14.364 -0.4227  0.0547 -0.8954
 6389SOL    HW130803   2.340   3.704  14.444 -2.1747  0.9668 -0.6310
 6389SOL    HW230804   2.322   3.730  14.298  0.4210 -0.4132 -1.1599
 6390SOL     OW30805   1.751   0.227   3.523  0.2086  0.2219  0.0566
 6390SOL    HW130806   1.768   0.266   3.438 -1.3207 -2.2007 -1.3702
 6390SOL    HW230807   1.793   0.142   3.510  2.7224  1.8256 -2.1443
 6391SOL     OW30808   1.121   3.858  11.658  0.3407 -0.1558  0.3899
 6391SOL    HW130809   1.204   3.864  11.706  1.3963  1.8248 -1.6714
 6391SOL    HW230810   1.151   3.827  11.572  0.9449 -0.4717  0.7069
 6392SOL     OW30811   0.001   1.402  12.874 -0.3064  0.3279  0.1421
 6392SOL    HW130812   4.722   1.415  12.781 -0.8729  0.2455  0.2228
 6392SOL    HW230813   4.647   1.419  12.899 -0.5255  1.1405 -1.1896
 6393SOL     OW30814   0.190   2.241   6.138 -0.8378  0.2283  0.4939
 6393SOL    HW130815   0.245   2.318   6.154  1.1145 -1.4521  1.8859
 6393SOL    HW230816   0.227   2.195   6.063 -1.6118  0.8002 -0.2342
 6394SOL     OW30817   4.310   4.356   4.333  0.4997 -0.2533  0.1940
 6394SOL    HW130818   4.222   4.320   4.323  0.6846 -0.5322 -0.4366
 6394SOL    HW230819   4.310   4.415   4.258  0.3006  1.8900  1.8974
 6395SOL     OW30820   2.962   1.739   9.204  0.4541 -1.0482  0.1859
 6395SOL    HW130821   2.937   1.776   9.119 -1.4569  0.3283  1.3573
 6395SOL    HW230822   3.057   1.737   9.192  0.3617 -1.8662 -0.4698
 6396SOL     OW30823   1.317   0.220   5.772  0.5099  0.6989 -0.3354
 6396SOL    HW130824   1.356   0.136   5.798  2.8518  1.4804 -1.3525
 6396SOL    HW230825   1.261   0.194   5.700 -0.9984  0.2150  1.0047
 6397SOL     OW30826   2.280   3.831   7.749 -0.4663 -0.3334  0.1597
 6397SOL    HW130827   2.290   3.804   7.657  1.6733  1.6202 -0.2060
 6397SOL    HW230828   2.297   3.746   7.788 -0.8268 -0.8685 -0.8568
 6398SOL     OW30829   2.486   3.373   6.499  0.2265 -0.4211 -0.1372
 6398SOL    HW130830   2.462   3.281   6.505  2.2446 -0.8222  1.8424
 6398SOL    HW230831   2.498   3.407   6.588 -0.5917  0.3790 -0.3340
 6399SOL     OW30832   4.153   3.555   5.467 -0.4514  0.0209  0.0351
 6399SOL    HW130833   4.224   3.603   5.508  0.5911 -1.6547  0.2121
 6399SOL    HW230834   4.193   3.524   5.386 -0.1343 -2.1708  1.0291
 6400SOL     OW30835   2.652   2.974   3.867  0.1972 -0.0530  0.7811
 6400SOL    HW130836   2.672   3.059   3.828  1.5845 -1.2488 -1.1128
 6400SOL    HW230837   2.590   3.006   3.933 -0.2521  0.7763 -0.0435
 6401SOL     OW30838   3.508   0.190   6.941  0.0640 -0.1724 -0.2608
 6401SOL    HW130839   3.509   0.107   6.893  1.5057 -1.4581  1.9504
 6401SOL    HW230840   3.603   0.206   6.937 -0.2704  1.6755 -0.9341
 6402SOL     OW30841   0.684   0.117   1.980  0.3668  1.0768 -0.2464
 6402SOL    HW130842   0.728   0.175   2.042  0.5956  0.5543  0.0773
 6402SOL    HW230843   0.732   0.035   1.990 -2.0505 -0.2361  0.5668
 6403SOL     OW30844   3.054   4.336   6.798  0.0600  0.8724 -0.5444
 6403SOL    HW130845   3.078   4.244   6.790 -1.1530  0.5765 -0.7095
 6403SOL    HW230846   2.987   4.349   6.730 -1.2860  2.0123  0.9968
 6404SOL     OW30847   3.750   1.022   5.808  0.1196 -0.1564  0.3428
 6404SOL    HW130848   3.664   1.005   5.770 -0.3358  0.4265  1.1078
 6404SOL    HW230849   3.741   1.116   5.825  0.2108 -0.5438  2.5257
 6405SOL     OW30850   4.261   1.477   0.360 -0.0162  0.1928  0.0554
 6405SOL    HW130851   4.183   1.491   0.306 -2.0439 -1.3758  2.6246
 6405SOL    HW230852   4.325   1.540   0.326 -0.1691  0.2384 -0.1502
 6406SOL     OW30853   1.560   3.864   6.914  0.1071 -0.3539  0.2133
 6406SOL    HW130854   1.614   3.838   6.988 -0.3455 -2.8803 -0.3379
 6406SOL    HW230855   1.507   3.785   6.904 -0.3443  0.0881 -0.8994
 6407SOL     OW30856   3.243   1.934   8.120 -0.6336 -0.9978 -0.3041
 6407SOL    HW130857   3.202   1.906   8.038 -0.0941  0.3375 -1.0252
 6407SOL    HW230858   3.259   1.852   8.166 -0.9920 -0.0184  1.5564
 6408SOL     OW30859   0.494   4.407   8.526  0.2106 -0.0645  0.2895
 6408SOL    HW130860   0.503   4.313   8.536  2.3819  0.1225  0.1655
 6408SOL    HW230861   0.558   4.444   8.587  1.1257 -1.7094  0.3071
 6409SOL     OW30862   3.093   0.821   1.643 -0.2728  0.6704 -0.0844
 6409SOL    HW130863   3.126   0.910   1.654 -0.4164  0.7939 -0.6726
 6409SOL    HW230864   3.023   0.814   1.709  0.0228  2.3338  0.3838
 6410SOL     OW30865   0.451   4.105   7.243  0.3007  0.2960  0.5173
 6410SOL    HW130866   0.525   4.162   7.224 -0.0817 -0.2673 -2.7078
 6410SOL    HW230867   0.395   4.122   7.167 -2.3128  0.0476  2.3660
 6411SOL     OW30868   1.411   0.650   6.938  0.3681 -0.2089  0.9510
 6411SOL    HW130869   1.321   0.640   6.907 -0.1171  2.8036  1.3907
 6411SOL    HW230870   1.400   0.578   7.000  0.7041 -1.1465 -0.0821
 6412SOL     OW30871   2.553   3.864   1.056  0.1296  0.0819  0.0746
 6412SOL    HW130872   2.479   3.905   1.099 -1.4890 -2.3653 -0.3919
 6412SOL    HW230873   2.529   3.872   0.964 -1.5579  2.3060  0.7253
 6413SOL     OW30874   4.428   2.520   8.484 -0.0161  0.0070 -0.1273
 6413SOL    HW130875   4.442   2.557   8.572 -0.6877 -0.3324  0.1229
 6413SOL    HW230876   4.372   2.445   8.506  1.4149 -1.1015 -0.2454
 6414SOL     OW30877   3.974   4.661   7.539 -0.2097  0.1391 -0.8860
 6414SOL    HW130878   3.896   4.717   7.532  0.6334  1.6146  1.3389
 6414SOL    HW230879   3.956   4.606   7.615  0.1919 -1.2000 -1.7683
 6415SOL     OW30880   1.078   1.428   5.085  0.0841  0.2065  0.1265
 6415SOL    HW130881   1.001   1.470   5.047  0.5612  2.3412  1.5169
 6415SOL    HW230882   1.082   1.351   5.028  0.7915  1.1055 -1.0271
 6416SOL     OW30883   2.065   0.032   9.531  0.0466  0.2448  0.7159
 6416SOL    HW130884   2.095   4.697   9.477  0.5859  0.0724  1.2388
 6416SOL    HW230885   2.098   4.737   9.615 -1.0142  0.9971  1.4248
 6417SOL     OW30886   3.450   4.336   4.405  0.0944  0.0160 -0.1596
 6417SOL    HW130887   3.361   4.370   4.396 -0.5248 -1.4531  0.4754
 6417SOL    HW230888   3.475   4.312   4.316 -0.0400 -0.9053  0.0511
 6418SOL     OW30889   3.380   0.713   5.617  0.0954  0.5255 -0.0635
 6418SOL    HW130890   3.303   0.714   5.675  0.0549 -0.9209 -0.0880
 6418SOL    HW230891   3.345   0.700   5.529  0.9898 -0.8942 -0.2044
 6419SOL     OW30892   0.096   3.489   2.487  0.4929 -1.1661  0.0065
 6419SOL    HW130893   0.133   3.521   2.405 -1.4155  0.2333 -0.3226
 6419SOL    HW230894   0.003   3.471   2.470  0.1144 -1.8044  2.8175
 6420SOL     OW30895   4.652   4.227   8.241 -0.0829  0.1992 -0.1796
 6420SOL    HW130896   4.711   4.225   8.165  0.3348 -0.4265  0.1586
 6420SOL    HW230897   4.637   4.321   8.244  1.8880  0.5799 -2.1609
 6421SOL     OW30898   0.885   4.648   5.133 -0.3231 -0.2300  0.0377
 6421SOL    HW130899   0.811   4.644   5.073  1.3699  0.0870 -2.0625
 6421SOL    HW230900   0.890   0.006   5.141 -2.5814 -0.2038  1.1089
 6422SOL     OW30901   0.709   3.439   3.711  0.1550  0.3064  0.6068
 6422SOL    HW130902   0.803   3.457   3.714  0.1008  0.8081 -0.8321
 6422SOL    HW230903   0.683   3.523   3.748 -0.7614 -0.5505  1.9192
 6423SOL     OW30904   4.012   2.433   4.494 -0.6130 -0.1768 -0.1611
 6423SOL    HW130905   4.047   2.511   4.452  2.2002 -2.1801 -1.5468
 6423SOL    HW230906   3.972   2.384   4.421  0.8315 -1.3753 -0.1567
 6424SOL     OW30907   4.465   0.966   9.020 -0.1068 -0.3600 -0.1340
 6424SOL    HW130908   4.404   1.002   8.955 -2.0505 -0.0074  1.8753
 6424SOL    HW230909   4.436   0.875   9.021  0.8625 -0.6840 -1.8120
 6425SOL     OW30910   0.984   1.677  15.580  0.2322 -0.0870 -0.4130
 6425SOL    HW130911   1.041   1.734  15.528  0.0174 -0.2748 -0.8526
 6425SOL    HW230912   0.973   1.736  15.655  2.1518  0.3731 -0.5009
 6426SOL     OW30913   2.623   0.357  17.685 -0.2594 -0.0477 -0.2259
 6426SOL    HW130914   2.550   0.419  17.692  0.6084  1.0523 -1.0210
 6426SOL    HW230915   2.693   0.409  17.723  0.1909 -1.5729  0.9842
 6427SOL     OW30916   3.932   3.779  11.662 -0.3022 -0.2767 -0.6791
 6427SOL    HW130917   4.009   3.823  11.699 -1.0446  1.1447 -0.8364
 6427SOL    HW230918   3.871   3.852  11.657  0.2387  0.2954  0.7871
 6428SOL     OW30919   4.131   3.909   3.187  0.0337 -0.1607  0.0207
 6428SOL    HW130920   4.167   3.828   3.153 -0.6334 -0.0459 -0.9665
 6428SOL    HW230921   4.065   3.942   3.126  0.3850  0.8766  0.2070
 6429SOL     OW30922   0.017   3.758   6.079  0.2506 -0.7590  0.7237
 6429SOL    HW130923   0.045   3.818   6.010  2.8416 -0.0512  2.3833
 6429SOL    HW230924   0.043   3.672   6.046  0.4913  0.3444 -1.9132
 6430SOL     OW30925   3.481   1.200  13.868 -0.2324 -0.1781 -0.1799
 6430SOL    HW130926   3.510   1.212  13.958 -3.0527  0.7901  0.6188
 6430SOL    HW230927   3.508   1.286  13.837 -0.8394  0.4419  1.0157
 6431SOL     OW30928   1.910   1.305   6.538  0.3563  0.4290  0.0514
 6431SOL    HW130929   1.918   1.216   6.573 -0.6177  0.7769  1.1697
 6431SOL    HW230930   1.954   1.360   6.602  0.7601 -1.7911  1.6794
 6432SOL     OW30931   0.060   2.180  14.067 -0.0668  1.1910  0.1178
 6432SOL    HW130932   4.702   2.185  14.073 -0.0331  1.4133  0.4684
 6432SOL    HW230933   0.079   2.088  14.051  0.5094  1.6072 -1.6389
 6433SOL     OW30934   1.278   0.430  12.647  0.4499 -0.1098 -0.8120
 6433SOL    HW130935   1.182   0.435  12.642  0.3416 -1.3056  0.0363
 6433SOL    HW230936   1.282   0.336  12.661 -0.2682  0.0567  0.5141
 6434SOL     OW30937   2.933   2.186   4.369 -0.1879 -0.2225 -0.0556
 6434SOL    HW130938   2.903   2.172   4.459 -0.3820  2.2884  0.2781
 6434SOL    HW230939   3.027   2.201   4.380  0.5823 -3.4356 -2.1613
 6435SOL     OW30940   4.506   0.264   5.498  0.2221 -0.0148 -0.1889
 6435SOL    HW130941   4.436   0.262   5.563 -1.4280  2.0975 -1.9130
 6435SOL    HW230942   4.577   0.256   5.562  0.4410 -0.0539 -0.4380
 6436SOL     OW30943   1.156   2.872  15.545  0.1004  0.0642 -0.1210
 6436SOL    HW130944   1.073   2.827  15.558  0.1672 -0.0516 -0.0992
 6436SOL    HW230945   1.194   2.810  15.483 -0.2544 -0.3031  0.0269
 6437SOL     OW30946   2.794   0.760   5.084  0.6671 -0.5390 -0.5222
 6437SOL    HW130947   2.792   0.833   5.146  2.2265  0.5617 -1.7614
 6437SOL    HW230948   2.878   0.779   5.044  0.4977 -0.1875 -0.7146
 6438SOL     OW30949   3.846   1.912  16.081 -0.3846 -0.8538  0.5200
 6438SOL    HW130950   3.782   1.878  16.018 -0.6231 -0.1556  0.3876
 6438SOL    HW230951   3.794   1.928  16.159  0.0148 -0.0672  0.6259
 6439SOL     OW30952   3.257   3.150   9.470 -0.5146  0.2881 -0.3467
 6439SOL    HW130953   3.254   3.228   9.415  0.3427 -0.5945 -1.6469
 6439SOL    HW230954   3.211   3.180   9.549  0.6291  0.3005  0.3145
 6440SOL     OW30955   2.061   1.847   8.399  0.2809  0.3239 -0.3492
 6440SOL    HW130956   2.008   1.921   8.427 -0.0091  1.6831 -4.5394
 6440SOL    HW230957   2.097   1.892   8.322 -0.1228  0.1580 -0.6355
 6441SOL     OW30958   3.363   1.342   6.916 -0.3016  0.4137  0.1183
 6441SOL    HW130959   3.426   1.289   6.964 -1.0061  1.0303  1.7096
 6441SOL    HW230960   3.406   1.426   6.936 -1.3919  0.4767  2.1239
 6442SOL     OW30961   1.140   0.056  15.251 -0.3203  0.1458  0.1796
 6442SOL    HW130962   1.193   4.719  15.281  2.7388  1.3599 -2.1657
 6442SOL    HW230963   1.063   0.043  15.306  0.1356  0.0992  0.8064
 6443SOL     OW30964   1.915   4.471   6.159 -0.2588  0.2607  0.0687
 6443SOL    HW130965   1.879   4.531   6.094  0.8273 -1.4102 -2.0744
 6443SOL    HW230966   1.886   4.386   6.126 -1.4823 -0.0195  1.8846
 6444SOL     OW30967   4.423   1.284   4.688 -0.0043 -0.6765  0.0387
 6444SOL    HW130968   4.491   1.228   4.724 -0.4454  0.3200  2.4394
 6444SOL    HW230969   4.346   1.246   4.731  2.0463 -1.6176  2.8981
 6445SOL     OW30970   0.058   1.437   8.067  0.3158 -0.1920 -0.1030
 6445SOL    HW130971   0.037   1.387   7.989 -0.3298  0.3704 -0.2930
 6445SOL    HW230972   0.147   1.408   8.087  0.4897 -0.4157 -1.1821
 6446SOL     OW30973   0.862   1.220  12.371 -0.2173  0.3087 -0.0358
 6446SOL    HW130974   0.816   1.147  12.331  0.2360 -0.5082  0.9137
 6446SOL    HW230975   0.831   1.295  12.321 -0.7283  0.0451 -0.1141
 6447SOL     OW30976   0.607   2.266   7.284 -0.2033 -0.0973 -0.8421
 6447SOL    HW130977   0.554   2.209   7.340 -0.8179  0.1053 -1.2113
 6447SOL    HW230978   0.655   2.314   7.351 -2.0242  1.6422 -0.7504
 6448SOL     OW30979   2.968   0.504  17.081  0.1089  0.0370  0.5876
 6448SOL    HW130980   2.918   0.566  17.135 -1.3579 -0.8239  0.2213
 6448SOL    HW230981   3.022   0.470  17.153 -0.2950  0.4847  1.1083
 6449SOL     OW30982   3.217   4.612   2.151  0.0072  0.2378 -0.2555
 6449SOL    HW130983   3.219   4.640   2.060  1.1340 -1.5974 -0.7978
 6449SOL    HW230984   3.236   4.690   2.203  3.7525  0.3614 -1.8799
 6450SOL     OW30985   4.450   2.704   3.857  0.5615 -0.1808  0.2223
 6450SOL    HW130986   4.359   2.728   3.843  0.2886  0.5117  3.2331
 6450SOL    HW230987   4.433   2.611   3.869  0.1707 -0.0065  1.0401
 6451SOL     OW30988   4.637   0.128   2.688 -0.1954 -0.3004 -0.2255
 6451SOL    HW130989   4.548   0.162   2.699  0.1739  1.3907 -2.4612
 6451SOL    HW230990   4.653   0.155   2.598 -1.7993  0.9763 -0.1318
 6452SOL     OW30991   2.923   1.170   4.076  0.2005  0.4508  0.1661
 6452SOL    HW130992   2.894   1.250   4.033  0.1524  0.9628  1.1385
 6452SOL    HW230993   2.845   1.114   4.083  0.0090  0.5625 -1.0907
 6453SOL     OW30994   3.400   0.128   8.995  0.6514 -0.1114  0.3076
 6453SOL    HW130995   3.340   0.063   9.030  0.2022 -0.6847 -1.5082
 6453SOL    HW230996   3.343   0.161   8.926 -0.3968 -0.8583  0.8184
 6454SOL     OW30997   2.144   0.304  13.530  0.2489 -0.2206  0.3545
 6454SOL    HW130998   2.230   0.264  13.545  0.0131 -0.0689  2.0835
 6454SOL    HW230999   2.144   0.390  13.573 -1.5927 -0.0257 -0.0483
 6455SOL     OW31000   1.834   4.108  10.416  0.0440 -0.0737  0.1193
 6455SOL    HW131001   1.838   4.133  10.509 -3.5316 -1.6517  0.6700
 6455SOL    HW231002   1.787   4.177  10.371  2.8134  1.6802 -0.1332
 6456SOL     OW31003   0.148   2.533   5.991  0.4789 -0.5704 -0.1666
 6456SOL    HW131004   0.117   2.616   6.027  0.7835  0.8975 -3.3204
 6456SOL    HW231005   0.220   2.514   6.052  0.5563  2.5649  0.7397
 6457SOL     OW31006   3.963   0.440   7.857  0.1646  0.4564 -0.4652
 6457SOL    HW131007   3.945   0.515   7.914  0.5024 -0.3055  0.6510
 6457SOL    HW231008   3.961   0.364   7.916 -3.1876  2.2925  1.7803
 6458SOL     OW31009   1.921   0.273  13.055  0.0784 -0.2612 -0.0071
 6458SOL    HW131010   1.999   0.229  13.088  0.8758  1.2776  0.1642
 6458SOL    HW231011   1.960   0.336  12.996 -1.2081 -2.3765 -3.1218
 6459SOL     OW31012   3.176   2.179   1.166 -0.2261  0.1514  0.2421
 6459SOL    HW131013   3.264   2.214   1.173  1.2710 -3.2928 -1.4143
 6459SOL    HW231014   3.199   2.088   1.148  0.1247  0.0414  1.2602
 6460SOL     OW31015   0.029   0.934  14.210  0.2349  0.2085 -0.1842
 6460SOL    HW131016   4.731   0.884  14.283 -0.5794  1.2329  0.1235
 6460SOL    HW231017   0.050   1.015  14.255 -0.0659 -0.4529  1.1376
 6461SOL     OW31018   3.723   0.573  17.437 -0.4463 -0.2122 -0.3450
 6461SOL    HW131019   3.668   0.526  17.500 -0.8402 -1.1990 -1.4294
 6461SOL    HW231020   3.799   0.514  17.442 -0.6517 -0.3973  0.7438
 6462SOL     OW31021   0.295   3.567   3.662  0.3945 -0.1469  0.3483
 6462SOL    HW131022   0.338   3.648   3.690 -1.0143  0.8258 -0.3122
 6462SOL    HW231023   0.359   3.526   3.604  0.1858 -0.2208  0.1700
 6463SOL     OW31024   1.450   2.568   3.271  0.2332 -0.5674  0.2989
 6463SOL    HW131025   1.422   2.657   3.250  1.2703 -0.7848 -2.0876
 6463SOL    HW231026   1.416   2.526   3.192  0.9556  0.0204 -0.3309
 6464SOL     OW31027   0.252   3.615   5.780  0.6208 -0.1431 -0.2753
 6464SOL    HW131028   0.186   3.685   5.780 -1.2810 -1.9444 -0.0051
 6464SOL    HW231029   0.280   3.604   5.870  0.4646  1.2228 -0.0557
 6465SOL     OW31030   4.579   0.306   7.622 -0.2212 -0.5957  0.0848
 6465SOL    HW131031   4.621   0.327   7.705 -1.3882  2.4913 -0.0879
 6465SOL    HW231032   4.496   0.267   7.650 -0.4555  0.4835  0.9239
 6466SOL     OW31033   1.606   3.208   0.058 -0.0646  0.3830 -0.2500
 6466SOL    HW131034   1.697   3.182   0.074 -0.9826 -1.0791  2.6036
 6466SOL    HW231035   1.586   3.168  17.720  2.0107  0.7592 -0.9150
 6467SOL     OW31036   0.766   0.991   7.353  0.1075 -0.5072 -0.2477
 6467SOL    HW131037   0.721   0.973   7.436  0.9737 -1.1541  0.0795
 6467SOL    HW231038   0.718   1.069   7.325 -3.4360 -2.1013  1.3127
 6468SOL     OW31039   3.635   0.574   6.883 -0.0689  0.1073 -0.0603
 6468SOL    HW131040   3.644   0.483   6.854 -0.2516 -0.3048  1.1539
 6468SOL    HW231041   3.579   0.571   6.961 -0.7272  0.4012 -0.5232
 6469SOL     OW31042   1.786   0.598  11.500  0.2451  0.0392 -0.4584
 6469SOL    HW131043   1.734   0.677  11.484  0.8976  0.3533 -1.0454
 6469SOL    HW231044   1.735   0.531  11.455 -1.4414  1.2661 -0.3665
 6470SOL     OW31045   0.313   3.191   3.740 -0.6973  0.0054 -0.1336
 6470SOL    HW131046   0.407   3.208   3.750 -0.6657 -0.2642  0.0474
 6470SOL    HW231047   0.291   3.168   3.831 -2.7437 -1.2039 -0.9496
 6471SOL     OW31048   1.435   3.999  14.989  0.1899 -0.3107  0.2209
 6471SOL    HW131049   1.438   3.912  14.950 -0.6867 -0.6160  0.8192
 6471SOL    HW231050   1.477   4.046  14.917 -0.3513 -2.7652 -1.6843
 6472SOL     OW31051   1.650   1.631  10.388 -0.7210 -0.0718 -0.1907
 6472SOL    HW131052   1.673   1.664  10.475 -0.9460  1.3668 -0.6839
 6472SOL    HW231053   1.717   1.564  10.401  0.5695  1.1607 -0.5766
 6473SOL     OW31054   0.434   3.863   2.807 -0.2624  0.5337 -0.1034
 6473SOL    HW131055   0.480   3.947   2.804  1.1855 -0.2737 -0.6195
 6473SOL    HW231056   0.472   3.819   2.883  0.9976 -1.5974 -1.9486
 6474SOL     OW31057   3.141   1.682   4.341  0.2632 -0.5972 -0.4476
 6474SOL    HW131058   3.220   1.658   4.390  0.7508 -1.0815 -1.4911
 6474SOL    HW231059   3.149   1.629   4.262 -1.0361  1.4446 -1.9638
 6475SOL     OW31060   4.116   4.553   3.517  0.0839 -0.0477  0.2021
 6475SOL    HW131061   4.082   4.527   3.432  0.0589  1.4337 -0.2386
 6475SOL    HW231062   4.036   4.553   3.569  1.4979 -0.4683  2.4308
 6476SOL     OW31063   2.486   0.678   9.251  0.3444 -0.3329  0.6218
 6476SOL    HW131064   2.539   0.711   9.178  0.6079 -0.7799  0.6115
 6476SOL    HW231065   2.427   0.752   9.263  0.8491  0.3467 -1.1072
 6477SOL     OW31066   2.206   1.171   2.886 -0.1885  0.4355 -0.6661
 6477SOL    HW131067   2.133   1.196   2.943  0.3999 -0.1764  0.3650
 6477SOL    HW231068   2.268   1.139   2.951  0.6590  3.5676  0.0551
 6478SOL     OW31069   4.162   2.373   2.974 -0.0215 -0.1902  0.0358
 6478SOL    HW131070   4.191   2.294   3.021 -0.0944  0.4488  1.1327
 6478SOL    HW231071   4.156   2.345   2.883  0.8484 -0.6113  0.1017
 6479SOL     OW31072   0.495   3.751   2.553  0.0156  0.1660 -0.0547
 6479SOL    HW131073   0.488   3.780   2.643 -0.9527  3.0765 -1.0655
 6479SOL    HW231074   0.409   3.782   2.523  1.3397  1.6629 -2.2792
 6480SOL     OW31075   0.302   0.956  17.629 -0.7263  0.3271 -0.1592
 6480SOL    HW131076   0.335   0.944  17.540  1.1482 -0.8938  0.7021
 6480SOL    HW231077   0.208   0.972  17.614 -1.4550 -2.2098  1.6425
 6481SOL     OW31078   2.307   1.594  12.467 -0.3757 -0.4283 -0.0248
 6481SOL    HW131079   2.268   1.658  12.526  3.1113  1.0728  0.6328
 6481SOL    HW231080   2.287   1.517  12.521 -0.2131 -1.6546 -1.6829
 6482SOL     OW31081   1.318   0.085   5.360  0.2970  0.0742 -0.8251
 6482SOL    HW131082   1.263   0.080   5.438  0.3220 -1.7312 -0.9294
 6482SOL    HW231083   1.405   0.102   5.396 -0.2541  0.1912  0.4683
 6483SOL     OW31084   1.382   1.896  11.828  0.1561  0.2110 -0.1399
 6483SOL    HW131085   1.365   1.802  11.838 -1.4531  0.6032  0.8261
 6483SOL    HW231086   1.339   1.931  11.906  0.2947 -0.3013  0.1644
 6484SOL     OW31087   0.861   4.064   3.099  0.2246  0.0483  0.0233
 6484SOL    HW131088   0.856   4.160   3.096 -1.3125 -0.0094  0.6176
 6484SOL    HW231089   0.950   4.046   3.070 -0.1758 -2.5636  0.4675
 6485SOL     OW31090   3.732   0.730   5.615 -0.4015  0.5306  0.2929
 6485SOL    HW131091   3.668   0.771   5.674 -0.6397  0.1407  0.3046
 6485SOL    HW231092   3.703   0.760   5.529  0.5760 -0.7454 -0.4879
 6486SOL     OW31093   1.488   4.649   9.542  0.0709 -0.0829  0.3172
 6486SOL    HW131094   1.578   4.619   9.531 -0.7477 -2.3541 -0.1860
 6486SOL    HW231095   1.506   0.006   9.552  4.3011 -0.9196  0.4124
 6487SOL     OW31096   1.595   2.621   7.077  0.2060 -0.0858 -0.3439
 6487SOL    HW131097   1.527   2.585   7.021  0.8975 -4.2193  1.5020
 6487SOL    HW231098   1.534   2.647   7.146 -1.1354 -3.0869 -0.4403
 6488SOL     OW31099   3.615   3.844   6.260  0.0122 -0.6608 -0.6760
 6488SOL    HW131100   3.628   3.841   6.355 -0.2404 -0.8328 -0.6468
 6488SOL    HW231101   3.522   3.867   6.251  0.0982  0.0105  0.0767
 6489SOL     OW31102   0.338   1.987  12.952 -0.5373 -0.1762  0.5161
 6489SOL    HW131103   0.249   1.979  12.920 -0.6267  1.2852  0.4059
 6489SOL    HW231104   0.338   2.068  13.004  2.1548  0.3142 -0.2063
 6490SOL     OW31105   0.371   2.745   8.032  0.3539  0.3907  0.8303
 6490SOL    HW131106   0.433   2.817   8.036  1.1794 -0.2182 -1.3854
 6490SOL    HW231107   0.284   2.781   8.053  0.9564  1.5468  1.3473
 6491SOL     OW31108   1.593   4.676   9.211  0.4991 -0.2355 -0.2580
 6491SOL    HW131109   1.575   0.032   9.218 -2.6736 -0.7003 -2.1875
 6491SOL    HW231110   1.509   4.632   9.225 -0.3904  2.3054  2.4283
 6492SOL     OW31111   4.052   4.638   4.966 -0.4380 -0.5492  0.4291
 6492SOL    HW131112   4.043   4.543   4.970 -0.3046 -0.5080  1.6638
 6492SOL    HW231113   4.110   4.661   5.039  2.0897 -0.4671 -1.6004
 6493SOL     OW31114   2.304   4.514  11.873  0.6748 -0.0839  0.2152
 6493SOL    HW131115   2.240   4.464  11.924  0.0083  1.3185  0.7501
 6493SOL    HW231116   2.367   4.553  11.934  0.0960 -0.3550  0.9956
 6494SOL     OW31117   0.724   2.619   4.227  0.2738 -0.1143 -0.1210
 6494SOL    HW131118   0.744   2.531   4.260  1.1639  0.1088 -0.0546
 6494SOL    HW231119   0.764   2.664   4.301 -0.1423  0.4771 -0.2573
 6495SOL     OW31120   1.445   1.585   0.498  0.2408 -0.0388 -0.2622
 6495SOL    HW131121   1.442   1.545   0.585  1.2452  0.0337 -0.1927
 6495SOL    HW231122   1.351   1.584   0.480  0.6394 -0.7946 -2.2913
 6496SOL     OW31123   3.173   4.409   4.330  0.7400 -0.0634  0.0260
 6496SOL    HW131124   3.160   4.496   4.292  1.3803 -0.2658 -0.6761
 6496SOL    HW231125   3.148   4.366   4.248  0.9872 -0.8600  0.3641
 6497SOL     OW31126   0.873   2.434  12.532  0.1540  0.0329 -0.3702
 6497SOL    HW131127   0.932   2.497  12.574 -0.1134 -0.6577  1.0610
 6497SOL    HW231128   0.859   2.365  12.598 -2.6946 -0.2038 -1.2356
 6498SOL     OW31129   3.406   2.185   9.527  0.1420 -0.3451  0.3627
 6498SOL    HW131130   3.311   2.184   9.533  0.0999 -1.7818 -0.4987
 6498SOL    HW231131   3.435   2.115   9.586  0.6375 -0.0453  0.4776
 6499SOL     OW31132   2.216   2.138   4.392  0.0322  0.1714  0.0922
 6499SOL    HW131133   2.227   2.044   4.408 -1.0596 -0.3591 -2.2302
 6499SOL    HW231134   2.211   2.169   4.483 -0.6878  2.6297 -0.7811
 6500SOL     OW31135   3.570   1.856   5.044 -0.2786 -0.3268  0.0115
 6500SOL    HW131136   3.662   1.837   5.065 -0.8654 -1.7554  1.3300
 6500SOL    HW231137   3.557   1.936   5.095 -0.6863 -0.4557  0.1123
 6501SOL     OW31138   0.697   4.301   2.043 -0.7648  0.4778  1.1547
 6501SOL    HW131139   0.652   4.385   2.049  0.9656  1.5220 -1.0281
 6501SOL    HW231140   0.773   4.331   1.995  0.0485 -1.1149  1.4376
 6502SOL     OW31141   0.247   2.116   7.319 -0.3860 -0.3017  0.1667
 6502SOL    HW131142   0.171   2.073   7.358 -1.7365  0.5565 -1.5300
 6502SOL    HW231143   0.287   2.048   7.266  1.4119  2.0428 -1.4925
 6503SOL     OW31144   1.882   1.156   2.302  0.5427 -0.3892  0.1284
 6503SOL    HW131145   1.942   1.206   2.247  1.3107 -1.1552  0.2621
 6503SOL    HW231146   1.951   1.130   2.364 -1.9944 -1.8125  2.3268
 6504SOL     OW31147   1.752   2.554   7.366 -0.1190 -0.2495 -0.0025
 6504SOL    HW131148   1.660   2.535   7.346 -0.4267  0.3303  0.8277
 6504SOL    HW231149   1.748   2.649   7.353 -2.1756 -0.4929 -1.1258
 6505SOL     OW31150   2.924   1.563   0.254 -1.1981  0.5931 -0.6731
 6505SOL    HW131151   2.873   1.627   0.205 -1.1729  1.7657  0.8605
 6505SOL    HW231152   2.920   1.490   0.191  0.3414  0.8622 -1.0948
 6506SOL     OW31153   2.402   4.634   8.239 -0.0896  0.4546 -0.5161
 6506SOL    HW131154   2.373   4.567   8.178  0.1070 -1.6451  1.6944
 6506SOL    HW231155   2.354   4.712   8.210  0.1276  1.4721  1.8298
 6507SOL     OW31156   2.035   0.951  11.249 -0.0177  0.2717 -0.0991
 6507SOL    HW131157   2.003   0.863  11.230  0.4250  0.6433 -2.5595
 6507SOL    HW231158   2.129   0.929  11.251  0.3251  1.6067 -1.5882
 6508SOL     OW31159   1.272   3.323  10.673  0.2309 -0.4547  0.6050
 6508SOL    HW131160   1.329   3.294  10.602  0.9424  1.2470  0.4611
 6508SOL    HW231161   1.325   3.392  10.714  0.7734 -0.7268  0.3643
 6509SOL     OW31162   0.879   0.150   5.301  0.2156 -0.1445 -0.0689
 6509SOL    HW131163   0.964   0.168   5.261 -0.9584  1.7966 -1.6662
 6509SOL    HW231164   0.867   0.240   5.330  0.2669 -0.4265  0.8444
 6510SOL     OW31165   2.020   1.201   9.804  0.0082  0.4096 -0.0799
 6510SOL    HW131166   2.017   1.208   9.899  1.3218 -3.0367  0.2489
 6510SOL    HW231167   2.065   1.281   9.778  0.3761 -0.4068 -2.0140
 6511SOL     OW31168   2.688   3.667   5.249  0.3937 -0.5005 -0.0508
 6511SOL    HW131169   2.655   3.733   5.188 -1.1746  1.4578  2.9500
 6511SOL    HW231170   2.679   3.709   5.334  1.4706  0.6513 -0.5019
 6512SOL     OW31171   2.932   3.517   8.255 -0.0593 -0.0268  0.2060
 6512SOL    HW131172   2.966   3.484   8.172 -0.7124 -0.6393  0.1794
 6512SOL    HW231173   2.968   3.452   8.315  0.6240  0.3942  0.2500
 6513SOL     OW31174   3.070   4.264   4.128 -1.0023  0.4108 -0.6169
 6513SOL    HW131175   3.117   4.183   4.112 -0.4464  0.4060  1.0323
 6513SOL    HW231176   3.012   4.259   4.053  0.2237  2.2836 -1.6915
 6514SOL     OW31177   2.635   3.945   6.137  0.0757 -0.4351  0.5291
 6514SOL    HW131178   2.546   3.978   6.133  1.0287  1.7235 -2.1960
 6514SOL    HW231179   2.659   3.951   6.045  0.1894 -1.7865  0.4691
 6515SOL     OW31180   1.680   1.893  13.777  0.0373  0.0599 -0.4095
 6515SOL    HW131181   1.670   1.955  13.704  1.7842  1.8498  0.8495
 6515SOL    HW231182   1.760   1.851  13.749 -0.0648  1.5575 -2.9281
 6516SOL     OW31183   1.592   1.105  13.828  0.1337 -0.3349  0.0598
 6516SOL    HW131184   1.618   1.117  13.737 -2.2288  0.9832 -0.4613
 6516SOL    HW231185   1.545   1.021  13.826 -1.8178  0.7467  0.1441
 6517SOL     OW31186   3.173   2.737  13.700  0.1110 -0.2020  0.7417
 6517SOL    HW131187   3.264   2.738  13.671 -0.2343 -0.8187 -0.3627
 6517SOL    HW231188   3.128   2.765  13.620 -0.3208 -1.4290  0.5533
 6518SOL     OW31189   1.510   3.019   3.834  0.1693  0.1990  0.3982
 6518SOL    HW131190   1.511   2.999   3.740 -0.5583  1.2509  0.1760
 6518SOL    HW231191   1.595   2.988   3.865  0.6203 -0.2062 -1.2341
 6519SOL     OW31192   2.674   1.277  17.231 -0.6699 -0.6002 -0.3909
 6519SOL    HW131193   2.733   1.229  17.173 -0.9348 -0.2006 -0.9919
 6519SOL    HW231194   2.599   1.306  17.179 -0.8475  0.7399  0.6132
 6520SOL     OW31195   0.585   2.745   5.381 -0.3266  0.2194 -0.5979
 6520SOL    HW131196   0.631   2.820   5.344 -1.2374 -0.1031 -2.3655
 6520SOL    HW231197   0.499   2.783   5.397 -0.9881 -0.9037 -1.5285
 6521SOL     OW31198   3.368   0.775   4.092  0.1586 -0.6259 -0.2987
 6521SOL    HW131199   3.350   0.868   4.088 -1.6105 -0.9126  0.7452
 6521SOL    HW231200   3.320   0.753   4.012 -1.4347  0.2694  0.4169
 6522SOL     OW31201   0.270   2.349   8.143  0.6754 -0.5859  0.3566
 6522SOL    HW131202   0.263   2.359   8.048 -0.6037  0.9633  0.6011
 6522SOL    HW231203   0.302   2.436   8.168  0.3168 -0.5606  0.7300
 6523SOL     OW31204   0.586   3.522   7.925  0.2446  0.0522  0.2165
 6523SOL    HW131205   0.635   3.542   8.004 -0.7453 -0.1777  0.8878
 6523SOL    HW231206   0.606   3.428   7.919  2.1972  0.6246 -2.4422
 6524SOL     OW31207   4.315   0.953   5.531  0.0111  0.1649  0.5772
 6524SOL    HW131208   4.350   0.985   5.614 -0.9683 -0.5995  1.2797
 6524SOL    HW231209   4.230   0.916   5.554  0.4933 -0.8574  0.7341
 6525SOL     OW31210   2.578   3.719   4.046  0.4494 -0.0773  0.1330
 6525SOL    HW131211   2.630   3.749   4.120  1.5287  1.3833 -1.1903
 6525SOL    HW231212   2.623   3.639   4.021 -1.6728 -1.4701  0.7790
 6526SOL     OW31213   4.054   4.734   8.293 -0.5464 -0.3448 -0.7613
 6526SOL    HW131214   3.988   0.065   8.280 -1.8313 -2.3157 -4.5198
 6526SOL    HW231215   4.007   4.675   8.352 -1.5961 -0.8063 -2.0706
 6527SOL     OW31216   2.455   2.492   3.509 -0.7414  0.1502  0.3323
 6527SOL    HW131217   2.502   2.414   3.479 -1.4389 -0.1297 -0.0368
 6527SOL    HW231218   2.487   2.502   3.599 -0.5537 -2.3714  0.5580
 6528SOL     OW31219   0.585   4.387   3.961  0.1726 -0.7761 -0.5773
 6528SOL    HW131220   0.500   4.344   3.950 -1.1028  2.0254 -1.6602
 6528SOL    HW231221   0.557   4.478   3.959  0.7909 -0.5398  1.7723
 6529SOL     OW31222   0.364   4.146  11.208 -0.0465  0.1192 -0.2509
 6529SOL    HW131223   0.310   4.109  11.278  1.6120 -2.4056 -0.2971
 6529SOL    HW231224   0.428   4.203  11.252 -0.0333 -0.0247 -0.0808
 6530SOL     OW31225   1.900   0.622  10.574 -0.8816  0.1959 -0.3026
 6530SOL    HW131226   1.977   0.565  10.585 -1.2722 -0.3480 -0.3753
 6530SOL    HW231227   1.843   0.564  10.625 -0.4716 -0.0062 -0.0709
 6531SOL     OW31228   1.950   1.280  14.814  0.2053 -0.0495  0.3337
 6531SOL    HW131229   1.923   1.339  14.884 -1.1850 -1.0721  0.6734
 6531SOL    HW231230   1.939   1.323  14.729 -0.9021  1.8211  1.4402
 6532SOL     OW31231   1.643   2.157  13.034 -0.2142 -0.2132  0.0020
 6532SOL    HW131232   1.671   2.246  13.054  1.1525 -0.5041 -0.6017
 6532SOL    HW231233   1.561   2.161  13.084 -0.3781  0.1887 -0.2969
 6533SOL     OW31234   3.714   2.478   4.581  0.1401 -0.1506 -0.0211
 6533SOL    HW131235   3.800   2.520   4.572 -0.2375  0.5829 -0.1548
 6533SOL    HW231236   3.677   2.507   4.498 -1.6346 -0.2930  0.7332
 6534SOL     OW31237   0.320   2.908  12.883 -0.0923 -0.5947  0.3282
 6534SOL    HW131238   0.290   2.879  12.969 -0.6588  2.3881  1.1045
 6534SOL    HW231239   0.252   2.871  12.827 -0.6438 -2.3990  2.1921
 6535SOL     OW31240   4.533   3.063   7.709  0.0218  0.1629 -0.3783
 6535SOL    HW131241   4.542   3.002   7.635  0.1623 -0.3333  0.0519
 6535SOL    HW231242   4.466   3.112   7.661 -0.7392 -1.3362 -0.8304
 6536SOL     OW31243   1.369   4.334  16.772 -0.2567 -0.3860 -0.0318
 6536SOL    HW131244   1.432   4.286  16.827  1.6188 -0.5502 -2.2844
 6536SOL    HW231245   1.426   4.385  16.715 -0.9612  0.5393  0.0977
 6537SOL     OW31246   2.537   0.377  10.324 -0.4254  0.0806 -0.1433
 6537SOL    HW131247   2.616   0.416  10.360 -0.2663 -2.4461  2.2799
 6537SOL    HW231248   2.522   0.439  10.253 -0.8081  0.4808  0.2908
 6538SOL     OW31249   1.222   0.656   5.291 -0.1095 -0.6233  0.0693
 6538SOL    HW131250   1.221   0.653   5.196 -2.5842 -0.6557  0.0867
 6538SOL    HW231251   1.317   0.660   5.306  0.1892 -2.7915 -1.2700
 6539SOL     OW31252   0.405   1.690   4.623  0.2844  0.1197 -0.4881
 6539SOL    HW131253   0.479   1.692   4.682 -1.5934  1.1731  1.8148
 6539SOL    HW231254   0.382   1.597   4.632 -0.2572  0.3016 -0.0391
 6540SOL     OW31255   4.386   0.013   4.365 -0.0569  0.2186  0.1819
 6540SOL    HW131256   4.307   4.736   4.312  0.6176 -0.9765 -0.4963
 6540SOL    HW231257   4.399   4.659   4.393 -2.5561 -0.5410 -1.1545
 6541SOL     OW31258   4.640   0.155  16.079  0.6816  0.5475  0.0926
 6541SOL    HW131259   4.625   0.063  16.101 -0.8498  0.7234 -0.1724
 6541SOL    HW231260   4.569   0.189  16.133 -0.9616 -2.4354 -0.1924
 6542SOL     OW31261   4.310   0.501  13.111  0.0553  0.1029 -0.3348
 6542SOL    HW131262   4.399   0.474  13.089 -0.0009  0.4245 -0.9749
 6542SOL    HW231263   4.280   0.513  13.021 -0.0493  0.8751 -0.1954
 6543SOL     OW31264   1.920   1.385   7.185  0.4291 -0.2147 -0.1755
 6543SOL    HW131265   1.945   1.356   7.097 -0.7450 -1.0381 -0.2436
 6543SOL    HW231266   1.940   1.478   7.184 -2.2561  0.3789  1.1052
 6544SOL     OW31267   1.024   0.052   3.326  1.1790  0.2687 -0.3773
 6544SOL    HW131268   0.981   0.016   3.249  2.0282 -2.5564  0.4953
 6544SOL    HW231269   1.061   4.713   3.370  0.2563  1.1759  2.0000
 6545SOL     OW31270   0.710   0.777  14.490  0.1169 -0.2986  0.4792
 6545SOL    HW131271   0.681   0.818  14.409  1.5977  1.6205  0.9152
 6545SOL    HW231272   0.806   0.780  14.482  0.1204  0.0326  0.6643
 6546SOL     OW31273   0.704   2.101   4.263 -0.4575  0.2249 -0.0584
 6546SOL    HW131274   0.716   2.063   4.350 -0.0199 -0.7841 -0.5502
 6546SOL    HW231275   0.659   2.028   4.220 -0.1811  0.0619 -0.0679
 6547SOL     OW31276   0.941   0.557   5.610 -0.2196 -0.0359  0.1918
 6547SOL    HW131277   0.930   0.649   5.585 -1.3887 -0.6529 -1.5523
 6547SOL    HW231278   1.005   0.570   5.680 -1.0209 -1.1437  1.1371
 6548SOL     OW31279   0.691   0.700  16.481 -0.1229  0.0426  0.2905
 6548SOL    HW131280   0.620   0.763  16.470  1.2872  1.7254  0.7757
 6548SOL    HW231281   0.660   0.629  16.424 -1.7884  0.3534  0.8399
 6549SOL     OW31282   1.568   1.444  15.567 -0.1354 -0.5194  1.2093
 6549SOL    HW131283   1.587   1.362  15.522 -0.5177  0.8961 -1.4688
 6549SOL    HW231284   1.515   1.404  15.637 -0.6366  1.9276  2.2330
 6550SOL     OW31285   2.126   2.543   6.884 -0.5118 -0.0863 -0.2706
 6550SOL    HW131286   2.049   2.512   6.931  0.8519  0.6279  2.4873
 6550SOL    HW231287   2.173   2.459   6.882 -0.4334 -0.0245 -0.9820
 6551SOL     OW31288   1.541   0.631   9.474 -0.0897  0.7423 -0.2165
 6551SOL    HW131289   1.617   0.632   9.531  0.5688 -0.0302 -1.0772
 6551SOL    HW231290   1.534   0.539   9.447  3.1637 -0.4570  3.0369
 6552SOL     OW31291   3.917   0.913   6.382  0.0586 -0.5976  0.2292
 6552SOL    HW131292   3.825   0.886   6.377 -0.8693  2.7693 -0.9117
 6552SOL    HW231293   3.910   1.002   6.347  0.4474 -0.6192  0.0940
 6553SOL     OW31294   0.858   3.823   3.734 -0.1946  0.4189 -0.4372
 6553SOL    HW131295   0.953   3.816   3.742 -0.6067 -1.7022  2.8069
 6553SOL    HW231296   0.842   3.899   3.789  2.1126  0.4629  0.1905
 6554SOL     OW31297   2.378   3.649   3.523 -0.0608  0.2985  0.2011
 6554SOL    HW131298   2.365   3.599   3.443  1.8296 -0.1544  0.1852
 6554SOL    HW231299   2.330   3.589   3.581 -1.2249  3.0550  2.1035
 6555SOL     OW31300   2.234   2.022  16.166  0.1964  0.0195  0.1596
 6555SOL    HW131301   2.308   2.008  16.106  0.5793  1.8674  0.2174
 6555SOL    HW231302   2.170   2.075  16.119 -0.6226  0.3876  1.7004
 6556SOL     OW31303   3.638   2.221   2.547 -0.2781  0.4841 -0.0256
 6556SOL    HW131304   3.703   2.268   2.599  0.2913  0.8280 -1.0538
 6556SOL    HW231305   3.623   2.279   2.473 -0.4457 -0.0191 -0.3832
 6557SOL     OW31306   4.539   2.852  12.779 -0.1769 -0.4300  0.2696
 6557SOL    HW131307   4.445   2.854  12.757 -0.5003  0.0698  1.6746
 6557SOL    HW231308   4.555   2.762  12.808 -0.3897 -1.0411 -1.5124
 6558SOL     OW31309   3.865   4.134   1.196 -0.1621 -0.1189 -0.6023
 6558SOL    HW131310   3.783   4.090   1.216  0.4826 -0.7421  0.6347
 6558SOL    HW231311   3.935   4.075   1.224 -0.9366  0.0256  1.5616
 6559SOL     OW31312   2.490   0.062  17.530 -0.0438  0.5061 -0.4598
 6559SOL    HW131313   2.491   4.728  17.466  1.3202  0.1188  0.0108
 6559SOL    HW231314   2.408   0.107  17.510 -1.1491 -1.3500 -0.2148
 6560SOL     OW31315   0.246   1.578   0.767 -0.3617 -0.0956  0.2363
 6560SOL    HW131316   0.264   1.659   0.720 -1.6601  1.1053  1.8348
 6560SOL    HW231317   0.337   1.555   0.784 -0.6468 -1.1436  0.3321
 6561SOL     OW31318   2.477   1.038   4.417 -0.6743 -0.0538  0.2347
 6561SOL    HW131319   2.551   0.980   4.432 -0.3099  0.5888  0.8896
 6561SOL    HW231320   2.501   1.078   4.334  1.8415 -1.4681  0.2936
 6562SOL     OW31321   3.165   2.865   5.850 -0.0536  0.2458 -0.1091
 6562SOL    HW131322   3.140   2.776   5.823  0.5047 -0.2809  1.0863
 6562SOL    HW231323   3.253   2.868   5.811  0.5453 -0.5450  1.1614
 6563SOL     OW31324   2.798   0.552  14.973  0.3663  0.4073 -0.2252
 6563SOL    HW131325   2.724   0.495  14.952 -1.5066  2.0657  1.7733
 6563SOL    HW231326   2.843   0.511  15.047 -2.4721  1.3752  2.0619
 6564SOL     OW31327   2.097   3.567   7.487 -0.7238  0.0620  0.0049
 6564SOL    HW131328   2.030   3.525   7.539 -3.5056  2.7559 -1.3785
 6564SOL    HW231329   2.173   3.590   7.541  0.6938 -3.0899 -0.6702
 6565SOL     OW31330   0.157   0.124   9.266 -0.1393  0.3582 -0.7068
 6565SOL    HW131331   0.147   0.086   9.179  0.8600  1.5650 -1.3550
 6565SOL    HW231332   0.151   0.217   9.244 -2.2600  0.4217  0.1896
 6566SOL     OW31333   0.596   2.011   6.182  0.2910  0.1504  0.2807
 6566SOL    HW131334   0.617   2.102   6.201  1.1554 -0.3700  1.8490
 6566SOL    HW231335   0.675   2.001   6.129  0.2882 -0.8857  0.4639
 6567SOL     OW31336   0.748   3.422  12.471 -0.3803 -0.0712  0.1178
 6567SOL    HW131337   0.668   3.379  12.503 -0.8840  1.1380  0.5068
 6567SOL    HW231338   0.755   3.494  12.534  0.3418 -0.1983  0.1721
 6568SOL     OW31339   4.594   0.120  15.717 -0.0783  0.2024  0.1412
 6568SOL    HW131340   4.613   0.027  15.706  0.5280  0.2148  1.0603
 6568SOL    HW231341   4.499   0.122  15.706  0.1091 -0.9245 -1.7552
 6569SOL     OW31342   0.195   4.045   5.554  0.0494  0.0226  0.0045
 6569SOL    HW131343   0.250   3.968   5.570  2.7176  1.9977  0.3704
 6569SOL    HW231344   0.248   4.078   5.481  1.2350 -0.0613  0.8174
 6570SOL     OW31345   0.964   0.826  15.699  0.2640 -0.2781 -0.0219
 6570SOL    HW131346   0.877   0.850  15.667 -0.1940 -1.3851  0.4025
 6570SOL    HW231347   1.008   0.911  15.700  1.2019 -0.7784  0.6343
 6571SOL     OW31348   1.433   1.030   2.296 -0.4118 -0.2594  0.1245
 6571SOL    HW131349   1.391   1.093   2.354 -0.7422  0.8017 -1.2714
 6571SOL    HW231350   1.519   1.017   2.335 -0.1931 -1.0660 -0.6399
 6572SOL     OW31351   0.874   2.188   9.728  0.6747 -0.2056  0.1287
 6572SOL    HW131352   0.912   2.112   9.683 -0.6047  0.2321 -1.6773
 6572SOL    HW231353   0.927   2.262   9.699  2.4864 -1.1307  1.0070
 6573SOL     OW31354   0.445   4.662  16.726  0.1465 -0.0052  0.9165
 6573SOL    HW131355   0.526   4.709  16.704  0.1845 -1.1992 -1.4915
 6573SOL    HW231356   0.471   4.594  16.789  0.7053  0.6760  1.4165
 6574SOL     OW31357   0.332   2.840   7.187 -0.1174 -0.2482 -0.3564
 6574SOL    HW131358   0.419   2.863   7.218  0.1810 -0.6257 -0.9126
 6574SOL    HW231359   0.312   2.757   7.230 -1.9937  0.4906  0.2132
 6575SOL     OW31360   3.454   1.347  14.646 -0.7863 -0.3892  0.2106
 6575SOL    HW131361   3.365   1.321  14.670 -0.9602  0.1519  0.1637
 6575SOL    HW231362   3.471   1.299  14.565 -0.1935  0.5466 -0.2189
 6576SOL     OW31363   0.066   3.557   7.230 -0.3249  0.0883  0.3998
 6576SOL    HW131364   0.058   3.636   7.283 -0.3594 -0.3076  0.9856
 6576SOL    HW231365   0.130   3.585   7.164  0.3372  0.9422  1.3969
 6577SOL     OW31366   3.161   4.145   7.641  0.1987 -0.2809  0.5990
 6577SOL    HW131367   3.110   4.225   7.624  2.2362  0.4079 -2.1476
 6577SOL    HW231368   3.169   4.138   7.736  0.1193 -1.2535  0.5247
 6578SOL     OW31369   3.860   1.913  15.696  0.2649  0.5119 -0.3073
 6578SOL    HW131370   3.767   1.913  15.718  0.7615  1.1288  1.8276
 6578SOL    HW231371   3.899   1.951  15.775 -0.6346 -1.9871  1.3356
 6579SOL     OW31372   2.045   2.644   1.341 -0.5534  0.1903 -0.2749
 6579SOL    HW131373   2.029   2.621   1.249  1.3656 -0.6607 -0.3970
 6579SOL    HW231374   2.082   2.563   1.375  0.0940  0.8268  0.5397
 6580SOL     OW31375   2.487   3.174   7.247 -0.4730  0.5230  0.2245
 6580SOL    HW131376   2.398   3.187   7.213  0.2831  1.0792 -1.5325
 6580SOL    HW231377   2.520   3.100   7.198  0.1606 -0.4925  2.1893
 6581SOL     OW31378   0.494   1.736   9.210 -0.1109 -0.0058 -0.3002
 6581SOL    HW131379   0.452   1.693   9.284  1.2024 -0.5028  0.1477
 6581SOL    HW231380   0.550   1.809   9.236  0.4364 -0.2733 -0.7435
 6582SOL     OW31381   2.540   0.819   8.053  0.2226 -0.2016 -0.0951
 6582SOL    HW131382   2.507   0.754   7.991  1.3574 -0.0183 -0.8829
 6582SOL    HW231383   2.520   0.899   8.003  0.1344 -0.5175 -0.5607
 6583SOL     OW31384   1.398   0.059   8.007  0.1662 -0.4695 -0.1346
 6583SOL    HW131385   1.475   0.059   8.064  0.6277  0.9605 -0.7490
 6583SOL    HW231386   1.442   0.061   7.922 -0.9861 -0.7369 -0.7309
 6584SOL     OW31387   1.026   3.642   7.880  0.2559  0.1939 -0.6870
 6584SOL    HW131388   1.008   3.730   7.911  0.6894 -0.0228  0.1632
 6584SOL    HW231389   1.005   3.591   7.958 -1.9783  1.1579 -0.6790
 6585SOL     OW31390   0.699   2.622   9.651  0.0807  0.1620 -0.2925
 6585SOL    HW131391   0.658   2.707   9.637  1.4290  0.9448  0.6056
 6585SOL    HW231392   0.768   2.654   9.708 -0.9717  2.5447 -0.3724
 6586SOL     OW31393   0.432   1.244   0.165 -0.1907 -0.5535 -0.0207
 6586SOL    HW131394   0.338   1.241   0.147 -0.3596 -2.2263  1.1627
 6586SOL    HW231395   0.453   1.178   0.099  1.5159 -0.1866  0.1644
 6587SOL     OW31396   0.089   0.394   9.261  0.1665 -0.3636 -0.5270
 6587SOL    HW131397   0.044   0.412   9.343  0.7619 -2.1198  0.1686
 6587SOL    HW231398   0.157   0.461   9.274 -0.9927  0.5077  1.1236
 6588SOL     OW31399   0.854   2.433   1.113 -0.1099 -0.3885  0.4496
 6588SOL    HW131400   0.876   2.340   1.126  1.4184 -0.0787  0.0710
 6588SOL    HW231401   0.921   2.453   1.048  2.1571 -1.6520  2.3671
 6589SOL     OW31402   2.396   0.432   8.608 -0.4974  0.0840  0.7468
 6589SOL    HW131403   2.426   0.386   8.687  0.1623 -0.2539  0.3061
 6589SOL    HW231404   2.304   0.448   8.628 -0.8013  1.7893 -2.0063
 6590SOL     OW31405   2.999   0.289  10.390  0.0739 -0.2052  0.1040
 6590SOL    HW131406   3.024   0.381  10.400  0.0547 -0.1873 -0.0116
 6590SOL    HW231407   3.034   0.251  10.470 -2.4337 -0.7069  0.9737
 6591SOL     OW31408   1.833   2.768   5.953 -0.0546 -0.6570 -0.4107
 6591SOL    HW131409   1.910   2.819   5.977 -0.4156  0.2594 -1.1735
 6591SOL    HW231410   1.792   2.834   5.896  1.8863 -1.0655 -2.2869
 6592SOL     OW31411   1.066   0.577   1.734 -0.6355  0.8038 -0.2976
 6592SOL    HW131412   1.110   0.493   1.750 -0.4015  0.7262 -1.3254
 6592SOL    HW231413   1.053   0.602   1.825  0.3876 -0.5871  0.2398
 6593SOL     OW31414   3.400   0.549   3.009 -0.2366 -0.2174  0.9175
 6593SOL    HW131415   3.442   0.472   3.047 -3.2041 -1.4675  1.6381
 6593SOL    HW231416   3.393   0.614   3.079 -1.2172 -0.9328  1.4845
 6594SOL     OW31417   0.781   2.297   3.744  0.4199  0.3622 -0.0119
 6594SOL    HW131418   0.826   2.376   3.776  2.6597 -0.7802 -0.3573
 6594SOL    HW231419   0.855   2.246   3.710 -0.4418  0.2938 -1.8033
 6595SOL     OW31420   3.870   1.533   3.306  0.4492  1.1617 -0.6924
 6595SOL    HW131421   3.806   1.586   3.353 -0.0879 -0.9584  0.9277
 6595SOL    HW231422   3.942   1.517   3.367  0.7096  0.3772 -1.2022
 6596SOL     OW31423   3.216   3.668  10.991  0.5476  0.0290  0.3754
 6596SOL    HW131424   3.268   3.720  10.929 -1.0226  1.9997  0.7062
 6596SOL    HW231425   3.223   3.585  10.944 -0.6640 -1.2778  2.4941
 6597SOL     OW31426   2.032   2.170   0.817  0.3430 -0.0332 -0.3540
 6597SOL    HW131427   2.062   2.260   0.810 -1.2384  0.5443  0.2338
 6597SOL    HW231428   2.111   2.121   0.794 -0.5187 -2.0544  1.0034
 6598SOL     OW31429   1.004   0.745  14.417  0.2644  0.4611 -0.5073
 6598SOL    HW131430   1.001   0.807  14.345 -1.2291  0.8945 -0.0682
 6598SOL    HW231431   1.098   0.741  14.438 -0.1035  2.5093  1.4609
 6599SOL     OW31432   1.200   2.229  15.492  0.3464  0.5081  0.1196
 6599SOL    HW131433   1.285   2.192  15.515 -0.0361  0.0366  0.7760
 6599SOL    HW231434   1.217   2.261  15.404  0.4274  0.3079  0.0642
 6600SOL     OW31435   1.505   4.250  17.257  0.0543 -0.1229  0.3426
 6600SOL    HW131436   1.548   4.195  17.322  0.0257 -2.1882 -1.3813
 6600SOL    HW231437   1.490   4.331  17.305 -2.6734  0.5799 -1.6884
 6601SOL     OW31438   3.043   0.995  10.659  0.3149  0.1860  0.1087
 6601SOL    HW131439   3.029   0.995  10.754 -0.9228 -0.3759 -0.0645
 6601SOL    HW231440   3.105   1.065  10.640 -0.1003  0.5035 -0.0658
 6602SOL     OW31441   1.542   3.516  10.658  0.4883  0.1562  0.0550
 6602SOL    HW131442   1.468   3.550  10.609  1.3206  2.0624  0.1456
 6602SOL    HW231443   1.507   3.542  10.743  0.8695  0.0733  0.2357
 6603SOL     OW31444   0.600   3.882   7.720  0.0792 -0.0133  0.3497
 6603SOL    HW131445   0.628   3.919   7.636  1.0695 -2.2973 -0.3369
 6603SOL    HW231446   0.673   3.912   7.773  2.3065 -1.7776 -1.6824
 6604SOL     OW31447   1.451   2.086   4.865 -0.4913 -0.4830 -0.1103
 6604SOL    HW131448   1.511   2.099   4.939 -1.8708  0.1047  0.8981
 6604SOL    HW231449   1.387   2.156   4.874 -1.9445 -2.0992  2.0140
 6605SOL     OW31450   1.089   4.045   7.635 -0.0389  0.3536 -0.4487
 6605SOL    HW131451   1.112   4.091   7.716 -1.4082  0.3189 -0.0297
 6605SOL    HW231452   1.022   3.984   7.667  1.2580 -1.3449 -1.0017
 6606SOL     OW31453   3.946   1.943   7.511  0.4264 -0.1376 -0.2196
 6606SOL    HW131454   3.922   1.904   7.427 -1.5036 -1.5813  1.0180
 6606SOL    HW231455   3.942   2.031   7.473 -0.7993  0.4737  1.3222
 6607SOL     OW31456   2.995   4.064   2.263  0.5533  0.0729 -0.4377
 6607SOL    HW131457   2.917   4.019   2.295 -0.9157  1.8277 -1.5377
 6607SOL    HW231458   3.057   4.018   2.319  3.9034  2.0925 -2.5250
 6608SOL     OW31459   1.986   3.698   3.938 -0.6874 -0.3148 -0.5172
 6608SOL    HW131460   2.018   3.609   3.954  0.6716  0.2899  0.1445
 6608SOL    HW231461   2.025   3.716   3.852  2.6202 -1.5689  0.7178
 6609SOL     OW31462   3.594   0.001   4.319  0.3935 -0.0829 -0.0480
 6609SOL    HW131463   3.613   0.084   4.275 -1.1883  0.1245 -0.3624
 6609SOL    HW231464   3.498   4.735   4.310  0.5378 -2.5348 -0.7132
 6610SOL     OW31465   3.847   3.034   7.822 -0.1869  0.4925 -0.0253
 6610SOL    HW131466   3.769   3.066   7.776 -1.3813 -1.4474  0.6712
 6610SOL    HW231467   3.885   2.970   7.762  1.3512  1.9593 -0.6093
 6611SOL     OW31468   2.320   3.166  15.168  0.0936  0.2572  0.0759
 6611SOL    HW131469   2.238   3.191  15.126  0.2411  0.8235  0.1166
 6611SOL    HW231470   2.335   3.078  15.136  2.0507  0.7844 -0.4735
 6612SOL     OW31471   3.284   4.713  14.045 -0.6389  0.6939 -0.0865
 6612SOL    HW131472   3.202   0.020  14.068 -0.1444  0.4261  2.1842
 6612SOL    HW231473   3.287   4.639  14.106  3.1497  1.2453  0.3811
 6613SOL     OW31474   2.461   0.053   5.514  0.1214 -0.1790  0.0304
 6613SOL    HW131475   2.464   4.694   5.518  0.4863 -0.2091 -1.0294
 6613SOL    HW231476   2.373   0.051   5.475 -0.2745  1.7895  0.8156
 6614SOL     OW31477   2.367   0.726   2.938  0.3053 -0.2255  0.2281
 6614SOL    HW131478   2.443   0.752   2.989 -0.3707  0.4055  0.9124
 6614SOL    HW231479   2.372   0.631   2.942 -1.0568 -0.2753  0.7392
 6615SOL     OW31480   2.387   1.239   3.850  0.1291  0.6152  0.3120
 6615SOL    HW131481   2.434   1.282   3.922 -0.6981 -0.4423  1.4850
 6615SOL    HW231482   2.466   1.207   3.807 -1.0828 -2.0675  0.0969
 6616SOL     OW31483   0.695   0.572  15.178  0.0650 -0.3406 -0.1787
 6616SOL    HW131484   0.632   0.592  15.109  0.8342 -0.2339 -0.8547
 6616SOL    HW231485   0.767   0.628  15.148  0.7953 -2.2843 -1.9955
 6617SOL     OW31486   3.211   0.642   4.838  0.4882 -0.0349  0.7008
 6617SOL    HW131487   3.220   0.551   4.868 -1.8929  0.0856  1.8094
 6617SOL    HW231488   3.302   0.667   4.821  0.1222 -0.0927 -1.2656
 6618SOL     OW31489   3.527   1.961   9.666  0.1443 -0.0277  0.0807
 6618SOL    HW131490   3.570   1.881   9.696  0.2157  0.1109  0.3522
 6618SOL    HW231491   3.492   1.997   9.747 -1.4742  0.1746 -0.7133
 6619SOL     OW31492   0.202   4.489   5.850  0.4028 -0.2248 -0.3960
 6619SOL    HW131493   0.243   4.570   5.879  1.0962 -0.0363 -1.9280
 6619SOL    HW231494   0.139   4.518   5.784 -0.4634  0.7529  0.8502
 6620SOL     OW31495   4.576   1.368   7.318  0.4708  0.7591  0.4020
 6620SOL    HW131496   4.648   1.420   7.352  0.5234  0.5789  0.5704
 6620SOL    HW231497   4.616   1.326   7.242 -0.0878  1.9251 -0.5311
 6621SOL     OW31498   1.648   4.368   0.259  0.0100  0.1472  0.6851
 6621SOL    HW131499   1.742   4.389   0.262  0.4781 -1.7408 -0.7319
 6621SOL    HW231500   1.622   4.380   0.350  2.2845  5.3269  0.6867
 6622SOL     OW31501   3.095   0.389   4.651 -0.2737 -0.6062 -0.1343
 6622SOL    HW131502   3.031   0.459   4.639  1.3512  0.6493 -1.3294
 6622SOL    HW231503   3.170   0.445   4.636  0.2022 -1.1551  0.1833
 6623SOL     OW31504   1.907   2.843   7.977 -0.1936 -0.1518  0.3844
 6623SOL    HW131505   1.919   2.923   8.027  1.9593 -0.7668  0.8757
 6623SOL    HW231506   1.890   2.791   8.056 -3.7465  4.2818  2.5052
 6624SOL     OW31507   2.853   4.198   4.877 -0.2168 -0.3609  1.1489
 6624SOL    HW131508   2.774   4.250   4.860 -0.7900 -1.5439  0.1750
 6624SOL    HW231509   2.892   4.250   4.947  0.0305  0.4409  0.4224
 6625SOL     OW31510   2.193   0.593   7.911  0.4567 -0.5033 -0.0038
 6625SOL    HW131511   2.117   0.561   7.960 -1.2507  1.1019 -1.5887
 6625SOL    HW231512   2.143   0.665   7.872  0.6165  0.1714  1.0548
 6626SOL     OW31513   2.213   0.271  12.078  0.2150  0.2900 -0.2354
 6626SOL    HW131514   2.190   0.318  11.998 -1.0346 -0.6319 -0.4220
 6626SOL    HW231515   2.260   0.192  12.051 -0.8607  0.3156 -2.1818
 6627SOL     OW31516   3.316   1.588   8.541  0.5574  0.3870  0.2329
 6627SOL    HW131517   3.325   1.641   8.462  0.3368 -2.3541 -1.6388
 6627SOL    HW231518   3.338   1.503   8.503 -1.7436 -0.6568  1.2317
 6628SOL     OW31519   2.324   2.241   0.694 -0.2689 -0.2021  0.3901
 6628SOL    HW131520   2.300   2.152   0.721 -1.2380  0.0178  0.2583
 6628SOL    HW231521   2.283   2.252   0.608  2.3153  1.5198 -0.5938
 6629SOL     OW31522   3.771   3.435   1.835 -0.0300  0.4888  0.0444
 6629SOL    HW131523   3.720   3.502   1.881 -0.2221  0.3385  0.0543
 6629SOL    HW231524   3.746   3.449   1.744  0.2131  0.0016 -0.0942
 6630SOL     OW31525   1.802   4.387   8.095  0.4648 -0.2814 -0.0549
 6630SOL    HW131526   1.721   4.370   8.047  0.1840  0.3858  0.1893
 6630SOL    HW231527   1.852   4.307   8.077  0.7351 -0.6910  2.5387
 6631SOL     OW31528   1.597   2.213   2.592  0.2149  0.3808 -0.2237
 6631SOL    HW131529   1.548   2.196   2.672 -0.1354  0.8911 -0.3335
 6631SOL    HW231530   1.545   2.285   2.558  1.8792  2.2468  1.1535
 6632SOL     OW31531   2.321   1.124  16.217  0.3117 -0.4059 -0.4542
 6632SOL    HW131532   2.354   1.089  16.135  1.0264  0.8326 -0.7035
 6632SOL    HW231533   2.393   1.178  16.251  0.4639 -0.1149 -1.2521
 6633SOL     OW31534   3.612   0.268   4.263 -0.3889  0.4324  0.6878
 6633SOL    HW131535   3.599   0.344   4.205 -0.4991 -0.0270  0.1044
 6633SOL    HW231536   3.705   0.254   4.245 -0.8127 -4.4971  2.3034
 6634SOL     OW31537   1.786   4.341  12.722 -0.1210  0.4877 -0.1510
 6634SOL    HW131538   1.793   4.249  12.699 -0.4692  1.3300 -3.6283
 6634SOL    HW231539   1.733   4.333  12.801 -0.6239 -1.3943 -0.7013
 6635SOL     OW31540   2.045   0.472   2.901  0.3101  0.2336 -0.4535
 6635SOL    HW131541   2.028   0.532   2.974  2.2749 -0.2624  0.4104
 6635SOL    HW231542   2.088   0.529   2.838 -0.8668  1.0815 -0.4864
 6636SOL     OW31543   3.605   4.240   5.119 -0.0222  0.7278  0.2537
 6636SOL    HW131544   3.574   4.313   5.173  3.9548  2.2198  0.5449
 6636SOL    HW231545   3.693   4.270   5.095 -0.1739 -0.3436 -1.6110
 6637SOL     OW31546   2.399   4.040   0.529 -0.0085  0.0992  0.3052
 6637SOL    HW131547   2.477   3.997   0.494  0.6267  1.8301 -0.4032
 6637SOL    HW231548   2.342   4.046   0.452 -0.5808 -2.9281  0.5036
 6638SOL     OW31549   1.504   2.192   6.587  0.0707  0.2659  0.2077
 6638SOL    HW131550   1.518   2.108   6.542 -2.3665 -0.3046  0.5372
 6638SOL    HW231551   1.472   2.240   6.511 -3.7027 -2.3999  0.1192
 6639SOL     OW31552   1.752   3.717   2.173  0.0827 -0.1177 -0.0137
 6639SOL    HW131553   1.744   3.808   2.200 -1.9947 -0.1204 -0.6516
 6639SOL    HW231554   1.670   3.683   2.209 -0.7957  2.0077 -0.0002
 6640SOL     OW31555   1.825   3.342   7.351  0.9635 -0.1351  0.4030
 6640SOL    HW131556   1.790   3.300   7.272 -0.1361 -0.7644  1.2194
 6640SOL    HW231557   1.741   3.342   7.397  0.1859 -0.2931 -1.0144
 6641SOL     OW31558   4.381   3.617   7.051 -0.3104  0.1527  0.0810
 6641SOL    HW131559   4.391   3.590   7.142  0.3972  0.6752  0.1562
 6641SOL    HW231560   4.292   3.650   7.044 -0.2745 -0.1224 -1.6442
 6642SOL     OW31561   1.179   2.664   1.594 -0.0602 -0.0251  0.3395
 6642SOL    HW131562   1.220   2.741   1.554 -1.5969  0.9729  0.6658
 6642SOL    HW231563   1.250   2.609   1.626 -0.3853  1.0495  2.9749
 6643SOL     OW31564   2.114   3.538   8.821 -0.0757 -0.5935 -0.7170
 6643SOL    HW131565   2.121   3.586   8.739  2.2280 -2.0727 -1.3643
 6643SOL    HW231566   2.019   3.547   8.835 -0.2707  0.4102 -2.6405
 6644SOL     OW31567   4.284   0.250  15.000  0.3315  0.2900 -0.1539
 6644SOL    HW131568   4.189   0.238  14.997  0.1579  1.3214  1.1655
 6644SOL    HW231569   4.289   0.294  15.085 -0.2991  0.7265 -0.3495
 6645SOL     OW31570   0.064   2.525   0.440 -0.3842  0.0820  0.5778
 6645SOL    HW131571   0.049   2.569   0.357 -1.0221 -0.3543  0.4651
 6645SOL    HW231572   0.037   2.434   0.429 -0.2403  0.2394 -0.9756
 6646SOL     OW31573   2.117   1.602   8.270 -0.0268  0.2973  0.9297
 6646SOL    HW131574   2.143   1.526   8.322 -1.3355 -1.3699 -0.9047
 6646SOL    HW231575   2.117   1.673   8.335  2.2241  1.2707 -0.1250
 6647SOL     OW31576   4.038   2.912   0.941  0.3214  0.1906 -0.2431
 6647SOL    HW131577   4.088   2.987   0.972  1.4878 -0.9720  0.6487
 6647SOL    HW231578   3.977   2.891   1.011  1.9895 -0.9487  0.8517
 6648SOL     OW31579   2.038   4.222   7.231  0.0309 -0.5674  0.1858
 6648SOL    HW131580   2.068   4.308   7.201 -0.2009 -1.0678 -1.4756
 6648SOL    HW231581   2.104   4.212   7.300  2.2755 -0.1023 -1.8732
 6649SOL     OW31582   2.382   0.307   8.984  0.3124 -0.3612 -0.3351
 6649SOL    HW131583   2.471   0.273   8.985  0.4507 -0.0508 -1.3955
 6649SOL    HW231584   2.335   0.238   9.031 -1.0264  1.4865  1.0248
 6650SOL     OW31585   2.292   3.892   9.391 -0.0514 -0.4849  0.3490
 6650SOL    HW131586   2.316   3.952   9.461 -1.3800  0.7950 -0.2900
 6650SOL    HW231587   2.352   3.927   9.326 -1.5912 -0.6800 -1.1810
 6651SOL     OW31588   2.691   1.808   2.220  0.0252  0.2705 -0.1972
 6651SOL    HW131589   2.776   1.850   2.235  1.3523 -1.6874 -2.2125
 6651SOL    HW231590   2.631   1.861   2.273  2.7606  4.0725 -0.9353
 6652SOL     OW31591   3.635   4.527   5.194 -0.2995 -0.2375  0.2134
 6652SOL    HW131592   3.650   4.620   5.174  1.0177 -0.5168 -0.1247
 6652SOL    HW231593   3.707   4.515   5.256 -1.3240 -0.3211  1.3980
 6653SOL     OW31594   4.058   1.570   6.825 -0.8298 -0.7671  0.0398
 6653SOL    HW131595   4.120   1.502   6.854 -0.8547 -0.2884  1.2123
 6653SOL    HW231596   4.118   1.635   6.788 -0.1316 -0.1125  2.3144
 6654SOL     OW31597   1.074   0.010   9.379 -0.3210  0.1177 -0.1186
 6654SOL    HW131598   1.062   0.096   9.338  2.7111  1.2050  1.1756
 6654SOL    HW231599   0.992   4.703   9.359 -0.5727  0.0595  1.0049
 6655SOL     OW31600   0.827   1.247   5.804  0.0251  0.5965 -0.0038
 6655SOL    HW131601   0.912   1.206   5.788 -0.6637 -1.2759  1.1942
 6655SOL    HW231602   0.788   1.185   5.866 -1.0110 -0.2227 -1.5027
 6656SOL     OW31603   4.569   1.367   3.624  0.3614 -0.0469 -0.6763
 6656SOL    HW131604   4.589   1.301   3.558  0.9034  0.2457 -0.8035
 6656SOL    HW231605   4.650   1.346   3.670  1.2885  3.2283 -0.8056
 6657SOL     OW31606   3.159   4.450   1.815  0.3757  0.3227 -0.7716
 6657SOL    HW131607   3.253   4.459   1.799  0.2969 -1.1091 -2.0819
 6657SOL    HW231608   3.149   4.359   1.843 -2.4623  0.8757 -0.0004
 6658SOL     OW31609   2.108   3.190   3.112 -0.0366  0.1777  0.3430
 6658SOL    HW131610   2.173   3.161   3.048  0.2840  0.6458  0.4594
 6658SOL    HW231611   2.106   3.283   3.088 -0.0134 -0.0282 -0.4643
 6659SOL     OW31612   2.847   3.703   5.946 -0.2405 -0.0620 -0.0077
 6659SOL    HW131613   2.762   3.744   5.954 -0.0620  0.0306  1.2863
 6659SOL    HW231614   2.861   3.688   6.039  1.4519 -0.2669 -0.2854
 6660SOL     OW31615   2.164   2.678   2.535 -0.7651 -0.8394 -0.0136
 6660SOL    HW131616   2.182   2.771   2.519 -2.1851 -0.6156 -0.3626
 6660SOL    HW231617   2.218   2.651   2.461 -0.7645 -1.7736  0.3311
 6661SOL     OW31618   0.826   0.836  12.179 -0.0959  0.1265 -0.2006
 6661SOL    HW131619   0.846   0.909  12.120 -0.4541 -0.7413 -1.4194
 6661SOL    HW231620   0.778   0.875  12.252  0.5004 -0.0191  0.2664
 6662SOL     OW31621   0.181   0.870  13.146 -0.3858 -0.4179 -0.9295
 6662SOL    HW131622   0.266   0.895  13.182 -1.3105 -0.5061  1.3223
 6662SOL    HW231623   0.157   0.944  13.090 -0.5294 -0.5967 -1.1038
 6663SOL     OW31624   3.978   2.042   3.830 -0.1240 -0.2094  0.1470
 6663SOL    HW131625   3.979   1.994   3.747  0.2632 -1.9705  1.1766
 6663SOL    HW231626   3.998   2.132   3.802 -1.6734 -0.0902 -0.5590
 6664SOL     OW31627   1.517   4.461   6.564 -0.7701 -0.0476  0.2497
 6664SOL    HW131628   1.445   4.523   6.574  0.4200  1.2495  0.8001
 6664SOL    HW231629   1.582   4.530   6.577  0.6723 -1.8369  2.5018
 6665SOL     OW31630   3.212   1.238  14.728  0.1774 -0.5690 -0.0349
 6665SOL    HW131631   3.176   1.327  14.725  0.8616 -0.1502  3.9340
 6665SOL    HW231632   3.158   1.198  14.797 -0.8868  1.9304  0.5830
 6666SOL     OW31633   1.802   3.442   8.552  0.1124  0.0042 -0.2284
 6666SOL    HW131634   1.714   3.447   8.516  0.3269 -1.0680 -0.8945
 6666SOL    HW231635   1.837   3.528   8.528  2.7698 -1.0655 -0.2305
 6667SOL     OW31636   0.655   2.111  10.603  0.6323  0.4952  0.9408
 6667SOL    HW131637   0.596   2.076  10.536  2.0586 -0.6180  0.2501
 6667SOL    HW231638   0.586   2.125  10.667  1.2526 -0.8660  1.9010
 6668SOL     OW31639   3.987   0.781   7.171 -0.5672 -0.1374 -0.0047
 6668SOL    HW131640   3.946   0.771   7.085 -0.8692  2.0890 -0.1096
 6668SOL    HW231641   4.071   0.819   7.147 -1.1814  0.7938 -0.6457
 6669SOL     OW31642   1.865   1.414   3.402  0.6441 -0.0926 -0.3647
 6669SOL    HW131643   1.959   1.435   3.407  0.0374  2.1915  1.2975
 6669SOL    HW231644   1.850   1.384   3.492  0.0921 -2.5692 -1.2764
 6670SOL     OW31645   1.697   4.164   5.781 -0.6051  0.1796  0.3668
 6670SOL    HW131646   1.620   4.220   5.770  0.2836  1.8478  2.6546
 6670SOL    HW231647   1.751   4.193   5.707  0.1773  0.2485  0.9627
 6671SOL     OW31648   3.815   3.434   7.377 -0.1204 -0.3397  0.0531
 6671SOL    HW131649   3.866   3.479   7.445  0.5808 -0.7579 -0.2040
 6671SOL    HW231650   3.766   3.498   7.326 -2.2121 -0.8861  1.3420
 6672SOL     OW31651   4.407   1.418  13.331  0.1966 -0.0199 -0.4360
 6672SOL    HW131652   4.414   1.332  13.290  0.3934  0.3532 -1.1808
 6672SOL    HW231653   4.411   1.384  13.420 -3.2186 -2.0256 -1.0259
 6673SOL     OW31654   3.362   1.629   7.320 -0.6108 -0.1830 -0.0746
 6673SOL    HW131655   3.360   1.680   7.401  1.2447 -2.6839  1.5558
 6673SOL    HW231656   3.383   1.545   7.361  1.1713  0.2369 -0.1552
 6674SOL     OW31657   4.471   4.557   9.409  0.3556  0.1101 -0.0694
 6674SOL    HW131658   4.509   4.645   9.408  0.9094 -0.1054  2.3643
 6674SOL    HW231659   4.378   4.561   9.432  0.5038 -1.0681  0.6856
 6675SOL     OW31660   0.838   2.181   1.855 -0.1398 -0.1087 -0.4850
 6675SOL    HW131661   0.891   2.243   1.805  0.7312  0.7605  1.5133
 6675SOL    HW231662   0.896   2.106   1.857  3.5161  2.6973 -0.5314
 6676SOL     OW31663   1.393   1.077  16.446 -0.0016  0.1445 -0.2084
 6676SOL    HW131664   1.430   1.138  16.384  0.9857  2.2332  2.4398
 6676SOL    HW231665   1.388   1.140  16.518  2.2456 -0.2698  0.3025
 6677SOL     OW31666   2.009   0.681   4.092  0.2339 -0.1487 -0.3646
 6677SOL    HW131667   2.096   0.654   4.121  0.2537  0.3519  0.0353
 6677SOL    HW231668   1.986   0.735   4.167  0.5880 -1.5899  0.7684
 6678SOL     OW31669   2.102   0.851   2.927 -0.6444 -0.3076 -0.1910
 6678SOL    HW131670   2.091   0.937   2.967 -0.1716  0.9367 -2.7505
 6678SOL    HW231671   2.177   0.814   2.972  0.9421 -1.0376 -3.4314
 6679SOL     OW31672   3.252   1.868  14.671  0.0753  0.5690  0.3122
 6679SOL    HW131673   3.169   1.892  14.630  0.2400  0.3244 -0.1726
 6679SOL    HW231674   3.281   1.796  14.614 -2.3575  0.0525 -0.2599
 6680SOL     OW31675   2.678   0.213   5.464  0.1254 -0.2182  0.1802
 6680SOL    HW131676   2.644   0.302   5.459 -1.0632 -0.6658  0.1512
 6680SOL    HW231677   2.596   0.176   5.497 -0.0463 -0.0675 -0.0759
 6681SOL     OW31678   0.575   3.205   3.797  0.1045 -0.0278  0.1765
 6681SOL    HW131679   0.629   3.282   3.778  1.1779 -0.5834  1.0178
 6681SOL    HW231680   0.596   3.154   3.719 -1.8705  0.6370 -0.8083
 6682SOL     OW31681   2.799   1.323   2.673 -0.1078  0.1394 -0.0291
 6682SOL    HW131682   2.835   1.291   2.591  0.2020 -0.5619  0.3832
 6682SOL    HW231683   2.726   1.263   2.683  0.1413  0.4181  3.4989
 6683SOL     OW31684   2.562   1.929   4.435  0.0128  0.0356 -0.0795
 6683SOL    HW131685   2.634   1.878   4.474 -2.2718 -2.1001  1.3648
 6683SOL    HW231686   2.567   1.905   4.343 -0.9383  0.9239 -0.3566
 6684SOL     OW31687   1.581   2.461   9.795  0.5035  0.0857 -0.6404
 6684SOL    HW131688   1.566   2.553   9.775 -0.3547  0.1802  0.4483
 6684SOL    HW231689   1.592   2.418   9.710  3.1085 -2.9415  1.2235
 6685SOL     OW31690   2.092   2.928   0.887  0.0104  0.3069 -0.2612
 6685SOL    HW131691   2.048   2.988   0.947  0.3604 -1.9818  2.2725
 6685SOL    HW231692   2.072   2.950   0.796 -2.4587  1.0302  0.4419
 6686SOL     OW31693   3.269   0.000   8.126  0.1546  0.2912 -0.4065
 6686SOL    HW131694   3.267   4.693   8.041 -1.1655 -2.0311  0.8301
 6686SOL    HW231695   3.361   4.724   8.149  0.3007  0.5407 -0.8412
 6687SOL     OW31696   1.814   2.013   6.969 -0.1109  0.3911 -0.1844
 6687SOL    HW131697   1.783   1.982   6.884 -1.4655  1.3530 -0.0525
 6687SOL    HW231698   1.742   1.998   7.030 -1.4267  0.9196 -1.6158
 6688SOL     OW31699   3.630   1.734  14.658 -0.0375 -0.0983  0.1026
 6688SOL    HW131700   3.617   1.642  14.683  1.0456  0.2727  2.0555
 6688SOL    HW231701   3.635   1.771  14.746  0.6038 -0.6252  0.2840
 6689SOL     OW31702   1.413   3.784   0.852 -0.1933  0.3686  0.1011
 6689SOL    HW131703   1.382   3.696   0.871  0.6681  0.2684  1.0684
 6689SOL    HW231704   1.373   3.790   0.765 -1.4517 -1.6412  0.5632
 6690SOL     OW31705   1.263   2.672   0.642  0.2083 -0.2858 -0.0997
 6690SOL    HW131706   1.233   2.722   0.567  0.1314 -1.6923 -1.0154
 6690SOL    HW231707   1.232   2.583   0.622 -0.7446 -0.1863  0.9247
 6691SOL     OW31708   4.332   4.507  17.724 -0.1358  0.2373  0.9293
 6691SOL    HW131709   4.340   4.454  17.645  1.3172  1.2290  0.4101
 6691SOL    HW231710   4.324   4.439   0.044  0.3888  0.5387  1.2957
 6692SOL     OW31711   1.676   3.356   1.942  0.5025  0.3008 -0.0945
 6692SOL    HW131712   1.712   3.310   1.867 -0.6934  0.7771 -0.9633
 6692SOL    HW231713   1.700   3.288   2.005 -0.6267 -0.7814 -0.8230
 6693SOL     OW31714   1.060   2.212   3.818  0.2624  0.3206 -0.2078
 6693SOL    HW131715   1.132   2.261   3.857  1.7892 -0.4760 -2.0343
 6693SOL    HW231716   1.011   2.183   3.895 -0.8035 -0.5878 -1.2193
 6694SOL     OW31717   0.635   3.552  14.598 -0.2588  0.7310 -0.0576
 6694SOL    HW131718   0.718   3.505  14.601 -0.0909  1.0349 -0.0110
 6694SOL    HW231719   0.660   3.644  14.593 -1.8440  1.3291  3.3043
 6695SOL     OW31720   4.096   1.293  10.983  0.6164  0.2096  0.3933
 6695SOL    HW131721   4.080   1.307  10.890 -0.0550 -1.0114  0.3258
 6695SOL    HW231722   4.133   1.205  10.980  1.8243  0.6469  2.7013
 6696SOL     OW31723   2.755   1.370  14.761 -0.0495 -0.3558  0.7202
 6696SOL    HW131724   2.719   1.310  14.827  0.0124  1.0463  2.0299
 6696SOL    HW231725   2.684   1.381  14.697 -0.8371 -0.6817  1.5307
 6697SOL     OW31726   2.359   2.147  17.130  0.2238  0.0357 -0.0147
 6697SOL    HW131727   2.345   2.102  17.213 -4.1575  0.9819 -0.2934
 6697SOL    HW231728   2.445   2.188  17.143  1.3715 -1.9497 -1.1823
 6698SOL     OW31729   0.048   3.817   9.518  0.2561 -0.2721  0.2475
 6698SOL    HW131730   0.078   3.795   9.606  0.8794  0.8981  0.3311
 6698SOL    HW231731   0.129   3.804   9.468 -1.2364 -0.1389 -2.2001
 6699SOL     OW31732   0.760   2.627   5.965  0.2178 -0.4172 -0.2424
 6699SOL    HW131733   0.783   2.682   6.040  0.8149 -1.7398  0.5238
 6699SOL    HW231734   0.673   2.593   5.987  0.0810  0.5078  0.6687
 6700SOL     OW31735   1.922   3.161   7.956  0.7565 -0.0644  0.0002
 6700SOL    HW131736   2.016   3.175   7.969  0.9879 -0.1553 -1.6379
 6700SOL    HW231737   1.915   3.153   7.861 -1.9624  1.6147  0.0548
 6701SOL     OW31738   3.848   3.943   9.775  0.1217 -0.4165  0.2556
 6701SOL    HW131739   3.861   3.864   9.723 -0.9713 -1.0207  0.9068
 6701SOL    HW231740   3.887   4.013   9.723 -2.1946 -0.3317 -1.3625
 6702SOL     OW31741   3.367   1.370   8.323  0.8219 -0.1726  0.1524
 6702SOL    HW131742   3.401   1.289   8.285 -0.6798 -1.2796  1.1781
 6702SOL    HW231743   3.290   1.336   8.369 -0.7369  0.4566 -2.0191
 6703SOL     OW31744   4.570   2.124  12.344  0.2318 -0.7329  0.3057
 6703SOL    HW131745   4.549   2.184  12.415 -1.7558 -0.8019 -0.2305
 6703SOL    HW231746   4.602   2.181  12.274 -0.3369  0.8037  1.2947
 6704SOL     OW31747   1.140   3.231   5.065  0.2730 -0.4653 -0.5389
 6704SOL    HW131748   1.161   3.319   5.095  1.5996 -0.8940 -0.2428
 6704SOL    HW231749   1.221   3.183   5.080 -0.0584 -0.5299  1.0821
 6705SOL     OW31750   2.640   0.593   3.564 -0.6778  0.2511 -0.6903
 6705SOL    HW131751   2.574   0.619   3.499 -1.0475 -0.3656 -0.5660
 6705SOL    HW231752   2.682   0.676   3.582 -2.0734  1.0821 -1.2364
 6706SOL     OW31753   4.263   1.571   8.075 -0.4551  0.3965 -0.3708
 6706SOL    HW131754   4.260   1.578   7.979  0.8730  0.5973 -0.4034
 6706SOL    HW231755   4.311   1.488   8.082 -0.9157  0.0139 -1.7244
 6707SOL     OW31756   1.713   1.972   8.253 -0.4742  0.1132 -0.4832
 6707SOL    HW131757   1.681   1.907   8.191 -1.6014 -0.3311  0.5656
 6707SOL    HW231758   1.688   1.922   8.331  1.1990  0.2967  0.1864
 6708SOL     OW31759   4.496   2.248  11.987  0.0847  0.6580  0.2295
 6708SOL    HW131760   4.512   2.341  12.003 -1.0392  0.5905  1.8689
 6708SOL    HW231761   4.578   2.210  11.958 -0.6827 -1.0153  0.2473
 6709SOL     OW31762   1.525   1.914   2.764  0.1043 -0.1436  0.1777
 6709SOL    HW131763   1.491   1.998   2.794  0.9103  0.5880 -0.9608
 6709SOL    HW231764   1.539   1.867   2.846 -0.9971 -2.1597 -0.7933
 6710SOL     OW31765   2.976   3.845   7.164 -0.1065 -0.3711  0.5175
 6710SOL    HW131766   3.039   3.774   7.170  0.8369  0.4469  0.2595
 6710SOL    HW231767   2.901   3.820   7.219  0.8235 -1.2935  1.3697
 6711SOL     OW31768   0.472   2.052   7.478  0.2356  0.1436  0.2291
 6711SOL    HW131769   0.394   2.082   7.431  0.9331  0.6105 -0.6326
 6711SOL    HW231770   0.459   2.050   7.573 -1.9610 -0.0462 -0.0800
 6712SOL     OW31771   1.407   4.113   8.125 -0.1259 -0.1260 -0.3216
 6712SOL    HW131772   1.325   4.070   8.100 -0.7510  0.3977  0.8576
 6712SOL    HW231773   1.473   4.062   8.079 -0.1345 -0.8434  0.4845
 6713SOL     OW31774   0.302   1.743   3.806 -0.1009  0.2414 -0.0011
 6713SOL    HW131775   0.340   1.726   3.892 -0.3893 -1.2961 -0.1825
 6713SOL    HW231776   0.349   1.823   3.784 -0.4687  0.6121  0.5751
 6714SOL     OW31777   0.818   2.764   0.416  0.1141 -0.1945  0.9631
 6714SOL    HW131778   0.820   2.853   0.451 -1.7599 -0.3983  1.6216
 6714SOL    HW231779   0.725   2.741   0.419 -0.6033  2.7586  1.3668
 6715SOL     OW31780   1.141   3.751   2.379 -0.3830 -0.3803  0.3725
 6715SOL    HW131781   1.083   3.825   2.361 -1.4614 -0.6896  2.5325
 6715SOL    HW231782   1.183   3.746   2.293  1.3726  0.3789  1.1745
 6716SOL     OW31783   0.222   4.127   2.995 -0.3500  0.1463 -0.4778
 6716SOL    HW131784   0.191   4.055   2.941  0.3853 -0.8719  0.4640
 6716SOL    HW231785   0.280   4.176   2.937 -1.6896  2.2112 -0.0792
 6717SOL     OW31786   1.680   4.308   6.892  0.1711  0.9884 -0.5197
 6717SOL    HW131787   1.716   4.221   6.877  0.4301  0.8404  1.0302
 6717SOL    HW231788   1.718   4.328   6.977  3.3170 -3.5284 -0.8577
 6718SOL     OW31789   1.111   4.603   9.030  0.7001  0.0354  0.5266
 6718SOL    HW131790   1.204   4.624   9.029  0.1971  2.2699  0.9213
 6718SOL    HW231791   1.095   4.547   8.953  0.7187 -0.6798  1.0405
 6719SOL     OW31792   0.260   2.522   7.929  0.1973 -0.1047 -0.8834
 6719SOL    HW131793   0.228   2.556   7.846 -0.3014  0.9211 -0.2692
 6719SOL    HW231794   0.331   2.578   7.960 -0.4235  0.4384 -0.4530
 6720SOL     OW31795   3.539   0.722  16.811 -0.5428  0.3783  0.7103
 6720SOL    HW131796   3.611   0.659  16.815 -0.3253  0.5676 -0.0390
 6720SOL    HW231797   3.471   0.658  16.831 -1.0119  0.7139  0.2032
 6721SOL     OW31798   2.499   2.382  15.517 -0.2398 -0.3247  0.5762
 6721SOL    HW131799   2.590   2.364  15.492 -0.1919 -0.4510  0.8382
 6721SOL    HW231800   2.505   2.419  15.605 -0.6604 -0.4475  0.6562
 6722SOL     OW31801   1.773   0.973   3.943 -0.5599 -0.0194 -0.7185
 6722SOL    HW131802   1.716   1.043   3.911 -0.4553  0.6858  0.6452
 6722SOL    HW231803   1.717   0.896   3.937 -0.7541  0.1008 -0.3969
 6723SOL     OW31804   4.349   4.587   6.253 -0.2537  0.3004 -0.0874
 6723SOL    HW131805   4.338   4.528   6.328 -2.9138  0.4328 -0.3850
 6723SOL    HW231806   4.348   4.527   6.178 -1.9584  0.8555 -0.4960
 6724SOL     OW31807   0.051   1.015   3.130 -0.4365  0.0739 -0.2163
 6724SOL    HW131808   0.126   1.022   3.189  1.0379 -1.8555 -1.8580
 6724SOL    HW231809   4.721   0.967   3.179 -0.6434  0.5361 -0.0485
 6725SOL     OW31810   3.252   1.059  14.509  0.4851 -0.4754 -0.0284
 6725SOL    HW131811   3.169   1.055  14.460 -0.0456 -0.2126  0.8542
 6725SOL    HW231812   3.234   1.129  14.571  2.8507 -0.0736  0.1807
 6726SOL     OW31813   1.758   0.024  12.624 -0.4985  0.6682 -0.2261
 6726SOL    HW131814   1.799   0.023  12.711 -1.6258 -1.6892  0.2768
 6726SOL    HW231815   1.696   0.096  12.633  1.9789  2.6023  1.3344
 6727SOL     OW31816   4.452   0.657   2.965 -0.4918  0.1315 -0.1308
 6727SOL    HW131817   4.436   0.711   2.888 -0.4111  0.1817 -0.1123
 6727SOL    HW231818   4.361   0.665   2.995  0.0505  1.7864  1.0929
 6728SOL     OW31819   3.867   4.157  13.652  0.5671 -0.2671 -0.1760
 6728SOL    HW131820   3.802   4.127  13.715  0.3941 -2.6480 -1.4867
 6728SOL    HW231821   3.812   4.227  13.617  2.1733 -0.3860 -2.9846
 6729SOL     OW31822   0.752   3.433   2.796  0.2134  0.5876  0.4859
 6729SOL    HW131823   0.700   3.461   2.721 -0.9792  0.7157  1.3535
 6729SOL    HW231824   0.704   3.357   2.829 -1.9574  2.5457  1.7923
 6730SOL     OW31825   1.450   3.114   2.728 -0.7307  0.6029  0.2854
 6730SOL    HW131826   1.362   3.109   2.691 -1.2169 -0.5342  1.5750
 6730SOL    HW231827   1.496   3.062   2.662 -0.2071 -1.1312  2.0395
 6731SOL     OW31828   2.893   2.889   2.650  0.5103 -0.3981  0.0256
 6731SOL    HW131829   2.854   2.873   2.564 -3.2871 -2.4628  2.1364
 6731SOL    HW231830   2.985   2.884   2.623  0.8011 -3.2704  1.4592
 6732SOL     OW31831   1.775   3.954   5.545 -0.2830  0.4931 -0.0848
 6732SOL    HW131832   1.777   3.884   5.481  0.0376 -0.2908  0.7799
 6732SOL    HW231833   1.840   3.914   5.602 -0.4435  0.3207 -0.0245
 6733SOL     OW31834   4.173   0.451  11.772 -0.5926  0.0645  0.4504
 6733SOL    HW131835   4.118   0.373  11.772  0.7112 -0.8440  1.6037
 6733SOL    HW231836   4.231   0.437  11.698  0.0128 -1.0778  1.1496
 6734SOL     OW31837   3.772   3.087   0.962  0.2072  0.1803 -0.2379
 6734SOL    HW131838   3.695   3.040   0.993 -0.4570  0.7417 -1.0213
 6734SOL    HW231839   3.794   3.035   0.884  0.8299 -0.4910  0.3843
 6735SOL     OW31840   1.680   3.808   3.319  0.2817 -0.9354  0.0430
 6735SOL    HW131841   1.703   3.721   3.285  0.2841 -0.6581 -0.6789
 6735SOL    HW231842   1.751   3.816   3.383  1.0276  1.0572 -1.0475
 6736SOL     OW31843   1.905   3.125   4.478 -0.3960 -0.2785  0.4911
 6736SOL    HW131844   1.940   3.100   4.392  1.4708  0.6108  0.9712
 6736SOL    HW231845   1.955   3.203   4.502 -2.1238  0.8172  0.5180
 6737SOL     OW31846   2.183   4.032   7.897  0.5358 -0.5740 -0.1220
 6737SOL    HW131847   2.183   4.094   7.824  1.0149 -2.4751 -1.7478
 6737SOL    HW231848   2.224   3.958   7.853  1.7414 -0.6631  1.1330
 6738SOL     OW31849   2.206   0.869   6.580  0.2231 -0.0400  0.1601
 6738SOL    HW131850   2.180   0.943   6.525  0.7410  0.3199  0.3960
 6738SOL    HW231851   2.264   0.829   6.515 -0.0034  0.3511 -0.2825
 6739SOL     OW31852   0.873   0.697   7.732  0.3369  0.3507 -0.0076
 6739SOL    HW131853   0.812   0.676   7.803  0.4740  1.6233  0.4754
 6739SOL    HW231854   0.946   0.720   7.790 -1.3262  2.8532  1.0925
 6740SOL     OW31855   0.731   2.914   5.934 -0.5222  0.7640  0.0537
 6740SOL    HW131856   0.675   2.837   5.933 -0.2325  0.5541 -0.2787
 6740SOL    HW231857   0.725   2.931   5.840  3.1785 -1.6041 -0.6239
 6741SOL     OW31858   1.804   4.659  11.321  0.1551  0.2025 -0.8059
 6741SOL    HW131859   1.896   4.687  11.320  0.1856  0.0868 -1.0695
 6741SOL    HW231860   1.756   0.001  11.299  1.3664  1.0014 -0.6282
 6742SOL     OW31861   1.929   3.575   7.259  0.0633  0.1014  0.2018
 6742SOL    HW131862   1.993   3.585   7.329  2.2161  0.1939 -1.7865
 6742SOL    HW231863   1.893   3.487   7.274  2.1324 -0.6222  0.8421
 6743SOL     OW31864   0.484   4.081   9.248 -0.7614  0.1922 -0.4938
 6743SOL    HW131865   0.423   4.054   9.179 -2.6266  2.5499  0.2242
 6743SOL    HW231866   0.426   4.087   9.324  0.1584 -0.2231  0.2350
 6744SOL     OW31867   2.372   0.389   4.992  0.5656 -1.1097 -0.1496
 6744SOL    HW131868   2.453   0.422   4.954  1.6662 -0.0158  3.2194
 6744SOL    HW231869   2.315   0.385   4.915 -0.2940 -0.8127  0.4745
 6745SOL     OW31870   1.812   3.448   9.257  0.1780 -0.5736 -0.1858
 6745SOL    HW131871   1.797   3.523   9.199  2.4881 -1.6725 -2.2152
 6745SOL    HW231872   1.749   3.378   9.240 -2.0176  1.0909  1.0945
 6746SOL     OW31873   4.600   3.095   3.320  0.2072 -0.0126 -0.0774
 6746SOL    HW131874   4.642   3.178   3.343  1.8119 -0.3821 -1.6070
 6746SOL    HW231875   4.507   3.115   3.325  0.4659  1.6149 -1.7312
 6747SOL     OW31876   4.198   0.230  14.625  0.0489 -0.0744 -0.2891
 6747SOL    HW131877   4.293   0.232  14.636  0.1896 -0.8837 -1.3548
 6747SOL    HW231878   4.172   0.313  14.586  2.2449  0.8718  0.2448
 6748SOL     OW31879   0.856   0.119   8.718  0.5779 -0.0475 -0.6578
 6748SOL    HW131880   0.903   0.111   8.801  0.1212  1.5982 -0.2305
 6748SOL    HW231881   0.765   0.094   8.736  0.6598  1.7272  2.1192
 6749SOL     OW31882   0.282   3.827   9.394  0.0763  0.5241  0.1536
 6749SOL    HW131883   0.240   3.816   9.310  1.7705 -2.3827 -0.3130
 6749SOL    HW231884   0.365   3.779   9.390 -1.3772 -1.9709 -0.2164
 6750SOL     OW31885   0.628   0.678   7.423 -0.1701 -0.1770 -0.0535
 6750SOL    HW131886   0.630   0.727   7.505 -0.6712 -1.5690  0.7900
 6750SOL    HW231887   0.592   0.590   7.438 -1.1793  0.0674 -1.0421
 6751SOL     OW31888   2.919   2.007   7.138 -0.2587  0.0905 -0.5557
 6751SOL    HW131889   2.845   2.058   7.104 -1.3340 -0.2246  1.2643
 6751SOL    HW231890   2.895   2.024   7.229 -1.8228  0.6509 -1.0573
 6752SOL     OW31891   3.929   1.472   4.359  0.3915  0.3194 -0.2020
 6752SOL    HW131892   3.972   1.549   4.396 -1.9647  1.9955 -0.9789
 6752SOL    HW231893   4.005   1.437   4.312  0.7314  1.0250 -0.1869
 6753SOL     OW31894   4.323   4.037  13.892 -0.0590  0.4300  0.3376
 6753SOL    HW131895   4.307   4.022  13.985  0.8623  0.5431  0.5135
 6753SOL    HW231896   4.242   4.079  13.864  0.9781  1.7526 -0.6141
 6754SOL     OW31897   2.984   0.558   3.623  0.0412  0.2680 -0.0586
 6754SOL    HW131898   2.947   0.605   3.697  0.0293  0.3951 -0.1453
 6754SOL    HW231899   3.020   0.635   3.579 -0.0167  0.8193  0.8772
 6755SOL     OW31900   0.948   0.496   2.652 -0.0276 -0.4952  0.7918
 6755SOL    HW131901   0.863   0.522   2.616  1.1492  0.9434 -0.9751
 6755SOL    HW231902   0.963   0.579   2.698 -0.6106 -0.6685  1.3042
 6756SOL     OW31903   2.872   1.929   4.528  0.7863  0.4005 -0.5042
 6756SOL    HW131904   2.894   1.970   4.444 -1.2085 -1.7313 -2.0480
 6756SOL    HW231905   2.888   1.838   4.503  0.7605  0.4148 -0.5738
 6757SOL     OW31906   1.602   1.488  17.243 -0.7464  0.8048  0.3165
 6757SOL    HW131907   1.638   1.571  17.276 -1.1509  1.4812 -0.9240
 6757SOL    HW231908   1.586   1.442  17.325 -2.2191  0.7034 -0.0369
 6758SOL     OW31909   4.584   0.084   9.377  0.5702 -0.2719  0.2525
 6758SOL    HW131910   4.587   0.097   9.283  0.1490  0.7840  0.3852
 6758SOL    HW231911   4.663   0.130   9.406 -0.9361  0.3790  3.3829
 6759SOL     OW31912   0.717   2.585   2.289 -0.1418 -0.0027  0.6441
 6759SOL    HW131913   0.714   2.657   2.353 -0.8551 -0.2645  0.9123
 6759SOL    HW231914   0.691   2.640   2.215  1.1989 -0.7361 -0.3698
 6760SOL     OW31915   0.382   1.026   5.722 -0.2554 -0.4779 -0.4176
 6760SOL    HW131916   0.460   0.974   5.699  2.3500  2.7181  1.1832
 6760SOL    HW231917   0.405   1.064   5.807 -2.5209 -0.8759  0.3560
 6761SOL     OW31918   3.631   3.933   0.091  0.1427 -0.7024  0.0487
 6761SOL    HW131919   3.581   3.930   0.009  1.5389 -2.0413 -0.7491
 6761SOL    HW231920   3.567   3.949   0.160  0.4789  0.6568  0.0519
 6762SOL     OW31921   4.376   1.928  12.220 -0.4691  0.6351 -0.0629
 6762SOL    HW131922   4.455   1.982  12.215 -0.6879  1.0565  0.9060
 6762SOL    HW231923   4.341   1.962  12.303  0.9487 -1.1698  1.2640
 6763SOL     OW31924   1.662   2.249  15.670  0.1321 -0.0000  0.4515
 6763SOL    HW131925   1.748   2.222  15.703  0.3633  0.1912  0.0105
 6763SOL    HW231926   1.675   2.280  15.580 -0.1977  0.5155  0.5815
 6764SOL     OW31927   3.695   1.416  13.243 -0.0380  0.0740  0.2936
 6764SOL    HW131928   3.767   1.478  13.250 -1.3185  1.5443  0.3447
 6764SOL    HW231929   3.663   1.433  13.155  1.6204 -0.3306 -0.3901
 6765SOL     OW31930   4.495   0.903   8.637  0.0414  0.1921  0.1792
 6765SOL    HW131931   4.558   0.959   8.591 -0.7579  1.9055  1.1821
 6765SOL    HW231932   4.537   0.825   8.674  0.6174  1.7153  2.7467
 6766SOL     OW31933   4.321   4.323   7.112  0.8219 -1.0076 -0.1437
 6766SOL    HW131934   4.344   4.232   7.129  0.5710 -1.0889 -0.2466
 6766SOL    HW231935   4.399   4.366   7.147 -0.0824  0.4074  0.1166
 6767SOL     OW31936   2.012   3.031  11.770 -0.6528 -0.1625  0.4565
 6767SOL    HW131937   2.028   2.995  11.858 -1.8386 -1.4009  0.1669
 6767SOL    HW231938   2.029   2.956  11.713 -1.3002 -0.9310  1.2744
 6768SOL     OW31939   0.189   1.764   7.316 -0.4661  0.5434 -0.5375
 6768SOL    HW131940   0.116   1.809   7.272 -2.2767  0.0409  1.9611
 6768SOL    HW231941   0.267   1.810   7.287  0.5328 -0.5275  0.4911
 6769SOL     OW31942   3.949   1.866   5.524 -0.2017 -0.1869  0.2282
 6769SOL    HW131943   3.915   1.800   5.583  1.6904 -0.2055  1.3054
 6769SOL    HW231944   3.886   1.937   5.534 -0.9477 -0.3546 -3.2427
 6770SOL     OW31945   4.683   2.647  10.826  0.0353  0.1999  0.0042
 6770SOL    HW131946   4.724   2.723  10.785  0.6128  0.4605  1.0784
 6770SOL    HW231947   4.594   2.680  10.837 -0.6266 -0.8875 -2.0001
 6771SOL     OW31948   1.661   0.315   5.659  0.1871  0.2045  0.0198
 6771SOL    HW131949   1.743   0.361   5.640  0.0713  1.1189  1.6785
 6771SOL    HW231950   1.710   0.243   5.698 -0.0047  0.3344  0.5081
 6772SOL     OW31951   3.190   3.448   2.437  0.6875 -0.1257  0.6654
 6772SOL    HW131952   3.139   3.434   2.358 -0.1156  0.3383  1.0988
 6772SOL    HW231953   3.133   3.399   2.496 -0.2322  1.4278  1.0812
 6773SOL     OW31954   4.636   2.572  14.874  0.7594 -0.3840  0.0554
 6773SOL    HW131955   4.625   2.538  14.785  0.3892 -1.6238  0.5721
 6773SOL    HW231956   4.660   2.661  14.850 -1.0888  0.0739 -0.0713
 6774SOL     OW31957   0.981   2.507   9.879 -0.1924 -0.0387 -0.3932
 6774SOL    HW131958   1.063   2.466   9.850  0.4568  1.9558 -1.3683
 6774SOL    HW231959   0.959   2.576   9.817 -1.8049  0.7899  1.1208
 6775SOL     OW31960   1.772   3.736   6.504  0.0726  0.4868 -0.1559
 6775SOL    HW131961   1.723   3.668   6.457 -2.0105  1.9660 -0.0760
 6775SOL    HW231962   1.766   3.707   6.595 -1.7336 -0.5952 -0.6332
 6776SOL     OW31963   1.335   2.642  15.501  0.1227 -0.2360  0.6268
 6776SOL    HW131964   1.350   2.571  15.564  0.3807 -0.1194  0.6972
 6776SOL    HW231965   1.424   2.675  15.486 -0.2245 -0.1643 -1.2043
 6777SOL     OW31966   2.988   3.731  12.094 -0.3374  0.1227 -0.6486
 6777SOL    HW131967   3.081   3.732  12.071 -0.0082 -1.3163  0.6088
 6777SOL    HW231968   2.943   3.763  12.016  1.6571  1.0208 -1.4189
 6778SOL     OW31969   0.861   1.363   0.663  0.1526  0.2376  0.2169
 6778SOL    HW131970   0.877   1.276   0.699  3.0083  0.3708 -0.8022
 6778SOL    HW231971   0.944   1.409   0.671 -1.0878  2.5639 -0.0586
 6779SOL     OW31972   3.382   2.320   4.597 -0.6870 -0.3324  0.1105
 6779SOL    HW131973   3.299   2.366   4.587 -0.9486 -0.0424  3.6345
 6779SOL    HW231974   3.384   2.289   4.687  0.5527  0.7689  0.4612
 6780SOL     OW31975   0.944   2.579   6.947 -0.0064 -0.6351 -0.0717
 6780SOL    HW131976   0.930   2.589   7.041 -1.7138  0.1270 -0.3884
 6780SOL    HW231977   0.932   2.485   6.935 -0.6207 -0.8188  2.0418
 6781SOL     OW31978   1.514   4.306   3.670  0.3894  0.2829 -0.4573
 6781SOL    HW131979   1.573   4.371   3.631  2.8856 -1.4903  0.3489
 6781SOL    HW231980   1.535   4.235   3.610 -1.2529  0.9925 -1.8621
 6782SOL     OW31981   1.313   2.884   2.159  0.3691  0.8012 -0.0387
 6782SOL    HW131982   1.247   2.923   2.101  0.5831 -0.6663 -1.2624
 6782SOL    HW231983   1.250   2.834   2.211  0.6587  3.1456  2.6219
 6783SOL     OW31984   2.889   4.287   3.525  0.3487 -0.6692 -0.0212
 6783SOL    HW131985   2.840   4.205   3.534  1.2723 -1.2229 -0.0080
 6783SOL    HW231986   2.845   4.317   3.445 -0.1219 -0.5744  0.2745
 6784SOL     OW31987   3.521   1.547   2.866 -0.3258  0.3015  0.3024
 6784SOL    HW131988   3.577   1.615   2.828  1.1598 -1.8829 -1.3426
 6784SOL    HW231989   3.547   1.477   2.807 -2.0681 -0.7756  0.8275
 6785SOL     OW31990   3.412   0.162  13.779  0.5100  0.0291 -0.1903
 6785SOL    HW131991   3.347   0.098  13.752  0.0929  0.3424  0.0594
 6785SOL    HW231992   3.449   0.179  13.693  1.2602  1.3964  0.3916
 6786SOL     OW31993   0.541   3.685   8.785 -0.1472  0.7470 -0.2384
 6786SOL    HW131994   0.489   3.606   8.797 -0.1990  0.6322 -1.2668
 6786SOL    HW231995   0.564   3.708   8.875 -2.3281  0.1620  0.4479
 6787SOL     OW31996   3.628   3.077   7.650  0.4985  0.5398  0.1842
 6787SOL    HW131997   3.540   3.039   7.642  0.9569 -0.9296  2.1362
 6787SOL    HW231998   3.616   3.164   7.612  1.8804  0.2823 -0.8179
 6788SOL     OW31999   4.644   2.099   2.715  0.5659 -0.2653 -0.6634
 6788SOL    HW132000   4.646   2.194   2.714 -0.1866 -0.2402  0.9902
 6788SOL    HW232001   4.617   2.081   2.805  4.1974  0.1785  0.5112
 6789SOL     OW32002   2.209   1.276   4.181 -0.3542  0.2310 -0.3347
 6789SOL    HW132003   2.244   1.363   4.200  0.5248  0.1538 -1.6467
 6789SOL    HW232004   2.114   1.291   4.173 -0.3061  0.9695  0.4392
 6790SOL     OW32005   1.728   1.809   1.640 -0.3384  0.4732 -0.2703
 6790SOL    HW132006   1.735   1.732   1.696  1.5807  0.7381 -0.1394
 6790SOL    HW232007   1.726   1.762   1.556  1.3377  1.7545 -1.0209
 6791SOL     OW32008   2.932   1.332   0.101  0.1234 -0.5119 -0.2515
 6791SOL    HW132009   3.020   1.294   0.093  0.9734  0.8745  2.5453
 6791SOL    HW232010   2.905   1.321   0.009  1.0617  1.1316 -0.7144
 6792SOL     OW32011   3.560   4.584  16.206 -0.4311 -0.5039  0.0267
 6792SOL    HW132012   3.623   4.587  16.278 -1.5543  1.5497  0.9050
 6792SOL    HW232013   3.486   4.635  16.239 -0.1589  0.0798 -0.2600
 6793SOL     OW32014   1.698   0.885   5.980  0.3716 -0.2727 -0.4439
 6793SOL    HW132015   1.741   0.800   5.989 -1.3513 -0.8322  2.4368
 6793SOL    HW232016   1.765   0.942   5.940 -0.4104  0.1850 -1.0960
 6794SOL     OW32017   2.809   0.299   1.550 -0.4535  0.7161 -0.1570
 6794SOL    HW132018   2.783   0.390   1.536  1.2858  0.5879 -4.0671
 6794SOL    HW232019   2.841   0.277   1.463  0.8964 -0.5738  0.6783
 6795SOL     OW32020   0.831   3.279  13.691  0.2735  0.4843  0.2090
 6795SOL    HW132021   0.846   3.245  13.602  0.9815 -0.6788  0.7748
 6795SOL    HW232022   0.736   3.276  13.702  0.2274 -1.5493 -0.5758
 6796SOL     OW32023   0.156   1.467   1.443  0.1728  0.0111  0.6060
 6796SOL    HW132024   0.070   1.427   1.456 -0.5762  1.2583 -0.6977
 6796SOL    HW232025   0.182   1.506   1.527 -1.2974  0.9540  0.6100
 6797SOL     OW32026   4.633   4.238   8.755 -0.1296 -0.2311  0.3014
 6797SOL    HW132027   4.587   4.155   8.746  1.4063 -1.1391  0.8109
 6797SOL    HW232028   4.667   4.259   8.668 -1.7929 -1.0801 -0.5428
 6798SOL     OW32029   2.761   4.641   7.781  0.2622  0.0710 -0.3514
 6798SOL    HW132030   2.834   4.589   7.814 -0.2544  0.0810  0.8285
 6798SOL    HW232031   2.771   4.720   7.835 -1.8503  1.4568 -1.9681
 6799SOL     OW32032   1.598   4.705   2.587 -0.8239 -0.3344  0.3737
 6799SOL    HW132033   1.589   4.689   2.681  0.8229  3.0187  1.1006
 6799SOL    HW232034   1.609   0.063   2.591  0.2196 -0.3674 -2.0417
 6800SOL     OW32035   2.564   1.281   6.647 -0.5263  0.3099 -0.6461
 6800SOL    HW132036   2.535   1.192   6.665 -1.4363  0.5877 -0.7462
 6800SOL    HW232037   2.587   1.315   6.734  0.1623 -1.8473  0.0160
 6801SOL     OW32038   3.435   3.449   3.795 -0.6927  0.6812 -0.4473
 6801SOL    HW132039   3.502   3.403   3.846  1.0792 -0.1418 -3.4977
 6801SOL    HW232040   3.369   3.385   3.822 -0.1661 -0.2822 -1.4217
 6802SOL     OW32041   1.380   3.728  11.215 -0.0065  0.1908  0.3703
 6802SOL    HW132042   1.426   3.656  11.259  0.0366  0.0635  0.1188
 6802SOL    HW232043   1.439   3.748  11.142 -1.4840  1.0991 -0.5653
 6803SOL     OW32044   3.005   0.799   4.331  0.5501  0.0526 -0.7148
 6803SOL    HW132045   2.937   0.817   4.265  0.0264  1.0478  0.0927
 6803SOL    HW232046   3.088   0.802   4.284  1.3235 -3.0035  0.5169
 6804SOL     OW32047   4.454   2.022   6.223 -0.7954 -0.2447 -0.1876
 6804SOL    HW132048   4.534   1.969   6.214 -0.0360  0.6314  1.4557
 6804SOL    HW232049   4.463   2.078   6.146  2.2382  0.5113  0.6970
 6805SOL     OW32050   1.026   1.881   6.923 -0.3857 -0.1776  0.3355
 6805SOL    HW132051   1.052   1.791   6.904  3.7783  1.6387 -2.5737
 6805SOL    HW232052   0.952   1.855   6.978  1.5555 -2.0900  2.0589
 6806SOL     OW32053   3.332   3.386   8.873 -0.5316  0.4539 -0.2468
 6806SOL    HW132054   3.333   3.452   8.943 -0.0382  0.3880 -0.1874
 6806SOL    HW232055   3.323   3.452   8.805  2.3337  1.1468  0.0526
 6807SOL     OW32056   3.183   4.736   0.951 -0.1391  0.0855  0.2294
 6807SOL    HW132057   3.214   0.023   0.863  1.5524 -0.2324  0.7311
 6807SOL    HW232058   3.199   4.643   0.964 -3.1198 -0.7083 -1.9066
 6808SOL     OW32059   0.215   4.000   6.743  0.3255  0.2773 -0.1036
 6808SOL    HW132060   0.213   3.905   6.733 -1.1267  0.4266 -1.2925
 6808SOL    HW232061   0.295   4.018   6.693 -0.2012  3.4062  0.1369
 6809SOL     OW32062   1.173   1.488  15.547 -0.1362 -0.1429  0.1249
 6809SOL    HW132063   1.107   1.557  15.549  0.6966  0.6583  0.0692
 6809SOL    HW232064   1.255   1.534  15.528  0.5335 -1.2695  0.2798
 6810SOL     OW32065   1.725   4.212   5.094 -0.0262 -0.2234  0.0031
 6810SOL    HW132066   1.757   4.253   5.175 -0.0923 -0.1956  0.0149
 6810SOL    HW232067   1.742   4.280   5.028  1.2764 -0.9387 -0.3912
 6811SOL     OW32068   1.556   2.240   7.243 -0.4797  0.1755 -0.2801
 6811SOL    HW132069   1.561   2.165   7.183  0.3235 -0.0376  0.0640
 6811SOL    HW232070   1.649   2.243   7.263 -0.5276  1.7742 -0.3296
 6812SOL     OW32071   0.525   3.704   9.400 -0.0649 -0.2309 -0.1931
 6812SOL    HW132072   0.516   3.614   9.368  2.7378 -0.6464  0.1681
 6812SOL    HW232073   0.620   3.714   9.395 -0.3770  1.1145 -2.8386
 6813SOL     OW32074   4.542   0.491   6.166 -0.1653  0.2424 -0.4459
 6813SOL    HW132075   4.527   0.409   6.118  0.5433 -0.4750  0.5761
 6813SOL    HW232076   4.527   0.557   6.098 -3.0086 -0.3706 -0.4076
 6814SOL     OW32077   1.157   1.720   7.602  0.1603 -0.4729  0.4199
 6814SOL    HW132078   1.218   1.774   7.652  0.6739 -0.0307 -0.6748
 6814SOL    HW232079   1.150   1.776   7.524  0.1658  0.0012  0.7551
 6815SOL     OW32080   1.630   3.613   1.908 -0.7012  0.0387 -1.0325
 6815SOL    HW132081   1.661   3.605   1.818 -1.6130 -0.7181 -1.2761
 6815SOL    HW232082   1.660   3.528   1.940 -1.3600 -0.5769 -2.0793
 6816SOL     OW32083   3.469   2.780  17.437  0.2239 -0.4184 -0.4581
 6816SOL    HW132084   3.435   2.728  17.364 -1.5392  0.7053 -0.4367
 6816SOL    HW232085   3.466   2.868  17.399  0.0616  0.1687  0.9451
 6817SOL     OW32086   2.909   1.357   5.849 -0.3492 -0.7048 -0.3307
 6817SOL    HW132087   2.858   1.435   5.870  0.3940 -0.2985 -0.0325
 6817SOL    HW232088   2.950   1.386   5.767  1.9661 -0.3951  0.9263
 6818SOL     OW32089   3.682   3.882   7.592 -0.1322  0.0552  0.3706
 6818SOL    HW132090   3.675   3.849   7.682  0.3478 -0.1962  0.3189
 6818SOL    HW232091   3.626   3.959   7.590 -0.0332  0.1424  0.9573
 6819SOL     OW32092   4.101   4.546   3.214 -0.8567 -0.2870  0.1960
 6819SOL    HW132093   4.009   4.529   3.234 -0.7409  0.4499  1.3540
 6819SOL    HW232094   4.115   4.461   3.174  1.7258 -0.3934  1.3403
 6820SOL     OW32095   3.015   1.933   0.271  0.3025  0.1251  0.5188
 6820SOL    HW132096   3.026   1.936   0.176 -0.8727  1.7614  0.4217
 6820SOL    HW232097   3.065   1.857   0.298 -0.8866 -0.8865 -0.1228
 6821SOL     OW32098   2.669   4.606   8.180  0.1861 -0.1921  0.1839
 6821SOL    HW132099   2.574   4.603   8.195 -0.0345 -1.2044 -1.4052
 6821SOL    HW232100   2.698   4.688   8.220 -2.2189  0.9091 -0.2914
 6822SOL     OW32101   3.276   3.636   8.753  0.5399  0.1317 -0.2120
 6822SOL    HW132102   3.236   3.577   8.690  3.2998 -1.4675 -0.4727
 6822SOL    HW232103   3.206   3.691   8.788 -0.0100 -0.4092 -0.4715
 6823SOL     OW32104   2.646   2.369  14.152 -0.5374 -0.0776 -0.2663
 6823SOL    HW132105   2.615   2.278  14.147  1.2424 -0.7525  1.0305
 6823SOL    HW232106   2.590   2.410  14.086  0.7042 -0.1637 -1.3739
 6824SOL     OW32107   1.017   1.805  13.840  0.5717  0.2024  0.0433
 6824SOL    HW132108   0.980   1.732  13.791  0.8510 -0.1538  0.3565
 6824SOL    HW232109   1.088   1.813  13.776  0.3508  0.7070 -0.1331
 6825SOL     OW32110   1.410   0.439   2.553 -0.0783 -0.4070  1.1268
 6825SOL    HW132111   1.331   0.468   2.508  0.1414 -1.2877  0.1685
 6825SOL    HW232112   1.475   0.432   2.483 -0.0048 -2.1496  1.3740
 6826SOL     OW32113   0.723   4.657   4.898  0.6755  0.3456 -0.2827
 6826SOL    HW132114   0.758   0.008   4.908  0.6592  0.3593 -0.3521
 6826SOL    HW232115   0.689   4.676   4.811  1.6752 -1.7613 -1.1199
 6827SOL     OW32116   3.804   1.075   5.331  0.0251  0.6737 -0.0303
 6827SOL    HW132117   3.792   1.160   5.288  0.2637 -0.0556 -1.5346
 6827SOL    HW232118   3.844   1.095   5.415 -2.0585  2.7371  0.4991
 6828SOL     OW32119   1.269   0.775   4.084 -0.8837  0.0295 -0.3391
 6828SOL    HW132120   1.222   0.830   4.147 -0.0439  1.3404 -0.8424
 6828SOL    HW232121   1.344   0.835   4.075  0.6399 -1.4379  2.4249
 6829SOL     OW32122   2.114   0.073   0.995 -0.6262 -0.4276  0.1642
 6829SOL    HW132123   2.057   0.126   0.940 -0.1215 -1.2297 -1.1261
 6829SOL    HW232124   2.188   0.054   0.938 -1.1689 -3.1720  0.4088
 6830SOL     OW32125   2.179   1.196   7.767 -0.2176  0.0994  0.4089
 6830SOL    HW132126   2.181   1.276   7.820 -2.3304  0.7741 -0.5552
 6830SOL    HW232127   2.213   1.230   7.685  0.3035 -1.1056  0.1238
 6831SOL     OW32128   3.034   1.216  15.033 -0.3194  0.4236  0.3799
 6831SOL    HW132129   3.018   1.165  14.954 -0.7552  1.4284 -0.1740
 6831SOL    HW232130   3.011   1.308  15.021 -0.5172  0.3474  0.1825
 6832SOL     OW32131   3.594   3.621   4.695 -0.2091 -0.2390  0.5449
 6832SOL    HW132132   3.661   3.595   4.758  1.2568  0.3784 -0.7607
 6832SOL    HW232133   3.532   3.548   4.694 -0.9420  0.4100 -1.0058
 6833SOL     OW32134   4.595   3.201   3.849 -0.4587  0.4454 -0.4558
 6833SOL    HW132135   4.611   3.254   3.927 -0.0947 -0.5087  0.1215
 6833SOL    HW232136   4.501   3.190   3.864  0.4265 -2.2385  3.1085
 6834SOL     OW32137   1.666   0.745   2.394  0.3864 -0.5947  0.7702
 6834SOL    HW132138   1.708   0.828   2.419  1.1007  0.0345 -2.5696
 6834SOL    HW232139   1.591   0.788   2.354  1.5222  0.9936  0.3289
 6835SOL     OW32140   2.582   1.424   6.404 -0.1417  0.5416  0.0990
 6835SOL    HW132141   2.606   1.367   6.476  1.0195 -0.0498 -0.7594
 6835SOL    HW232142   2.665   1.450   6.365 -0.0818 -1.1439 -0.9021
 6836SOL     OW32143   2.894   0.313  11.209 -0.0959 -0.2795  0.0744
 6836SOL    HW132144   2.959   0.308  11.279 -0.5174  0.6893  0.5258
 6836SOL    HW232145   2.865   0.401  11.232 -1.4844 -1.0727  1.3387
 6837SOL     OW32146   1.122   4.400   5.239 -0.0309  0.2987 -0.8847
 6837SOL    HW132147   1.168   4.427   5.319 -2.7365  3.2038 -0.3299
 6837SOL    HW232148   1.185   4.338   5.202  0.4699  0.1917  0.1532
 6838SOL     OW32149   2.577   4.329   5.940  0.0609  0.0862 -0.2430
 6838SOL    HW132150   2.644   4.284   5.888 -2.1275 -1.8695 -1.3586
 6838SOL    HW232151   2.629   4.366   6.011  2.6659 -0.0459 -2.0941
 6839SOL     OW32152   1.719   3.999   3.802  0.1104 -0.3166  0.0801
 6839SOL    HW132153   1.745   4.067   3.864  1.3365 -0.6841 -0.0310
 6839SOL    HW232154   1.669   3.938   3.856  0.5471 -0.0413  0.8000
 6840SOL     OW32155   2.062   0.128  13.899  0.6727  0.4980  0.0788
 6840SOL    HW132156   2.156   0.121  13.881  0.1405 -2.1079 -1.5956
 6840SOL    HW232157   2.043   0.040  13.932  1.2073 -0.3676 -1.9292
 6841SOL     OW32158   3.904   0.962   8.074 -0.4231  0.2279  0.1295
 6841SOL    HW132159   3.990   1.003   8.077 -1.0842  1.5407  1.0005
 6841SOL    HW232160   3.900   0.937   7.982 -0.8850 -0.1925  0.2636
 6842SOL     OW32161   2.464   2.139   3.392 -0.1638 -0.4105 -0.3115
 6842SOL    HW132162   2.525   2.213   3.398 -0.9754  0.1420  1.0360
 6842SOL    HW232163   2.463   2.109   3.483  2.7927 -0.5952 -0.3431
 6843SOL     OW32164   1.721   3.297   5.216  0.4171  0.0281  0.5444
 6843SOL    HW132165   1.627   3.318   5.212  0.2665 -0.6162  0.5940
 6843SOL    HW232166   1.720   3.220   5.159 -0.5099 -2.0088  3.3495
 6844SOL     OW32167   0.597   1.803   7.417  0.1154 -0.0325 -0.1810
 6844SOL    HW132168   0.634   1.854   7.345 -1.2740  2.4543  0.9084
 6844SOL    HW232169   0.534   1.855   7.464 -0.9749 -1.4564 -0.0677
 6845SOL     OW32170   0.100   3.961  16.927 -0.0480 -0.1816  0.2603
 6845SOL    HW132171   0.093   4.053  16.901  0.8452 -0.2331 -0.1504
 6845SOL    HW232172   0.009   3.942  16.948 -0.9165  0.4895 -2.7976
 6846SOL     OW32173   1.107   1.150   6.984  0.5889 -0.8405 -0.4915
 6846SOL    HW132174   1.132   1.058   6.977 -0.7917 -0.8962 -4.6202
 6846SOL    HW232175   1.012   1.150   6.972  0.0514 -1.9651  3.8471
 6847SOL     OW32176   1.126   2.566  16.544  0.4309 -0.2537 -0.2378
 6847SOL    HW132177   1.185   2.619  16.598 -0.9932 -0.0189  1.1100
 6847SOL    HW232178   1.080   2.638  16.501 -1.8332 -2.1929 -1.0539
 6848SOL     OW32179   0.973   0.927   6.674  0.2620 -0.3650  0.1140
 6848SOL    HW132180   1.011   0.842   6.650  1.1498 -0.5328  2.1724
 6848SOL    HW232181   0.924   0.907   6.754  1.3381 -1.6344  0.4514
 6849SOL     OW32182   3.510   1.608  17.584  0.2240 -0.1271 -0.3072
 6849SOL    HW132183   3.488   1.697  17.555 -0.8454  0.1070  1.2437
 6849SOL    HW232184   3.427   1.563  17.570  1.0804 -1.9413  0.5253
 6850SOL     OW32185   0.187   0.960   3.794 -0.3810  0.1232 -0.0044
 6850SOL    HW132186   0.278   0.963   3.765  0.0251  0.7197  1.3311
 6850SOL    HW232187   0.156   1.045   3.761  0.0299  0.6714  1.0423
 6851SOL     OW32188   3.887   0.370   1.614  0.0731 -0.5677  0.4086
 6851SOL    HW132189   3.911   0.354   1.705  0.9158 -2.2393 -0.1052
 6851SOL    HW232190   3.946   0.308   1.571 -0.5019  0.6129 -2.0593
 6852SOL     OW32191   4.179   2.649   8.025  0.6270  0.2377 -0.1816
 6852SOL    HW132192   4.091   2.653   8.061  1.2528 -3.9033  1.7191
 6852SOL    HW232193   4.159   2.594   7.949  0.0520  1.5590 -0.9896
 6853SOL     OW32194   0.902   1.070  16.622  0.1914  0.7100  0.1103
 6853SOL    HW132195   0.969   1.102  16.562  2.3802  0.3030  2.3506
 6853SOL    HW232196   0.951   1.077  16.703 -0.7944 -0.4710  0.8073
 6854SOL     OW32197   1.093   0.362   6.858  0.2632 -0.2328 -0.2790
 6854SOL    HW132198   1.121   0.338   6.947 -0.8173 -0.1795  0.0785
 6854SOL    HW232199   0.999   0.372   6.871  0.0649 -1.7800 -0.6024
 6855SOL     OW32200   4.487   4.183   4.599 -0.6906  0.1850 -0.3036
 6855SOL    HW132201   4.476   4.113   4.664 -3.1114 -0.6592 -1.6226
 6855SOL    HW232202   4.544   4.144   4.532  0.4186 -0.9677  1.3082
 6856SOL     OW32203   0.623   0.357   2.239 -0.2863  0.3645 -0.4900
 6856SOL    HW132204   0.605   0.306   2.318  1.5854 -1.8578 -1.5309
 6856SOL    HW232205   0.558   0.427   2.252  1.5351  2.5533 -3.1724
 6857SOL     OW32206   3.512   0.688  14.183 -0.0438 -0.9951 -0.0087
 6857SOL    HW132207   3.458   0.752  14.228  1.2670  0.0232  0.1019
 6857SOL    HW232208   3.566   0.750  14.135 -1.0697  0.4497  0.7300
 6858SOL     OW32209   3.785   3.629  11.955 -0.1054  0.2000  0.6738
 6858SOL    HW132210   3.795   3.649  11.862  0.3579  0.3591  0.7588
 6858SOL    HW232211   3.780   3.533  11.951  0.4486  0.1626  0.9571
 6859SOL     OW32212   4.397   2.246   4.776 -0.4606  0.5643 -0.8257
 6859SOL    HW132213   4.315   2.258   4.822 -0.6545 -0.2891 -0.9466
 6859SOL    HW232214   4.383   2.310   4.706 -0.7257 -0.5037 -1.7596
 6860SOL     OW32215   1.228   1.883  16.151  0.2820  0.4131 -0.3342
 6860SOL    HW132216   1.285   1.936  16.207 -1.5349  0.6137  1.3370
 6860SOL    HW232217   1.270   1.904  16.068  1.2369 -0.4166 -0.0561
 6861SOL     OW32218   2.288   4.134   6.860 -0.0591 -0.1445 -0.8610
 6861SOL    HW132219   2.291   4.195   6.786  0.5781 -1.9104 -2.2803
 6861SOL    HW232220   2.207   4.168   6.899  1.1235  0.2837  1.2252
 6862SOL     OW32221   0.687   2.212  16.410 -0.0744  0.1692  0.1222
 6862SOL    HW132222   0.690   2.124  16.448 -0.7197  0.7086  1.4391
 6862SOL    HW232223   0.643   2.201  16.326 -0.8513 -0.5338  0.6189
 6863SOL     OW32224   0.758   3.068   6.158 -0.2121  0.0965 -0.1559
 6863SOL    HW132225   0.733   3.033   6.072 -1.0850  1.6270 -0.5268
 6863SOL    HW232226   0.674   3.099   6.191  0.4408  0.5344  1.0802
 6864SOL     OW32227   1.250   4.474  10.732 -0.1000 -0.3476  0.1498
 6864SOL    HW132228   1.234   4.386  10.765  2.8233 -0.2099  1.9352
 6864SOL    HW232229   1.282   4.446  10.646  0.4493  0.7093  0.0164
 6865SOL     OW32230   4.021   3.552  13.514 -0.2949  0.1374 -0.5772
 6865SOL    HW132231   3.954   3.593  13.459 -0.0197  0.5214 -0.6246
 6865SOL    HW232232   4.021   3.601  13.596  0.8391  1.5272 -1.4103
 6866SOL     OW32233   1.227   1.567   4.806 -0.0689 -0.2632 -0.4575
 6866SOL    HW132234   1.310   1.535   4.840 -0.8991 -2.7068 -0.7634
 6866SOL    HW232235   1.193   1.615   4.881 -1.8176  0.0328 -1.4369
 6867SOL     OW32236   3.536   4.384   7.062  0.2995 -0.3681  0.4304
 6867SOL    HW132237   3.559   4.374   6.970  2.4827 -2.2093  1.1922
 6867SOL    HW232238   3.597   4.453   7.086 -1.2916  0.6744  1.4616
 6868SOL     OW32239   0.818   0.703   8.595  0.3610  0.0928  1.0557
 6868SOL    HW132240   0.802   0.726   8.687  0.3036  2.2976  0.4888
 6868SOL    HW232241   0.886   0.765   8.569  0.3774 -0.3829 -0.0561
 6869SOL     OW32242   3.241   0.251   1.779 -0.3387 -0.1464  0.1503
 6869SOL    HW132243   3.282   0.180   1.729 -2.3169 -1.5755  0.5925
 6869SOL    HW232244   3.194   0.298   1.710 -1.0807  0.4564  1.0812
 6870SOL     OW32245   0.196   3.268   4.169 -0.0831 -0.1216  0.1312
 6870SOL    HW132246   0.226   3.212   4.096  4.3802  2.3679  0.0253
 6870SOL    HW232247   0.118   3.313   4.138 -1.0886 -1.6438  0.4511
 6871SOL     OW32248   2.087   3.207  17.088  0.4664  0.0952  0.0119
 6871SOL    HW132249   2.032   3.209  17.009 -0.6019 -1.0950  0.7380
 6871SOL    HW232250   2.027   3.189  17.159  1.3232 -1.7015  0.2766
 6872SOL     OW32251   1.026   1.799   6.549 -0.0081  0.7345  0.0893
 6872SOL    HW132252   1.024   1.881   6.500  0.4126  1.1042  0.6955
 6872SOL    HW232253   1.121   1.789   6.551  0.1403  1.6953 -2.5216
 6873SOL     OW32254   3.244   0.032  13.619 -0.1947  0.2005  0.1428
 6873SOL    HW132255   3.196   0.013  13.539 -1.0468  1.6043  0.3137
 6873SOL    HW232256   3.170   0.022  13.680 -0.3747  0.9148  0.0399
 6874SOL     OW32257   0.688   1.158   5.029  0.2420 -0.1960 -0.5322
 6874SOL    HW132258   0.672   1.064   5.027  0.6424 -0.3491  2.3351
 6874SOL    HW232259   0.730   1.174   5.114  0.2016  0.1344 -0.5773
 6875SOL     OW32260   4.549   2.538  10.251  0.4034  0.1424  0.2769
 6875SOL    HW132261   4.608   2.477  10.207 -2.2800  0.0318 -3.2060
 6875SOL    HW232262   4.560   2.613  10.191 -2.8447  0.0434 -0.4205
 6876SOL     OW32263   4.665   0.804   4.449 -0.3864  0.1936 -0.2828
 6876SOL    HW132264   4.663   0.759   4.364 -1.4729 -0.4162  0.0723
 6876SOL    HW232265   4.651   0.731   4.508  1.0750  1.0115  1.0722
 6877SOL     OW32266   0.934   4.302   4.152  0.2912 -0.0130 -0.0719
 6877SOL    HW132267   0.987   4.323   4.075 -0.0030 -0.2449 -0.3399
 6877SOL    HW232268   1.002   4.296   4.219 -1.5701 -2.4557  1.5612
 6878SOL     OW32269   2.009   3.104  14.082 -0.2428 -0.3509  0.0259
 6878SOL    HW132270   2.061   3.098  14.162  0.0791 -3.1639 -0.4011
 6878SOL    HW232271   1.926   3.070  14.115  0.7110 -3.1921 -0.5643
 6879SOL     OW32272   0.133   3.176   8.131  0.5832  0.2107  0.1040
 6879SOL    HW132273   0.050   3.161   8.176  0.7127 -1.3645 -0.1953
 6879SOL    HW232274   0.111   3.156   8.040  0.3668 -0.6863  0.3498
 6880SOL     OW32275   4.056   0.504  16.988 -0.1270 -1.0610 -0.1167
 6880SOL    HW132276   4.136   0.516  17.040 -0.1716  2.3059 -0.8702
 6880SOL    HW232277   4.045   0.410  16.972  2.4879 -1.4121  0.1205
 6881SOL     OW32278   2.821   4.365   1.922 -0.0660  0.1486 -0.0050
 6881SOL    HW132279   2.897   4.414   1.889 -0.8977 -0.1292 -2.2887
 6881SOL    HW232280   2.849   4.320   2.002 -0.9586  0.6357  0.5777
 6882SOL     OW32281   3.493   3.870  10.095  0.1943 -0.5591 -0.4155
 6882SOL    HW132282   3.416   3.880  10.151  0.7673 -1.8098  0.5768
 6882SOL    HW232283   3.473   3.923  10.017 -0.5536  1.8840  1.4504
 6883SOL     OW32284   4.370   3.563   6.669 -0.2802  0.4883 -0.9943
 6883SOL    HW132285   4.308   3.552   6.741  0.5904 -3.8794 -0.8980
 6883SOL    HW232286   4.446   3.518   6.707 -0.1679  0.7136 -0.9535
 6884SOL     OW32287   3.528   0.928   5.713 -0.0104  0.1303 -0.0727
 6884SOL    HW132288   3.454   0.941   5.773 -0.8689 -2.0597 -0.6749
 6884SOL    HW232289   3.483   0.861   5.661 -0.5887  1.1034 -0.8408
 6885SOL     OW32290   1.110   2.963   4.152 -0.1556  0.2370  0.2994
 6885SOL    HW132291   1.038   3.010   4.110  0.2638  1.4256  0.9099
 6885SOL    HW232292   1.179   2.966   4.086 -1.1255 -0.5767 -0.7708
 6886SOL     OW32293   1.949   1.884   5.419 -0.2700  0.5754  0.3659
 6886SOL    HW132294   1.958   1.940   5.496  1.1129  0.9450 -0.0657
 6886SOL    HW232295   1.867   1.914   5.379 -0.4615 -0.2719  0.1222
 6887SOL     OW32296   0.047   3.714  11.184 -0.2332 -0.2283  0.0525
 6887SOL    HW132297   0.070   3.629  11.148  0.5467 -0.2222  0.5226
 6887SOL    HW232298   0.125   3.770  11.180 -0.0930 -0.5348 -1.3132
 6888SOL     OW32299   0.288   3.437   4.543 -0.1300 -0.4248  0.3914
 6888SOL    HW132300   0.303   3.441   4.638 -4.1847 -0.3651  1.0412
 6888SOL    HW232301   0.349   3.499   4.504  0.7745 -3.6114 -3.2606
 6889SOL     OW32302   4.001   2.512   2.475  0.0095 -0.0130  0.1188
 6889SOL    HW132303   3.907   2.507   2.490  0.1132 -2.4438  0.0192
 6889SOL    HW232304   4.003   2.517   2.380  0.6083 -0.2956  0.1151
 6890SOL     OW32305   2.900   4.234  17.548  0.1281  0.5274 -0.3392
 6890SOL    HW132306   2.915   4.319  17.589 -0.4346  0.7069 -0.4934
 6890SOL    HW232307   2.932   4.252  17.460  2.1424  0.9519  0.5025
 6891SOL     OW32308   0.972   4.273   5.936  0.2738  0.1525 -0.0013
 6891SOL    HW132309   0.984   4.313   5.850 -0.3474  0.4149  0.0317
 6891SOL    HW232310   0.971   4.348   5.995 -0.5033 -1.6896  2.3349
 6892SOL     OW32311   0.137   2.226  11.414  0.0713  0.6846  0.0374
 6892SOL    HW132312   0.158   2.290  11.483  0.9324 -0.0708  0.4683
 6892SOL    HW232313   0.066   2.273  11.370 -1.5274  0.4275  2.3096
 6893SOL     OW32314   3.663   3.145   7.198  0.2058 -0.0803 -0.0226
 6893SOL    HW132315   3.668   3.083   7.125  2.9033  0.2092 -0.0513
 6893SOL    HW232316   3.632   3.083   7.264  1.3619 -1.8070 -1.1208
 6894SOL     OW32317   1.135   0.746   2.625  0.0800  0.2025 -0.0208
 6894SOL    HW132318   1.224   0.780   2.621 -0.6287  1.6696 -3.1722
 6894SOL    HW232319   1.115   0.738   2.718 -2.2449  0.5327 -0.4776
 6895SOL     OW32320   1.517   2.130   1.927 -0.2330 -0.0742 -0.1315
 6895SOL    HW132321   1.543   2.200   1.867 -0.5827  0.3632  0.2233
 6895SOL    HW232322   1.480   2.189   1.993  0.1977  0.1343 -0.0738
 6896SOL     OW32323   0.622   1.819   4.917  0.3428 -0.5688  0.4737
 6896SOL    HW132324   0.672   1.787   4.993 -0.7000 -1.9398  0.5959
 6896SOL    HW232325   0.658   1.762   4.849 -0.8545  0.4453 -0.9844
 6897SOL     OW32326   4.652   1.463   5.715  0.6908 -0.1877 -0.2887
 6897SOL    HW132327   4.591   1.531   5.686 -0.4228 -0.6656  0.9062
 6897SOL    HW232328   4.686   1.501   5.796 -0.3928 -0.0156  0.0894
 6898SOL     OW32329   4.247   0.615  13.912  0.0170 -0.4347  0.5860
 6898SOL    HW132330   4.226   0.609  13.819 -2.3739 -0.0060  1.1150
 6898SOL    HW232331   4.169   0.654  13.950  0.2152  0.5373 -0.0061
 6899SOL     OW32332   2.043   3.691   6.475 -0.6213  0.3588  0.0203
 6899SOL    HW132333   2.058   3.710   6.383 -0.3662  2.3260  0.4601
 6899SOL    HW232334   1.951   3.711   6.495 -1.0210  0.5623 -2.0594
 6900SOL     OW32335   2.664   0.130   3.200  0.2981 -0.1900 -0.3044
 6900SOL    HW132336   2.673   0.226   3.201 -2.2590  0.0284  1.9997
 6900SOL    HW232337   2.572   0.117   3.177  0.2242  1.4539 -0.9763
 6901SOL     OW32338   3.118   1.237  17.639  0.4299 -0.4772 -0.0562
 6901SOL    HW132339   3.182   1.177  17.601 -0.2161 -1.1520 -0.0593
 6901SOL    HW232340   3.165   1.320  17.647  0.8592 -0.6821 -0.4464
 6902SOL     OW32341   2.642   1.712   6.195  0.2040  0.2545  0.3896
 6902SOL    HW132342   2.610   1.672   6.115  0.7824  1.3805 -0.4111
 6902SOL    HW232343   2.689   1.634   6.225  0.1253  0.9112  2.2187
 6903SOL     OW32344   2.054   1.540   2.876 -0.3083 -0.2962  0.1211
 6903SOL    HW132345   1.987   1.475   2.852 -1.0631  0.7286 -0.5951
 6903SOL    HW232346   1.987   1.609   2.879  1.1032  1.1171 -0.8933
 6904SOL     OW32347   2.733   4.231   8.627 -0.5645 -0.7652 -0.7134
 6904SOL    HW132348   2.722   4.203   8.718  1.4023  0.6278 -0.0321
 6904SOL    HW232349   2.747   4.154   8.572 -0.9843  0.1860 -2.1238
 6905SOL     OW32350   0.022   1.896   2.625  0.2655 -0.0096 -0.1693
 6905SOL    HW132351   4.717   1.977   2.652  0.8635  0.8571 -1.8295
 6905SOL    HW232352   0.103   1.925   2.583 -0.5587  2.3203 -0.1427
 6906SOL     OW32353   1.611   4.155   3.483  0.2212 -0.2370 -0.1740
 6906SOL    HW132354   1.648   4.076   3.523 -0.3840 -1.0455 -1.2225
 6906SOL    HW232355   1.692   4.199   3.456  0.1904 -0.3634 -0.4697
 6907SOL     OW32356   2.598   0.600   6.525 -0.0392 -0.1361  0.0596
 6907SOL    HW132357   2.552   0.525   6.563 -2.1522  1.9938  1.6610
 6907SOL    HW232358   2.691   0.577   6.527 -0.4543 -1.8330  0.0056
 6908SOL     OW32359   4.036   2.729  14.519 -0.3369  0.3679  0.6492
 6908SOL    HW132360   4.032   2.768  14.432 -1.5414  0.6333  0.8263
 6908SOL    HW232361   3.946   2.700  14.537 -0.2536  0.6826  1.5808
 6909SOL     OW32362   3.254   3.428  10.861 -0.6503 -0.0954  0.0869
 6909SOL    HW132363   3.210   3.344  10.875 -2.1385  0.1633 -2.9576
 6909SOL    HW232364   3.344   3.397  10.874 -1.3474 -1.5984  1.3139
 6910SOL     OW32365   3.933   1.240  17.147 -0.2389 -0.6222  0.1836
 6910SOL    HW132366   3.914   1.205  17.060 -1.1494 -0.0917  0.1609
 6910SOL    HW232367   4.010   1.189  17.171 -0.1714 -0.4707  0.2907
 6911SOL     OW32368   1.060   1.121   6.140 -0.5077  0.1695 -0.4822
 6911SOL    HW132369   0.998   1.184   6.178 -0.0646  0.7876 -0.7924
 6911SOL    HW232370   1.042   1.057   6.209  1.2225 -0.0478 -0.2390
 6912SOL     OW32371   2.132   0.909   4.670  0.7333 -0.4450 -0.3047
 6912SOL    HW132372   2.221   0.944   4.680  1.6038 -2.7182 -0.2953
 6912SOL    HW232373   2.085   0.988   4.641 -0.8145 -0.3731  2.4325
 6913SOL     OW32374   2.247   3.123  16.539  0.1732 -0.2826  0.1443
 6913SOL    HW132375   2.174   3.182  16.520 -0.8734 -1.0096  1.9863
 6913SOL    HW232376   2.241   3.101  16.632 -1.1524 -0.7811 -0.0669
 6914SOL     OW32377   2.338   4.189   8.429 -0.2304  0.0364 -0.1660
 6914SOL    HW132378   2.311   4.280   8.413 -0.5945  0.2351  1.5846
 6914SOL    HW232379   2.426   4.188   8.390 -0.3734  0.4965 -0.5094
 6915SOL     OW32380   0.472   0.335   5.898  0.4081  0.2434 -0.0533
 6915SOL    HW132381   0.465   0.242   5.874  0.4838 -0.1623  1.4972
 6915SOL    HW232382   0.550   0.360   5.849 -1.0853  2.1304 -1.4659
 6916SOL     OW32383   0.080   3.349   8.636  0.5139  0.3011  0.2501
 6916SOL    HW132384   0.124   3.337   8.552  1.5192  1.1118  0.6507
 6916SOL    HW232385   4.727   3.354   8.606  0.5551  0.9747  0.2405
 6917SOL     OW32386   3.725   2.166   4.082  0.2156  0.1835  0.5003
 6917SOL    HW132387   3.631   2.184   4.072  0.3450  2.0245  2.6454
 6917SOL    HW232388   3.752   2.231   4.017 -1.9506 -1.7059 -2.3407
 6918SOL     OW32389   0.780   0.751   7.168  0.1279  0.0472 -0.3921
 6918SOL    HW132390   0.832   0.672   7.184  0.6207  0.1137 -1.5968
 6918SOL    HW232391   0.719   0.740   7.241  0.2800  2.3536  0.0691
 6919SOL     OW32392   1.518   0.558   4.138  0.8949  0.0569  0.3737
 6919SOL    HW132393   1.474   0.485   4.093  1.6056 -0.8328  1.1236
 6919SOL    HW232394   1.592   0.511   4.176  2.1732  1.1363 -0.8136
 6920SOL     OW32395   4.231   3.265  10.886 -0.0709  0.1145  0.2507
 6920SOL    HW132396   4.313   3.217  10.891 -0.7041 -1.1486 -1.4586
 6920SOL    HW232397   4.177   3.223  10.952  1.6369 -1.8015  0.4142
 6921SOL     OW32398   0.293   2.427  14.140 -0.2915 -0.1024 -0.5482
 6921SOL    HW132399   0.300   2.470  14.225  1.1548 -1.7592  0.1834
 6921SOL    HW232400   0.217   2.470  14.101 -0.3200  0.7083  0.3958
 6922SOL     OW32401   3.803   3.141   2.716 -0.3822  0.3500 -0.1810
 6922SOL    HW132402   3.841   3.221   2.751  0.4455  0.1690 -0.6559
 6922SOL    HW232403   3.710   3.163   2.716 -0.8789 -1.7604  0.2554
 6923SOL     OW32404   1.329   3.305   6.737 -0.2235 -0.1403  0.6038
 6923SOL    HW132405   1.274   3.317   6.814 -0.2254  0.8404  0.4436
 6923SOL    HW232406   1.372   3.220   6.748 -4.0331 -1.6456  3.8007
 6924SOL     OW32407   2.526   4.528   5.222  0.4218 -0.2703  0.3031
 6924SOL    HW132408   2.449   4.524   5.278 -1.1006 -0.0423 -1.7333
 6924SOL    HW232409   2.542   4.436   5.202  0.1446 -0.2320 -0.1069
 6925SOL     OW32410   2.049   0.244   3.372  0.2638  0.1986 -0.2610
 6925SOL    HW132411   2.136   0.275   3.347  1.2877  0.2391  3.3742
 6925SOL    HW232412   2.064   0.150   3.382 -2.1067  0.0475  1.8377
 6926SOL     OW32413   4.236   2.546  14.528 -0.5457  0.2791 -0.8190
 6926SOL    HW132414   4.176   2.482  14.491 -1.2844  0.7863 -0.5055
 6926SOL    HW232415   4.188   2.629  14.539  0.3709  0.7499 -0.3911
 6927SOL     OW32416   0.381   1.780   6.785 -0.0135 -0.2288  0.0263
 6927SOL    HW132417   0.349   1.853   6.731  1.1548 -0.2185 -0.6611
 6927SOL    HW232418   0.419   1.734   6.710 -1.5697 -0.3924 -0.6774
 6928SOL     OW32419   4.210   1.532  13.200  0.3203 -0.2808  0.1595
 6928SOL    HW132420   4.298   1.498  13.218 -0.2686 -1.6249  0.4764
 6928SOL    HW232421   4.223   1.577  13.116  0.4038  2.0565  1.4099
 6929SOL     OW32422   1.849   4.007   4.315 -0.0737 -0.1960  0.6414
 6929SOL    HW132423   1.830   3.935   4.255 -2.2496 -0.9934  2.2980
 6929SOL    HW232424   1.765   4.051   4.323  0.4934  0.9847  0.1049
 6930SOL     OW32425   4.039   1.779  14.790 -0.5113  0.1860  0.2375
 6930SOL    HW132426   4.079   1.866  14.790  1.5412 -0.7568  0.6273
 6930SOL    HW232427   4.110   1.724  14.756 -1.7124 -2.5007  2.0420
 6931SOL     OW32428   0.476   2.015  14.489  1.2478 -0.2504  0.0979
 6931SOL    HW132429   0.427   2.087  14.449 -0.8920 -2.1221 -0.6237
 6931SOL    HW232430   0.502   1.956  14.418 -0.7695 -1.5263  0.4286
 6932SOL     OW32431   1.388   3.073   0.112 -0.4486  0.1632 -0.5537
 6932SOL    HW132432   1.473   3.117   0.109 -0.0698 -0.5685 -0.6263
 6932SOL    HW232433   1.411   2.980   0.101  0.9191  0.4277  0.0750
 6933SOL     OW32434   2.582   3.813   8.610 -0.4093  0.3015 -0.3424
 6933SOL    HW132435   2.633   3.893   8.594 -0.4683  0.4177  0.0350
 6933SOL    HW232436   2.609   3.779   8.696 -0.4753 -0.1247 -0.4906
 6934SOL     OW32437   0.117   3.656   5.393  0.8842  0.6240 -0.3356
 6934SOL    HW132438   0.024   3.649   5.371  1.0686  0.5512 -1.0928
 6934SOL    HW232439   0.128   3.581   5.452  1.3539 -0.2258 -1.5237
 6935SOL     OW32440   2.831   3.894   2.686 -0.3306  0.5828  1.0352
 6935SOL    HW132441   2.837   3.814   2.634  1.1556  0.9092  0.7043
 6935SOL    HW232442   2.921   3.924   2.673 -1.5378  3.4158 -0.7812
 6936SOL     OW32443   3.931   0.262  12.271  0.4323 -0.1216  0.0596
 6936SOL    HW132444   3.933   0.261  12.175 -1.1048  1.8790  0.0012
 6936SOL    HW232445   3.898   0.175  12.295 -4.0158  1.2358 -1.1054
 6937SOL     OW32446   1.778   3.823   1.685  0.8953  0.1154 -0.4451
 6937SOL    HW132447   1.821   3.852   1.604  0.3051 -1.3956 -1.2985
 6937SOL    HW232448   1.854   3.792   1.735 -0.0737 -0.5136  0.6123
 6938SOL     OW32449   4.238   0.253  10.523 -0.1681  0.4497  0.2053
 6938SOL    HW132450   4.257   0.244  10.430 -4.2518  0.9255 -0.6802
 6938SOL    HW232451   4.143   0.266  10.515 -0.3486 -0.5879  0.5781
 6939SOL     OW32452   2.608   4.248   4.670  0.0513  0.6966 -0.1408
 6939SOL    HW132453   2.545   4.276   4.736  0.9325  2.0046  0.1615
 6939SOL    HW232454   2.559   4.277   4.593  0.0042 -0.8653 -0.6926
 6940SOL     OW32455   2.415   3.077   6.390  0.2737 -0.1834 -0.0490
 6940SOL    HW132456   2.502   3.041   6.409 -0.4536 -1.9251 -0.0708
 6940SOL    HW232457   2.364   3.028   6.454  1.7795  0.5601  1.7523
 6941SOL     OW32458   2.737   0.795  14.809 -0.0962  0.3768 -0.1981
 6941SOL    HW132459   2.785   0.725  14.852 -1.7632  0.4630  1.8106
 6941SOL    HW232460   2.719   0.856  14.881  0.6204 -0.9235  1.0759
 6942SOL     OW32461   3.426   0.921   4.502 -0.0056 -0.2719 -0.0588
 6942SOL    HW132462   3.433   0.947   4.410 -1.7229  0.1504 -0.0681
 6942SOL    HW232463   3.353   0.977   4.528  1.4392  2.1816 -1.2982
 6943SOL     OW32464   1.109   3.637   6.480 -0.0908  0.3576  0.1518
 6943SOL    HW132465   1.195   3.637   6.438 -0.1751  0.5100 -0.0240
 6943SOL    HW232466   1.116   3.547   6.510 -0.7709  0.1095 -0.4255
 6944SOL     OW32467   0.162   0.761   1.483  0.4687 -0.7799  0.2699
 6944SOL    HW132468   0.237   0.820   1.493  0.4482 -1.0223  1.9449
 6944SOL    HW232469   0.185   0.679   1.529  1.8791  0.1530  1.2208
 6945SOL     OW32470   4.235   4.237  16.993 -0.5614  0.1009  0.0865
 6945SOL    HW132471   4.235   4.272  17.082 -0.0183 -0.1883  0.1971
 6945SOL    HW232472   4.176   4.163  17.008  0.0395 -0.3719  0.1131
 6946SOL     OW32473   4.036   0.425  17.480  0.4403 -0.2809 -0.2006
 6946SOL    HW132474   4.120   0.405  17.440  1.1911  0.6994  0.8772
 6946SOL    HW232475   4.004   0.337  17.499 -1.0493  0.2055 -0.4416
 6947SOL     OW32476   0.097   2.849   8.059  0.7652  0.0298 -0.2294
 6947SOL    HW132477   0.051   2.765   8.052 -0.1105  0.3383  1.8341
 6947SOL    HW232478   0.064   2.898   7.984  0.4320  0.8665  0.4547
 6948SOL     OW32479   2.949   4.460   0.033  0.1964  0.2031 -0.6736
 6948SOL    HW132480   2.905   4.538   0.000 -1.1685 -1.2884 -2.3922
 6948SOL    HW232481   2.882   4.410   0.078  0.8854 -0.2561 -0.1592
 6949SOL     OW32482   3.844   1.738   6.801 -0.6808 -0.0546 -0.0455
 6949SOL    HW132483   3.882   1.713   6.717  0.8500 -0.4576  0.7642
 6949SOL    HW232484   3.884   1.672   6.857 -0.3523 -0.8489 -1.2312
 6950SOL     OW32485   3.703   4.029   4.074 -0.1911  0.5453 -0.2092
 6950SOL    HW132486   3.771   3.969   4.043  0.0341 -0.6040  2.5157
 6950SOL    HW232487   3.667   3.976   4.146 -1.1475  1.3178 -0.1167
 6951SOL     OW32488   2.539   1.333   5.961  0.2858 -0.0186 -0.3181
 6951SOL    HW132489   2.472   1.337   6.029 -1.5285 -1.1681 -2.0360
 6951SOL    HW232490   2.568   1.423   5.943 -1.3319  0.8119  1.2795
 6952SOL     OW32491   0.085   1.237   5.319  0.7031  0.5735 -0.4756
 6952SOL    HW132492   0.071   1.299   5.391  0.3649 -0.0832  0.0283
 6952SOL    HW232493   4.736   1.202   5.296  1.1241  0.2816 -1.5933
 6953SOL     OW32494   0.420   3.526  15.141  0.2797  0.0368 -0.3370
 6953SOL    HW132495   0.478   3.546  15.214  0.1471  1.0672 -0.5155
 6953SOL    HW232496   0.336   3.549  15.182 -0.0166  1.1265 -1.5555
 6954SOL     OW32497   4.265   0.725   4.913  0.1813 -0.3249  0.4178
 6954SOL    HW132498   4.240   0.738   4.822  0.2053  0.8674  0.5842
 6954SOL    HW232499   4.300   0.636   4.914  0.9520 -0.0370 -2.5112
 6955SOL     OW32500   1.358   1.554  10.379  0.0572  0.1143 -0.2641
 6955SOL    HW132501   1.449   1.574  10.355  0.0827 -1.7160 -1.6721
 6955SOL    HW232502   1.326   1.644  10.371 -1.3563 -0.5511 -2.0860
 6956SOL     OW32503   3.343   0.221   3.708  0.2609 -0.2438 -0.2916
 6956SOL    HW132504   3.320   0.149   3.767 -0.0936  0.3311  0.2636
 6956SOL    HW232505   3.264   0.274   3.719  0.5309  0.4598 -1.7899
 6957SOL     OW32506   1.262   3.011   9.626  0.4092 -0.5487  0.4507
 6957SOL    HW132507   1.302   3.056   9.700 -0.4944  0.5838  0.2415
 6957SOL    HW232508   1.180   3.061   9.631 -0.4451 -2.0392  1.3527
 6958SOL     OW32509   1.104   4.216   7.856  0.3928  0.3029  0.1384
 6958SOL    HW132510   1.084   4.169   7.938  0.5283 -0.8503 -0.4884
 6958SOL    HW232511   1.102   4.306   7.888 -1.2600 -0.1198  1.2122
 6959SOL     OW32512   0.261   4.141   4.845  0.3197  0.4207  0.2144
 6959SOL    HW132513   0.242   4.048   4.846  1.2904  0.2288  0.2949
 6959SOL    HW232514   0.356   4.141   4.844  0.3118 -1.8038  0.7306
 6960SOL     OW32515   4.310   1.467  16.922 -0.5485 -0.1382  0.2894
 6960SOL    HW132516   4.247   1.448  16.852 -1.3132  0.3793  0.8403
 6960SOL    HW232517   4.258   1.525  16.978 -0.4901  0.4757 -0.2890
 6961SOL     OW32518   1.318   3.358   8.113  0.2905  0.0185  0.3420
 6961SOL    HW132519   1.399   3.316   8.082 -0.3651 -0.6283 -0.5155
 6961SOL    HW232520   1.282   3.300   8.180 -0.3236 -0.6984 -0.5930
 6962SOL     OW32521   4.001   0.574   7.332  0.0418 -0.6456 -0.2185
 6962SOL    HW132522   3.987   0.649   7.274 -1.6880 -0.5416  0.3238
 6962SOL    HW232523   3.907   0.556   7.331 -0.7169  3.3853 -2.9865
 6963SOL     OW32524   4.715   4.489   4.431  0.2262 -0.6124 -0.7673
 6963SOL    HW132525   4.721   4.550   4.505  2.4563 -0.0731 -1.4104
 6963SOL    HW232526   0.026   4.528   4.358  1.5185  0.4898  0.6830
 6964SOL     OW32527   1.051   1.119  10.282  0.5373  0.4713 -0.4928
 6964SOL    HW132528   1.071   1.031  10.249  0.6525 -0.1568  1.2891
 6964SOL    HW232529   1.109   1.173  10.229  1.9044 -0.5633 -0.0627
 6965SOL     OW32530   0.223   0.166   7.566  0.6235 -0.3447  0.3767
 6965SOL    HW132531   0.191   0.215   7.642 -1.5914 -1.7665  0.3382
 6965SOL    HW232532   0.150   0.105   7.555  1.2554 -0.7222 -1.6579
 6966SOL     OW32533   2.870   3.981  11.469  0.2286 -0.6813 -0.0555
 6966SOL    HW132534   2.816   4.028  11.406  3.1198  1.3134 -1.0592
 6966SOL    HW232535   2.956   4.021  11.458 -0.6935  2.4225  3.9017
 6967SOL     OW32536   1.381   2.888  14.935  0.0014  0.5358 -0.2731
 6967SOL    HW132537   1.357   2.952  15.002  0.5230  1.7631 -1.2686
 6967SOL    HW232538   1.359   2.942  14.860  1.5384  2.6629  0.8225
 6968SOL     OW32539   1.328   2.756   7.976 -0.0408  0.3627 -0.2046
 6968SOL    HW132540   1.390   2.695   8.016  1.1543  1.6101 -0.1125
 6968SOL    HW232541   1.290   2.700   7.909  3.3552 -1.5530 -0.5445
 6969SOL     OW32542   4.468   0.915   6.180 -0.0753 -0.1609 -0.2729
 6969SOL    HW132543   4.442   1.001   6.212  1.2957  0.3746 -0.6386
 6969SOL    HW232544   4.414   0.858   6.236  1.2393 -2.1176 -0.9915
 6970SOL     OW32545   1.317   0.737  11.650 -0.5730 -0.1568 -0.1198
 6970SOL    HW132546   1.373   0.765  11.723  0.4475 -0.6858 -0.6963
 6970SOL    HW232547   1.309   0.817  11.597  0.6385  1.7400  2.5666
 6971SOL     OW32548   3.917   3.778   5.365  0.0901 -0.6811  0.0995
 6971SOL    HW132549   3.927   3.871   5.385  2.6467 -1.0071  0.3542
 6971SOL    HW232550   3.840   3.743   5.410 -0.5108 -1.9404 -1.8915
 6972SOL     OW32551   3.878   1.717   6.504  0.4748  0.0279 -0.4887
 6972SOL    HW132552   3.853   1.801   6.541 -0.7910  1.0259 -3.6096
 6972SOL    HW232553   3.893   1.733   6.410  2.8256  0.4900 -0.0460
 6973SOL     OW32554   0.675   1.785   9.423  0.1657 -0.3132 -0.6537
 6973SOL    HW132555   0.735   1.716   9.453  0.3083 -0.0263 -0.2761
 6973SOL    HW232556   0.611   1.778   9.494  0.8327  1.6745  0.1224
 6974SOL     OW32557   3.797   3.279   4.097 -0.5714 -0.3064 -0.4695
 6974SOL    HW132558   3.803   3.364   4.139  0.8902 -1.5142  1.7730
 6974SOL    HW232559   3.749   3.304   4.018  0.1669  2.7664  0.0643
 6975SOL     OW32560   4.089   4.513   8.837 -0.1083 -0.9703 -0.3244
 6975SOL    HW132561   4.091   4.417   8.844  0.6373 -0.9189  0.1255
 6975SOL    HW232562   4.046   4.530   8.921 -1.6094 -0.5146 -1.1934
 6976SOL     OW32563   0.647   2.789   3.280  0.3062 -0.5786  0.3029
 6976SOL    HW132564   0.678   2.863   3.331  0.0370 -0.0434 -0.2969
 6976SOL    HW232565   0.587   2.758   3.348  0.3968 -0.2716  0.5251
 6977SOL     OW32566   3.505   0.232   0.364  0.7698 -0.7774  0.2150
 6977SOL    HW132567   3.529   0.158   0.309  0.8973  0.5441 -1.5336
 6977SOL    HW232568   3.435   0.270   0.309  2.2598  1.6976  0.0090
 6978SOL     OW32569   2.592   2.985   5.070 -0.2879 -0.1928  0.4502
 6978SOL    HW132570   2.605   2.975   5.164  1.1004 -0.1420  0.2513
 6978SOL    HW232571   2.501   3.015   5.076  0.2645  1.6603 -0.5390
 6979SOL     OW32572   2.147   2.285   5.557  0.0020  0.1921  0.0745
 6979SOL    HW132573   2.215   2.224   5.528  1.6434  0.4225  3.3977
 6979SOL    HW232574   2.203   2.347   5.605  0.8051 -0.1689 -0.3842
 6980SOL     OW32575   2.478   2.265   6.502 -0.1545 -0.5207  0.0227
 6980SOL    HW132576   2.526   2.265   6.585  2.4863 -1.5960 -1.5424
 6980SOL    HW232577   2.387   2.267   6.533 -0.3666 -2.6407 -0.4263
 6981SOL     OW32578   4.315   3.014   5.371 -0.0179 -0.0339 -0.6106
 6981SOL    HW132579   4.342   2.927   5.399  1.5133  0.1716 -1.4093
 6981SOL    HW232580   4.222   3.015   5.392 -0.5701 -0.7665 -3.0500
 6982SOL     OW32581   1.915   1.906   6.027 -0.1281  0.3892  0.4695
 6982SOL    HW132582   1.870   1.872   5.950  1.3053  0.0060 -0.1896
 6982SOL    HW232583   1.998   1.858   6.025 -0.0176  0.6591 -1.2134
 6983SOL     OW32584   2.145   4.502   1.311  0.1124  0.4040  0.0365
 6983SOL    HW132585   2.081   4.573   1.303  0.1520  0.6112  1.5741
 6983SOL    HW232586   2.094   4.435   1.356 -0.1459  1.3201  1.1029
 6984SOL     OW32587   4.215   2.645  14.156 -0.9628  0.5362  0.1903
 6984SOL    HW132588   4.122   2.666  14.167 -0.7862  0.5487  1.6122
 6984SOL    HW232589   4.254   2.718  14.204  0.1067  0.3063 -0.3292
 6985SOL     OW32590   0.885   1.989   8.462 -0.3245  0.1375 -0.3648
 6985SOL    HW132591   0.846   2.025   8.541  1.2717  2.8070 -0.7991
 6985SOL    HW232592   0.964   2.043   8.456  0.2812 -0.7758 -0.6338
 6986SOL     OW32593   1.826   0.638   8.320  0.3543 -0.1354 -0.1833
 6986SOL    HW132594   1.744   0.687   8.311  0.5759  0.0319 -1.3433
 6986SOL    HW232595   1.886   0.695   8.272 -0.6092 -1.6290 -3.1544
 6987SOL     OW32596   0.740   4.665   5.638 -0.1035  0.0138 -0.0926
 6987SOL    HW132597   0.803   4.731   5.668 -0.6599 -0.3991  1.9942
 6987SOL    HW232598   0.775   4.661   5.549 -0.5154  0.2056 -0.2632
 6988SOL     OW32599   3.476   1.929   8.392  0.3536  0.1887 -0.0979
 6988SOL    HW132600   3.462   2.021   8.367  3.2177  0.9662  1.2109
 6988SOL    HW232601   3.388   1.893   8.399  0.8328 -0.5768  1.9292
 6989SOL     OW32602   2.866   1.557   8.613 -0.4600  0.2793  0.0201
 6989SOL    HW132603   2.791   1.616   8.609 -0.4409  0.2891 -0.2182
 6989SOL    HW232604   2.826   1.489   8.558 -0.7866 -0.1967  0.8469
 6990SOL     OW32605   0.545   1.544   0.688 -0.2838 -0.4684 -0.6505
 6990SOL    HW132606   0.526   1.567   0.597 -2.4980 -0.3013 -0.1494
 6990SOL    HW232607   0.587   1.625   0.718 -3.0238  0.0051  1.8988
 6991SOL     OW32608   0.833   3.034   7.162 -0.0113 -0.3251  0.3529
 6991SOL    HW132609   0.841   3.125   7.135  3.6285 -0.0799  2.2273
 6991SOL    HW232610   0.912   3.015   7.212 -0.6065  1.7901  2.0934
 6992SOL     OW32611   3.932   3.372  12.175 -0.4974 -0.5218 -0.4311
 6992SOL    HW132612   3.889   3.418  12.247  0.3928 -0.7521  0.2501
 6992SOL    HW232613   3.993   3.328  12.235  0.9423  1.2859 -0.5658
 6993SOL     OW32614   1.095   1.165  16.447  0.3503  0.3746 -0.6564
 6993SOL    HW132615   1.057   1.232  16.391  1.4013  1.1221 -0.4959
 6993SOL    HW232616   1.176   1.216  16.459  0.9857 -0.9901  0.8859
 6994SOL     OW32617   1.229   2.776  16.756 -0.0202  0.0945 -0.1967
 6994SOL    HW132618   1.262   2.864  16.777  0.2065  0.0511 -0.3672
 6994SOL    HW232619   1.248   2.714  16.826 -2.1222 -0.5059 -0.1800
 6995SOL     OW32620   1.280   4.498   7.205  0.2245  0.2857 -0.5214
 6995SOL    HW132621   1.360   4.520   7.254 -0.4436 -1.0481  1.1320
 6995SOL    HW232622   1.318   4.475   7.121  2.3954  0.1135  0.4952
 6996SOL     OW32623   2.106   2.035   6.617 -0.3124  0.6324  0.2504
 6996SOL    HW132624   2.058   2.114   6.645 -3.4517 -1.0247 -0.4027
 6996SOL    HW232625   2.092   2.035   6.522 -2.4613 -1.9791  0.5710
 6997SOL     OW32626   1.457   3.189  17.183  0.1683 -0.3145  0.8596
 6997SOL    HW132627   1.409   3.263  17.219  0.0267  0.8396 -1.7201
 6997SOL    HW232628   1.393   3.161  17.118  0.1717  0.8202  0.3802
 6998SOL     OW32629   3.264   2.464   3.096 -0.4276 -0.2636  0.0736
 6998SOL    HW132630   3.267   2.481   3.190  1.3804 -1.2523  0.1887
 6998SOL    HW232631   3.172   2.448   3.075 -0.8233 -0.6819  2.1391
 6999SOL     OW32632   1.195   2.530  15.285  0.7775 -0.1885  0.2838
 6999SOL    HW132633   1.130   2.598  15.270  1.9274  0.8395  0.0257
 6999SOL    HW232634   1.253   2.575  15.347  1.4448 -0.2122 -0.3202
 7000SOL     OW32635   2.961   0.364   6.598 -0.1047  0.6277 -0.5448
 7000SOL    HW132636   2.918   0.285   6.631  0.4442  0.6669  0.2504
 7000SOL    HW232637   3.009   0.324   6.526  0.0574  1.1930 -0.7502
 7001SOL     OW32638   1.113   4.100   3.840  0.3427  1.2218 -0.5294
 7001SOL    HW132639   1.126   4.022   3.895  0.8820  0.7937 -1.2696
 7001SOL    HW232640   1.188   4.076   3.785 -0.1131 -0.1532 -0.5516
 7002SOL     OW32641   3.859   4.268  14.034  0.2253  0.1064 -0.7103
 7002SOL    HW132642   3.914   4.295  14.108 -1.3569 -4.2272  2.0592
 7002SOL    HW232643   3.773   4.297  14.063 -0.1605 -1.1291 -0.6299
 7003SOL     OW32644   3.266   0.615  17.473  0.2649 -0.2321 -0.2873
 7003SOL    HW132645   3.223   0.630  17.558 -1.0689  1.5664 -1.2828
 7003SOL    HW232646   3.236   0.686  17.417 -2.3619 -0.6783  0.5502
 7004SOL     OW32647   0.353   2.734   2.558 -0.2485  0.5816 -0.3407
 7004SOL    HW132648   0.441   2.712   2.528 -0.1471 -0.4038  0.7073
 7004SOL    HW232649   0.360   2.830   2.559  3.2711  0.2884  3.7273
 7005SOL     OW32650   3.579   4.078   6.841 -0.2961 -0.3062  0.2163
 7005SOL    HW132651   3.590   4.082   6.936  0.9362  1.4791 -0.0055
 7005SOL    HW232652   3.484   4.083   6.834 -0.4043 -0.5634  1.5386
 7006SOL     OW32653   1.018   4.019   5.851 -0.1845 -0.1868 -0.3282
 7006SOL    HW132654   1.005   4.114   5.850  0.4836 -0.0928  0.2590
 7006SOL    HW232655   1.103   4.024   5.894 -0.3005 -3.0729  0.2647
 7007SOL     OW32656   2.017   1.155  11.033  0.4100  0.0052 -0.2445
 7007SOL    HW132657   2.071   1.230  11.056  0.6575 -0.3762  0.4069
 7007SOL    HW232658   2.022   1.102  11.113  0.9656 -0.6742 -0.7306
 7008SOL     OW32659   1.967   3.160   5.028 -0.0028 -0.0369 -0.7687
 7008SOL    HW132660   1.873   3.164   5.011 -0.0110  1.9163 -0.2593
 7008SOL    HW232661   1.977   3.250   5.058 -2.0783 -0.0033 -0.1931
 7009SOL     OW32662   2.081   4.081   2.950  0.1399 -0.3932 -0.0814
 7009SOL    HW132663   2.164   4.076   2.996 -0.5602 -1.5179  1.0722
 7009SOL    HW232664   2.040   4.001   2.983 -0.8597  0.7781  1.5508
 7010SOL     OW32665   1.249   4.343   3.615  0.0443  0.3669 -0.0616
 7010SOL    HW132666   1.246   4.287   3.537 -1.1120  2.7460 -1.7244
 7010SOL    HW232667   1.342   4.350   3.635 -0.1249  1.3722  0.3306
 7011SOL     OW32668   2.729   0.041   3.929  0.5739  0.1909 -0.4715
 7011SOL    HW132669   2.646   0.008   3.963 -1.3104  1.7205 -3.5782
 7011SOL    HW232670   2.724   0.137   3.931  0.2990  0.1787 -0.5486
 7012SOL     OW32671   0.426   4.459   6.716  0.7044 -0.1580 -0.2261
 7012SOL    HW132672   0.342   4.478   6.674  0.5934  0.4418  0.2577
 7012SOL    HW232673   0.478   4.417   6.648  0.1235 -1.0534 -0.1144
 7013SOL     OW32674   0.558   3.502   5.711  0.2478 -0.1674 -0.1736
 7013SOL    HW132675   0.651   3.480   5.722  0.3341 -0.8565 -2.2743
 7013SOL    HW232676   0.558   3.582   5.659  1.9134  0.7792  1.2877
 7014SOL     OW32677   4.076   3.250   2.839 -0.0736 -0.0539 -0.1289
 7014SOL    HW132678   4.123   3.212   2.912 -2.4288  0.7362  1.7849
 7014SOL    HW232679   4.088   3.182   2.772 -0.8991  0.3297 -0.6698
 7015SOL     OW32680   3.524   4.295   1.336 -0.4306 -1.1261 -0.3165
 7015SOL    HW132681   3.446   4.260   1.378 -1.0584 -1.6154 -1.8690
 7015SOL    HW232682   3.588   4.285   1.406 -0.0764 -0.0646 -0.4846
 7016SOL     OW32683   3.294   0.268  14.063  0.4201 -0.4440 -0.1762
 7016SOL    HW132684   3.256   0.312  14.139 -1.3712 -0.8466 -0.8444
 7016SOL    HW232685   3.299   0.342  14.003 -1.3648 -0.1306  0.0611
 7017SOL     OW32686   4.470   4.449   8.195  0.8158  0.7913 -0.2528
 7017SOL    HW132687   4.513   4.441   8.110  1.2530  1.0662 -0.0595
 7017SOL    HW232688   4.395   4.392   8.182  0.6513  0.7126  1.0108
 7018SOL     OW32689   2.726   4.217  11.384 -0.1137  0.4202 -0.1348
 7018SOL    HW132690   2.764   4.251  11.465  0.7994 -2.9942  0.8828
 7018SOL    HW232691   2.754   4.285  11.324 -1.0476 -0.2318 -1.3145
 7019SOL     OW32692   0.479   1.212   4.541  0.1373 -0.1753  0.4174
 7019SOL    HW132693   0.467   1.249   4.454 -1.0791  0.3189  0.7904
 7019SOL    HW232694   0.468   1.119   4.522 -0.0338 -0.1978  0.6193
 7020SOL     OW32695   4.179   1.890  17.080  0.1308  0.3446  0.5425
 7020SOL    HW132696   4.218   1.947  17.146 -1.4005 -0.2840  1.9973
 7020SOL    HW232697   4.208   1.942  17.005 -0.5181  0.1748  0.1677
 7021SOL     OW32698   3.132   2.258   5.946 -0.0604 -0.8278  0.6620
 7021SOL    HW132699   3.189   2.187   5.974 -1.8436 -1.9269  1.5037
 7021SOL    HW232700   3.062   2.241   6.010 -0.8382 -0.7430 -0.1620
 7022SOL     OW32701   1.652   2.091  10.473  0.2056  0.2308  0.9250
 7022SOL    HW132702   1.598   2.115  10.548  0.0711 -1.3275  1.3171
 7022SOL    HW232703   1.737   2.122  10.504  1.9419 -0.5574 -3.0616
 7023SOL     OW32704   4.439   2.329   8.093 -0.0896  0.4266 -0.0605
 7023SOL    HW132705   4.368   2.391   8.084 -2.8238 -2.6078  0.5582
 7023SOL    HW232706   4.395   2.247   8.114  0.0102  0.2159 -0.6736
 7024SOL     OW32707   3.596   2.255   2.253  0.0094  0.1154  0.0382
 7024SOL    HW132708   3.642   2.322   2.202  0.1411 -0.4216 -0.5421
 7024SOL    HW232709   3.509   2.252   2.215  0.3024  0.1184 -0.6245
 7025SOL     OW32710   4.550   0.836   3.889  0.5326  0.1162  0.2715
 7025SOL    HW132711   4.524   0.895   3.960  0.7356  3.0612 -2.0630
 7025SOL    HW232712   4.507   0.872   3.811  0.1867 -1.5588 -0.2985
 7026SOL     OW32713   1.496   4.131   6.011  0.0130 -0.2764  0.3622
 7026SOL    HW132714   1.579   4.117   5.964 -1.2035 -1.2331 -1.5366
 7026SOL    HW232715   1.528   4.153   6.098 -1.4998 -3.9516  1.8648
 7027SOL     OW32716   2.438   3.050   7.526  0.6220  0.5217 -0.3525
 7027SOL    HW132717   2.367   3.111   7.506 -0.5483 -1.0458 -1.0409
 7027SOL    HW232718   2.392   2.976   7.485  1.6419  0.2130 -0.9346
 7028SOL     OW32719   2.881   2.668   5.462 -0.2207  0.3190  0.1393
 7028SOL    HW132720   2.874   2.763   5.468  0.2832  0.2793  1.3503
 7028SOL    HW232721   2.971   2.660   5.494 -0.5827  0.9387  1.3318
 7029SOL     OW32722   2.356   2.241   7.749 -0.2452  0.6342 -0.1155
 7029SOL    HW132723   2.262   2.256   7.737 -0.0875  0.0736 -2.0711
 7029SOL    HW232724   2.354   2.145   7.746 -1.0450  0.5430  3.4483
 7030SOL     OW32725   0.867   1.257   4.854 -0.4522 -0.2697 -0.4108
 7030SOL    HW132726   0.865   1.341   4.900 -3.9628 -0.8116  0.4315
 7030SOL    HW232727   0.802   1.208   4.905  0.2718 -1.2299 -0.4086
 7031SOL     OW32728   1.089   1.849   9.455  0.3201 -0.1283  0.1283
 7031SOL    HW132729   1.078   1.940   9.483  0.1940 -0.6961  1.9562
 7031SOL    HW232730   1.024   1.805   9.510  1.1382 -2.0124 -0.3858
 7032SOL     OW32731   3.926   0.851  14.144 -0.5683  0.7124  0.0409
 7032SOL    HW132732   3.937   0.927  14.088  1.4078 -0.7163 -1.5133
 7032SOL    HW232733   3.949   0.872  14.235  0.6238  1.7208 -0.5064
 7033SOL     OW32734   0.915   3.019   9.903  0.0180  0.7762  0.6773
 7033SOL    HW132735   0.871   3.053   9.825 -0.0689 -1.4059 -0.2119
 7033SOL    HW232736   0.872   3.081   9.962 -0.0396  1.1442  0.2466
 7034SOL     OW32737   1.166   0.149  12.612  0.2645  0.1139  0.0442
 7034SOL    HW132738   1.184   0.089  12.684 -0.5709 -0.3319 -0.1289
 7034SOL    HW232739   1.197   0.113  12.529  1.2505  0.3231  0.3146
 7035SOL     OW32740   2.110   4.663   8.418 -0.1497  0.2062 -0.0241
 7035SOL    HW132741   2.063   4.727   8.471  0.6889  0.8065  0.0080
 7035SOL    HW232742   2.184   4.715   8.386  0.7220 -1.1422 -0.1843
 7036SOL     OW32743   0.496   0.366   6.353 -0.1012 -0.1723 -0.1855
 7036SOL    HW132744   0.492   0.458   6.327  1.0905 -0.2427 -0.6199
 7036SOL    HW232745   0.556   0.342   6.282  0.4074 -0.1647  0.2496
 7037SOL     OW32746   2.842   0.355   8.860  0.3644  0.5346 -0.6163
 7037SOL    HW132747   2.799   0.382   8.779 -3.4279 -0.3527  1.1244
 7037SOL    HW232748   2.808   0.425   8.916 -1.9328 -2.2632  1.4914
 7038SOL     OW32749   2.745   1.152   5.899 -0.3784 -0.2749  0.2518
 7038SOL    HW132750   2.827   1.200   5.884 -0.5258 -0.4158 -0.9971
 7038SOL    HW232751   2.687   1.228   5.905  0.6387  0.5412 -0.1245
 7039SOL     OW32752   2.437   0.253  13.926  0.2485 -0.3637  0.0847
 7039SOL    HW132753   2.387   0.314  13.872  1.6671  2.5354  2.0212
 7039SOL    HW232754   2.440   0.312  14.002  2.8041 -0.4843  0.0895
 7040SOL     OW32755   2.277   3.468   3.683 -0.1200  0.2438 -0.5006
 7040SOL    HW132756   2.331   3.390   3.675  0.5475  0.7259 -0.6522
 7040SOL    HW232757   2.187   3.439   3.670 -0.1334  0.2710 -0.4696
 7041SOL     OW32758   0.846   2.676   8.835 -0.7982 -0.2007 -0.6992
 7041SOL    HW132759   0.833   2.738   8.907  0.0952 -0.4875 -0.2816
 7041SOL    HW232760   0.760   2.689   8.796 -0.5966  1.8695 -0.4549
 7042SOL     OW32761   1.246   0.014   2.239 -0.2701 -0.4383  0.1276
 7042SOL    HW132762   1.268   0.105   2.253 -3.8958  0.7281 -1.6799
 7042SOL    HW232763   1.171   0.036   2.184 -0.9143  1.6844  1.8537
 7043SOL     OW32764   4.381   3.078   5.097 -0.3878 -0.3239  0.1261
 7043SOL    HW132765   4.425   3.162   5.107 -2.0323  0.3281  1.8596
 7043SOL    HW232766   4.338   3.073   5.182 -1.5828  0.0552 -0.4541
 7044SOL     OW32767   1.148   2.763   5.715 -0.1915 -0.2352 -0.3269
 7044SOL    HW132768   1.167   2.669   5.710 -1.6315 -0.5730  0.6133
 7044SOL    HW232769   1.127   2.785   5.806 -1.1535 -3.7961  0.2902
 7045SOL     OW32770   2.958   0.051   8.956  0.1151 -0.2473 -0.3296
 7045SOL    HW132771   3.011   0.008   8.889  0.5217  0.5851 -0.5442
 7045SOL    HW232772   2.910   0.116   8.905  1.4214 -0.2384 -1.5494
 7046SOL     OW32773   0.663   4.612   4.373  0.3798  0.1216 -0.4296
 7046SOL    HW132774   0.640   4.521   4.353  2.5777 -0.3978 -0.6905
 7046SOL    HW232775   0.731   4.627   4.306  1.0925 -1.7149 -0.1095
 7047SOL     OW32776   3.941   0.450  12.500  0.1391 -0.3900  0.7267
 7047SOL    HW132777   3.947   0.405  12.416 -0.5178 -0.4207  0.6957
 7047SOL    HW232778   3.848   0.475  12.498  0.0462 -0.9065 -1.5023
 7048SOL     OW32779   1.763   3.810  13.884 -0.2705 -0.0700  0.0371
 7048SOL    HW132780   1.844   3.807  13.934 -0.2618 -0.1736  0.0163
 7048SOL    HW232781   1.698   3.777  13.946  0.1366  0.2376  0.6232
 7049SOL     OW32782   0.698   0.692   7.952  0.2164 -0.3266  0.4139
 7049SOL    HW132783   0.729   0.691   8.043  0.7589  0.6820  0.2365
 7049SOL    HW232784   0.643   0.614   7.956  1.2069 -0.9735  1.6737
 7050SOL     OW32785   4.708   2.086   7.423 -0.6551 -0.7578 -0.2045
 7050SOL    HW132786   4.685   1.995   7.405  2.3043 -1.6328  0.4150
 7050SOL    HW232787   4.640   2.123   7.367 -1.6502  0.4283  1.7613
 7051SOL     OW32788   1.763   2.810   9.692 -0.0180 -0.0718  0.0451
 7051SOL    HW132789   1.741   2.799   9.785 -0.1416 -2.7125 -0.2735
 7051SOL    HW232790   1.680   2.822   9.646  0.0571  1.3273  0.2944
 7052SOL     OW32791   4.429   0.360   9.158 -0.2854  0.6380  0.3553
 7052SOL    HW132792   4.459   0.363   9.249 -3.1573  0.4067  1.3357
 7052SOL    HW232793   4.372   0.283   9.151  0.3006  0.3751 -1.3161
 7053SOL     OW32794   3.459   0.871   1.048 -0.5634 -0.6480 -0.4322
 7053SOL    HW132795   3.378   0.832   1.081 -1.4949  0.7000 -1.1494
 7053SOL    HW232796   3.512   0.873   1.127 -1.0439 -1.5262 -0.0797
 7054SOL     OW32797   2.563   0.659  15.148  0.0437 -0.4168 -0.1736
 7054SOL    HW132798   2.581   0.748  15.118  0.4329  0.0824  1.5131
 7054SOL    HW232799   2.644   0.615  15.121 -1.0064 -2.4611  0.0837
 7055SOL     OW32800   4.274   1.596  17.186  0.6504  0.1575  0.1812
 7055SOL    HW132801   4.233   1.680  17.160  0.3224 -0.7319 -2.2232
 7055SOL    HW232802   4.294   1.609  17.278 -0.9088  1.4264  0.3563
 7056SOL     OW32803   3.838   3.178   4.634 -0.1305 -0.5822  0.0356
 7056SOL    HW132804   3.855   3.210   4.545  0.1715  2.2836  1.1318
 7056SOL    HW232805   3.745   3.158   4.641 -0.1037 -0.6519  0.1724
 7057SOL     OW32806   3.085   4.489   7.009 -0.2158 -0.2730 -0.0165
 7057SOL    HW132807   3.052   4.560   6.954 -1.0957  0.7332  1.8080
 7057SOL    HW232808   3.089   4.422   6.941  0.9942  0.5924 -0.8060
 7058SOL     OW32809   2.616   1.622  16.763 -0.0028  0.5636  0.0824
 7058SOL    HW132810   2.663   1.565  16.703  0.0425  0.7395 -0.0484
 7058SOL    HW232811   2.527   1.597  16.739  0.1760  2.3399 -2.3336
 7059SOL     OW32812   1.747   3.716  14.898  0.0733  0.0558  0.4162
 7059SOL    HW132813   1.721   3.745  14.986 -1.9768  1.2132 -0.5694
 7059SOL    HW232814   1.662   3.709  14.854 -0.8390  0.6551  2.0777
 7060SOL     OW32815   3.218   4.020  17.438  0.5808  0.5690  0.5959
 7060SOL    HW132816   3.160   3.964  17.489  1.5675 -0.7657  0.2545
 7060SOL    HW232817   3.268   3.959  17.384  0.1881  0.6295  0.1679
 7061SOL     OW32818   1.107   1.427   9.594 -0.0918  0.1208  0.2663
 7061SOL    HW132819   1.202   1.428   9.584 -0.2397  1.1383 -1.1152
 7061SOL    HW232820   1.096   1.408   9.687  1.1849 -1.8442  0.0193
 7062SOL     OW32821   1.527   1.305   8.502 -0.2858 -0.0400  0.3108
 7062SOL    HW132822   1.498   1.393   8.480  0.3188 -0.0471 -0.5271
 7062SOL    HW232823   1.623   1.313   8.497 -0.1207 -1.9149  0.5546
 7063SOL     OW32824   4.734   1.299   2.247 -0.2820 -0.6016  0.1205
 7063SOL    HW132825   0.049   1.365   2.293 -1.4276  0.3749  0.0115
 7063SOL    HW232826   4.681   1.349   2.185  0.2496  1.1489  1.0822
 7064SOL     OW32827   2.582   3.486   3.762  0.7858  0.0314  0.4257
 7064SOL    HW132828   2.519   3.507   3.693 -0.0307 -0.2528  1.0891
 7064SOL    HW232829   2.654   3.541   3.729 -0.0851  1.0106  0.1456
 7065SOL     OW32830   3.130   2.201   5.681  0.0738  0.1806  0.4598
 7065SOL    HW132831   3.129   2.239   5.770  1.7220  2.2387 -0.4099
 7065SOL    HW232832   3.116   2.108   5.697  0.2700  0.7203  3.8906
 7066SOL     OW32833   1.972   3.593  10.014 -0.2884 -0.2763  0.2648
 7066SOL    HW132834   1.947   3.629  10.099 -0.1792  0.7789 -0.1538
 7066SOL    HW232835   1.913   3.519  10.003  1.3975 -1.7366  1.0877
 7067SOL     OW32836   4.528   2.854   2.065  0.0003  0.1707 -0.1471
 7067SOL    HW132837   4.576   2.788   2.114  1.3040 -0.3456 -2.1022
 7067SOL    HW232838   4.445   2.815   2.091  1.4970 -2.1609  1.0582
 7068SOL     OW32839   3.028   0.002   6.113 -0.0321 -0.3242  0.4979
 7068SOL    HW132840   2.960   0.062   6.142  0.2386 -0.6041  1.7125
 7068SOL    HW232841   3.012   4.737   6.019 -1.7957  0.7732  0.7691
 7069SOL     OW32842   1.457   4.089   2.626  0.0940  0.6362 -0.5177
 7069SOL    HW132843   1.515   4.062   2.555 -0.9312  0.6956 -1.3784
 7069SOL    HW232844   1.529   4.120   2.680 -0.0968 -0.8938  0.6182
 7070SOL     OW32845   3.611   1.046   1.773 -0.3906  0.6463  0.1322
 7070SOL    HW132846   3.536   1.013   1.723 -0.0362  0.8852 -0.5729
 7070SOL    HW232847   3.666   1.098   1.714 -0.1836  0.6447  0.3259
 7071SOL     OW32848   0.012   2.480   3.116 -0.5585 -0.3134  0.4122
 7071SOL    HW132849   0.037   2.565   3.080  1.8238 -0.9286  0.6568
 7071SOL    HW232850   4.687   2.453   3.049 -1.5610  1.1658  0.7210
 7072SOL     OW32851   1.941   0.474   3.916  0.1526 -0.9767 -0.3205
 7072SOL    HW132852   1.951   0.539   3.985 -1.0306  0.4384 -1.4920
 7072SOL    HW232853   1.991   0.505   3.841 -0.0120  0.2790  0.1021
 7073SOL     OW32854   3.340   2.650   7.266 -0.4108 -0.0744  0.2616
 7073SOL    HW132855   3.385   2.573   7.300 -3.5100  0.0033  4.5042
 7073SOL    HW232856   3.425   2.695   7.259 -0.0868 -0.7135  0.1336
 7074SOL     OW32857   2.241   4.616   2.855 -0.0301 -0.2577 -0.7155
 7074SOL    HW132858   2.199   4.550   2.911  0.1937  0.3802  0.2095
 7074SOL    HW232859   2.193   4.621   2.773 -1.9470 -0.2122  0.4067
 7075SOL     OW32860   2.476   3.270   2.834 -0.1226 -0.3840 -0.3750
 7075SOL    HW132861   2.544   3.228   2.886  0.4493  0.7824 -0.1626
 7075SOL    HW232862   2.498   3.361   2.856 -0.3365 -0.0910 -1.3510
 7076SOL     OW32863   3.741   4.067   2.767  0.2953  0.2184  0.2638
 7076SOL    HW132864   3.793   4.144   2.744 -2.3909  1.8386 -0.3601
 7076SOL    HW232865   3.691   4.099   2.842 -0.7686 -3.7952  1.2778
 7077SOL     OW32866   3.603   0.044   0.841  0.8718 -0.1289  0.1910
 7077SOL    HW132867   3.567   0.121   0.797  1.3952  1.1134  1.9531
 7077SOL    HW232868   3.670   0.021   0.776 -0.6752  0.2927 -1.5590
 7078SOL     OW32869   1.459   0.427  15.879  0.0610  0.6065 -0.1786
 7078SOL    HW132870   1.375   0.382  15.889  1.2931 -1.6610  0.0152
 7078SOL    HW232871   1.434   0.517  15.896  0.1365  0.8473 -1.3467
 7079SOL     OW32872   3.334   4.217   1.821  0.3907 -0.3538 -0.6708
 7079SOL    HW132873   3.405   4.165   1.860  0.3236  0.9950  1.2508
 7079SOL    HW232874   3.260   4.173   1.861 -1.0246  0.2799 -2.6239
 7080SOL     OW32875   2.531   1.655   9.656 -0.0320  0.4828  0.3559
 7080SOL    HW132876   2.556   1.710   9.582 -0.1992  0.1010  0.0155
 7080SOL    HW232877   2.607   1.678   9.711  0.8777 -0.8082 -0.3558
 7081SOL     OW32878   0.877   3.615   8.424 -0.1396 -0.3865  0.1856
 7081SOL    HW132879   0.829   3.668   8.488 -1.8735 -1.3094 -0.3387
 7081SOL    HW232880   0.843   3.526   8.438 -0.3882 -0.6032 -1.8334
 7082SOL     OW32881   3.012   0.306  16.124 -0.4413  0.7528  0.3731
 7082SOL    HW132882   3.023   0.243  16.052 -1.2194 -0.0047  0.9183
 7082SOL    HW232883   3.105   0.331  16.129  0.6551 -3.3473  0.6752
 7083SOL     OW32884   0.966   2.054  15.435  0.4219  0.0325  0.7313
 7083SOL    HW132885   1.009   2.026  15.515 -0.3385  2.3408  1.9621
 7083SOL    HW232886   1.033   2.120  15.414 -0.9041  0.9421 -0.7227
 7084SOL     OW32887   2.017   1.260   1.687  0.7691  0.4204  0.1824
 7084SOL    HW132888   1.979   1.245   1.774 -0.1336  1.7229  0.0177
 7084SOL    HW232889   2.027   1.355   1.682  1.5156  0.4151  1.4247
 7085SOL     OW32890   1.691   4.643   3.874  0.0434 -0.3055  0.3737
 7085SOL    HW132891   1.757   4.616   3.809  0.6599  0.9333  0.4792
 7085SOL    HW232892   1.659   4.727   3.841  0.2653  0.0934  1.1933
 7086SOL     OW32893   4.714   1.826   8.325 -0.2429 -0.1690  0.0127
 7086SOL    HW132894   0.011   1.882   8.255 -2.3559  0.8778 -0.1751
 7086SOL    HW232895   4.667   1.765   8.267 -0.0075  1.9141 -2.3802
 7087SOL     OW32896   0.004   1.195   4.162  0.2025 -0.2428  0.3543
 7087SOL    HW132897   4.687   1.193   4.241 -0.1502  0.2419  0.1201
 7087SOL    HW232898   4.734   1.286   4.136  0.1630 -0.5752 -0.7969
 7088SOL     OW32899   3.206   0.257   3.092  0.1777  0.3889 -0.4648
 7088SOL    HW132900   3.209   0.336   3.145 -1.6694 -0.4087  0.8482
 7088SOL    HW232901   3.183   0.306   3.013 -2.7337  0.0313  0.1792
 7089SOL     OW32902   1.640   1.675   4.459  0.5364  0.2234  0.1124
 7089SOL    HW132903   1.704   1.720   4.514  0.6800 -0.1539  0.2557
 7089SOL    HW232904   1.590   1.751   4.430 -0.4503 -0.6251 -0.4146
 7090SOL     OW32905   0.743   1.721   5.924  0.3791  0.8792 -0.0701
 7090SOL    HW132906   0.700   1.658   5.867 -0.1896 -0.2604  1.6296
 7090SOL    HW232907   0.699   1.708   6.008  1.9755 -0.0652  0.6093
 7091SOL     OW32908   2.796   4.238  16.158 -0.3481 -0.1163  0.2413
 7091SOL    HW132909   2.746   4.308  16.118 -1.7789 -0.6977  0.9899
 7091SOL    HW232910   2.726   4.173  16.146  0.9434 -1.1839 -1.5052
 7092SOL     OW32911   0.129   2.763   9.534  0.4103 -0.3515  0.4765
 7092SOL    HW132912   0.079   2.765   9.616 -2.3211  1.9174 -1.2264
 7092SOL    HW232913   0.107   2.850   9.499  1.2840 -0.7674 -1.1083
 7093SOL     OW32914   3.810   3.652   3.291  0.0832 -0.3956  0.3295
 7093SOL    HW132915   3.891   3.613   3.323  1.7791  0.3808 -3.1267
 7093SOL    HW232916   3.845   3.725   3.241  1.1164 -0.7763  0.4968
 7094SOL     OW32917   1.707   4.531   5.901 -1.1073 -0.0173 -0.7621
 7094SOL    HW132918   1.756   4.449   5.912 -2.4414 -0.3025  3.1710
 7094SOL    HW232919   1.765   4.595   5.941 -2.9057  0.5691  0.9240
 7095SOL     OW32920   2.949   0.769   0.469 -0.2821 -0.4496 -0.2023
 7095SOL    HW132921   2.941   0.851   0.518  0.1489 -0.1460 -0.6336
 7095SOL    HW232922   3.044   0.768   0.462 -0.2405  0.0950  0.3444
 7096SOL     OW32923   4.599   4.432   3.693 -0.9090  0.2857 -0.4537
 7096SOL    HW132924   4.507   4.444   3.716 -0.7903 -0.3588  0.3562
 7096SOL    HW232925   4.625   4.413   3.783  2.0505 -0.6500 -1.4930
 7097SOL     OW32926   3.540   1.871   8.646  0.0522  0.6726 -0.0491
 7097SOL    HW132927   3.548   1.859   8.551 -3.8752 -2.1616 -0.0247
 7097SOL    HW232928   3.447   1.852   8.659  0.5345 -2.2886 -0.9191
 7098SOL     OW32929   4.144   2.912   7.948  0.0257  0.4985 -0.1912
 7098SOL    HW132930   4.137   2.928   7.854  0.6903 -4.1593 -1.0560
 7098SOL    HW232931   4.192   2.829   7.949  0.5167  0.7702 -1.6041
 7099SOL     OW32932   3.400   4.275   8.686  0.1497 -0.2636 -0.1825
 7099SOL    HW132933   3.481   4.250   8.642  1.4537 -1.8725  3.1411
 7099SOL    HW232934   3.376   4.193   8.729  0.4339 -0.0199  0.4332
 7100SOL     OW32935   0.483   3.048   5.164 -0.0157  0.0117  0.5324
 7100SOL    HW132936   0.571   3.010   5.172 -0.4804 -1.0834  0.4114
 7100SOL    HW232937   0.506   3.141   5.158 -1.7663  0.5860  2.6774
 7101SOL     OW32938   3.687   1.857  13.310  0.4803 -0.5038 -0.4624
 7101SOL    HW132939   3.632   1.870  13.388  0.9007  2.0978 -0.6034
 7101SOL    HW232940   3.759   1.805  13.345  0.3646  2.0458  3.5920
 7102SOL     OW32941   0.332   4.213   7.799  0.7652 -0.1983  0.1788
 7102SOL    HW132942   0.323   4.297   7.754 -2.0987 -0.7908 -0.3710
 7102SOL    HW232943   0.366   4.157   7.730 -0.1418  0.3824 -0.7325
 7103SOL     OW32944   2.133   1.721  12.603  0.6947  0.3065 -0.4617
 7103SOL    HW132945   2.045   1.752  12.583  0.6217  0.3902 -0.0106
 7103SOL    HW232946   2.150   1.778  12.678 -0.6364  1.8007 -1.3096
 7104SOL     OW32947   0.413   1.416   4.721 -0.1920  0.0143 -0.1894
 7104SOL    HW132948   0.455   1.357   4.659  2.1676  2.0682 -0.5429
 7104SOL    HW232949   0.421   1.364   4.801 -1.0619  1.6925  1.0075
 7105SOL     OW32950   2.037   1.673   2.374 -0.3087  0.2822 -0.2951
 7105SOL    HW132951   2.117   1.692   2.424  0.9864  1.1340 -2.6713
 7105SOL    HW232952   2.014   1.762   2.345 -1.3517 -0.7363 -2.5538
 7106SOL     OW32953   1.325   1.770  12.572 -0.3763  0.0870  0.0337
 7106SOL    HW132954   1.300   1.678  12.562  2.2253 -0.4116 -1.7136
 7106SOL    HW232955   1.356   1.792  12.485  0.6013  0.7709  0.5532
 7107SOL     OW32956   1.180   2.648   6.115 -0.4964  0.2295 -0.8150
 7107SOL    HW132957   1.190   2.564   6.071 -0.5314 -0.7403  1.0323
 7107SOL    HW232958   1.086   2.666   6.108 -0.2285  1.6383 -0.9038
 7108SOL     OW32959   0.419   3.691   7.835  0.3211  0.4989  0.0159
 7108SOL    HW132960   0.473   3.616   7.862  2.7979  2.2097 -0.2189
 7108SOL    HW232961   0.475   3.762   7.805  0.9555  0.2804  0.6742
 7109SOL     OW32962   2.705   3.404  12.055 -0.0356  0.0438 -0.1562
 7109SOL    HW132963   2.643   3.331  12.054  0.8179 -0.7244  2.2402
 7109SOL    HW232964   2.680   3.449  11.974  1.7152 -0.8941 -1.2078
 7110SOL     OW32965   3.183   1.711   6.845 -0.4896 -0.3300 -0.2233
 7110SOL    HW132966   3.095   1.728   6.878 -0.7629 -0.5467 -0.8307
 7110SOL    HW232967   3.223   1.681   6.927  3.7547  0.1120 -2.1216
 7111SOL     OW32968   0.557   3.002  10.195  0.1870  0.5113 -0.2851
 7111SOL    HW132969   0.495   3.060  10.238 -0.5811 -0.9036  0.5120
 7111SOL    HW232970   0.557   2.921  10.246  0.5101  0.6388 -0.0813
 7112SOL     OW32971   0.960   2.572   2.163 -0.1652 -0.3143  0.4457
 7112SOL    HW132972   0.877   2.555   2.208 -0.8118  1.7382 -0.0051
 7112SOL    HW232973   1.007   2.489   2.158  1.8320  0.9689 -1.6441
 7113SOL     OW32974   2.864   2.643   4.383 -0.3731 -0.0698  0.1368
 7113SOL    HW132975   2.874   2.685   4.468  1.7837  0.0165 -0.1630
 7113SOL    HW232976   2.872   2.712   4.317 -2.6112 -1.7537 -1.9381
 7114SOL     OW32977   0.499   0.915   1.798  0.4985 -0.4880 -0.5217
 7114SOL    HW132978   0.565   0.856   1.761  1.3787  1.0386 -1.3885
 7114SOL    HW232979   0.490   0.886   1.889 -1.6632  0.8257 -0.3109
 7115SOL     OW32980   2.061   0.578   3.665  0.0009  0.0150 -0.0950
 7115SOL    HW132981   1.997   0.567   3.595  2.0946 -0.2304 -1.9959
 7115SOL    HW232982   2.139   0.534   3.631  1.2461  0.1835  2.5438
 7116SOL     OW32983   0.902   4.445   6.911  0.2158 -0.0503 -0.3671
 7116SOL    HW132984   0.808   4.450   6.927 -0.3260  0.7787 -3.7661
 7116SOL    HW232985   0.938   4.489   6.988  1.1027 -1.6794  0.1607
 7117SOL     OW32986   1.525   4.384   4.241 -0.9135 -0.0526 -0.7923
 7117SOL    HW132987   1.461   4.447   4.275  0.6309  1.8933 -1.5112
 7117SOL    HW232988   1.473   4.349   4.169 -0.5538  2.0319 -2.0595
 7118SOL     OW32989   1.334   4.147   3.398  0.3186  0.2695  0.1155
 7118SOL    HW132990   1.330   4.053   3.417 -1.2539  0.2348 -0.4237
 7118SOL    HW232991   1.412   4.170   3.449  0.7003 -1.4311  0.3045
 7119SOL     OW32992   4.707   1.245   4.608  0.5358  0.0177  0.4129
 7119SOL    HW132993   4.727   1.288   4.691 -3.4961  1.8138  0.4379
 7119SOL    HW232994   4.716   1.151   4.626  1.2810  0.0430  0.1549
 7120SOL     OW32995   2.501   2.462   7.611 -0.2963 -0.2062 -0.4282
 7120SOL    HW132996   2.442   2.386   7.613 -0.7061  0.1303  0.1584
 7120SOL    HW232997   2.579   2.423   7.650 -1.8099  1.0620  3.8930
 7121SOL     OW32998   2.449   0.965  14.383  0.3282  0.6709  0.3855
 7121SOL    HW132999   2.457   0.937  14.475  0.7394 -0.3927  0.0250
 7121SOL    HW233000   2.493   1.049  14.386  0.9001  0.3693  0.4730
 7122SOL     OW33001   2.450   4.381   4.859  1.0481  0.2728 -0.0969
 7122SOL    HW133002   2.398   4.461   4.873  2.1384  0.6938  1.5204
 7122SOL    HW233003   2.536   4.401   4.896  0.0316  0.4234  2.1314
 7123SOL     OW33004   1.164   2.394   6.013 -0.4421  0.4007 -0.1355
 7123SOL    HW133005   1.097   2.368   6.076  2.1960  0.2349  2.6220
 7123SOL    HW233006   1.209   2.311   5.997  0.3648  0.7402  0.3478
 7124SOL     OW33007   2.479   0.274   9.799 -0.3194  0.2950 -0.2405
 7124SOL    HW133008   2.409   0.314   9.850 -0.2593 -0.5580  0.5076
 7124SOL    HW233009   2.547   0.284   9.865 -1.9785  0.0559  1.5010
 7125SOL     OW33010   0.037   1.129   8.466  0.3359  0.5794 -0.3280
 7125SOL    HW133011   0.046   1.057   8.528 -1.8750 -1.6224 -2.5360
 7125SOL    HW233012   0.101   1.190   8.504  3.1171 -1.5654 -1.6022
 7126SOL     OW33013   4.673   2.250   6.845  0.0834 -0.4995 -0.4221
 7126SOL    HW133014   4.645   2.340   6.829 -2.8838 -1.3375  0.0430
 7126SOL    HW233015   4.715   2.226   6.763 -1.2117  0.9040 -1.4995
 7127SOL     OW33016   0.425   3.966  14.489  1.1716 -0.8059  0.1564
 7127SOL    HW133017   0.512   3.977  14.528  1.1479  3.1370 -0.8937
 7127SOL    HW233018   0.442   4.008  14.405  2.4069 -0.7967  0.4087
 7128SOL     OW33019   2.057   4.064   5.005  0.1198 -0.3588  0.1816
 7128SOL    HW133020   2.104   3.981   4.997 -1.6928 -1.2381 -1.5193
 7128SOL    HW233021   1.969   4.031   4.985 -0.9111  3.1753 -1.1489
 7129SOL     OW33022   1.770   0.029   6.467  0.1005 -0.3344  0.8158
 7129SOL    HW133023   1.701   0.060   6.526 -0.7691  1.0334 -0.9420
 7129SOL    HW233024   1.726   0.030   6.382  1.5455 -1.6417  0.0496
 7130SOL     OW33025   0.654   0.044  16.593  0.1819  0.4065  0.1677
 7130SOL    HW133026   0.669   0.008  16.505 -0.3042 -1.7883  0.9692
 7130SOL    HW233027   0.746   0.052  16.619  0.0839 -0.6868  0.8629
 7131SOL     OW33028   0.971   1.622   8.184 -0.0363 -0.0906 -0.3184
 7131SOL    HW133029   0.894   1.649   8.235 -0.0454  0.5447 -0.6630
 7131SOL    HW233030   0.999   1.549   8.238  2.2336  2.9172  2.5482
 7132SOL     OW33031   3.701   1.355   3.211 -0.1813  0.0934  0.4631
 7132SOL    HW133032   3.755   1.418   3.259 -1.4477  2.2823 -0.9935
 7132SOL    HW233033   3.771   1.298   3.177  0.0328  0.2867  0.5810
 7133SOL     OW33034   2.128   3.683   9.287  0.4232 -0.2259 -0.1580
 7133SOL    HW133035   2.165   3.766   9.316  1.1430 -1.0505  1.2934
 7133SOL    HW233036   2.045   3.694   9.334  0.4646 -1.2964  0.1811
 7134SOL     OW33037   0.729   4.393  16.390  0.3305 -0.0207  0.5969
 7134SOL    HW133038   0.641   4.430  16.383 -0.5245 -2.2595 -0.3888
 7134SOL    HW233039   0.778   4.471  16.363 -0.8711 -0.2062 -2.1102
 7135SOL     OW33040   1.058   3.810   8.649  0.3860  0.0797  0.1963
 7135SOL    HW133041   1.065   3.810   8.745 -0.0369  0.9564  0.2205
 7135SOL    HW233042   0.969   3.783   8.625  0.4980  0.5804 -0.7714
 7136SOL     OW33043   4.025   4.485   5.601 -0.2994 -0.0523 -0.0838
 7136SOL    HW133044   3.980   4.431   5.666 -1.1833  2.1751  1.1378
 7136SOL    HW233045   4.120   4.472   5.609 -0.4414 -1.5673 -0.8574
 7137SOL     OW33046   2.699   0.050   5.734 -0.1312  0.8483  0.0785
 7137SOL    HW133047   2.662   0.105   5.666  0.1296  0.8444 -0.0666
 7137SOL    HW233048   2.742   4.728   5.672  1.0118  0.8692  0.8534
 7138SOL     OW33049   0.694   3.105   7.548 -0.1023  0.2410 -0.1906
 7138SOL    HW133050   0.773   3.159   7.552 -1.1883  1.8322 -0.1494
 7138SOL    HW233051   0.633   3.154   7.493 -0.1726  2.0239  1.4854
 7139SOL     OW33052   2.608   1.467   1.591 -0.3036 -0.7497 -0.0305
 7139SOL    HW133053   2.601   1.562   1.581  1.4214 -0.6240  0.0681
 7139SOL    HW233054   2.527   1.461   1.642  2.2044 -0.4170  3.9753
 7140SOL     OW33055   3.870   0.169   4.203  0.2453 -0.6560 -0.5739
 7140SOL    HW133056   3.849   0.139   4.115 -0.3415 -0.9835 -0.3298
 7140SOL    HW233057   3.949   0.222   4.197  0.0976 -0.9396 -4.6113
 7141SOL     OW33058   3.126   4.404   7.256  0.0191 -0.3186 -0.2756
 7141SOL    HW133059   3.123   4.309   7.241 -1.1828 -0.3515  0.1864
 7141SOL    HW233060   3.120   4.445   7.170 -1.1475 -1.1355 -0.5744
 7142SOL     OW33061   3.523   1.098   6.084 -0.2847 -0.2784 -0.0442
 7142SOL    HW133062   3.516   1.148   6.165 -1.0691 -1.0291  0.3473
 7142SOL    HW233063   3.433   1.108   6.053  0.7674  1.5355 -2.5021
 7143SOL     OW33064   0.786   1.024  16.317  0.4699 -0.7073 -0.4373
 7143SOL    HW133065   0.744   1.076  16.249 -0.0309  0.0008  0.3998
 7143SOL    HW233066   0.839   1.088  16.364 -0.5145 -0.3730  0.2293
 7144SOL     OW33067   0.310   0.943  16.354 -0.0477 -0.9293  0.3111
 7144SOL    HW133068   0.320   0.904  16.267 -0.7112  0.6336 -0.4613
 7144SOL    HW233069   0.387   0.921  16.406 -0.5191 -2.5036  0.3488
 7145SOL     OW33070   3.991   1.508   2.107  0.3770  0.3148  0.2128
 7145SOL    HW133071   3.912   1.547   2.145  1.1637 -0.0361  2.2631
 7145SOL    HW233072   3.976   1.482   2.016  2.0933 -2.8032  0.7955
 7146SOL     OW33073   0.161   0.911   4.778  0.2869 -0.0226  0.3035
 7146SOL    HW133074   0.085   0.947   4.731  0.7237  2.4203  1.4942
 7146SOL    HW233075   0.166   0.971   4.852 -1.0996  0.1444  0.2584
 7147SOL     OW33076   3.746   0.445   2.828 -0.5580 -0.7687 -0.1101
 7147SOL    HW133077   3.775   0.409   2.744  1.4606  1.1995 -0.2649
 7147SOL    HW233078   3.778   0.533   2.807 -1.8998 -0.0119  1.0308
 7148SOL     OW33079   4.350   3.151  14.272  0.0121 -0.3563  0.2706
 7148SOL    HW133080   4.325   3.214  14.340  0.4613 -0.2310  0.3223
 7148SOL    HW233081   4.365   3.210  14.198 -3.1703 -2.6981 -2.2310
 7149SOL     OW33082   1.505   2.370  10.520  0.7714  0.4045  0.1450
 7149SOL    HW133083   1.527   2.304  10.585 -1.6012 -1.9776 -1.4239
 7149SOL    HW233084   1.565   2.345  10.449 -1.2017 -0.8912 -1.0812
 7150SOL     OW33085   3.948   4.252   8.743 -0.2342  0.2413 -0.2315
 7150SOL    HW133086   3.957   4.162   8.714  4.2442  0.6231 -0.0170
 7150SOL    HW233087   4.014   4.251   8.812  0.8118  2.2804 -1.1920
 7151SOL     OW33088   0.445   4.527   9.714  0.2216  0.2699 -0.0472
 7151SOL    HW133089   0.537   4.528   9.687  0.1591 -1.6707 -0.3208
 7151SOL    HW233090   0.406   4.508   9.629 -0.0134  2.3269 -0.4049
 7152SOL     OW33091   1.401   0.031   7.708 -0.6983 -0.2826  0.1110
 7152SOL    HW133092   1.426   0.085   7.633  2.0126 -0.1251  1.1233
 7152SOL    HW233093   1.312   0.060   7.725 -0.1685  1.3714  0.0682
 7153SOL     OW33094   1.875   4.107   7.508  0.1544 -0.3954  0.3060
 7153SOL    HW133095   1.796   4.062   7.478 -0.4378 -0.0711  1.4124
 7153SOL    HW233096   1.844   4.196   7.523 -2.0285 -0.8800 -1.2082
 7154SOL     OW33097   4.426   3.803   7.870 -0.4439 -0.1439  0.1250
 7154SOL    HW133098   4.459   3.781   7.957 -0.0614 -2.8709 -0.7351
 7154SOL    HW233099   4.415   3.724   7.817  1.2054 -1.4297  1.7319
 7155SOL     OW33100   1.427   1.853  10.681 -0.4999 -0.1705 -0.4129
 7155SOL    HW133101   1.515   1.844  10.644 -0.3945  0.5485 -0.3249
 7155SOL    HW233102   1.395   1.764  10.663  0.2818 -0.7891  1.2911
 7156SOL     OW33103   3.591   0.331   9.057 -0.4059  0.1335 -0.2700
 7156SOL    HW133104   3.530   0.404   9.064 -0.5635  0.1565 -1.9877
 7156SOL    HW233105   3.528   0.260   9.065 -0.4653  0.2292  0.1297
 7157SOL     OW33106   3.541   0.519   8.775 -0.1774  0.0794 -0.6229
 7157SOL    HW133107   3.459   0.525   8.726 -1.4367  1.7622  1.6816
 7157SOL    HW233108   3.505   0.507   8.863  1.3334 -1.7388 -0.2674
 7158SOL     OW33109   3.322   0.603  15.744 -0.5505  0.5184 -0.0903
 7158SOL    HW133110   3.404   0.585  15.697 -0.1416  0.3533  0.6860
 7158SOL    HW233111   3.337   0.559  15.828 -1.9577  3.7968  1.8641
 7159SOL     OW33112   4.179   2.573   4.007  0.7435 -0.2826  0.3381
 7159SOL    HW133113   4.087   2.546   4.000  1.5780 -3.6516  2.2290
 7159SOL    HW233114   4.229   2.493   4.024 -0.2051 -0.4861  2.2331
 7160SOL     OW33115   1.836   2.180  16.984  0.7843 -0.0333 -0.7991
 7160SOL    HW133116   1.842   2.147  16.894 -1.6187 -2.6608 -0.0082
 7160SOL    HW233117   1.928   2.187  17.010  1.1209  1.3070 -2.3177
 7161SOL     OW33118   4.006   2.251   3.663  0.4723  0.3307 -0.3780
 7161SOL    HW133119   4.085   2.305   3.668  0.5779  0.1983 -0.5999
 7161SOL    HW233120   4.027   2.207   3.580  1.9700  0.5907 -0.1326
 7162SOL     OW33121   2.341   3.078   5.068  0.0006  0.4080 -0.3423
 7162SOL    HW133122   2.333   3.164   5.027 -0.6385  0.7478  0.4764
 7162SOL    HW233123   2.343   3.104   5.161 -0.3871  1.3037 -0.5845
 7163SOL     OW33124   3.873   2.169   2.337  0.2405  0.2006  0.2800
 7163SOL    HW133125   3.877   2.122   2.420 -0.7330  0.8773  0.7042
 7163SOL    HW233126   3.784   2.203   2.339  0.2493  0.3668 -2.5715
 7164SOL     OW33127   2.583   2.249  11.236  0.3233  0.0002  0.5046
 7164SOL    HW133128   2.492   2.252  11.265 -0.4923  0.1093 -2.0365
 7164SOL    HW233129   2.609   2.341  11.240 -1.3040  0.5034 -0.3303
 7165SOL     OW33130   3.003   1.289   1.379  0.3904 -0.3915  0.1856
 7165SOL    HW133131   2.929   1.230   1.366 -0.4425  1.1695 -2.2919
 7165SOL    HW233132   2.976   1.356   1.316 -0.4689 -2.2976 -1.4563
 7166SOL     OW33133   3.465   1.020   0.717  0.3330  0.5358  0.4338
 7166SOL    HW133134   3.473   1.068   0.635 -2.4025  1.5699  0.7724
 7166SOL    HW233135   3.478   1.091   0.780  2.3087  0.7322 -0.2004
 7167SOL     OW33136   3.920   1.372   5.684  0.5633 -0.3091  0.3420
 7167SOL    HW133137   3.841   1.367   5.738  0.3054  1.4923  0.1241
 7167SOL    HW233138   3.912   1.465   5.663  0.2868 -0.6452 -1.0463
 7168SOL     OW33139   0.030   3.148  15.151 -0.7664  0.2248 -0.2828
 7168SOL    HW133140   4.698   3.165  15.088  0.2187 -0.0430 -1.4291
 7168SOL    HW233141   0.052   3.237  15.181  0.4318  0.2566 -1.2747
 7169SOL     OW33142   3.337   1.708   7.592  0.1646  0.3884  0.3848
 7169SOL    HW133143   3.305   1.718   7.682 -0.2269 -0.5851  0.3590
 7169SOL    HW233144   3.429   1.733   7.601  0.8549 -1.8241 -0.3983
 7170SOL     OW33145   0.819   0.408   1.990 -0.2898 -0.2406 -0.2310
 7170SOL    HW133146   0.784   0.487   2.030  0.3865  0.2647 -0.6310
 7170SOL    HW233147   0.749   0.389   1.928 -0.9654 -0.9090  0.7537
 7171SOL     OW33148   4.637   2.552  11.096  0.4459  0.1632  0.6773
 7171SOL    HW133149   4.625   2.556  11.001  1.5667  0.2651  0.5392
 7171SOL    HW233150   4.682   2.636  11.108  0.9818 -0.0319  0.0804
 7172SOL     OW33151   2.209   2.958   9.417 -0.2080 -0.6933 -0.1991
 7172SOL    HW133152   2.167   2.972   9.501 -0.7743  0.4960 -0.6863
 7172SOL    HW233153   2.220   3.048   9.388  1.0399 -1.2271 -1.4051
 7173SOL     OW33154   0.535   2.248   6.889  0.0922  0.6505 -0.3718
 7173SOL    HW133155   0.505   2.309   6.957  1.4280 -0.5771  1.3215
 7173SOL    HW233156   0.579   2.306   6.827 -0.2117  1.3786  0.0874
 7174SOL     OW33157   0.403   1.577   2.786 -0.1811  0.0166 -0.1865
 7174SOL    HW133158   0.340   1.562   2.716 -0.4092  0.6834 -0.1256
 7174SOL    HW233159   0.362   1.637   2.848 -1.6696 -1.2296  0.0364
 7175SOL     OW33160   1.163   2.880   7.053 -0.2217  0.3118  0.1463
 7175SOL    HW133161   1.189   2.972   7.043  0.1453  0.2408  0.4174
 7175SOL    HW233162   1.219   2.837   6.989  1.2269  0.3790  1.3520
 7176SOL     OW33163   4.122   1.099   5.124  0.1758 -0.1346 -0.0963
 7176SOL    HW133164   4.074   1.024   5.158  0.2157 -0.2834 -0.3649
 7176SOL    HW233165   4.171   1.128   5.201  1.2816 -1.1016 -0.4472
 7177SOL     OW33166   3.747   2.263   6.792 -0.0491 -0.2636 -0.1242
 7177SOL    HW133167   3.825   2.281   6.845  0.6724 -0.1887 -1.2202
 7177SOL    HW233168   3.749   2.168   6.788 -0.2122 -0.2656 -0.1588
 7178SOL     OW33169   0.700   2.157   6.641 -0.1963  0.0669 -0.6893
 7178SOL    HW133170   0.765   2.214   6.681  2.1417 -2.3177 -1.0501
 7178SOL    HW233171   0.752   2.108   6.577  1.4433  2.7114 -1.3922
 7179SOL     OW33172   0.322   4.296   4.008  0.2942 -0.0701 -0.2081
 7179SOL    HW133173   0.299   4.229   4.072  0.1331  0.7169  0.5531
 7179SOL    HW233174   0.261   4.368   4.022  0.6651  0.1576  0.2168
 7180SOL     OW33175   2.224   1.311   5.881  0.7216  0.4487 -0.1129
 7180SOL    HW133176   2.132   1.307   5.856  0.6523  1.7794 -0.0472
 7180SOL    HW233177   2.257   1.394   5.846  3.3378 -0.5853 -0.1626
 7181SOL     OW33178   3.604   2.696   8.185 -0.2792 -0.4393 -0.0019
 7181SOL    HW133179   3.518   2.725   8.216  0.5612  0.3118  1.6233
 7181SOL    HW233180   3.645   2.694   8.272 -0.7632  0.5071  0.2563
 7182SOL     OW33181   2.462   4.572   3.172  0.3393  0.5130  0.2806
 7182SOL    HW133182   2.533   4.527   3.218 -0.3275 -0.8914 -0.0784
 7182SOL    HW233183   2.504   4.576   3.086  0.2148 -0.2284  0.1828
 7183SOL     OW33184   3.506   1.458  15.387  0.3848  0.6719 -0.0945
 7183SOL    HW133185   3.577   1.521  15.376  1.7068 -1.0892 -1.5153
 7183SOL    HW233186   3.471   1.492  15.470  2.1124 -0.8401  1.2562
 7184SOL     OW33187   0.697   0.867   2.377 -0.6958  0.2393 -0.1605
 7184SOL    HW133188   0.729   0.886   2.288 -2.7613  0.5894 -0.8319
 7184SOL    HW233189   0.738   0.937   2.427  1.1161 -1.3041  0.4936
 7185SOL     OW33190   3.321   1.510   8.803  0.0337  0.0041 -0.3705
 7185SOL    HW133191   3.410   1.536   8.826 -0.3636  0.3094  0.7933
 7185SOL    HW233192   3.298   1.557   8.723 -0.1790  0.8315  0.1781
 7186SOL     OW33193   1.323   4.320  15.545  0.4957  0.0890  0.0857
 7186SOL    HW133194   1.404   4.298  15.591  2.1426 -1.4150 -3.5250
 7186SOL    HW233195   1.365   4.332  15.460 -0.2728  1.8957 -0.0414
 7187SOL     OW33196   2.505   2.249   8.708  0.2575  0.2098  0.5041
 7187SOL    HW133197   2.433   2.294   8.752  0.8596  1.2591  0.4153
 7187SOL    HW233198   2.529   2.321   8.649 -0.8235  1.6874  1.8552
 7188SOL     OW33199   2.634   3.492   2.535 -0.0765 -0.4669  0.5873
 7188SOL    HW133200   2.680   3.416   2.499 -0.7677 -0.3444 -0.5645
 7188SOL    HW233201   2.699   3.561   2.546  0.4616 -1.0347  0.9354
 7189SOL     OW33202   2.684   3.075   4.252  0.6443 -0.4085 -0.6342
 7189SOL    HW133203   2.715   3.132   4.322 -1.1979  2.0530 -1.7998
 7189SOL    HW233204   2.738   2.996   4.252  1.1515 -0.0486  2.4286
 7190SOL     OW33205   1.951   1.814   4.151  0.3725 -0.6800 -0.0177
 7190SOL    HW133206   2.006   1.751   4.104 -0.9729 -2.5462  0.9420
 7190SOL    HW233207   1.896   1.848   4.080  0.8202  0.2740  0.0864
 7191SOL     OW33208   4.391   0.489   4.236  0.1085 -0.2968  0.0688
 7191SOL    HW133209   4.405   0.431   4.161 -2.1577 -0.2587 -0.3745
 7191SOL    HW233210   4.471   0.540   4.250 -1.1180  1.7919 -0.5366
 7192SOL     OW33211   1.401   1.979   0.472  0.0621 -0.3928 -0.0605
 7192SOL    HW133212   1.449   2.049   0.517  0.1770 -1.3241  1.2754
 7192SOL    HW233213   1.400   1.913   0.542 -1.1817 -0.9829 -0.6474
 7193SOL     OW33214   4.062   1.773   8.043  0.0913 -0.3287  0.0158
 7193SOL    HW133215   3.984   1.723   8.021 -1.5338  1.5364  1.5752
 7193SOL    HW233216   4.117   1.702   8.078 -0.8419 -0.7993  0.5192
 7194SOL     OW33217   4.084   0.956   4.524  0.6851  0.3729  0.3759
 7194SOL    HW133218   4.046   1.005   4.596 -1.0194 -0.5362  0.0974
 7194SOL    HW233219   4.144   1.019   4.483  1.2020 -1.5833 -1.8766
 7195SOL     OW33220   3.043   0.981   5.043 -0.4761  0.0792 -0.3476
 7195SOL    HW133221   2.991   0.909   5.007 -1.5008  1.6245 -1.9417
 7195SOL    HW233222   3.118   0.927   5.068 -2.0566 -1.3442  1.3382
 7196SOL     OW33223   2.755   3.393   3.406 -0.1470 -0.3184 -0.3081
 7196SOL    HW133224   2.791   3.306   3.423  1.7570  0.5549  0.0633
 7196SOL    HW233225   2.726   3.387   3.315 -1.8466 -5.1924  0.5676
 7197SOL     OW33226   4.231   3.947   8.378  0.0491  0.7749  0.8110
 7197SOL    HW133227   4.309   4.001   8.360  0.8667 -0.6489  0.1028
 7197SOL    HW233228   4.186   4.004   8.440  0.2868  0.8051  0.9599
 7198SOL     OW33229   3.172   3.979   5.825 -0.4673  0.5899 -0.2726
 7198SOL    HW133230   3.161   3.889   5.855 -0.4604  0.4770 -0.6146
 7198SOL    HW233231   3.080   4.001   5.809 -0.4463  1.6003  1.0228
 7199SOL     OW33232   1.267   0.427   5.445  0.1894 -0.2029 -0.1676
 7199SOL    HW133233   1.223   0.495   5.395  1.4316  0.4856 -0.3157
 7199SOL    HW233234   1.264   0.348   5.391 -0.8679 -0.8984  0.9050
 7200SOL     OW33235   4.524   0.726   7.513  0.7421 -0.6725  0.3069
 7200SOL    HW133236   4.555   0.738   7.424 -1.6984  0.1354 -0.4299
 7200SOL    HW233237   4.457   0.659   7.500 -0.1629  1.1786 -4.4678
 7201SOL     OW33238   0.122   3.890   7.236 -0.0058 -0.1661  0.2900
 7201SOL    HW133239   0.173   3.864   7.159  0.3926  1.4957 -0.0092
 7201SOL    HW233240   0.169   3.839   7.302  1.2798 -0.9771 -1.2723
 7202SOL     OW33241   1.509   3.126   7.850  0.0396 -0.1979 -0.1819
 7202SOL    HW133242   1.424   3.131   7.893  0.1624 -1.5861  0.2131
 7202SOL    HW233243   1.545   3.042   7.879  0.7996 -0.3162 -1.4411
 7203SOL     OW33244   3.716   4.329   8.858 -0.7145 -0.3945 -0.2891
 7203SOL    HW133245   3.660   4.252   8.870 -3.5380  1.5902 -0.7686
 7203SOL    HW233246   3.797   4.294   8.822 -0.2404  2.2731 -1.8392
 7204SOL     OW33247   3.159   1.442  10.504 -0.3650 -0.5328 -0.3581
 7204SOL    HW133248   3.102   1.478  10.572  0.7519  0.6872 -0.0725
 7204SOL    HW233249   3.160   1.349  10.524 -1.2149 -0.4328  0.1676
 7205SOL     OW33250   0.156   0.054  11.548  0.0766  0.3779  0.3456
 7205SOL    HW133251   0.070   0.067  11.507 -0.1614  1.5269  1.1966
 7205SOL    HW233252   0.212   0.060  11.471 -1.3113  1.1785 -0.6125
 7206SOL     OW33253   3.117   1.946   0.679  0.7309 -0.4493 -0.1581
 7206SOL    HW133254   3.199   1.922   0.722  0.6845  1.2088  0.8731
 7206SOL    HW233255   3.058   1.922   0.750 -2.0303  0.7156 -2.0927
 7207SOL     OW33256   2.649   1.123  16.911 -0.1196 -0.5012 -0.2381
 7207SOL    HW133257   2.701   1.190  16.867 -0.7609  1.6525  2.2588
 7207SOL    HW233258   2.561   1.154  16.889 -0.5181 -0.2644  1.7024
 7208SOL     OW33259   1.387   3.293   3.509 -0.4363 -0.2819  0.1602
 7208SOL    HW133260   1.372   3.204   3.477 -1.6449  0.6827 -1.9505
 7208SOL    HW233261   1.438   3.265   3.585 -0.9465 -1.6284  0.0024
 7209SOL     OW33262   4.409   3.441   4.508  0.5218  0.0848  0.7967
 7209SOL    HW133263   4.465   3.484   4.444 -0.0104 -1.3163 -0.6129
 7209SOL    HW233264   4.455   3.431   4.592 -0.7448  3.0414  1.8668
 7210SOL     OW33265   0.362   1.627   7.957 -0.2916  0.5447  0.5605
 7210SOL    HW133266   0.433   1.563   7.954 -1.0546 -0.4022  2.4425
 7210SOL    HW233267   0.352   1.624   8.053  1.6422  1.3501  0.7782
 7211SOL     OW33268   4.146   2.043  14.858 -0.0571 -0.8037  0.1826
 7211SOL    HW133269   4.208   2.079  14.795 -1.2037  0.0440 -0.4619
 7211SOL    HW233270   4.202   2.040  14.936 -2.0013 -2.0561  1.5529
 7212SOL     OW33271   0.128   1.802   8.776 -0.1101 -0.3435  0.2211
 7212SOL    HW133272   0.116   1.893   8.804  1.3298  0.2592 -1.1036
 7212SOL    HW233273   0.208   1.804   8.723 -0.9631  2.3339 -0.9933
 7213SOL     OW33274   4.106   1.528   4.124  0.3788  0.4851 -0.4408
 7213SOL    HW133275   4.135   1.614   4.093  0.9632  0.7139  0.7334
 7213SOL    HW233276   4.153   1.468   4.065 -1.3874 -1.8023  0.4760
 7214SOL     OW33277   3.580   3.252   5.326  0.3431 -0.7706  0.2096
 7214SOL    HW133278   3.493   3.278   5.356  0.4309  0.4116 -0.5604
 7214SOL    HW233279   3.619   3.235   5.412  0.0274 -1.1166  0.2875
 7215SOL     OW33280   4.696   2.021   7.967  0.2723  0.3844  0.1382
 7215SOL    HW133281   0.040   1.976   7.993  0.8035  0.9877 -0.4715
 7215SOL    HW233282   4.698   2.100   8.021 -0.1333 -0.7631  1.8265
 7216SOL     OW33283   2.773   3.815  11.919  0.3088  0.7576  0.1255
 7216SOL    HW133284   2.748   3.847  11.832  2.0043  1.7633  0.0034
 7216SOL    HW233285   2.733   3.729  11.908 -0.0249  0.9399 -0.0906
 7217SOL     OW33286   2.921   0.904   8.055 -0.2046 -0.2883 -0.3189
 7217SOL    HW133287   2.897   0.866   7.970 -1.9057  2.6080 -1.1463
 7217SOL    HW233288   2.835   0.893   8.096 -0.0818  1.8842  0.5317
 7218SOL     OW33289   2.539   4.063  12.777 -0.1323 -0.1532 -0.7540
 7218SOL    HW133290   2.580   4.022  12.701 -0.2028 -1.1190 -0.2700
 7218SOL    HW233291   2.618   4.106  12.811 -0.6536 -1.4123  2.0502
 7219SOL     OW33292   2.350   0.971   2.462  0.2792 -0.0408  0.4434
 7219SOL    HW133293   2.318   0.998   2.549 -1.5039 -1.8518  0.3600
 7219SOL    HW233294   2.378   0.885   2.493 -0.1455  0.0737  1.1627
 7220SOL     OW33295   1.398   3.631   6.508 -0.3794  0.2201  0.2984
 7220SOL    HW133296   1.423   3.589   6.590  0.4549 -1.6734 -0.9386
 7220SOL    HW233297   1.468   3.599   6.451 -0.4044 -0.5131  0.6957
 7221SOL     OW33298   3.458   2.049  14.584  0.1226  0.2800 -0.0384
 7221SOL    HW133299   3.383   2.006  14.625  1.2230 -0.9162  0.7275
 7221SOL    HW233300   3.527   2.051  14.650  0.0868  1.0845 -0.0306
 7222SOL     OW33301   2.575   1.263   8.664 -0.4120  0.4281  0.5375
 7222SOL    HW133302   2.519   1.274   8.742  0.9955  1.0208  1.4675
 7222SOL    HW233303   2.629   1.189   8.693  0.0530  0.2058 -0.9053
 7223SOL     OW33304   1.170   0.348  16.503 -0.3772 -0.2426 -0.5784
 7223SOL    HW133305   1.178   0.407  16.577  1.7782  0.2617 -1.2084
 7223SOL    HW233306   1.074   0.340  16.498 -0.5665  0.4688  2.1784
 7224SOL     OW33307   3.205   3.329   3.950  0.0719  0.6164 -0.4214
 7224SOL    HW133308   3.214   3.301   4.041 -0.8502 -0.6644 -0.7204
 7224SOL    HW233309   3.210   3.244   3.906 -2.4895  0.4814 -0.4753
 7225SOL     OW33310   3.884   0.478   3.517  0.8586 -0.3404  0.2864
 7225SOL    HW133311   3.960   0.429   3.487  1.1932  0.2637  0.1337
 7225SOL    HW233312   3.914   0.555   3.565 -1.7646  1.1027 -0.3543
 7226SOL     OW33313   1.066   4.643   3.901  0.1128 -0.1152 -0.1556
 7226SOL    HW133314   1.002   4.713   3.885  0.0048  0.2154  1.7220
 7226SOL    HW233315   1.044   4.616   3.990 -0.6359 -2.2588 -0.9796
 7227SOL     OW33316   0.441   2.441   9.129 -0.1613  0.4023 -1.3863
 7227SOL    HW133317   0.484   2.361   9.158  1.4256  1.5699 -0.4963
 7227SOL    HW233318   0.478   2.462   9.043 -0.1926  2.0672 -0.9957
 7228SOL     OW33319   0.424   4.518  16.071 -0.2230 -0.2457 -0.4584
 7228SOL    HW133320   0.367   4.443  16.086 -0.2106 -0.3408 -0.8938
 7228SOL    HW233321   0.385   4.549  15.990  0.9588 -0.7344 -1.2138
 7229SOL     OW33322   3.007   3.162   5.537  0.2440 -0.4991 -0.3747
 7229SOL    HW133323   3.005   3.190   5.629  0.6312 -0.9510 -0.2253
 7229SOL    HW233324   2.964   3.076   5.536  0.0421 -0.4177  0.4730
 7230SOL     OW33325   2.852   2.670   5.874 -0.8289 -0.7457  0.7217
 7230SOL    HW133326   2.825   2.760   5.859 -0.7228 -0.7946  0.2540
 7230SOL    HW233327   2.797   2.623   5.811 -0.9849  1.8542 -1.0711
 7231SOL     OW33328   3.792   1.990   7.785  0.7623 -0.1439  0.4671
 7231SOL    HW133329   3.812   1.960   7.696 -0.6434 -0.4410  0.2551
 7231SOL    HW233330   3.834   1.930   7.845  2.7019 -0.8756 -1.6073
 7232SOL     OW33331   2.804   2.490   7.307  0.4865 -0.5005  0.1369
 7232SOL    HW133332   2.772   2.554   7.371  0.9775  0.4641 -0.5730
 7232SOL    HW233333   2.849   2.426   7.362  0.1633 -0.5406  0.3547
 7233SOL     OW33334   1.534   3.716   4.826 -1.0236  0.4051  0.2759
 7233SOL    HW133335   1.531   3.811   4.839  0.7008  0.4502  0.2464
 7233SOL    HW233336   1.458   3.691   4.774 -0.8706 -1.7820  1.0973
 7234SOL     OW33337   3.248   1.835   2.560 -0.0884 -0.1823 -0.0967
 7234SOL    HW133338   3.305   1.906   2.532 -0.5267  0.0585 -0.3722
 7234SOL    HW233339   3.234   1.791   2.476 -0.1978 -0.8982  0.2932
 7235SOL     OW33340   2.670   0.743   2.713 -0.1416  0.0920 -0.2293
 7235SOL    HW133341   2.733   0.778   2.650  1.0146 -2.0444 -0.2599
 7235SOL    HW233342   2.733   0.685   2.756 -0.5063 -0.8123 -0.9081
 7236SOL     OW33343   2.717   4.387   4.147  0.3164  0.1073 -0.4378
 7236SOL    HW133344   2.809   4.378   4.172  0.7080  3.0210 -0.7940
 7236SOL    HW233345   2.671   4.332   4.210  0.4512 -2.7770 -2.8618
 7237SOL     OW33346   4.694   2.978  10.973 -0.0236 -0.1918  0.2075
 7237SOL    HW133347   4.671   2.926  11.050 -0.4014  1.1071  0.9704
 7237SOL    HW233348   0.031   2.931  10.935  0.8562  1.5180 -0.1988
 7238SOL     OW33349   3.887   4.327   0.239  0.1291 -0.3742  0.1475
 7238SOL    HW133350   3.794   4.353   0.238  0.7454  1.8793 -0.1191
 7238SOL    HW233351   3.905   4.371   0.322  1.5405 -1.9495  0.6665
 7239SOL     OW33352   3.604   1.336   7.490  0.1872  0.4451  0.1208
 7239SOL    HW133353   3.673   1.271   7.475  0.5779  0.9331 -0.1928
 7239SOL    HW233354   3.527   1.281   7.509  1.1433 -0.6395  0.8737
 7240SOL     OW33355   0.588   1.411  16.550 -0.2863  0.3104 -0.2329
 7240SOL    HW133356   0.512   1.357  16.529 -0.1869  0.1526 -0.1858
 7240SOL    HW233357   0.636   1.360  16.615 -0.9076 -0.1456 -0.1319
 7241SOL     OW33358   0.197   1.527   9.643  0.4429 -0.8618 -0.0962
 7241SOL    HW133359   0.275   1.517   9.589  0.0734  1.9436 -1.1692
 7241SOL    HW233360   0.178   1.434   9.651 -1.7587 -0.2909  1.4013
 7242SOL     OW33361   2.118   4.029   3.910 -0.2733  0.0498  0.1131
 7242SOL    HW133362   2.055   3.984   3.967 -0.2480 -0.1367 -0.0064
 7242SOL    HW233363   2.164   4.064   3.986  2.2822 -2.3181 -0.3389
 7243SOL     OW33364   0.870   3.023   4.894 -0.0418 -0.6013  0.1057
 7243SOL    HW133365   0.957   3.000   4.861  0.0827  0.1115 -0.0571
 7243SOL    HW233366   0.811   3.005   4.821 -0.6508 -1.1278  0.7212
 7244SOL     OW33367   1.862   1.721  12.586  0.1654 -0.2607  0.4585
 7244SOL    HW133368   1.841   1.790  12.523 -1.4805  0.6844  2.0421
 7244SOL    HW233369   1.774   1.711  12.623 -0.3662 -0.2184 -0.7858
 7245SOL     OW33370   3.407   2.436   6.785  0.7941 -0.1146 -0.1505
 7245SOL    HW133371   3.312   2.440   6.774  1.1438 -0.8872 -3.3031
 7245SOL    HW233372   3.436   2.525   6.770 -0.3629 -0.4145 -4.0415
 7246SOL     OW33373   2.104   3.460   3.021  0.2437 -0.3442  0.0223
 7246SOL    HW133374   2.044   3.434   2.952 -0.8242 -0.7754  1.1129
 7246SOL    HW233375   2.115   3.555   3.011  0.8815 -0.6498 -2.2002
 7247SOL     OW33376   4.530   2.870   8.340  0.4595 -0.2545  0.2125
 7247SOL    HW133377   4.549   2.963   8.352 -2.0207  0.2423  0.2986
 7247SOL    HW233378   4.608   2.825   8.375  1.9470  0.6268 -1.9536
 7248SOL     OW33379   3.441   2.493  14.264 -0.3990  0.6804 -0.9695
 7248SOL    HW133380   3.431   2.584  14.290 -2.2926 -0.0639  0.8478
 7248SOL    HW233381   3.385   2.457  14.332 -0.4114  0.7395 -0.9487
 7249SOL     OW33382   1.127   3.878   8.915  0.4065 -0.1772  0.4404
 7249SOL    HW133383   1.160   3.887   9.005 -0.6189 -2.6435  1.0660
 7249SOL    HW233384   1.073   3.955   8.900  1.3312  0.4476  0.2941
 7250SOL     OW33385   3.475   2.663   8.551 -0.2228  1.1470 -0.2873
 7250SOL    HW133386   3.563   2.643   8.519 -0.4495  0.5292 -0.5277
 7250SOL    HW233387   3.488   2.740   8.607 -0.0474  1.3110 -0.5548
 7251SOL     OW33388   0.706   3.824  14.574 -0.1338 -0.1115  0.2258
 7251SOL    HW133389   0.691   3.916  14.594 -0.6951 -0.4500  1.3412
 7251SOL    HW233390   0.764   3.841  14.500 -1.5168  1.4270 -0.4995
 7252SOL     OW33391   3.224   3.840   9.738 -0.5494 -0.4530 -0.3686
 7252SOL    HW133392   3.174   3.761   9.716 -1.0178 -0.0642 -0.6817
 7252SOL    HW233393   3.153   3.903   9.748  0.7112  0.4004  3.5028
 7253SOL     OW33394   2.094   1.637   0.980  0.6862  0.2981 -0.6668
 7253SOL    HW133395   2.059   1.581   1.049  1.0367  1.4768  0.4539
 7253SOL    HW233396   2.187   1.612   0.978  1.5537  3.4852  0.5833
 7254SOL     OW33397   0.822   3.234   3.042 -0.6679  0.0864 -0.8440
 7254SOL    HW133398   0.747   3.270   3.090 -1.0541 -2.4062  0.4074
 7254SOL    HW233399   0.894   3.285   3.081 -1.7705  0.6081  0.5197
 7255SOL     OW33400   3.889   0.972  14.398  0.3815 -0.5466 -0.3934
 7255SOL    HW133401   3.863   0.897  14.452 -1.6187 -0.0081 -0.5970
 7255SOL    HW233402   3.824   1.037  14.425 -1.1164 -3.0330  2.0027
 7256SOL     OW33403   2.472   2.917   9.234 -0.2399  0.1824  0.1083
 7256SOL    HW133404   2.384   2.944   9.259 -0.3955  0.6598 -0.9804
 7256SOL    HW233405   2.522   2.996   9.257  1.1373 -0.9181  0.9154
 7257SOL     OW33406   4.031   1.022  14.787 -0.5527  0.0362 -0.0649
 7257SOL    HW133407   4.098   1.038  14.720 -0.1981 -0.7284  0.1052
 7257SOL    HW233408   4.087   0.995  14.859 -0.1738  3.2824  0.8587
 7258SOL     OW33409   0.834   1.344   2.568  0.2227  0.1348  0.0754
 7258SOL    HW133410   0.899   1.387   2.623  3.4475 -3.1097 -1.1469
 7258SOL    HW233411   0.829   1.400   2.490  2.1797  0.7675  0.4095
 7259SOL     OW33412   0.100   0.312  14.276 -0.4505 -0.1754  0.4915
 7259SOL    HW133413   0.161   0.325  14.204  0.5295  2.3592  1.7805
 7259SOL    HW233414   0.053   0.395  14.284  1.9537  1.2258 -0.0971
 7260SOL     OW33415   3.461   3.995   9.840 -0.3672  0.0373  0.6004
 7260SOL    HW133416   3.372   3.969   9.818  0.2379 -1.1561 -0.4643
 7260SOL    HW233417   3.501   3.920   9.796 -0.4118 -0.3909  1.2892
 7261SOL     OW33418   2.160   4.591   2.361 -0.1626 -0.5431  0.5238
 7261SOL    HW133419   2.209   4.620   2.284  0.3288 -1.1390  0.6208
 7261SOL    HW233420   2.073   4.628   2.341 -0.5552 -1.6683  0.1741
 7262SOL     OW33421   1.222   3.626   6.744  0.0305 -0.0102 -0.1351
 7262SOL    HW133422   1.266   3.671   6.671  2.7536 -2.4807 -0.0119
 7262SOL    HW233423   1.181   3.549   6.703 -2.7667  0.6595  1.4213
 7263SOL     OW33424   2.827   1.274   5.460  0.6286 -0.4017  0.3921
 7263SOL    HW133425   2.810   1.364   5.431  1.7857  0.3401  2.0692
 7263SOL    HW233426   2.899   1.236   5.410  0.1396 -1.3315  0.3861
 7264SOL     OW33427   3.731   3.319   7.964 -0.1407  0.1482  0.1676
 7264SOL    HW133428   3.661   3.259   7.990 -1.4692  1.8245  0.4294
 7264SOL    HW233429   3.749   3.369   8.044  0.4659 -0.8232  0.6472
 7265SOL     OW33430   1.850   0.220   1.844 -0.0146  0.0941  0.1461
 7265SOL    HW133431   1.852   0.285   1.914  0.4198  0.1333  0.0975
 7265SOL    HW233432   1.944   0.205   1.832  0.3985 -0.3492  4.0981
 7266SOL     OW33433   1.179   2.042   6.737  0.5273  0.1273  0.4955
 7266SOL    HW133434   1.122   1.976   6.776 -0.8519  1.5496  0.8812
 7266SOL    HW233435   1.268   2.012   6.753  0.3660 -0.4588  0.3010
 7267SOL     OW33436   1.272   2.573  10.073 -0.3341  0.0572 -0.2698
 7267SOL    HW133437   1.282   2.610  10.161  3.9184  3.3000 -2.1538
 7267SOL    HW233438   1.241   2.648  10.021  2.9583  1.4257 -0.2346
 7268SOL     OW33439   4.183   3.477   8.388  0.6399  0.2357 -0.2997
 7268SOL    HW133440   4.224   3.427   8.458 -2.5208 -2.2944 -0.2240
 7268SOL    HW233441   4.165   3.406   8.326 -0.0949  0.6124 -0.5210
 7269SOL     OW33442   0.128   4.403   5.274  0.1216 -1.2129 -0.1134
 7269SOL    HW133443   0.172   4.420   5.357  2.8597 -1.7825 -1.4233
 7269SOL    HW233444   0.094   4.491   5.255  0.4120 -1.6747 -2.7694
 7270SOL     OW33445   1.232   2.987  13.201 -0.0763  0.2376 -0.4680
 7270SOL    HW133446   1.244   3.060  13.261 -1.1735  1.2687 -1.4715
 7270SOL    HW233447   1.137   2.970  13.203  0.3845 -2.3491 -0.6674
 7271SOL     OW33448   2.003   0.601   3.178  0.3119  0.1570 -0.5434
 7271SOL    HW133449   2.036   0.684   3.211 -2.3508  1.0093  0.0217
 7271SOL    HW233450   2.074   0.540   3.198  0.2677  1.3540  3.1582
 7272SOL     OW33451   0.614   3.969  11.754  0.0256  0.6663  0.3358
 7272SOL    HW133452   0.613   4.057  11.792 -1.6883 -1.3755  4.9047
 7272SOL    HW233453   0.708   3.956  11.766 -0.0721  0.2323  0.6112
 7273SOL     OW33454   1.654   4.270   9.092 -0.0113 -0.2754 -0.1836
 7273SOL    HW133455   1.634   4.252   9.001 -0.2769 -1.5766  0.1342
 7273SOL    HW233456   1.579   4.325   9.114 -0.7798 -0.7472 -1.6824
 7274SOL     OW33457   3.422   4.658   4.004 -0.1628  0.4422  0.7788
 7274SOL    HW133458   3.418   4.699   4.091 -2.4152 -1.8297  1.7307
 7274SOL    HW233459   3.364   4.712   3.952 -0.3832  0.4009  0.9833
 7275SOL     OW33460   3.881   1.416   4.013 -0.3132  0.1542 -0.4597
 7275SOL    HW133461   3.891   1.504   4.049 -0.4967 -0.3862  0.8949
 7275SOL    HW233462   3.959   1.373   4.049 -0.9268 -0.1183  0.5433
 7276SOL     OW33463   0.842   0.385   4.504  0.2350  0.2458 -0.0393
 7276SOL    HW133464   0.788   0.463   4.491 -0.3881 -0.1599  0.1332
 7276SOL    HW233465   0.813   0.384   4.595  0.6950  0.2089  0.1094
 7277SOL     OW33466   1.104   0.445   3.242  0.6076  0.1721 -0.4780
 7277SOL    HW133467   1.178   0.448   3.182 -0.2342 -1.6547 -1.6002
 7277SOL    HW233468   1.033   0.455   3.179 -0.9361  0.7045  1.3220
 7278SOL     OW33469   3.910   2.981  13.650 -0.0457 -0.3832  0.2796
 7278SOL    HW133470   3.849   2.916  13.685 -0.7361  0.6095  0.8989
 7278SOL    HW233471   3.855   3.031  13.589  0.4838  1.8396  1.6396
 7279SOL     OW33472   0.733   3.161  10.069  0.3683 -0.3835  0.5895
 7279SOL    HW133473   0.769   3.186  10.154 -2.2567  2.7391  0.7714
 7279SOL    HW233474   0.670   3.096  10.101 -1.1223 -0.6927 -2.9728
 7280SOL     OW33475   4.475   0.219  16.287  0.1762 -0.3137  0.2381
 7280SOL    HW133476   4.409   0.172  16.338 -0.0877  0.5273  0.6858
 7280SOL    HW233477   4.434   0.304  16.270 -0.7096 -1.0752 -1.3002
 7281SOL     OW33478   3.127   4.369   2.253 -0.1226 -0.3677  0.7312
 7281SOL    HW133479   3.204   4.312   2.255 -0.9928 -1.5389  0.8835
 7281SOL    HW233480   3.168   4.448   2.218 -1.5687 -0.6467 -1.6359
 7282SOL     OW33481   1.101   2.327   1.370 -0.2629 -0.2732 -0.8825
 7282SOL    HW133482   1.026   2.375   1.403  0.3794  1.1699 -1.5189
 7282SOL    HW233483   1.106   2.348   1.276  2.0158  3.5458  0.1153
 7283SOL     OW33484   3.478   4.007   7.101 -0.2806  0.0827 -0.1117
 7283SOL    HW133485   3.425   4.047   7.032  1.2699  1.6055 -0.4274
 7283SOL    HW233486   3.415   3.942   7.132 -0.4728 -0.7376 -2.2091
 7284SOL     OW33487   0.917   4.475   5.739 -0.1029  0.3731  0.1454
 7284SOL    HW133488   0.873   4.511   5.662 -0.8243  1.3222  1.0008
 7284SOL    HW233489   0.880   4.524   5.813 -2.0900 -0.7451 -0.1171
 7285SOL     OW33490   3.888   3.742   9.592  0.2395 -0.0831  0.0095
 7285SOL    HW133491   3.893   3.649   9.615 -0.9257  0.0213  0.6976
 7285SOL    HW233492   3.978   3.764   9.568  0.0947  0.0809 -0.3873
 7286SOL     OW33493   4.695   1.223  13.635  0.1590  0.0886 -0.7035
 7286SOL    HW133494   4.653   1.284  13.695  0.9074  1.1363 -1.2372
 7286SOL    HW233495   0.001   1.163  13.695 -2.2824 -0.5057  0.4221
 7287SOL     OW33496   2.617   3.858  15.963  0.1795 -0.2014  0.1652
 7287SOL    HW133497   2.650   3.822  16.045 -0.4630  0.4716  0.7195
 7287SOL    HW233498   2.664   3.810  15.895  1.3195 -0.3240  1.0368
 7288SOL     OW33499   3.683   1.457  16.695 -0.2605  0.3675  0.1607
 7288SOL    HW133500   3.660   1.380  16.747  0.9184  0.6918  1.1690
 7288SOL    HW233501   3.726   1.507  16.765  1.5802  0.8503 -1.3185
 7289SOL     OW33502   1.009   2.692   1.838 -0.9153 -0.1566  0.5061
 7289SOL    HW133503   0.944   2.705   1.769  1.0997  0.1389 -1.3110
 7289SOL    HW233504   1.089   2.679   1.788 -2.1090 -2.8513 -0.7234
 7290SOL     OW33505   3.370   1.268  15.244  0.0735 -0.3584  0.7355
 7290SOL    HW133506   3.322   1.317  15.177 -1.7107 -0.1324  2.1934
 7290SOL    HW233507   3.419   1.343  15.278 -0.1800  0.3576 -0.4580
 7291SOL     OW33508   0.175   1.935   6.595  0.3469 -0.0255  0.0808
 7291SOL    HW133509   0.177   1.868   6.527  0.5104 -0.1859  0.2445
 7291SOL    HW233510   0.188   2.012   6.539 -1.0187 -0.0492 -0.2495
 7292SOL     OW33511   2.552   0.502   9.678 -0.6149 -0.3512  0.0992
 7292SOL    HW133512   2.522   0.414   9.702 -1.1299 -0.2939 -0.3507
 7292SOL    HW233513   2.549   0.485   9.584 -2.6834 -1.9363  0.4586
 7293SOL     OW33514   2.265   3.922  14.208  0.4233 -0.1251 -0.0475
 7293SOL    HW133515   2.203   3.989  14.238  1.3362  0.2876  0.9000
 7293SOL    HW233516   2.245   3.931  14.114  0.0141 -1.6192 -0.0945
 7294SOL     OW33517   3.673   1.466   7.760  0.1398 -0.0389  0.5417
 7294SOL    HW133518   3.674   1.429   7.672  1.8541 -0.8751  0.9164
 7294SOL    HW233519   3.701   1.386   7.805 -1.0745 -0.1975  1.0280
 7295SOL     OW33520   3.139   2.140   9.582  0.3170 -0.5722  0.5127
 7295SOL    HW133521   3.160   2.068   9.641  0.7308  0.8517  2.0865
 7295SOL    HW233522   3.053   2.163   9.616 -0.3816 -0.4304 -1.3246
 7296SOL     OW33523   3.577   4.735   7.637  0.3513  0.0353  0.2094
 7296SOL    HW133524   3.513   4.704   7.573  0.0184  0.4174  0.3599
 7296SOL    HW233525   3.630   0.060   7.587  1.8566 -0.2938  1.4072
 7297SOL     OW33526   4.703   2.786   7.326 -0.2403  0.4096 -0.5008
 7297SOL    HW133527   4.728   2.795   7.235 -0.6974 -1.4147 -0.8077
 7297SOL    HW233528   4.688   2.691   7.324 -0.6855  0.4536  0.6385
 7298SOL     OW33529   0.353   4.345   9.486  0.8642  0.1478 -0.7797
 7298SOL    HW133530   0.315   4.389   9.410  0.6645 -0.8064 -1.2340
 7298SOL    HW233531   0.334   4.254   9.466 -2.0891  0.2528  1.5221
 7299SOL     OW33532   1.174   2.923   3.208 -0.0954  0.6638  0.4382
 7299SOL    HW133533   1.086   2.911   3.245 -0.2112 -3.1742 -1.0863
 7299SOL    HW233534   1.196   2.846   3.154 -1.1163  0.3918  0.3998
 7300SOL     OW33535   3.164   0.138   2.024  0.0374 -0.1305  0.0422
 7300SOL    HW133536   3.194   0.163   1.937  2.0793  1.4807  1.2094
 7300SOL    HW233537   3.206   0.198   2.086 -1.5847 -1.0263  2.0387
 7301SOL     OW33538   1.430   3.166   4.170  0.8178  0.1269  0.3247
 7301SOL    HW133539   1.350   3.167   4.222 -0.8534 -0.9525 -2.2060
 7301SOL    HW233540   1.478   3.095   4.211 -1.0153 -1.8134 -0.8718
 7302SOL     OW33541   2.615   0.068   6.491  0.0119 -0.2118  0.3203
 7302SOL    HW133542   2.590   0.072   6.583 -0.9218  0.9224  0.0177
 7302SOL    HW233543   2.538   0.112   6.456  0.8693 -0.3879 -1.7983
 7303SOL     OW33544   0.294   2.330   5.469 -0.1493  0.4594  0.0952
 7303SOL    HW133545   0.208   2.344   5.508  0.0510  2.0195 -0.0011
 7303SOL    HW233546   0.300   2.408   5.413 -0.2454  0.2639 -0.1835
 7304SOL     OW33547   2.742   4.107   5.287  0.1694 -0.5368 -0.1933
 7304SOL    HW133548   2.712   4.061   5.365 -0.3120 -2.4644 -1.5045
 7304SOL    HW233549   2.665   4.115   5.230 -0.3809  0.6088  0.7172
 7305SOL     OW33550   2.798   3.377   5.398 -0.1019  0.0286 -0.1245
 7305SOL    HW133551   2.825   3.469   5.402  0.3409  0.0475 -3.7856
 7305SOL    HW233552   2.879   3.328   5.382  0.1169  0.2447  0.3446
 7306SOL     OW33553   0.358   4.422   8.938 -0.1266 -0.4946  0.0749
 7306SOL    HW133554   0.384   4.499   8.887  0.7553  1.0325  2.8293
 7306SOL    HW233555   0.266   4.422   8.915 -0.3033 -0.2947  0.7804
 7307SOL     OW33556   0.733   3.940  13.122 -0.4609 -0.7229 -0.2284
 7307SOL    HW133557   0.828   3.929  13.108 -0.3552 -0.9903  0.6994
 7307SOL    HW233558   0.739   4.016  13.179  0.9163 -0.3380 -0.8817
 7308SOL     OW33559   1.776   1.419   0.991 -0.0160 -0.4027 -0.3494
 7308SOL    HW133560   1.783   1.500   0.940  0.0333  0.0914  0.4350
 7308SOL    HW233561   1.688   1.427   1.028  0.0265  1.0537 -0.5838
 7309SOL     OW33562   1.538   4.424   3.937 -0.2476 -0.3683  0.6172
 7309SOL    HW133563   1.606   4.490   3.928 -0.6273 -0.3095 -1.6878
 7309SOL    HW233564   1.531   4.392   3.847  0.2017  1.0806  0.0657
 7310SOL     OW33565   0.707   1.697   9.051  0.0607 -0.0225  0.3661
 7310SOL    HW133566   0.646   1.682   9.123 -1.5145  1.3323 -0.7195
 7310SOL    HW233567   0.791   1.675   9.091 -0.2458  0.3715  1.2254
 7311SOL     OW33568   2.574   1.130  11.963  0.5227  0.7254 -0.1118
 7311SOL    HW133569   2.564   1.202  12.026 -1.0272  0.8626 -0.5080
 7311SOL    HW233570   2.482   1.125  11.938  0.7240 -2.4604 -0.1759
 7312SOL     OW33571   4.370   0.033   3.689 -0.3703 -0.1698 -0.4681
 7312SOL    HW133572   4.312   0.109   3.682  1.2690  1.2815  2.2462
 7312SOL    HW233573   4.312   4.711   3.738  0.7594 -0.0968  0.9430
 7313SOL     OW33574   2.241   2.160   8.667 -0.0538  0.1496 -0.1985
 7313SOL    HW133575   2.251   2.225   8.736  3.1290  0.3614 -0.8752
 7313SOL    HW233576   2.226   2.214   8.589 -2.1314 -0.3410 -0.1393
 7314SOL     OW33577   4.022   3.270   9.332 -0.3231 -0.3705 -0.0485
 7314SOL    HW133578   4.116   3.287   9.319 -0.1541  0.3508  2.1494
 7314SOL    HW233579   4.014   3.184   9.290  0.2664  0.0741 -1.0990
 7315SOL     OW33580   1.702   0.999   1.651  0.1458  0.8879  0.1125
 7315SOL    HW133581   1.621   1.006   1.601  1.1396 -2.0660 -1.9425
 7315SOL    HW233582   1.747   0.920   1.620  0.0823 -0.1863  2.7848
 7316SOL     OW33583   1.955   0.604   4.478  0.1064  0.2074 -0.4840
 7316SOL    HW133584   2.002   0.675   4.435  0.8727  0.3933  0.6455
 7316SOL    HW233585   1.921   0.539   4.417  2.7981 -2.0363  0.4159
 7317SOL     OW33586   2.118   4.493  17.106  0.8470 -0.9020  0.0313
 7317SOL    HW133587   2.046   4.532  17.058  1.3326  0.4184  0.3718
 7317SOL    HW233588   2.179   4.566  17.095  1.6503 -1.3942  1.1999
 7318SOL     OW33589   1.082   2.279   8.050  0.0084 -0.6683 -0.4266
 7318SOL    HW133590   1.126   2.213   8.103 -0.0352 -1.6694 -1.6416
 7318SOL    HW233591   1.138   2.265   7.974 -0.9894  0.5164 -1.3986
 7319SOL     OW33592   3.483   2.250   3.961  0.4534  0.1935 -0.6164
 7319SOL    HW133593   3.462   2.320   3.899 -0.7127 -0.5951 -1.1223
 7319SOL    HW233594   3.418   2.274   4.027 -0.2330  0.1771 -1.2785
 7320SOL     OW33595   1.642   4.260   3.126 -0.1010 -0.0274 -0.3157
 7320SOL    HW133596   1.573   4.228   3.068 -0.0275 -0.4699 -0.1587
 7320SOL    HW233597   1.673   4.172   3.147  3.1673  0.7261 -1.9529
 7321SOL     OW33598   0.617   4.074   6.963  0.1289 -0.0108 -0.0010
 7321SOL    HW133599   0.644   4.021   6.888 -0.0687 -1.5231  0.9885
 7321SOL    HW233600   0.684   4.142   6.959 -0.7153  0.8280  0.1436
 7322SOL     OW33601   0.439   1.663   2.316 -0.0922 -0.3644  0.4662
 7322SOL    HW133602   0.510   1.610   2.352  1.0617  1.2836  0.6405
 7322SOL    HW233603   0.442   1.741   2.371 -0.1391  0.6812 -1.0023
 7323SOL     OW33604   3.186   0.920  12.912 -0.2306  0.2227  0.0706
 7323SOL    HW133605   3.121   0.945  12.847 -2.4098  0.4359  2.3246
 7323SOL    HW233606   3.134   0.883  12.984 -0.2306  0.4863  0.2073
 7324SOL     OW33607   2.173   2.627   7.278 -0.2504 -0.2380  0.0150
 7324SOL    HW133608   2.251   2.597   7.232  0.5256  1.7213  0.0720
 7324SOL    HW233609   2.224   2.669   7.347 -0.5703  0.2652 -0.0526
 7325SOL     OW33610   2.121   1.798   6.750 -0.5486 -0.3979  0.3360
 7325SOL    HW133611   2.094   1.840   6.832 -1.3804 -0.0810 -0.0981
 7325SOL    HW233612   2.146   1.873   6.696 -3.7454 -1.2106 -2.2684
 7326SOL     OW33613   0.608   1.011   8.347  0.3785  0.2208 -0.2936
 7326SOL    HW133614   0.589   0.932   8.398  0.8851  0.9281  0.9868
 7326SOL    HW233615   0.680   0.980   8.291 -2.1745 -0.5780 -3.1163
 7327SOL     OW33616   3.164   1.587   4.652  0.0544 -0.1834  0.3282
 7327SOL    HW133617   3.256   1.559   4.653 -0.0826 -0.4581  3.6203
 7327SOL    HW233618   3.180   1.674   4.687 -0.2805  0.1442 -0.3503
 7328SOL     OW33619   2.126   1.496   3.421  0.3012 -0.1234  0.6679
 7328SOL    HW133620   2.139   1.579   3.466  1.3978  0.9671 -1.6579
 7328SOL    HW233621   2.161   1.513   3.333 -1.5120  1.3611  0.2464
 7329SOL     OW33622   3.799   0.825   4.673  0.3510 -0.2520 -0.1269
 7329SOL    HW133623   3.832   0.780   4.751 -1.9615 -0.5583  0.6931
 7329SOL    HW233624   3.846   0.779   4.603 -0.2176 -0.8990 -0.0857
 7330SOL     OW33625   1.504   0.386   4.532  0.5885  0.0799 -0.0102
 7330SOL    HW133626   1.538   0.458   4.479 -1.5464  2.7755  2.3559
 7330SOL    HW233627   1.473   0.333   4.458 -0.7813  0.5942  0.1954
 7331SOL     OW33628   0.053   0.468   2.364 -0.1242  0.4215 -0.0530
 7331SOL    HW133629   4.732   0.521   2.419 -0.9504 -1.1969  0.6346
 7331SOL    HW233630   4.736   0.446   2.288  0.8727  1.1115 -0.9655
 7332SOL     OW33631   2.054   4.265   1.395  0.5160  0.0877 -0.6667
 7332SOL    HW133632   2.079   4.274   1.487 -0.5966  1.3441 -0.4935
 7332SOL    HW233633   1.967   4.229   1.417  0.4743 -0.6840 -2.1159
 7333SOL     OW33634   0.435   0.039   4.398  0.1159  0.0491 -0.1609
 7333SOL    HW133635   0.493   4.728   4.339 -1.1951 -0.5195 -0.9837
 7333SOL    HW233636   0.354   4.726   4.390 -0.1627  0.3333  0.8747
 7334SOL     OW33637   4.104   2.636  13.867  0.1717  0.0559  0.4111
 7334SOL    HW133638   4.142   2.703  13.923  0.2810  0.6428 -0.3649
 7334SOL    HW233639   4.039   2.606  13.931  0.2286  0.2572  0.5615
 7335SOL     OW33640   0.556   0.932  16.481 -0.3977  0.3170  0.3951
 7335SOL    HW133641   0.639   0.955  16.439 -0.1111  2.2873  1.9940
 7335SOL    HW233642   0.551   0.984  16.562  0.4188  1.6964 -0.4344
 7336SOL     OW33643   1.175   1.360   8.572 -0.1296  0.1135 -0.0557
 7336SOL    HW133644   1.230   1.312   8.634  1.1463 -0.2253 -1.4689
 7336SOL    HW233645   1.230   1.438   8.565  0.4270 -0.2501  0.2403
 7337SOL     OW33646   1.431   0.822   2.674 -0.2945  0.5419 -0.3266
 7337SOL    HW133647   1.523   0.843   2.663 -0.5019  0.6886 -1.7320
 7337SOL    HW233648   1.453   0.738   2.714 -1.3957  0.4888  0.1910
 7338SOL     OW33649   1.169   3.726   5.465  0.2384  0.0787  0.2286
 7338SOL    HW133650   1.215   3.782   5.402  0.0375  0.7026  0.6371
 7338SOL    HW233651   1.234   3.735   5.535  0.0776  0.4381  0.3335
 7339SOL     OW33652   1.334   0.720   8.808 -0.1565 -0.4500  0.0081
 7339SOL    HW133653   1.303   0.684   8.891  0.5346 -0.5551  0.2188
 7339SOL    HW233654   1.429   0.713   8.796 -0.2875 -3.2627  0.7589
 7340SOL     OW33655   2.194   0.074   5.418 -0.1150 -0.0210 -0.0372
 7340SOL    HW133656   2.110   0.051   5.377 -0.7343  0.8191  0.7708
 7340SOL    HW233657   2.182   0.162   5.454  0.2092 -0.0531  0.1513
 7341SOL     OW33658   2.101   3.703   6.175  0.2115  0.2356  0.1613
 7341SOL    HW133659   2.082   3.659   6.092 -0.5310 -0.1362  0.5225
 7341SOL    HW233660   2.154   3.634   6.214  0.3134  0.3248  0.1791
 7342SOL     OW33661   3.158   0.240  11.875 -0.4797 -0.2331  0.1873
 7342SOL    HW133662   3.218   0.290  11.820 -0.0928 -0.9134  0.0026
 7342SOL    HW233663   3.194   0.153  11.888  3.6292  1.5669  0.8189
 7343SOL     OW33664   0.500   2.431  16.442  0.2367  0.6206 -0.3288
 7343SOL    HW133665   0.543   2.347  16.428  0.5099  1.0950 -2.2477
 7343SOL    HW233666   0.547   2.487  16.381 -0.1227 -0.7807 -1.8897
 7344SOL     OW33667   4.063   3.783   8.237 -0.5305  0.3487 -0.4028
 7344SOL    HW133668   4.120   3.749   8.169 -1.3101  0.5378 -1.1490
 7344SOL    HW233669   4.113   3.849   8.286 -1.1997  0.8616 -0.4120
 7345SOL     OW33670   3.492   0.730  17.614  0.2037  0.3660 -0.3230
 7345SOL    HW133671   3.432   0.667  17.573  1.5984 -2.3284  1.7832
 7345SOL    HW233672   3.488   0.804  17.553 -0.0273 -0.8211 -1.7408
 7346SOL     OW33673   2.953   2.474  13.391  0.3459 -0.1074  0.2239
 7346SOL    HW133674   2.975   2.495  13.482 -0.2112 -0.2912  0.4060
 7346SOL    HW233675   2.947   2.379  13.403 -0.1572 -0.2559 -1.2134
 7347SOL     OW33676   2.255   3.505   2.685 -0.7730  0.1244 -0.2442
 7347SOL    HW133677   2.335   3.527   2.732 -0.3123  1.5401 -1.6575
 7347SOL    HW233678   2.231   3.598   2.680  1.0425  0.5269 -1.5265
 7348SOL     OW33679   2.567   1.026   0.694  0.1456 -0.1084 -0.1613
 7348SOL    HW133680   2.569   0.932   0.675  0.2741  0.1879 -1.6186
 7348SOL    HW233681   2.497   1.050   0.632 -0.6608  0.3685  0.9300
 7349SOL     OW33682   0.091   0.352  12.483  0.0923 -0.5656 -0.0165
 7349SOL    HW133683   0.176   0.385  12.453 -0.1067 -1.8108 -1.9297
 7349SOL    HW233684   0.025   0.389  12.424  0.7846  0.3742 -0.2009
 7350SOL     OW33685   4.528   4.531   6.854 -0.7328  0.4408  0.9525
 7350SOL    HW133686   4.616   4.519   6.819 -0.4786 -2.1675  2.5344
 7350SOL    HW233687   4.511   4.440   6.875  0.9020 -0.1518 -0.2944
 7351SOL     OW33688   2.216   0.276   4.793 -0.4836 -0.4890 -0.4703
 7351SOL    HW133689   2.201   0.371   4.783  1.0312 -0.2300 -0.2467
 7351SOL    HW233690   2.216   0.255   4.699  2.4500  1.3667 -0.8729
 7352SOL     OW33691   4.091   1.280   9.588  0.0529 -0.1425 -0.7063
 7352SOL    HW133692   4.152   1.294   9.661  1.3136  0.1825 -1.8296
 7352SOL    HW233693   4.117   1.193   9.557 -0.0740  0.0934 -1.4738
 7353SOL     OW33694   1.338   1.557   1.596  0.6474  0.1982  0.2569
 7353SOL    HW133695   1.391   1.593   1.667  1.0999  1.9028 -0.9346
 7353SOL    HW233696   1.270   1.624   1.591 -0.3288 -0.9802 -2.4757
 7354SOL     OW33697   0.581   4.693  10.216 -0.0211  0.3160  0.0468
 7354SOL    HW133698   0.506   0.010  10.242 -0.2519  0.9769 -1.9808
 7354SOL    HW233699   0.654   4.726  10.268 -1.0601  0.0726  1.6799
 7355SOL     OW33700   3.002   3.386   0.569  0.2943  0.4184  1.0380
 7355SOL    HW133701   2.974   3.412   0.481  0.9670  1.7478  1.2078
 7355SOL    HW233702   2.952   3.440   0.630 -0.2234  0.4022  0.6310
 7356SOL     OW33703   1.301   4.694   2.915  0.2519  1.4745 -0.0836
 7356SOL    HW133704   1.263   4.724   2.833  0.2387  0.2021 -0.5426
 7356SOL    HW233705   1.266   4.605   2.925 -1.5726  2.0625 -1.2815
 7357SOL     OW33706   1.683   3.168   7.177  0.0102  0.4893  0.1037
 7357SOL    HW133707   1.610   3.201   7.230 -0.3877 -2.0400  1.1344
 7357SOL    HW233708   1.667   3.074   7.177  1.4049  0.2520  1.7298
 7358SOL     OW33709   1.255   1.835   8.925  0.1045 -0.0589 -0.0622
 7358SOL    HW133710   1.322   1.768   8.936 -0.2296 -0.5155 -0.7816
 7358SOL    HW233711   1.185   1.785   8.882  1.0861 -0.5656 -1.0515
 7359SOL     OW33712   3.863   1.351  16.505  0.4517  0.1399 -0.7550
 7359SOL    HW133713   3.794   1.395  16.554  0.8877 -1.1960  1.0241
 7359SOL    HW233714   3.914   1.421  16.464  0.2861  0.6557 -0.0770
 7360SOL     OW33715   3.586   3.424   9.090 -0.2312 -0.1936  0.1427
 7360SOL    HW133716   3.672   3.383   9.096 -0.5643 -0.9868 -0.5816
 7360SOL    HW233717   3.584   3.429   8.995  0.5447 -0.0300  0.1345
 7361SOL     OW33718   3.526   4.305  10.729  0.1026 -0.4187  0.7019
 7361SOL    HW133719   3.505   4.234  10.669  0.4437  0.7362 -0.7955
 7361SOL    HW233720   3.476   4.382  10.702  0.9723  0.5769  1.8936
 7362SOL     OW33721   4.381   1.996   1.182 -0.0828 -0.0749  0.2501
 7362SOL    HW133722   4.417   2.083   1.162  1.4923 -0.2723  2.1357
 7362SOL    HW233723   4.340   1.986   1.097  0.7523 -1.2337 -0.0227
 7363SOL     OW33724   2.740   2.472   4.563  0.0078  0.1729 -0.4425
 7363SOL    HW133725   2.781   2.533   4.624 -0.0504 -2.3166  2.0636
 7363SOL    HW233726   2.775   2.507   4.481  1.9295 -2.4930 -0.7596
 7364SOL     OW33727   2.595   3.540   4.876 -0.6925 -0.0030  0.0265
 7364SOL    HW133728   2.633   3.482   4.943  0.3909  1.1876  0.4348
 7364SOL    HW233729   2.637   3.624   4.893 -2.7804  1.0380  0.0173
 7365SOL     OW33730   4.492   3.074   4.625  0.2439  0.1586  1.2072
 7365SOL    HW133731   4.570   3.019   4.626  0.6518  0.7445  1.0472
 7365SOL    HW233732   4.520   3.116   4.545 -0.3805 -0.2811  0.7550
 7366SOL     OW33733   2.285   3.167   5.323 -0.2979 -0.1962 -0.5391
 7366SOL    HW133734   2.193   3.150   5.304 -0.7157  1.2966  0.0766
 7366SOL    HW233735   2.309   3.095   5.381 -1.0513 -0.6000 -0.7282
 7367SOL     OW33736   0.254   0.251   6.360  0.2018  0.7299  0.1919
 7367SOL    HW133737   0.345   0.278   6.363  0.4098 -0.0848  1.1433
 7367SOL    HW233738   0.219   0.331   6.399  1.0563  0.0483  2.3552
 7368SOL     OW33739   4.482   0.032   6.613  0.1553  0.1158  0.6254
 7368SOL    HW133740   4.394   0.068   6.624 -0.6401 -0.9157 -2.2344
 7368SOL    HW233741   4.486   4.702   6.681  2.1571 -0.9352 -0.4999
 7369SOL     OW33742   3.918   4.090   4.876  0.5266 -0.0050  0.9859
 7369SOL    HW133743   3.989   4.044   4.920  1.9704  0.3508 -0.9961
 7369SOL    HW233744   3.965   4.149   4.816 -0.2371 -0.3559  0.0327
 7370SOL     OW33745   3.547   3.608   7.241  0.4409 -0.0460 -0.8476
 7370SOL    HW133746   3.501   3.526   7.226 -0.9185 -0.0264  3.2137
 7370SOL    HW233747   3.515   3.621   7.331  0.6484  2.8615 -1.1759
 7371SOL     OW33748   0.997   0.236   2.758 -0.2542  0.0660 -0.3189
 7371SOL    HW133749   0.975   0.318   2.714 -4.1476  0.5528  2.5872
 7371SOL    HW233750   1.008   0.186   2.677  4.2440  1.1313 -0.3824
 7372SOL     OW33751   1.866   2.088  11.820  0.1803  0.3657  0.0438
 7372SOL    HW133752   1.857   2.156  11.753  0.8070 -0.8994 -1.3190
 7372SOL    HW233753   1.777   2.053  11.820  0.2027  0.3113  0.3936
 7373SOL     OW33754   2.045   3.564   4.660 -0.2188  0.5733  0.5304
 7373SOL    HW133755   2.063   3.479   4.620 -1.8244 -0.5181  2.1366
 7373SOL    HW233756   1.991   3.541   4.736  0.3342  0.9614  1.0422
 7374SOL     OW33757   2.425   2.695  16.245 -0.4423 -0.5712  0.4485
 7374SOL    HW133758   2.409   2.752  16.170  0.4610 -0.5971  0.2384
 7374SOL    HW233759   2.464   2.620  16.201  0.4147  0.6372 -0.8329
 7375SOL     OW33760   0.954   4.335   6.683  0.4445 -0.2293 -0.0725
 7375SOL    HW133761   0.938   4.379   6.767 -2.0006  0.2237 -0.7648
 7375SOL    HW233762   1.010   4.405   6.648  0.0810  1.4171  2.6015
 7376SOL     OW33763   2.715   0.121   4.722  0.1553  0.4498  0.2108
 7376SOL    HW133764   2.696   0.204   4.678  3.1155  0.9082 -0.1925
 7376SOL    HW233765   2.638   0.074   4.689  0.5586  1.3056 -1.9722
 7377SOL     OW33766   3.712   1.986   6.457 -0.0688 -0.0326 -0.2758
 7377SOL    HW133767   3.631   2.019   6.497  0.2368  0.7891 -0.3419
 7377SOL    HW233768   3.771   2.060   6.455  0.0035 -0.0612  0.6720
 7378SOL     OW33769   1.421   3.719   3.587 -0.3557  0.1444 -0.0021
 7378SOL    HW133770   1.465   3.659   3.647 -0.7406  2.2071  2.3405
 7378SOL    HW233771   1.359   3.663   3.540 -0.4905  0.1741  0.1427
 7379SOL     OW33772   2.972   3.905   8.843  0.0751 -0.0186 -0.0423
 7379SOL    HW133773   3.059   3.935   8.869  0.3665 -0.0720 -0.9393
 7379SOL    HW233774   2.916   3.978   8.870 -0.2324 -0.6734  1.0954
 7380SOL     OW33775   0.588   1.451   7.857 -0.0335  0.3579  0.4161
 7380SOL    HW133776   0.678   1.478   7.874 -0.3625  1.0466  1.0756
 7380SOL    HW233777   0.591   1.427   7.764  1.6126  1.0601  0.2882
 7381SOL     OW33778   0.572   2.204   9.821 -0.7492  0.5306  0.3441
 7381SOL    HW133779   0.667   2.220   9.825 -1.0162  1.7438  1.6865
 7381SOL    HW233780   0.567   2.112   9.796 -2.5939  0.6869  0.1540
 7382SOL     OW33781   0.192   3.719   7.032  0.0359 -0.0301  0.1449
 7382SOL    HW133782   0.248   3.661   6.981 -0.0381  1.0714 -1.1703
 7382SOL    HW233783   0.109   3.704   6.986  0.2353 -1.7474  0.3363
 7383SOL     OW33784   1.316   0.943  15.028  0.4098 -0.4193 -0.4254
 7383SOL    HW133785   1.351   1.026  15.061 -0.2203 -0.4884  0.4022
 7383SOL    HW233786   1.372   0.925  14.952  1.3327  0.6094  0.0074
 7384SOL     OW33787   0.496   2.918   3.534 -0.1040 -0.3733 -0.1964
 7384SOL    HW133788   0.500   2.827   3.506 -0.7344 -0.1300 -1.0738
 7384SOL    HW233789   0.413   2.951   3.500  0.5168  1.5122  0.1304
 7385SOL     OW33790   3.281   1.016  15.138 -0.0967  0.4261 -0.2531
 7385SOL    HW133791   3.236   1.099  15.149  0.5197  0.9929 -1.9690
 7385SOL    HW233792   3.302   1.006  15.045  0.6993  1.3632 -0.1648
 7386SOL     OW33793   1.767   0.313   4.679  0.5080 -0.0488 -0.0269
 7386SOL    HW133794   1.674   0.316   4.698 -0.0125  0.8787 -2.7689
 7386SOL    HW233795   1.792   0.404   4.665 -0.6230  0.3470  0.5639
 7387SOL     OW33796   1.452   2.481  15.699  0.0985 -0.2746 -0.1953
 7387SOL    HW133797   1.432   2.397  15.740  1.4911  0.2283  1.5078
 7387SOL    HW233798   1.546   2.479  15.686  0.2624  2.2465  0.5591
 7388SOL     OW33799   4.075   2.990  16.721 -0.4205 -0.3365  0.2160
 7388SOL    HW133800   4.135   2.944  16.663  0.3985  2.2254 -0.9856
 7388SOL    HW233801   4.136   3.034  16.780 -0.6595  0.6852 -0.2899
 7389SOL     OW33802   0.909   1.053   2.821 -0.0048  0.2397  0.2635
 7389SOL    HW133803   0.969   1.122   2.792 -1.6463  0.2261 -3.1165
 7389SOL    HW233804   0.959   1.016   2.893  0.0745 -0.7674 -0.3065
 7390SOL     OW33805   4.255   4.491  17.399 -0.1983 -0.5005 -0.3668
 7390SOL    HW133806   4.238   4.397  17.403  0.8424 -0.7051 -0.7494
 7390SOL    HW233807   4.168   4.524  17.376  0.0015 -0.4777 -1.0976
 7391SOL     OW33808   1.259   2.540   1.005 -0.1168  0.2153  0.7248
 7391SOL    HW133809   1.269   2.563   1.098  1.4854 -1.5851  1.0021
 7391SOL    HW233810   1.294   2.620   0.966 -1.3109  1.0800  1.4101
 7392SOL     OW33811   0.390   2.245  13.477 -0.3983  0.1698 -0.0085
 7392SOL    HW133812   0.482   2.232  13.500 -0.1294  1.7986 -0.1349
 7392SOL    HW233813   0.348   2.188  13.541  0.4211 -0.9925 -0.5037
 7393SOL     OW33814   2.311   2.025  11.417 -0.3291 -0.1207 -0.1307
 7393SOL    HW133815   2.320   1.969  11.340 -1.4262  0.0005 -0.3459
 7393SOL    HW233816   2.330   2.113  11.384 -1.0361 -0.5998 -1.8333
 7394SOL     OW33817   3.619   1.093   4.599 -0.6496  0.0912 -0.4425
 7394SOL    HW133818   3.552   1.024   4.600 -1.0234  0.4479 -1.1078
 7394SOL    HW233819   3.648   1.091   4.690 -1.0530  0.6964 -0.3018
 7395SOL     OW33820   2.367   1.157   5.271  0.0066 -0.5686 -0.2198
 7395SOL    HW133821   2.281   1.145   5.312 -1.3088 -1.0144 -3.0485
 7395SOL    HW233822   2.357   1.250   5.252  0.7189 -0.3178  0.6881
 7396SOL     OW33823   0.957   3.940   6.852 -0.3982 -0.0527  0.4230
 7396SOL    HW133824   1.016   3.888   6.906  2.6274  1.9985 -0.9455
 7396SOL    HW233825   0.957   4.022   6.902  1.7776  0.5245 -0.5583
 7397SOL     OW33826   0.434   1.500   7.233 -0.0611 -0.2044  0.9906
 7397SOL    HW133827   0.473   1.448   7.303  1.6875  0.2460  0.3770
 7397SOL    HW233828   0.504   1.564   7.218  0.1935 -0.9339 -1.0477
 7398SOL     OW33829   3.454   2.659   8.906 -0.0373  0.3815 -0.5829
 7398SOL    HW133830   3.383   2.598   8.924  0.9313 -0.2109  1.2135
 7398SOL    HW233831   3.507   2.601   8.851 -1.2149 -1.5124  0.2828
 7399SOL     OW33832   2.906   3.605   3.367  0.5505  0.3898  0.2936
 7399SOL    HW133833   2.871   3.549   3.297 -0.2378 -0.4466  1.3705
 7399SOL    HW233834   2.866   3.548   3.432  0.5874  0.0698  0.0379
 7400SOL     OW33835   3.180   4.700  14.500  0.1637 -0.0053 -0.6291
 7400SOL    HW133836   3.190   4.606  14.485  0.1500 -0.5798  2.9579
 7400SOL    HW233837   3.183   4.701  14.595 -1.3648  0.7525 -0.5855
 7401SOL     OW33838   2.672   2.084  14.340  0.1937  0.4793 -0.5795
 7401SOL    HW133839   2.632   2.087  14.254  0.3737 -0.3952 -0.6976
 7401SOL    HW233840   2.594   2.068  14.394  0.0441 -0.2975 -1.0312
 7402SOL     OW33841   0.475   3.449   9.333  0.1571  0.5609  0.2268
 7402SOL    HW133842   0.437   3.472   9.249  0.2977  0.4979  0.1450
 7402SOL    HW233843   0.404   3.400   9.374  0.4889 -0.7416 -0.7472
 7403SOL     OW33844   4.707   0.015   7.524 -0.3283  0.1324 -0.2389
 7403SOL    HW133845   4.645   0.058   7.584 -1.1201  2.1195 -2.4685
 7403SOL    HW233846   4.711   4.660   7.548 -1.3507 -0.3062 -1.7809
 7404SOL     OW33847   1.279   1.074   7.706 -0.1022 -0.6266 -0.1423
 7404SOL    HW133848   1.233   1.151   7.673  1.2247  0.4195  0.4532
 7404SOL    HW233849   1.231   1.013   7.650 -0.3136 -0.9995  0.4551
 7405SOL     OW33850   1.171   3.796   6.124 -0.2980  0.8464 -0.4554
 7405SOL    HW133851   1.204   3.872   6.076 -1.7581  0.4926 -2.0027
 7405SOL    HW233852   1.194   3.826   6.212 -3.3257 -0.8218  0.8948
 7406SOL     OW33853   1.281   4.069  12.777 -0.5696  0.0682 -0.6071
 7406SOL    HW133854   1.199   4.056  12.729 -1.6081 -1.3934  1.5628
 7406SOL    HW233855   1.299   4.160  12.754 -3.0640  0.6024 -0.4417
 7407SOL     OW33856   1.029   3.962   5.141 -0.9395 -0.1225 -0.6494
 7407SOL    HW133857   1.034   4.018   5.219 -1.8464  0.9678 -1.3813
 7407SOL    HW233858   1.112   3.917   5.149 -1.3315 -0.5783  0.8938
 7408SOL     OW33859   0.226   2.372   8.832 -0.5364  0.0061 -0.0886
 7408SOL    HW133860   0.151   2.320   8.804  0.5758 -1.6095 -0.0952
 7408SOL    HW233861   0.210   2.388   8.925  0.9868  2.1254 -0.1745
 7409SOL     OW33862   2.131   4.238   7.730 -0.1466 -0.5466  0.3197
 7409SOL    HW133863   2.127   4.320   7.681  0.0624 -0.6589  0.1104
 7409SOL    HW233864   2.061   4.192   7.683 -0.4970  0.3313 -0.0132
 7410SOL     OW33865   3.285   1.244   5.495  0.3496  0.6576 -0.0535
 7410SOL    HW133866   3.219   1.231   5.427 -0.3879  0.2739  0.7212
 7410SOL    HW233867   3.365   1.243   5.443  0.1380  0.0932 -0.3672
 7411SOL     OW33868   4.207   2.349   4.964 -0.3096  0.1139 -0.7309
 7411SOL    HW133869   4.129   2.333   5.017  0.8805 -1.2587  0.5890
 7411SOL    HW233870   4.180   2.422   4.908 -2.9988  1.2965  2.0788
 7412SOL     OW33871   2.203   4.486   3.901  0.5662  0.0654 -0.1010
 7412SOL    HW133872   2.277   4.490   3.840  0.6401 -0.3161 -0.0360
 7412SOL    HW233873   2.138   4.438   3.850  0.5167  0.6163 -0.5579
 7413SOL     OW33874   3.703   1.706   3.483 -0.5696  0.1347  0.3884
 7413SOL    HW133875   3.673   1.787   3.524 -3.1745 -0.5643 -0.1313
 7413SOL    HW233876   3.669   1.640   3.543  0.2949  1.0172  1.8392
 7414SOL     OW33877   0.557   1.047  16.724  0.2965 -0.2386  0.4197
 7414SOL    HW133878   0.618   1.011  16.789  0.3760 -0.3851  0.2625
 7414SOL    HW233879   0.480   0.993  16.738 -0.4758  1.1079  1.4361
 7415SOL     OW33880   3.403   0.531   7.336  0.1349  0.3065 -0.3987
 7415SOL    HW133881   3.497   0.514   7.335  0.3888  1.5290  1.6690
 7415SOL    HW233882   3.359   0.461   7.386 -0.2318  1.2401  0.5875
 7416SOL     OW33883   2.002   1.535   1.667  0.6026  0.3750  0.1748
 7416SOL    HW133884   1.928   1.594   1.657  1.1894  0.5827 -2.9793
 7416SOL    HW233885   2.068   1.603   1.655  2.4443 -1.7253 -1.7770
 7417SOL     OW33886   0.628   2.465   0.147 -0.0507  0.4620  0.2531
 7417SOL    HW133887   0.589   2.484   0.232  0.6539 -1.8308  1.0728
 7417SOL    HW233888   0.715   2.430   0.165 -1.0119 -0.6246  2.7825
 7418SOL     OW33889   2.256   1.519   7.038 -0.7705  0.1897  0.0236
 7418SOL    HW133890   2.294   1.442   7.079 -1.2545 -0.3465 -0.5412
 7418SOL    HW233891   2.294   1.586   7.095 -0.6034  0.9064 -0.9355
 7419SOL     OW33892   1.021   4.106  17.687 -0.3404  0.1579 -0.4054
 7419SOL    HW133893   1.098   4.059  17.720 -1.0185  0.1648  1.1610
 7419SOL    HW233894   0.953   4.081   0.003  2.0788  0.5839  2.3337
 7420SOL     OW33895   2.816   3.671   6.511  0.7347 -0.0740 -0.1792
 7420SOL    HW133896   2.813   3.764   6.489 -3.4204 -0.4074 -1.0670
 7420SOL    HW233897   2.745   3.675   6.575  0.2519 -4.0806 -0.4726
 7421SOL     OW33898   2.471   2.669   5.778 -0.3603  0.5037 -0.4423
 7421SOL    HW133899   2.466   2.762   5.801 -4.6808 -0.1748  1.3695
 7421SOL    HW233900   2.462   2.628   5.865  0.6039 -0.6103 -0.8747
 7422SOL     OW33901   0.547   1.310  17.631  0.1611  0.5125  0.1388
 7422SOL    HW133902   0.491   1.282  17.558  0.4126 -2.3043  1.0320
 7422SOL    HW233903   0.612   1.242  17.616 -1.3786 -1.2220  1.4245
 7423SOL     OW33904   4.434   1.590   2.712 -0.3254 -0.1017 -0.5982
 7423SOL    HW133905   4.478   1.668   2.680 -1.7739  0.4569 -1.2438
 7423SOL    HW233906   4.431   1.536   2.633  0.4974  0.1198 -0.7741
 7424SOL     OW33907   4.466   1.735  15.034  0.4012  0.0941 -0.6313
 7424SOL    HW133908   4.513   1.655  15.056  2.6968  0.9322 -2.5946
 7424SOL    HW233909   4.535   1.793  15.002 -2.2315  2.7703 -1.4729
 7425SOL     OW33910   1.258   1.510   3.747 -0.3989 -0.3624  0.2101
 7425SOL    HW133911   1.253   1.471   3.834  3.7253  0.8134  0.9860
 7425SOL    HW233912   1.279   1.601   3.769 -0.0172 -0.4841  0.3539
 7426SOL     OW33913   1.270   4.176   9.060 -0.4708  0.2332  0.4071
 7426SOL    HW133914   1.249   4.088   9.090  1.3396 -1.1968 -2.5533
 7426SOL    HW233915   1.190   4.229   9.067 -1.4866 -1.3745  1.0863
 7427SOL     OW33916   3.371   3.884   1.795 -0.0647  0.0940 -0.1514
 7427SOL    HW133917   3.458   3.852   1.771 -1.2397 -1.9395 -1.6862
 7427SOL    HW233918   3.379   3.955   1.859 -0.0227 -0.7476  0.7861
 7428SOL     OW33919   4.408   1.258  13.564  0.0455 -0.0866  0.9157
 7428SOL    HW133920   4.474   1.262  13.633  0.6774 -2.7772  0.4559
 7428SOL    HW233921   4.424   1.169  13.532  0.5972  0.4044 -0.1940
 7429SOL     OW33922   4.409   4.655  10.905  0.3598  0.2324 -0.3221
 7429SOL    HW133923   4.326   4.666  10.952  0.1323  0.8808 -0.8733
 7429SOL    HW233924   4.405   4.560  10.897  0.3140  0.0814  1.5682
 7430SOL     OW33925   3.079   0.555   9.135 -0.4865  0.2739 -0.1546
 7430SOL    HW133926   3.125   0.589   9.212 -0.7825 -0.1317  0.1972
 7430SOL    HW233927   3.028   0.635   9.127 -2.1232 -0.4679  2.9108
 7431SOL     OW33928   3.176   2.343   7.349 -0.3117  0.0434 -0.6667
 7431SOL    HW133929   3.249   2.292   7.384 -1.1375  0.2311  1.3069
 7431SOL    HW233930   3.103   2.302   7.394  0.6653 -0.4272  0.5033
 7432SOL     OW33931   2.241   3.562   3.942  0.1759 -0.0221 -0.6550
 7432SOL    HW133932   2.243   3.656   3.927 -0.2519 -0.2185 -1.9211
 7432SOL    HW233933   2.262   3.534   3.853  2.0385 -0.5319 -0.0769
 7433SOL     OW33934   4.646   0.107   8.491 -0.1366 -0.3629 -0.0088
 7433SOL    HW133935   4.565   0.080   8.533  0.4178 -0.0302  1.2650
 7433SOL    HW233936   4.651   0.061   8.407  1.6837 -1.2735  0.5939
 7434SOL     OW33937   2.992   2.410   8.171 -0.0995 -0.0123 -0.1716
 7434SOL    HW133938   2.907   2.454   8.167 -0.5150 -0.7190  1.1943
 7434SOL    HW233939   2.968   2.326   8.210  1.4601  0.2277  1.2827
 7435SOL     OW33940   0.555   1.068  13.454  0.6804  0.5413 -0.0672
 7435SOL    HW133941   0.606   1.107  13.526  1.5626 -0.7284 -0.0003
 7435SOL    HW233942   0.468   1.074  13.493  1.0006  0.3370  0.6952
 7436SOL     OW33943   2.568   3.054   3.518  0.1743  0.0131  0.4095
 7436SOL    HW133944   2.580   3.086   3.429 -0.3642  1.3051  0.8171
 7436SOL    HW233945   2.575   2.959   3.505  1.9070  0.4538 -1.8927
 7437SOL     OW33946   2.221   3.013  14.895  0.2778  1.0115 -0.1561
 7437SOL    HW133947   2.249   2.922  14.885 -1.4701  0.4836 -0.2267
 7437SOL    HW233948   2.157   3.029  14.825 -1.3068 -1.9920  0.6128
 7438SOL     OW33949   3.725   0.398  11.985  0.2721  0.4776 -0.4395
 7438SOL    HW133950   3.721   0.460  12.059 -2.5009  1.5133 -1.4708
 7438SOL    HW233951   3.808   0.352  12.000 -0.8553 -2.1391 -2.1959
 7439SOL     OW33952   1.321   3.066   8.246  0.1855  0.3512  0.1163
 7439SOL    HW133953   1.249   3.022   8.200  0.9504 -1.1676  0.3737
 7439SOL    HW233954   1.400   3.022   8.215  0.8169 -0.0943  2.3451
 7440SOL     OW33955   3.437   2.832  13.273  0.2670 -0.1120 -0.5642
 7440SOL    HW133956   3.485   2.789  13.202  0.0933  2.1232 -2.0422
 7440SOL    HW233957   3.381   2.894  13.226 -1.7927 -2.2285 -0.8633
 7441SOL     OW33958   2.436   2.451   4.631 -0.1032 -0.1827  0.2451
 7441SOL    HW133959   2.373   2.478   4.564  0.4256 -1.0116 -0.5990
 7441SOL    HW233960   2.519   2.477   4.591 -0.9550  0.1740 -1.2854
 7442SOL     OW33961   1.391   1.327   9.691 -0.3698  0.3095  0.4445
 7442SOL    HW133962   1.477   1.342   9.729 -1.2677  0.2207  2.4823
 7442SOL    HW233963   1.329   1.352   9.759  1.2118  1.3270  1.5004
 7443SOL     OW33964   2.713   2.385   2.918  0.8444  0.1848 -0.1305
 7443SOL    HW133965   2.634   2.351   2.959  0.2931  0.9605 -0.5582
 7443SOL    HW233966   2.686   2.469   2.881  0.4684  1.2058  2.4727
 7444SOL     OW33967   3.734   0.746   3.615  0.2122 -0.2309  0.0356
 7444SOL    HW133968   3.700   0.836   3.614 -1.4490 -0.8697 -1.0069
 7444SOL    HW233969   3.726   0.719   3.523 -1.3878  0.0879  0.0807
 7445SOL     OW33970   0.134   1.160  12.090 -0.0261 -0.2336  0.2913
 7445SOL    HW133971   0.149   1.065  12.095  2.6956  0.0977 -1.4728
 7445SOL    HW233972   0.068   1.163  12.159  0.6956 -2.1489  1.0880
 7446SOL     OW33973   4.153   1.395  10.728  0.2206  0.4136 -0.4077
 7446SOL    HW133974   4.226   1.455  10.745 -0.5934  0.8907  1.4305
 7446SOL    HW233975   4.094   1.471  10.723  1.5833  1.5894  1.2014
 7447SOL     OW33976   1.223   0.003   2.630 -0.2841 -0.5071 -0.3073
 7447SOL    HW133977   1.269   4.674   2.580 -0.1736 -0.2352 -0.5661
 7447SOL    HW233978   1.293   0.064   2.653  1.1076 -1.5167 -1.9337
 7448SOL     OW33979   4.546   3.455   8.863 -0.4298 -0.3408 -0.3214
 7448SOL    HW133980   4.452   3.446   8.848 -0.8251  0.8241  1.4078
 7448SOL    HW233981   4.555   3.368   8.903 -0.0555 -1.3175 -2.5361
 7449SOL     OW33982   4.093   4.368  10.613 -0.1907 -0.1957 -0.3605
 7449SOL    HW133983   4.162   4.426  10.646 -0.1267 -0.1180 -0.6321
 7449SOL    HW233984   4.081   4.317  10.693 -0.3288 -2.4097 -1.7958
 7450SOL     OW33985   2.890   1.470  13.509 -0.2694  0.6595 -0.2529
 7450SOL    HW133986   2.808   1.441  13.469 -0.1303 -1.6650  1.1427
 7450SOL    HW233987   2.873   1.443  13.599 -0.1250 -2.0065 -1.0170
 7451SOL     OW33988   1.273   2.994   3.930  0.0072  0.2198 -0.0682
 7451SOL    HW133989   1.363   2.993   3.900  0.5066  2.3769  1.2831
 7451SOL    HW233990   1.241   3.075   3.890  1.8492  1.0728  0.1785
 7452SOL     OW33991   2.490   4.714   4.722 -0.1725  0.5591 -0.4147
 7452SOL    HW133992   2.513   4.719   4.815 -0.0155 -1.5986 -0.3296
 7452SOL    HW233993   2.414   4.657   4.732  0.2421 -0.3252 -2.4299
 7453SOL     OW33994   1.278   3.559   1.767 -0.1826 -0.3571 -0.0764
 7453SOL    HW133995   1.214   3.623   1.798 -2.1111 -2.8270  1.0398
 7453SOL    HW233996   1.359   3.610   1.760 -1.0226  1.0512  0.3545
 7454SOL     OW33997   2.213   2.965   5.502  0.2694 -0.2604 -0.0941
 7454SOL    HW133998   2.207   2.870   5.494  0.2476 -0.2059 -0.7270
 7454SOL    HW233999   2.146   2.991   5.439 -1.9399 -1.8111  1.5912
 7455SOL     OW34000   4.159   4.268   3.198 -0.4913 -0.3357 -0.6997
 7455SOL    HW134001   4.239   4.221   3.220 -0.7519 -0.8392 -0.8218
 7455SOL    HW234002   4.084   4.209   3.210 -1.6644  1.2592 -0.0869
 7456SOL     OW34003   2.118   2.315   9.564  0.3790  0.5204 -0.1706
 7456SOL    HW134004   2.178   2.292   9.493 -1.4419  1.7285 -2.1067
 7456SOL    HW234005   2.171   2.388   9.596 -3.7281  2.3937  2.3385
 7457SOL     OW34006   2.748   3.422   8.677  0.1711 -0.3428  0.0354
 7457SOL    HW134007   2.699   3.375   8.744 -1.3371  3.9083  1.8952
 7457SOL    HW234008   2.680   3.426   8.609 -1.5877  2.1882  1.9299
 7458SOL     OW34009   4.408   0.740  16.627 -0.0562  0.1009 -0.2426
 7458SOL    HW134010   4.388   0.733  16.534 -4.0285  0.9215  0.5548
 7458SOL    HW234011   4.420   0.651  16.659 -2.4397  0.1909  0.8559
 7459SOL     OW34012   2.125   3.905   4.279  0.5001 -0.3748  0.1868
 7459SOL    HW134013   2.145   3.971   4.345  0.4677  2.3008 -2.4954
 7459SOL    HW234014   2.031   3.895   4.295  0.3811 -1.4613 -1.1481
 7460SOL     OW34015   0.084   4.007   3.870  0.1566  0.4219 -0.2996
 7460SOL    HW134016   0.142   3.976   3.939  0.0360 -0.3881 -0.5591
 7460SOL    HW234017   0.110   3.952   3.795  2.2781 -2.3153  2.4098
 7461SOL     OW34018   0.344   1.045  12.892 -0.1977  0.2715 -1.0728
 7461SOL    HW134019   0.284   0.977  12.863  0.6789 -0.3636 -1.4145
 7461SOL    HW234020   0.419   0.990  12.868 -1.0267 -1.8255  1.1155
 7462SOL     OW34021   0.006   3.775   7.630 -0.3002  0.0389 -0.3829
 7462SOL    HW134022   4.692   3.702   7.596  0.5724 -1.0991  0.7178
 7462SOL    HW234023   4.670   3.837   7.634 -0.4809 -0.1790 -0.3220
 7463SOL     OW34024   2.377   3.337  15.622 -0.5142 -0.1998  0.0914
 7463SOL    HW134025   2.435   3.413  15.630  1.5233 -2.1728  3.8059
 7463SOL    HW234026   2.355   3.350  15.530  2.0050  3.0597 -0.0721
 7464SOL     OW34027   2.282   2.150   4.973  0.1970  0.4104 -0.1289
 7464SOL    HW134028   2.248   2.064   4.999 -0.0152  0.4817 -0.1714
 7464SOL    HW234029   2.304   2.198   5.053  1.4159 -2.2935  1.1663
 7465SOL     OW34030   4.611   1.022   6.541 -0.3513 -0.5789 -0.0806
 7465SOL    HW134031   4.615   1.009   6.635  0.8374  0.8699  0.0725
 7465SOL    HW234032   4.648   0.946   6.495  0.0098  0.7474 -2.0087
 7466SOL     OW34033   3.999   0.229   4.676  0.6494 -0.4436  0.2005
 7466SOL    HW134034   3.966   0.167   4.611 -1.1428 -1.0477  1.6739
 7466SOL    HW234035   3.952   0.204   4.755 -0.7851 -0.7547 -0.7430
 7467SOL     OW34036   4.240   4.461  10.166  0.0180  0.0961  0.0305
 7467SOL    HW134037   4.170   4.402  10.195 -0.6946  0.1561 -1.5772
 7467SOL    HW234038   4.188   4.539  10.149 -1.4763 -0.5645  1.6084
 7468SOL     OW34039   1.914   2.291   8.788 -0.4225  0.0928 -0.4648
 7468SOL    HW134040   1.938   2.350   8.716 -0.4167  1.2563  0.4906
 7468SOL    HW234041   1.929   2.350   8.862  0.9959 -1.9040  0.8361
 7469SOL     OW34042   1.812   2.365   2.010 -0.5211  0.1589  0.4872
 7469SOL    HW134043   1.907   2.372   2.020 -0.3302 -0.3347 -0.8620
 7469SOL    HW234044   1.776   2.330   2.091  1.2793 -1.4479  0.6108
 7470SOL     OW34045   3.809   0.420   8.875  0.2482 -0.7525  0.3892
 7470SOL    HW134046   3.865   0.494   8.899  0.4026 -0.2274 -1.5480
 7470SOL    HW234047   3.751   0.415   8.951 -0.9169  2.2069 -0.2959
 7471SOL     OW34048   2.439   0.491   0.802 -0.3328 -0.0173 -0.3142
 7471SOL    HW134049   2.411   0.543   0.877  3.9143  2.1171 -0.2144
 7471SOL    HW234050   2.356   0.483   0.754 -2.3182  1.9055  2.8438
 7472SOL     OW34051   3.331   4.334  16.557  0.0529  0.1186 -0.2155
 7472SOL    HW134052   3.379   4.284  16.622  0.3698 -0.9493 -1.2640
 7472SOL    HW234053   3.250   4.367  16.597 -0.7774 -1.9698 -0.1510
 7473SOL     OW34054   4.543   3.258   7.097  0.3938  0.1565  0.2385
 7473SOL    HW134055   4.623   3.287   7.054  0.3250 -0.5566 -0.3681
 7473SOL    HW234056   4.468   3.296   7.051  0.6471  0.4775  0.0950
 7474SOL     OW34057   2.289   1.898   2.077  0.3481  0.3060 -0.1195
 7474SOL    HW134058   2.336   1.901   2.161 -1.8916 -0.0983  1.1641
 7474SOL    HW234059   2.351   1.849   2.023  0.5766  1.5306 -0.9617
 7475SOL     OW34060   4.271   2.608  17.684  1.1372  0.3825 -0.0021
 7475SOL    HW134061   4.207   2.656  17.630  1.1956  1.2540  0.7155
 7475SOL    HW234062   4.340   2.583  17.623  1.5661  0.9637  0.2534
 7476SOL     OW34063   3.585   4.062   8.054 -0.3143  0.5158 -0.3659
 7476SOL    HW134064   3.572   4.083   8.146 -0.5008 -0.8855 -0.0765
 7476SOL    HW234065   3.527   3.986   8.042  1.3133 -0.8780  0.6730
 7477SOL     OW34066   2.382   0.752   4.614  0.0614  0.3705 -0.5973
 7477SOL    HW134067   2.342   0.839   4.620 -1.2813 -0.3059  0.4636
 7477SOL    HW234068   2.472   0.768   4.642 -0.5705  2.0466  0.4688
 7478SOL     OW34069   2.265   1.036   3.229 -0.0284 -0.2261 -0.3876
 7478SOL    HW134070   2.270   1.111   3.288  2.0374  0.6596 -1.6774
 7478SOL    HW234071   2.328   1.057   3.160  1.0147 -0.5190  0.4754
 7479SOL     OW34072   1.261   2.488  14.192  0.2722 -0.7833  0.3915
 7479SOL    HW134073   1.177   2.498  14.148  0.6562  1.6801  0.2247
 7479SOL    HW234074   1.316   2.546  14.138 -0.4920 -0.0480  0.3984
 7480SOL     OW34075   4.725   4.610   4.121  0.2188 -0.0294 -0.0484
 7480SOL    HW134076   0.080   4.629   4.102  0.7350 -0.9593  1.5103
 7480SOL    HW234077   4.694   4.693   4.155 -0.0122 -0.2609  0.2978
 7481SOL     OW34078   4.495   2.039   9.689 -0.1508  0.2216 -0.3811
 7481SOL    HW134079   4.590   2.044   9.675 -0.2529  1.0405 -0.7786
 7481SOL    HW234080   4.504   2.077   9.776 -2.2531  3.4681 -1.6172
 7482SOL     OW34081   2.520   0.533  10.097 -0.5759 -0.0234 -0.0421
 7482SOL    HW134082   2.584   0.467  10.069 -0.7339 -0.3263  0.3111
 7482SOL    HW234083   2.547   0.607  10.044  1.1521 -0.2148  0.5747
 7483SOL     OW34084   1.230   0.602   2.127 -0.5180  0.4845 -0.5878
 7483SOL    HW134085   1.186   0.522   2.098 -1.2781  0.7313 -0.1222
 7483SOL    HW234086   1.160   0.624   2.189 -1.7356  2.2018 -2.5462
 7484SOL     OW34087   1.902   3.541   5.874  0.0288 -0.0108 -0.4239
 7484SOL    HW134088   1.924   3.490   5.796  0.5614 -0.9343  0.3281
 7484SOL    HW234089   1.978   3.508   5.922 -0.2722 -0.8909 -0.5602
 7485SOL     OW34090   3.029   2.291   4.788  0.4598  0.0039  0.2067
 7485SOL    HW134091   3.056   2.204   4.756 -0.9564 -0.1904 -0.4580
 7485SOL    HW234092   3.053   2.346   4.714 -1.0167  0.0065 -0.2598
 7486SOL     OW34093   3.406   0.181  13.110 -0.0085 -0.2171  0.0412
 7486SOL    HW134094   3.332   0.176  13.170  2.6681 -1.2493  3.2834
 7486SOL    HW234095   3.353   0.184  13.031 -2.2993  0.5959  1.6320
 7487SOL     OW34096   2.914   2.591   6.707  0.0667  0.3519  0.1241
 7487SOL    HW134097   2.917   2.625   6.618  0.5403  0.3041  0.1175
 7487SOL    HW234098   2.820   2.595   6.724 -0.1463  0.9615 -1.1836
 7488SOL     OW34099   4.338   1.283   3.154 -0.3304  0.3256  0.0419
 7488SOL    HW134100   4.369   1.211   3.210  0.0875 -0.0426 -0.6692
 7488SOL    HW234101   4.419   1.289   3.103  0.9621  1.0249  2.1431
 7489SOL     OW34102   1.433   1.632  14.426 -0.1232 -0.2918  0.1620
 7489SOL    HW134103   1.348   1.656  14.463  0.2968 -0.0782  1.0017
 7489SOL    HW234104   1.430   1.683  14.345  1.3927 -0.5682 -0.0650
 7490SOL     OW34105   3.814   4.711   8.977  0.5144 -0.2154 -0.2388
 7490SOL    HW134106   3.841   4.638   9.033 -1.2367  0.5035  1.5475
 7490SOL    HW234107   3.744   0.018   9.026  1.9066 -0.1232  1.6967
 7491SOL     OW34108   2.103   3.241  15.007  0.1815  0.3151  0.1996
 7491SOL    HW134109   2.168   3.308  14.983 -0.5598  1.4848  1.4414
 7491SOL    HW234110   2.122   3.183  14.933  1.7776 -1.1679  1.7785
 7492SOL     OW34111   3.257   0.862   3.792  0.3722  0.5102  0.7534
 7492SOL    HW134112   3.338   0.813   3.783 -0.8478 -1.3271 -0.0917
 7492SOL    HW234113   3.288   0.946   3.758  1.7719 -0.5378 -0.5474
 7493SOL     OW34114   1.805   1.145   0.929 -0.1301 -0.4600 -0.2346
 7493SOL    HW134115   1.794   1.239   0.945  2.6364 -0.2951  0.7935
 7493SOL    HW234116   1.786   1.107   1.015  1.1347 -0.0196  0.2477
 7494SOL     OW34117   2.883   1.236   2.083  0.3517 -0.1494  0.2120
 7494SOL    HW134118   2.827   1.236   2.161  0.6265  0.9687  0.3992
 7494SOL    HW234119   2.817   1.239   2.014  1.0788 -0.8125 -0.5135
 7495SOL     OW34120   0.349   3.690   2.237  0.7809 -0.1960  0.5529
 7495SOL    HW134121   0.352   3.713   2.330  1.1410  3.4095 -0.3493
 7495SOL    HW234122   0.292   3.614   2.241  1.3031 -0.7135 -1.9518
 7496SOL     OW34123   4.100   0.024   5.960  0.0803  0.1999  0.4222
 7496SOL    HW134124   4.055   0.104   5.987 -0.9321 -0.5153  0.8421
 7496SOL    HW234125   4.162   0.040   5.888  0.5117 -1.3131  0.4524
 7497SOL     OW34126   0.438   3.517   3.109  0.6335 -0.3927 -0.0795
 7497SOL    HW134127   0.410   3.520   3.017  0.6723 -2.9216 -0.1692
 7497SOL    HW234128   0.472   3.607   3.106 -3.0106  0.9335 -1.5478
 7498SOL     OW34129   3.690   3.059  16.451 -0.0171 -0.5064  0.1810
 7498SOL    HW134130   3.782   3.031  16.442  0.4075  1.3966 -1.4283
 7498SOL    HW234131   3.704   3.153  16.466  1.3042 -0.9970  2.0791
 7499SOL     OW34132   3.775   2.566   9.048  0.2707  0.8873  0.1645
 7499SOL    HW134133   3.773   2.563   9.143 -2.6444 -0.6797  0.0354
 7499SOL    HW234134   3.852   2.510   9.037 -0.4607  0.4581 -2.8494
 7500SOL     OW34135   2.703   2.027  11.318 -0.1431  0.2372  0.2499
 7500SOL    HW134136   2.656   2.105  11.287 -0.9493 -0.0452  0.7737
 7500SOL    HW234137   2.662   2.014  11.403 -0.0219 -1.1133  0.0930
 7501SOL     OW34138   2.590   2.999   5.390  0.1949  0.4000  0.0739
 7501SOL    HW134139   2.539   2.919   5.376  0.6906  0.2086 -0.6789
 7501SOL    HW234140   2.531   3.049   5.446  1.1191  1.4024  0.1615
 7502SOL     OW34141   1.286   0.920   4.918 -0.2037  0.5948 -0.1107
 7502SOL    HW134142   1.304   0.979   4.991 -1.0093  0.2399  0.3724
 7502SOL    HW234143   1.225   0.963   4.857 -3.2405 -4.2389 -0.4575
 7503SOL     OW34144   2.552   1.467   0.089  0.0292  0.6373  0.2962
 7503SOL    HW134145   2.571   1.408   0.015 -0.6691  0.8499 -0.0534
 7503SOL    HW234146   2.607   1.411   0.143  2.0117  2.1437 -0.1758
 7504SOL     OW34147   1.300   0.385   7.738  0.0075  0.3517  0.0111
 7504SOL    HW134148   1.216   0.398   7.695  0.0525 -0.5934 -0.3556
 7504SOL    HW234149   1.274   0.392   7.830 -0.2076 -0.4060  0.0061
 7505SOL     OW34150   2.246   3.539   3.318 -0.0190  0.3585 -0.9229
 7505SOL    HW134151   2.185   3.606   3.288 -0.0809  0.3890 -0.7348
 7505SOL    HW234152   2.297   3.514   3.241  0.1169 -1.0435 -0.3721
 7506SOL     OW34153   2.071   4.356  15.586  0.7835 -0.0939 -0.2161
 7506SOL    HW134154   1.981   4.340  15.614  0.4820  1.0475 -0.5254
 7506SOL    HW234155   2.069   4.344  15.491  0.8003 -1.0283 -0.0955
 7507SOL     OW34156   1.158   3.365   2.590 -0.3177 -0.4113 -0.2025
 7507SOL    HW134157   1.070   3.384   2.558  0.5279  1.0871 -1.6336
 7507SOL    HW234158   1.134   3.361   2.683  0.0802  0.2648 -0.0709
 7508SOL     OW34159   3.961   1.529  11.982  0.3649  0.4486  0.0204
 7508SOL    HW134160   4.006   1.496  12.060 -1.2403 -0.9295  0.3634
 7508SOL    HW234161   3.895   1.462  11.966 -1.6187  2.7943 -1.5089
 7509SOL     OW34162   2.562   3.282  15.148 -0.2250 -0.0899 -0.4742
 7509SOL    HW134163   2.560   3.293  15.243  0.1219 -1.6906 -0.2790
 7509SOL    HW234164   2.476   3.249  15.124  0.2492  0.5584 -3.1121
 7510SOL     OW34165   0.101   0.948   8.726  0.0612 -0.0309 -0.0016
 7510SOL    HW134166   0.048   0.872   8.702  0.8703 -1.1036  1.6646
 7510SOL    HW234167   0.074   0.978   8.812 -1.3651  3.0780 -1.5280
 7511SOL     OW34168   3.742   0.481   5.377  0.2617  0.1168 -0.5560
 7511SOL    HW134169   3.786   0.408   5.419 -0.2902  0.5693  0.8004
 7511SOL    HW234170   3.815   0.543   5.370 -0.7116  1.1856 -1.2986
 7512SOL     OW34171   3.850   3.003   2.497 -0.0457 -0.6049 -0.6095
 7512SOL    HW134172   3.839   3.081   2.444  1.1417 -1.0741 -1.5490
 7512SOL    HW234173   3.843   3.048   2.581  3.0681 -1.0065 -0.1353
 7513SOL     OW34174   3.873   3.401   4.825 -0.1885 -0.6487 -0.5454
 7513SOL    HW134175   3.852   3.319   4.781 -0.5266 -0.0898 -1.4307
 7513SOL    HW234176   3.955   3.372   4.864 -0.6066 -1.5029 -0.3016
 7514SOL     OW34177   0.756   3.935   8.947  0.2446  0.0427 -0.0572
 7514SOL    HW134178   0.693   4.004   8.962  0.3263  0.2738 -0.7659
 7514SOL    HW234179   0.828   3.980   8.902  1.0604 -1.5426 -0.3580
 7515SOL     OW34180   1.023   0.076   2.098  0.3113  0.7657 -0.2744
 7515SOL    HW134181   0.983   4.734   2.063  1.9391 -0.9404  1.7015
 7515SOL    HW234182   0.953   0.109   2.155  0.3134 -0.0574  0.2118
 7516SOL     OW34183   1.942   1.050   0.729  0.2181  0.4399 -0.2148
 7516SOL    HW134184   1.964   1.137   0.695  2.9460  0.0362  0.4825
 7516SOL    HW234185   1.894   1.077   0.807  0.3388  1.3220 -0.4435
 7517SOL     OW34186   0.515   4.398   9.182  0.7804 -0.3592  0.7905
 7517SOL    HW134187   0.449   4.401   9.113  1.8282  0.6780 -0.1723
 7517SOL    HW234188   0.488   4.323   9.236  0.0821  0.3922  1.4909
 7518SOL     OW34189   4.639   3.991  12.899  0.4247  0.2006 -0.3888
 7518SOL    HW134190   4.588   4.018  12.823 -0.0496 -0.9333 -0.4646
 7518SOL    HW234191   4.680   3.915  12.858 -0.2591 -0.1945 -0.3332
 7519SOL     OW34192   3.051   0.928  17.033 -0.1886  0.1661 -0.0280
 7519SOL    HW134193   3.140   0.961  17.026  0.1939 -0.4856  1.6306
 7519SOL    HW234194   3.056   0.852  16.974  3.8724 -0.7450  1.5297
 7520SOL     OW34195   2.759   3.471   2.963  0.1075  0.0328  0.6816
 7520SOL    HW134196   2.836   3.511   3.003  0.2104 -0.9822  1.4984
 7520SOL    HW234197   2.726   3.423   3.039  0.4585 -3.2118 -1.1998
 7521SOL     OW34198   3.108   3.330  15.252  0.0447  0.8301  0.2751
 7521SOL    HW134199   3.028   3.296  15.213 -0.8975  2.7654  0.5106
 7521SOL    HW234200   3.175   3.325  15.184  0.1824 -2.9112  0.7028
 7522SOL     OW34201   3.085   1.893   3.065  0.1953 -0.2114 -0.4074
 7522SOL    HW134202   3.038   1.852   2.993 -1.1038 -0.5103  0.6046
 7522SOL    HW234203   3.153   1.829   3.085  0.5045  0.5940  1.1702
 7523SOL     OW34204   3.809   4.245   6.759  0.0299  0.4903  0.3103
 7523SOL    HW134205   3.728   4.195   6.769  0.7469 -0.3297  2.0469
 7523SOL    HW234206   3.801   4.290   6.675  2.2987 -0.8250 -0.5912
 7524SOL     OW34207   4.159   3.684   3.025  0.5314  0.1533 -0.3570
 7524SOL    HW134208   4.246   3.651   3.047 -0.5220 -0.9648  2.0780
 7524SOL    HW234209   4.155   3.613   2.961  0.8005  1.7217 -2.1286
 7525SOL     OW34210   3.993   3.124   2.123 -0.3324  0.2648 -0.1578
 7525SOL    HW134211   3.970   3.139   2.031  0.0727 -2.1902 -0.6686
 7525SOL    HW234212   4.076   3.077   2.115 -1.0867 -1.1049  0.1142
 7526SOL     OW34213   3.802   1.526  15.195  0.1159 -0.3550  0.3019
 7526SOL    HW134214   3.877   1.485  15.152 -1.2133 -0.6255 -1.7282
 7526SOL    HW234215   3.726   1.491  15.150  0.2454  0.4010 -0.5155
 7527SOL     OW34216   0.392   3.161   2.498  0.0607  0.1026 -0.5129
 7527SOL    HW134217   0.399   3.167   2.402  1.2217  2.4660 -0.2914
 7527SOL    HW234218   0.374   3.247   2.537 -0.1087  0.6584 -1.8118
 7528SOL     OW34219   1.838   0.453  14.787 -0.1519  0.3304  0.4083
 7528SOL    HW134220   1.748   0.481  14.805 -1.2108 -2.5016 -0.4777
 7528SOL    HW234221   1.847   0.364  14.821 -1.0086 -0.1815 -0.6896
 7529SOL     OW34222   0.666   1.547   2.883 -0.1341 -0.5867  0.1580
 7529SOL    HW134223   0.655   1.605   2.959  2.4026 -0.6778  0.6039
 7529SOL    HW234224   0.577   1.546   2.849 -0.3618  0.4957  0.7271
 7530SOL     OW34225   0.850   0.593   5.027  0.3555  0.2303  0.2191
 7530SOL    HW134226   0.935   0.565   5.063  0.4774  0.2107 -0.0766
 7530SOL    HW234227   0.861   0.688   5.024 -2.2399  0.4625 -1.4536
 7531SOL     OW34228   2.261   4.144  16.121 -0.0322  0.1590  0.3451
 7531SOL    HW134229   2.275   4.227  16.076 -0.7356  1.1446  1.9080
 7531SOL    HW234230   2.242   4.175  16.210 -0.2483  1.3483 -0.1152
 7532SOL     OW34231   4.135   1.379   2.280 -0.0343 -0.0009  0.4436
 7532SOL    HW134232   4.185   1.450   2.320  1.9318 -1.5279  0.7651
 7532SOL    HW234233   4.092   1.441   2.223  1.2099  0.4302 -0.0369
 7533SOL     OW34234   1.226   2.088  10.364  0.0012  0.3210 -0.6110
 7533SOL    HW134235   1.205   2.143  10.439 -0.8267 -3.1684  1.7249
 7533SOL    HW234236   1.272   2.149  10.307 -1.2960  2.9850  1.1905
 7534SOL     OW34237   4.374   0.645   5.436 -0.0898 -0.3733 -1.0664
 7534SOL    HW134238   4.391   0.569   5.380  2.6828 -1.8396  1.7549
 7534SOL    HW234239   4.337   0.706   5.372  0.4244  1.0253 -0.0360
 7535SOL     OW34240   2.729   4.152   9.439  0.5291  0.0690 -0.3919
 7535SOL    HW134241   2.685   4.193   9.514  1.1489 -0.8539  0.4787
 7535SOL    HW234242   2.806   4.207   9.429  1.8104 -1.3492  1.5829
 7536SOL     OW34243   3.556   2.654   6.421 -0.7513 -0.1876 -0.2456
 7536SOL    HW134244   3.476   2.609   6.445 -1.3074  1.3650  0.8019
 7536SOL    HW234245   3.611   2.610   6.486 -1.3002 -0.0618  0.3060
 7537SOL     OW34246   4.305   4.303  15.217 -0.3703  0.2538 -0.0995
 7537SOL    HW134247   4.312   4.355  15.136 -1.8636  1.5800  0.6101
 7537SOL    HW234248   4.259   4.367  15.272  1.7144  0.0965  1.7680
 7538SOL     OW34249   1.989   0.813   9.536 -0.2994  0.3950  0.3200
 7538SOL    HW134250   2.075   0.855   9.538 -0.4175  0.6350  0.3973
 7538SOL    HW234251   1.946   0.847   9.615 -0.7201  1.4194 -0.3576
 7539SOL     OW34252   1.778   2.943  10.148 -0.6388 -0.3907  0.0832
 7539SOL    HW134253   1.858   2.928  10.097 -1.0664  0.6486 -0.8919
 7539SOL    HW234254   1.759   2.861  10.194 -1.3968 -0.6609 -0.7152
 7540SOL     OW34255   2.241   1.516  12.886 -0.0514 -0.1569 -0.5570
 7540SOL    HW134256   2.274   1.468  12.810  0.7436  1.9950 -1.5962
 7540SOL    HW234257   2.159   1.470  12.904 -0.1711 -0.0898 -0.9311
 7541SOL     OW34258   1.559   2.807   9.309 -0.4645  0.4297 -0.2752
 7541SOL    HW134259   1.588   2.898   9.298  0.3927  0.0823 -0.8303
 7541SOL    HW234260   1.464   2.824   9.310 -0.5442 -0.1194  0.6938
 7542SOL     OW34261   3.885   0.568   6.440  0.6762  0.1954 -0.8523
 7542SOL    HW134262   3.816   0.594   6.500 -1.1007 -4.3123 -0.9118
 7542SOL    HW234263   3.836   0.518   6.374  0.1131 -2.3587  1.5295
 7543SOL     OW34264   3.092   2.157   3.382 -0.5461 -0.1336 -0.0085
 7543SOL    HW134265   3.041   2.104   3.321 -1.8753  1.0611  0.0535
 7543SOL    HW234266   3.160   2.096   3.411 -0.4177  0.4132  0.8629
 7544SOL     OW34267   2.860   1.302   8.858 -0.5268 -0.0747  0.1425
 7544SOL    HW134268   2.859   1.213   8.891  0.7699 -0.3338 -0.5344
 7544SOL    HW234269   2.953   1.315   8.875 -0.3220 -1.4205 -0.0058
 7545SOL     OW34270   2.545   0.913   1.705  0.2550 -0.1318 -0.3365
 7545SOL    HW134271   2.577   0.939   1.791 -0.0914  2.6944 -1.0462
 7545SOL    HW234272   2.456   0.948   1.708  1.1962  2.0802  1.6130
 7546SOL     OW34273   1.804   1.345   8.491  0.1401 -0.2817 -0.0873
 7546SOL    HW134274   1.794   1.329   8.397  0.5212  1.5244 -0.4206
 7546SOL    HW234275   1.893   1.381   8.487  0.2030 -0.2575  1.7663
 7547SOL     OW34276   3.817   3.700   7.189 -0.3182  0.1872 -0.1156
 7547SOL    HW134277   3.839   3.793   7.197  1.1364 -0.2086  0.5002
 7547SOL    HW234278   3.722   3.693   7.174 -0.7352 -0.0429  2.6738
 7548SOL     OW34279   2.160   0.884   0.453 -0.4361 -0.2757 -0.0154
 7548SOL    HW134280   2.106   0.949   0.408  0.3306  1.3457  1.4206
 7548SOL    HW234281   2.199   0.931   0.527  0.4665 -0.9202 -0.0820
 7549SOL     OW34282   3.613   1.821  12.295 -0.2286 -0.0491 -0.9557
 7549SOL    HW134283   3.628   1.780  12.380  0.5613 -0.7434 -1.4258
 7549SOL    HW234284   3.613   1.743  12.240 -1.5148  0.3057 -1.4700
 7550SOL     OW34285   3.132   3.940   1.610 -0.3656  0.5375  0.0038
 7550SOL    HW134286   3.199   3.941   1.678 -0.2411  0.8102 -0.1275
 7550SOL    HW234287   3.091   4.026   1.616 -0.2494  0.5438  0.7418
 7551SOL     OW34288   0.308   2.075  13.677 -0.4314  0.2044  0.3829
 7551SOL    HW134289   0.377   2.075  13.743  1.0434  0.0002 -1.1545
 7551SOL    HW234290   0.299   1.981  13.662  3.0010 -0.1113  0.2179
 7552SOL     OW34291   2.658   3.084  12.201 -0.2144  0.2935  0.0050
 7552SOL    HW134292   2.571   3.120  12.216 -0.3191 -0.0096  0.1348
 7552SOL    HW234293   2.654   3.027  12.278  0.0587 -0.8482 -0.8327
 7553SOL     OW34294   3.912   0.755  14.602 -0.3703 -0.0382  0.2868
 7553SOL    HW134295   3.865   0.672  14.599  0.6720 -0.6363  0.8850
 7553SOL    HW234296   3.911   0.759  14.698 -1.6499 -0.1466  0.2871
 7554SOL     OW34297   0.764   0.393  14.074  0.7341 -0.3162  0.4709
 7554SOL    HW134298   0.690   0.431  14.028  3.0184  1.9237 -1.3394
 7554SOL    HW234299   0.726   0.307  14.094  0.3887  0.1074  1.6589
 7555SOL     OW34300   2.735   3.973   2.388 -0.3279 -0.2670 -0.2433
 7555SOL    HW134301   2.759   4.053   2.434 -1.3440  0.4701 -1.0017
 7555SOL    HW234302   2.801   3.909   2.414  0.7753  0.1313 -2.0639
 7556SOL     OW34303   3.869   1.276  10.147  0.3018 -0.2253 -0.3291
 7556SOL    HW134304   3.874   1.214  10.220 -0.1724 -1.9498 -1.7536
 7556SOL    HW234305   3.881   1.223  10.068 -1.4528 -0.7617 -0.2422
 7557SOL     OW34306   1.506   3.602   4.280 -0.3955  0.4769 -0.6871
 7557SOL    HW134307   1.543   3.658   4.348 -1.1387  0.0834  0.0448
 7557SOL    HW234308   1.498   3.530   4.343 -0.8452 -1.6879 -3.2431
 7558SOL     OW34309   1.559   0.595   4.857 -0.4338 -0.3712  0.4069
 7558SOL    HW134310   1.637   0.608   4.911  0.3440 -2.8957 -0.1540
 7558SOL    HW234311   1.603   0.609   4.773  0.2410 -0.3059  0.7784
 7559SOL     OW34312   2.592   0.166   4.311  0.3796 -0.0382 -0.2686
 7559SOL    HW134313   2.665   0.164   4.249  0.7612  0.1169  0.1817
 7559SOL    HW234314   2.574   0.072   4.304  0.1250  0.1308 -1.8512
 7560SOL     OW34315   4.511   4.211   9.561  0.0446 -0.0618 -0.0902
 7560SOL    HW134316   4.459   4.260   9.625  1.3777  2.0717 -0.6459
 7560SOL    HW234317   4.588   4.198   9.617 -0.0406  0.4847  0.1608
 7561SOL     OW34318   4.037   2.496   7.827  0.2135  0.7120  0.3926
 7561SOL    HW134319   3.961   2.550   7.807  0.7924  1.1475 -0.5880
 7561SOL    HW234320   4.003   2.406   7.826  1.1427  0.3293  2.6761
 7562SOL     OW34321   3.812   1.595  10.482 -0.0086 -0.1180 -0.2304
 7562SOL    HW134322   3.805   1.691  10.491  0.1341 -0.1235 -0.0479
 7562SOL    HW234323   3.872   1.575  10.554  1.5990  0.9247 -1.2841
 7563SOL     OW34324   4.103   3.954   2.593  0.2264  0.0555 -0.4809
 7563SOL    HW134325   4.086   4.042   2.626  3.9817  0.7538 -0.4879
 7563SOL    HW234326   4.113   3.911   2.677  1.7223  0.3294 -0.5253
 7564SOL     OW34327   1.065   1.123  11.913  0.4656  0.8992 -0.3065
 7564SOL    HW134328   1.108   1.143  11.996  1.0711  0.4107 -0.5037
 7564SOL    HW234329   1.128   1.150  11.846  0.8147  2.5098  0.6653
 7565SOL     OW34330   1.851   1.319   7.966 -0.8888 -0.4753  0.1802
 7565SOL    HW134331   1.857   1.236   7.918  1.2409 -0.1579 -0.0950
 7565SOL    HW234332   1.807   1.370   7.897  1.2885  1.3547  0.1701
 7566SOL     OW34333   1.216   0.514   7.972  0.5314  0.4576 -0.0147
 7566SOL    HW134334   1.145   0.499   8.035  0.8269 -0.1834  0.1644
 7566SOL    HW234335   1.286   0.516   8.036  0.8043  0.1149 -0.3047
 7567SOL     OW34336   2.980   1.197   0.498 -0.1385  0.1978 -0.1746
 7567SOL    HW134337   2.996   1.291   0.486  1.5913 -0.1465 -0.5234
 7567SOL    HW234338   3.067   1.160   0.484 -0.3070 -0.5311  0.7310
 7568SOL     OW34339   3.702   1.538  11.654 -0.0742 -0.0714  0.2436
 7568SOL    HW134340   3.728   1.603  11.589 -0.1647 -1.3100 -1.0363
 7568SOL    HW234341   3.769   1.469  11.649  2.0636  2.1735 -2.0805
 7569SOL     OW34342   4.594   2.059   8.726 -0.1665  0.1789  0.4088
 7569SOL    HW134343   4.502   2.086   8.726 -0.5500 -1.0975 -0.4593
 7569SOL    HW234344   4.595   1.969   8.693  1.0498 -0.1269  1.3106
 7570SOL     OW34345   4.090   0.346   3.399 -0.5127  0.3469 -0.3151
 7570SOL    HW134346   4.181   0.342   3.427 -0.6848  0.2722  0.2215
 7570SOL    HW234347   4.101   0.311   3.310 -1.3395 -0.4632 -0.1057
 7571SOL     OW34348   0.142   0.045   5.880  0.6213 -0.4811 -0.3034
 7571SOL    HW134349   0.212   0.079   5.824  2.3941 -2.2195  0.8866
 7571SOL    HW234350   0.175   0.051   5.969 -1.1584 -2.5893  0.4951
 7572SOL     OW34351   4.717   0.044  11.098 -0.5623 -0.2886  1.2550
 7572SOL    HW134352   4.645   0.089  11.141  0.7956  0.2629  2.9197
 7572SOL    HW234353   0.023   0.117  11.054 -1.3376  0.0715  1.0874
 7573SOL     OW34354   4.320   2.025   8.668  0.0307 -0.6518  0.3377
 7573SOL    HW134355   4.242   2.019   8.723 -0.3175  1.1560  0.0552
 7573SOL    HW234356   4.316   1.938   8.629  1.0348 -0.8647  0.7049
 7574SOL     OW34357   1.561   3.378   6.986  0.8826 -0.2167 -0.0258
 7574SOL    HW134358   1.655   3.388   6.967  1.3500 -2.1906  1.2704
 7574SOL    HW234359   1.567   3.387   7.081  0.3057  0.2891 -0.0364
 7575SOL     OW34360   3.668   3.250   8.411 -0.1181 -0.2218  0.2475
 7575SOL    HW134361   3.668   3.158   8.382 -3.6420 -0.0126 -0.4216
 7575SOL    HW234362   3.622   3.232   8.493  2.6450 -1.1754  1.5782
 7576SOL     OW34363   2.741   3.450   5.095  0.4900  0.5320 -0.7025
 7576SOL    HW134364   2.764   3.375   5.151 -2.3214 -1.1628 -1.8266
 7576SOL    HW234365   2.720   3.522   5.154 -1.3364 -0.2322 -0.4176
 7577SOL     OW34366   2.108   2.581   4.955  0.0582  0.3839 -0.4982
 7577SOL    HW134367   2.025   2.534   4.962  0.4916 -0.4303 -0.8296
 7577SOL    HW234368   2.114   2.564   4.861  2.0309  1.2609 -0.5266
 7578SOL     OW34369   4.604   2.389   7.874  0.9595 -0.3805 -0.5996
 7578SOL    HW134370   4.545   2.394   7.799 -0.1287  0.8715  0.3346
 7578SOL    HW234371   4.551   2.385   7.954 -0.1430  0.1325 -1.3220
 7579SOL     OW34372   0.151   3.273  13.246 -0.6731 -0.9670  0.3111
 7579SOL    HW134373   0.115   3.290  13.159 -1.1999  2.1299  1.1298
 7579SOL    HW234374   0.070   3.239  13.285 -0.5652 -1.3791  0.1695
 7580SOL     OW34375   2.370   1.434   5.199 -0.0277 -0.4834 -0.1344
 7580SOL    HW134376   2.380   1.516   5.149 -0.6249 -0.6368 -0.5064
 7580SOL    HW234377   2.371   1.477   5.284 -3.0067  0.0273 -0.3519
 7581SOL     OW34378   1.792   2.269   5.297 -0.4907  0.0299  0.2188
 7581SOL    HW134379   1.744   2.349   5.317 -0.0540  0.9245 -2.4070
 7581SOL    HW234380   1.879   2.293   5.329 -1.6844  2.9522  1.2578
 7582SOL     OW34381   3.813   0.300  17.067  0.1654  0.0958  0.3314
 7582SOL    HW134382   3.757   0.330  16.996 -1.8205 -1.4827  1.2162
 7582SOL    HW234383   3.774   0.218  17.097 -0.8244  0.1444 -0.8297
 7583SOL     OW34384   0.859   2.177   7.829 -0.1557 -0.1561 -0.1865
 7583SOL    HW134385   0.914   2.248   7.796  0.2854  0.8271  2.6416
 7583SOL    HW234386   0.914   2.100   7.815  0.8527  0.1551  2.1456
 7584SOL     OW34387   4.387   2.719  11.288 -0.1682 -0.3899  0.0991
 7584SOL    HW134388   4.329   2.765  11.348  0.3626 -0.0596  0.3631
 7584SOL    HW234389   4.328   2.670  11.231 -0.8712  1.2557 -0.6009
 7585SOL     OW34390   3.107   1.091   8.854  0.6808 -0.1680 -0.2029
 7585SOL    HW134391   3.066   1.065   8.771  1.9805  1.1558 -1.2640
 7585SOL    HW234392   3.195   1.074   8.821  1.2971  2.0727  0.3086
 7586SOL     OW34393   4.454   2.382   7.461  0.4950 -0.2703  0.5549
 7586SOL    HW134394   4.434   2.326   7.386 -1.4184  0.1014  0.7885
 7586SOL    HW234395   4.447   2.328   7.540  0.6157 -1.8848 -0.5405
 7587SOL     OW34396   1.340   3.872   6.351 -0.4940  0.0783  0.1895
 7587SOL    HW134397   1.365   3.805   6.414  0.9206  1.3713  1.0294
 7587SOL    HW234398   1.428   3.885   6.314 -1.7604 -0.4127 -2.9839
 7588SOL     OW34399   3.719   2.497   2.471 -0.1581 -0.4243  0.6227
 7588SOL    HW134400   3.678   2.486   2.386  1.2815 -4.8706  0.4902
 7588SOL    HW234401   3.702   2.585   2.505  1.0702  0.4387 -1.0157
 7589SOL     OW34402   0.071   3.918   2.928 -0.0485  0.7549 -0.3871
 7589SOL    HW134403   4.723   3.944   2.962  0.8915  0.1971  2.4524
 7589SOL    HW234404   0.056   3.824   2.916  1.5949  0.1119  2.4418
 7590SOL     OW34405   1.801   4.408   8.843  0.3997  0.1542  0.3689
 7590SOL    HW134406   1.847   4.385   8.762 -0.3917 -0.2850  0.0412
 7590SOL    HW234407   1.734   4.342   8.856 -0.7560  1.5798  1.7067
 7591SOL     OW34408   3.913   3.508   3.885  0.4322  0.2965  0.6809
 7591SOL    HW134409   3.864   3.443   3.834 -0.1424  0.3196  1.2029
 7591SOL    HW234410   3.923   3.576   3.819  1.9678 -0.2908  0.3199
 7592SOL     OW34411   0.224   0.376   8.966  0.1348 -0.0240  0.2177
 7592SOL    HW134412   0.291   0.445   8.965  0.3632 -0.2129  3.2586
 7592SOL    HW234413   0.169   0.391   9.043  0.7030 -0.8845  0.7798
 7593SOL     OW34414   3.624   3.710   4.004  0.6732 -0.2457  0.4837
 7593SOL    HW134415   3.705   3.758   3.990  1.2478 -1.3471  0.0367
 7593SOL    HW234416   3.560   3.731   3.936  0.0689 -0.5006  0.9726
 7594SOL     OW34417   0.021   0.004   8.758 -0.8234 -0.4901 -0.5469
 7594SOL    HW134418   4.673   4.700   8.768 -0.8265  0.5256  3.4329
 7594SOL    HW234419   0.001   0.072   8.693 -1.5812  1.1654  1.4033
 7595SOL     OW34420   2.248   3.624  16.429 -0.2629  0.6168 -0.9621
 7595SOL    HW134421   2.160   3.635  16.393 -1.2484 -2.0857  0.5854
 7595SOL    HW234422   2.236   3.612  16.523  2.3229  0.0530 -0.7078
 7596SOL     OW34423   1.146   1.561   3.189 -0.1106  0.3581 -0.5109
 7596SOL    HW134424   1.115   1.623   3.123 -1.4751 -0.3940 -0.5838
 7596SOL    HW234425   1.214   1.514   3.140  1.0813  0.6345  0.9047
 7597SOL     OW34426   2.022   1.081   6.661  0.3723  0.3547 -0.0908
 7597SOL    HW134427   1.954   1.014   6.671  0.0988  0.7762  0.8978
 7597SOL    HW234428   2.062   1.067   6.575 -2.1455 -1.6891 -0.9117
 7598SOL     OW34429   3.120   0.731  14.136 -0.4246  0.3277  0.6937
 7598SOL    HW134430   3.164   0.692  14.212 -0.1025  1.8758  1.3011
 7598SOL    HW234431   3.036   0.729  14.182 -0.2571  1.7047  1.0706
 7599SOL     OW34432   2.241   2.286   6.873 -0.3012 -0.2678  0.1326
 7599SOL    HW134433   2.287   2.276   6.956 -0.8568  0.4357  0.5243
 7599SOL    HW234434   2.291   2.218   6.829 -0.2201  1.4772 -2.4824
 7600SOL     OW34435   1.639   1.292  17.067  0.5531 -0.2166 -0.8613
 7600SOL    HW134436   1.714   1.242  17.099 -0.0717 -1.5356 -1.4612
 7600SOL    HW234437   1.642   1.365  17.129  1.5915 -0.0529 -1.1076
 7601SOL     OW34438   0.999   1.668   4.657  0.5778  0.0467 -0.0732
 7601SOL    HW134439   1.076   1.628   4.698  0.7676  2.9952  2.4996
 7601SOL    HW234440   1.039   1.748   4.622 -0.8217  0.1694 -1.4000
 7602SOL     OW34441   0.520   0.924  12.266 -0.1500 -0.2401 -0.1827
 7602SOL    HW134442   0.497   0.983  12.338 -2.0385 -0.5347 -0.5369
 7602SOL    HW234443   0.487   0.840  12.299  0.4529  0.1721  1.4607
 7603SOL     OW34444   0.754   4.357   3.318  0.2366 -0.2284  0.1796
 7603SOL    HW134445   0.740   4.268   3.350 -0.8750 -0.0219  0.2851
 7603SOL    HW234446   0.731   4.411   3.393 -0.6380  0.1640 -0.3679
 7604SOL     OW34447   0.594   2.358   1.917 -0.5318 -0.3368  0.5577
 7604SOL    HW134448   0.514   2.305   1.908 -1.1472  0.7205 -0.2242
 7604SOL    HW234449   0.630   2.330   2.001  1.4334  1.8856  0.4462
 7605SOL     OW34450   3.363   3.324   8.402 -0.1875  0.3874  0.1982
 7605SOL    HW134451   3.349   3.282   8.487 -0.3415  0.7492  0.3547
 7605SOL    HW234452   3.405   3.258   8.348 -0.7180  0.3328 -0.1478
 7606SOL     OW34453   0.408   0.010   9.003  0.0598 -0.2624  0.3218
 7606SOL    HW134454   0.435   0.078   9.065 -1.9053  0.3899  0.4650
 7606SOL    HW234455   0.365   4.684   9.061 -1.0732  0.4921  0.2821
 7607SOL     OW34456   4.683   1.079   7.495  0.6426  0.5739  0.1688
 7607SOL    HW134457   4.617   1.084   7.427  0.4908  0.5122  0.3133
 7607SOL    HW234458   0.017   1.137   7.465  1.9286 -1.7772 -1.3615
 7608SOL     OW34459   3.134   1.485   3.419  0.6287 -0.0476 -0.0652
 7608SOL    HW134460   3.057   1.536   3.442 -0.8825 -2.1048 -0.5541
 7608SOL    HW234461   3.123   1.490   3.324 -1.2077 -0.3003  0.1366
 7609SOL     OW34462   3.736   2.473   6.563 -0.4604  0.3359 -0.5252
 7609SOL    HW134463   3.714   2.406   6.627 -1.4714  1.5598  0.4021
 7609SOL    HW234464   3.832   2.469   6.562 -0.4279  0.9050  0.2775
 7610SOL     OW34465   0.933   0.643   6.060  0.4591  0.1062  0.4563
 7610SOL    HW134466   0.864   0.637   5.994 -0.0549  1.5382  0.8745
 7610SOL    HW234467   0.901   0.717   6.112 -0.5911  1.0137 -1.4832
 7611SOL     OW34468   4.538   0.037   8.223 -0.1816  0.3149 -0.2539
 7611SOL    HW134469   4.489   0.090   8.285  2.6495  0.1899  2.1188
 7611SOL    HW234470   4.520   4.693   8.271 -2.2045  1.0391  0.1871
 7612SOL     OW34471   2.930   3.283  16.757 -0.0344 -0.1661  0.3385
 7612SOL    HW134472   3.016   3.261  16.793  1.1929 -2.5590 -4.0460
 7612SOL    HW234473   2.905   3.353  16.819  2.3369  0.3593  0.7130
 7613SOL     OW34474   2.053   2.062  12.006 -0.3033  0.2055  0.2651
 7613SOL    HW134475   1.992   2.074  11.934  0.2559 -0.6597 -0.3607
 7613SOL    HW234476   2.077   2.152  12.024 -0.7542  0.8287 -2.2718
 7614SOL     OW34477   3.256   4.136  11.666  0.3143  0.1644  0.2041
 7614SOL    HW134478   3.213   4.130  11.580 -0.2160 -1.1220  0.5567
 7614SOL    HW234479   3.197   4.089  11.725  1.1094 -0.9160  0.1467
 7615SOL     OW34480   4.492   2.096   2.971 -0.4447  0.0314 -0.1353
 7615SOL    HW134481   4.553   2.072   3.041 -0.4280 -0.3801 -0.2912
 7615SOL    HW234482   4.423   2.149   3.009  1.0355  2.2461 -0.4943
 7616SOL     OW34483   2.065   3.254   1.897 -0.1084  0.4937  0.1280
 7616SOL    HW134484   2.076   3.221   1.986  1.7008  1.9720  0.4479
 7616SOL    HW234485   2.145   3.306   1.889  0.2998 -0.5390 -2.4430
 7617SOL     OW34486   2.750   3.233   7.872  0.1718 -0.3565 -0.2566
 7617SOL    HW134487   2.658   3.257   7.882  0.2260 -0.1451 -0.2644
 7617SOL    HW234488   2.769   3.240   7.965 -0.1102 -1.9710 -0.0850
 7618SOL     OW34489   1.856   2.262   3.473 -0.0192 -0.1627  0.2002
 7618SOL    HW134490   1.785   2.316   3.437 -0.5662 -0.3380  1.0015
 7618SOL    HW234491   1.894   2.317   3.541 -1.7235  0.7215  0.4275
 7619SOL     OW34492   4.598   1.313   3.055 -0.8626  0.2957  0.3205
 7619SOL    HW134493   4.587   1.221   3.032 -2.8043  1.0685 -1.8489
 7619SOL    HW234494   4.666   1.342   2.995  0.4427  1.7768  2.4926
 7620SOL     OW34495   2.244   3.825   1.486 -0.4424 -0.2339  0.3672
 7620SOL    HW134496   2.181   3.775   1.434 -0.5816 -1.2045  1.4709
 7620SOL    HW234497   2.190   3.847   1.562 -2.8604 -1.0909 -1.0828
 7621SOL     OW34498   1.989   3.411   5.146 -0.5412 -0.3785  0.0731
 7621SOL    HW134499   2.036   3.467   5.209 -0.7946 -1.1755  0.9769
 7621SOL    HW234500   1.901   3.412   5.183 -0.5141  0.3487  0.1202
 7622SOL     OW34501   1.379   0.219  16.645 -0.0832  0.3609  0.3113
 7622SOL    HW134502   1.314   0.253  16.583  2.5059 -0.1978 -2.6994
 7622SOL    HW234503   1.436   0.291  16.674 -1.7211 -0.0280  4.4536
 7623SOL     OW34504   3.643   3.472  10.234  0.0311  0.1367  0.3748
 7623SOL    HW134505   3.659   3.567  10.232 -2.1356  0.5056  0.8429
 7623SOL    HW234506   3.565   3.468  10.289  0.8213  1.2599  1.5951
 7624SOL     OW34507   3.568   0.029  15.382 -0.5515  0.3751  0.2091
 7624SOL    HW134508   3.602   4.683  15.414  1.4889  0.6457 -1.2726
 7624SOL    HW234509   3.519   0.061  15.458 -2.3780  0.3780 -0.9627
 7625SOL     OW34510   1.645   3.712   4.498  0.0827  0.3244 -0.2958
 7625SOL    HW134511   1.738   3.701   4.479 -0.3778  0.6254 -2.7925
 7625SOL    HW234512   1.650   3.707   4.593 -1.1170 -0.5555 -0.2900
 7626SOL     OW34513   3.677   1.668  16.499 -0.5595  0.3179 -0.0651
 7626SOL    HW134514   3.681   1.590  16.555  0.4389 -0.7738 -1.6394
 7626SOL    HW234515   3.713   1.738  16.553  2.4715 -1.1037 -0.2082
 7627SOL     OW34516   0.940   0.200   1.608 -0.4483  0.0817  0.0085
 7627SOL    HW134517   1.005   0.181   1.676 -0.4100 -0.1451 -0.0889
 7627SOL    HW234518   0.994   0.249   1.546 -1.6541 -1.4470 -2.2617
 7628SOL     OW34519   3.655   4.347   8.052 -0.5031 -0.3935 -0.3958
 7628SOL    HW134520   3.655   4.396   7.970  1.5081 -0.0840 -0.2284
 7628SOL    HW234521   3.617   4.268   8.014  0.7255 -1.0651 -0.2495
 7629SOL     OW34522   2.777   2.125  13.712 -0.8111 -0.1890 -0.4191
 7629SOL    HW134523   2.839   2.101  13.643 -0.2802 -0.9497  0.3185
 7629SOL    HW234524   2.702   2.070  13.686  0.1423 -1.2555 -0.9156
 7630SOL     OW34525   2.893   0.492  17.580 -0.2175  0.2850 -0.5909
 7630SOL    HW134526   2.830   0.533  17.520  1.1301  3.0203 -0.1198
 7630SOL    HW234527   2.912   0.560  17.644 -0.5924  0.6254 -0.8386
 7631SOL     OW34528   0.060   3.102   1.954 -0.2550 -0.3612 -0.2290
 7631SOL    HW134529   0.014   3.144   2.027  0.8286  1.4495 -0.5868
 7631SOL    HW234530   4.727   3.047   1.919 -2.5983  0.7466  2.7004
 7632SOL     OW34531   4.197   1.080  15.373 -0.2899  0.4385 -0.4388
 7632SOL    HW134532   4.174   1.149  15.436  2.4213 -0.2066  1.2656
 7632SOL    HW234533   4.241   1.010  15.422 -0.7074  1.2806  1.1654
 7633SOL     OW34534   0.257   4.425   7.062 -0.1715  0.6514 -0.8816
 7633SOL    HW134535   0.336   4.399   7.110 -0.7430  0.1747 -0.2013
 7633SOL    HW234536   0.227   4.341   7.028  1.4165  0.4683 -1.8110
 7634SOL     OW34537   2.664   4.594   3.477 -0.2053  0.5187  0.1176
 7634SOL    HW134538   2.627   4.510   3.504 -0.8202  0.2763 -1.4820
 7634SOL    HW234539   2.725   4.613   3.549 -0.8024 -0.1686  0.8140
 7635SOL     OW34540   1.425   2.942   6.684  0.1041  0.7730 -0.1541
 7635SOL    HW134541   1.503   2.900   6.647 -1.2445 -3.1132  1.4220
 7635SOL    HW234542   1.464   3.014   6.733  0.3252  1.1611 -0.9007
 7636SOL     OW34543   4.709   1.920   6.214 -0.0319 -0.4194 -0.1856
 7636SOL    HW134544   0.028   1.981   6.262 -1.4701 -0.1224  1.1107
 7636SOL    HW234545   0.033   1.885   6.149  0.8752  2.9934 -1.1691
 7637SOL     OW34546   2.352   2.606  17.634 -0.0946 -0.1660 -0.5491
 7637SOL    HW134547   2.294   2.541  17.674 -1.0419  2.1860  1.9024
 7637SOL    HW234548   2.401   2.643  17.708 -0.7673 -1.4608  0.5474
 7638SOL     OW34549   2.306   1.856   4.713 -0.1377 -0.1409 -0.4871
 7638SOL    HW134550   2.342   1.775   4.676  1.8557  0.6065 -0.1422
 7638SOL    HW234551   2.261   1.897   4.639  2.3551  0.0167 -1.8943
 7639SOL     OW34552   1.054   2.020   1.455 -0.1609 -0.5450 -0.3951
 7639SOL    HW134553   1.037   1.960   1.382 -1.1855 -0.2985 -0.3483
 7639SOL    HW234554   0.989   2.086   1.433 -0.5559 -0.2474  1.6746
 7640SOL     OW34555   2.197   1.544   3.154 -0.4265 -0.6445  0.2057
 7640SOL    HW134556   2.274   1.500   3.118 -1.6665 -3.1977  0.6973
 7640SOL    HW234557   2.135   1.553   3.082  1.9453 -0.9705 -1.8875
 7641SOL     OW34558   1.149   0.553  16.729 -0.1739 -0.0902 -0.4207
 7641SOL    HW134559   1.093   0.586  16.800 -0.0212  0.1220 -0.3991
 7641SOL    HW234560   1.145   0.627  16.668  2.6782 -0.3914 -0.9258
 7642SOL     OW34561   0.611   1.263  15.028  0.0929  0.4702  1.0369
 7642SOL    HW134562   0.672   1.302  15.090  1.4178 -1.4581  0.9290
 7642SOL    HW234563   0.552   1.231  15.096 -0.5356  2.9430  1.6674
 7643SOL     OW34564   3.545   1.112   2.374  0.9097  0.5410  0.9030
 7643SOL    HW134565   3.547   1.090   2.281  1.4595 -0.2565  1.0966
 7643SOL    HW234566   3.593   1.194   2.386 -0.3594  1.4725 -0.4658
 7644SOL     OW34567   1.732   0.159   3.001  0.0296 -0.0847 -0.2147
 7644SOL    HW134568   1.681   0.080   3.019  0.1438 -0.0920  0.0862
 7644SOL    HW234569   1.783   0.134   2.925 -1.2821  0.4879 -1.2853
 7645SOL     OW34570   1.138   0.688   6.953 -0.6427  0.1600  0.0303
 7645SOL    HW134571   1.093   0.614   6.995  0.8807 -0.4509  0.6043
 7645SOL    HW234572   1.065   0.740   6.918 -1.4533 -0.3950  0.8971
 7646SOL     OW34573   2.661   1.027  17.706 -0.0823 -0.4464  0.3747
 7646SOL    HW134574   2.756   1.026  17.718  0.0772  2.0095 -0.6848
 7646SOL    HW234575   2.661   1.069  17.620  1.5911 -2.4008 -0.5740
 7647SOL     OW34576   4.723   1.849  13.251  0.0010  0.4560 -0.2024
 7647SOL    HW134577   4.683   1.762  13.245  0.1441  0.5326 -2.2736
 7647SOL    HW234578   0.074   1.824  13.221 -0.2636 -0.1991 -0.4300
 7648SOL     OW34579   3.294   3.106   4.983 -0.2618 -0.2493 -0.4067
 7648SOL    HW134580   3.354   3.115   5.056  0.2887  1.7825 -1.1033
 7648SOL    HW234581   3.313   3.018   4.951 -1.4338 -0.0809 -1.5932
 7649SOL     OW34582   2.152   4.114   4.495  0.0478 -0.6307  0.0201
 7649SOL    HW134583   2.129   4.207   4.492  0.8530 -0.5228 -2.6145
 7649SOL    HW234584   2.083   4.089   4.557 -0.5216  1.3429  0.1930
 7650SOL     OW34585   1.699   0.760   9.744  0.7383  0.3655  0.3285
 7650SOL    HW134586   1.625   0.820   9.757 -1.0075 -1.4476 -1.1447
 7650SOL    HW234587   1.745   0.811   9.678  0.2528  0.4492  0.0518
 7651SOL     OW34588   2.812   1.398   9.426 -0.1781 -0.3147 -0.8059
 7651SOL    HW134589   2.840   1.412   9.335 -0.4173  2.4397 -0.4470
 7651SOL    HW234590   2.767   1.478   9.451 -0.3269 -0.7812  0.4421
 7652SOL     OW34591   0.035   0.815   6.406  0.3659 -0.3320 -0.0081
 7652SOL    HW134592   0.033   0.728   6.365  1.7568 -0.3510 -0.0372
 7652SOL    HW234593   0.114   0.811   6.460  2.5451 -0.0399 -3.2067
 7653SOL     OW34594   4.070   3.701   9.001  0.0186  0.8087  0.0224
 7653SOL    HW134595   4.136   3.687   8.934  0.0655 -1.2876  0.5084
 7653SOL    HW234596   4.122   3.675   9.076 -2.1859 -1.7299  0.6814
 7654SOL     OW34597   2.828   0.082   2.958  0.1664  0.2836  0.2583
 7654SOL    HW134598   2.901   0.030   2.993  0.0164 -0.2588 -0.2484
 7654SOL    HW234599   2.759   0.068   3.023  0.5490  0.4615  0.7071
 7655SOL     OW34600   3.413   3.392  13.714 -0.2257 -0.0713 -0.7584
 7655SOL    HW134601   3.390   3.482  13.689 -0.1843  0.1520  0.0109
 7655SOL    HW234602   3.388   3.349  13.632  0.6919 -0.0401 -1.0564
 7656SOL     OW34603   1.913   3.217   1.309  0.7476  0.5353 -0.1399
 7656SOL    HW134604   1.872   3.192   1.392  0.1511  0.1141 -0.5524
 7656SOL    HW234605   1.960   3.299   1.320  0.3831  0.7339 -0.0562
 7657SOL     OW34606   1.011   3.223   0.430 -0.4082  0.1974  0.2006
 7657SOL    HW134607   1.020   3.248   0.522 -1.3299  1.1443  0.0365
 7657SOL    HW234608   0.920   3.194   0.425  0.8281 -3.7192  0.9589
 7658SOL     OW34609   1.009   1.789   2.751  0.5070  0.3640  0.6470
 7658SOL    HW134610   0.975   1.788   2.662  2.3658 -0.4547 -0.0530
 7658SOL    HW234611   1.100   1.812   2.731  1.6981 -2.3297  2.8991
 7659SOL     OW34612   0.314   3.466   4.813  0.3409  0.0051  0.1282
 7659SOL    HW134613   0.263   3.494   4.890  0.5919  0.6667  0.0549
 7659SOL    HW234614   0.385   3.417   4.854 -1.2691  0.3915  3.3877
 7660SOL     OW34615   4.247   3.382   3.221  0.7321  0.1775 -0.0650
 7660SOL    HW134616   4.216   3.447   3.284  2.2940  0.9727 -0.1033
 7660SOL    HW234617   4.195   3.307   3.249 -0.2187  1.2130  0.9566
 7661SOL     OW34618   4.390   2.571   3.469 -0.0231  0.3381  0.1486
 7661SOL    HW134619   4.416   2.660   3.444  1.5832 -0.6771 -1.8404
 7661SOL    HW234620   4.466   2.520   3.440 -0.0477 -0.0202  0.7274
 7662SOL     OW34621   0.515   0.175   9.176  0.0953 -0.2093  0.3492
 7662SOL    HW134622   0.584   0.131   9.226  1.1006  1.0174  0.0428
 7662SOL    HW234623   0.522   0.263   9.212  0.6055  0.9572 -2.6005
 7663SOL     OW34624   0.010   4.367  13.702  0.3476 -0.7898 -0.1016
 7663SOL    HW134625   0.087   4.417  13.731 -2.2108  0.7076  4.1304
 7663SOL    HW234626   4.717   4.335  13.787 -0.4351  1.1263  0.3216
 7664SOL     OW34627   1.014   1.107  16.877  0.2003 -0.5299  0.1738
 7664SOL    HW134628   1.045   1.110  16.968 -1.3694  2.7970  0.6148
 7664SOL    HW234629   1.072   1.038  16.847 -1.2550 -0.8459 -1.9082
 7665SOL     OW34630   4.254   3.311   8.601  0.2790 -0.0488  0.2662
 7665SOL    HW134631   4.196   3.237   8.620  2.8138 -2.9684 -3.5187
 7665SOL    HW234632   4.337   3.267   8.584  0.0887 -0.0699 -0.5799
 7666SOL     OW34633   0.493   2.474   8.588  0.9040 -0.1848  0.2392
 7666SOL    HW134634   0.550   2.435   8.522 -0.8230 -0.3279 -1.1571
 7666SOL    HW234635   0.406   2.469   8.549  0.9931 -2.3485  0.2748
 7667SOL     OW34636   4.296   2.714   9.307 -1.0415 -0.2492  0.2858
 7667SOL    HW134637   4.331   2.673   9.385  2.7756  1.3769 -0.5940
 7667SOL    HW234638   4.302   2.653   9.233  0.0585  0.4973 -0.2335
 7668SOL     OW34639   3.511   0.629   4.947 -0.7499  0.9004 -0.1108
 7668SOL    HW134640   3.530   0.679   4.868  1.0998  0.3462 -0.0152
 7668SOL    HW234641   3.595   0.635   4.992  0.8063 -1.0307 -2.7935
 7669SOL     OW34642   3.187   1.554  11.953 -0.1661 -0.0806  0.7853
 7669SOL    HW134643   3.214   1.504  11.876 -3.1627 -1.9075  0.9626
 7669SOL    HW234644   3.272   1.590  11.979  0.6540 -1.3134 -0.2010
 7670SOL     OW34645   4.185   0.806   3.314  0.1370 -0.0694 -0.3699
 7670SOL    HW134646   4.117   0.871   3.332 -0.2873 -0.2612 -1.2628
 7670SOL    HW234647   4.119   0.740   3.294  0.8628 -0.5888 -1.0290
 7671SOL     OW34648   4.196   3.416   7.401 -0.0919  0.1446  0.2130
 7671SOL    HW134649   4.283   3.419   7.362 -0.2926  0.6687 -0.2026
 7671SOL    HW234650   4.136   3.446   7.332  0.2226  0.4981  0.0944
 7672SOL     OW34651   0.044   0.190   9.539  0.4883 -0.8407 -0.3658
 7672SOL    HW134652   0.112   0.152   9.595  0.6563  1.2236  0.8152
 7672SOL    HW234653   0.075   0.278   9.518  1.9553 -1.0538  0.9416
 7673SOL     OW34654   2.492   3.567   2.841  0.4088  0.6454  0.0349
 7673SOL    HW134655   2.578   3.605   2.858 -0.0311  1.8253 -0.3554
 7673SOL    HW234656   2.489   3.583   2.746 -0.7920 -1.3851 -0.2710
 7674SOL     OW34657   1.521   3.633   2.269  0.5729 -0.3001 -0.2310
 7674SOL    HW134658   1.451   3.698   2.277  0.2272 -0.6734 -0.2373
 7674SOL    HW234659   1.505   3.572   2.341  2.2497 -1.1486 -0.5961
 7675SOL     OW34660   1.668   0.563   3.586 -0.3994 -0.1574 -0.1160
 7675SOL    HW134661   1.749   0.519   3.559 -0.6485  0.0211 -1.1543
 7675SOL    HW234662   1.722   0.626   3.634 -1.1684  0.0425  0.4908
 7676SOL     OW34663   3.142   2.704   5.510  0.3638  0.0182  0.1746
 7676SOL    HW134664   3.170   2.794   5.496  2.3743 -0.7215 -0.5773
 7676SOL    HW234665   3.196   2.661   5.444  1.3411  1.6425 -0.0815
 7677SOL     OW34666   3.331   0.210   5.716 -0.6246 -0.3215 -0.6688
 7677SOL    HW134667   3.348   0.270   5.642 -1.5780  0.4357 -0.2752
 7677SOL    HW234668   3.239   0.204   5.690 -1.5902  1.3895  2.3230
 7678SOL     OW34669   1.741   4.070  12.697 -0.7667 -0.2706 -0.6312
 7678SOL    HW134670   1.776   4.007  12.634  1.2991  0.4086 -0.1462
 7678SOL    HW234671   1.672   4.020  12.741 -0.4057  0.2938  0.5568
 7679SOL     OW34672   4.716   3.287   1.471  0.2230 -0.0431  0.3961
 7679SOL    HW134673   0.070   3.292   1.499 -0.0614  0.7012  1.1917
 7679SOL    HW234674   4.724   3.274   1.377  0.7383  2.2644  0.1153
 7680SOL     OW34675   3.646   3.738  10.285  0.3444 -0.1436 -0.3644
 7680SOL    HW134676   3.694   3.820  10.292  0.2051 -0.1444  0.5956
 7680SOL    HW234677   3.574   3.772  10.232 -1.0299 -0.3423  1.3547
 7681SOL     OW34678   0.939   3.271   1.924  0.1077 -0.4407  0.0431
 7681SOL    HW134679   1.032   3.277   1.901  0.1319 -1.1923 -0.0634
 7681SOL    HW234680   0.922   3.181   1.896 -0.2551 -1.2419  2.8100
 7682SOL     OW34681   3.766   1.218   6.130 -0.0616 -0.2455  0.1625
 7682SOL    HW134682   3.751   1.241   6.221 -0.0811  1.5093 -0.2996
 7682SOL    HW234683   3.679   1.187   6.104 -0.8071  1.2688  0.9270
 7683SOL     OW34684   0.602   3.049   4.347  0.3217 -0.1129 -0.4936
 7683SOL    HW134685   0.522   3.076   4.391  0.3487 -0.7010 -0.0887
 7683SOL    HW234686   0.650   3.126   4.316 -0.5565  0.7798  0.3750
 7684SOL     OW34687   4.290   1.471   5.085  0.5264 -0.3007  0.2698
 7684SOL    HW134688   4.297   1.561   5.117 -0.8200  0.2798 -1.0599
 7684SOL    HW234689   4.262   1.423   5.163  2.0509 -1.7035 -0.0464
 7685SOL     OW34690   1.673   2.358   1.765 -0.1374 -0.6755 -0.1263
 7685SOL    HW134691   1.691   2.452   1.765 -3.4572 -0.0422 -0.1113
 7685SOL    HW234692   1.716   2.337   1.848 -3.9339 -1.4274  1.6662
 7686SOL     OW34693   1.836   4.454   4.687 -0.4416  0.0078  0.8021
 7686SOL    HW134694   1.747   4.418   4.690 -0.6362  0.4699  0.6891
 7686SOL    HW234695   1.825   4.502   4.604 -1.4896 -1.0874  0.3126
 7687SOL     OW34696   1.247   2.000   7.130  0.3783  0.3024  0.2016
 7687SOL    HW134697   1.243   2.094   7.117 -0.5527  0.5461  2.3381
 7687SOL    HW234698   1.336   1.992   7.094  0.2829  1.2220 -0.2163
 7688SOL     OW34699   1.644   1.794   9.289  0.2141 -0.3453  0.3206
 7688SOL    HW134700   1.699   1.863   9.325  2.5628 -1.3121 -1.3503
 7688SOL    HW234701   1.618   1.744   9.366 -1.6515  0.0249 -0.0673
 7689SOL     OW34702   4.211   2.300  10.086 -0.5742 -0.5973  0.5417
 7689SOL    HW134703   4.141   2.236  10.074 -1.2299 -0.4083  3.4575
 7689SOL    HW234704   4.160   2.379  10.105  0.6922 -0.0046  1.4497
 7690SOL     OW34705   1.611   0.712   8.761 -0.1640  0.1839  0.2916
 7690SOL    HW134706   1.706   0.720   8.769 -0.3009  0.5732  1.5731
 7690SOL    HW234707   1.601   0.660   8.681 -0.6966 -0.7245  0.9496
 7691SOL     OW34708   3.720   3.492   6.428  0.1147  0.4668 -0.5524
 7691SOL    HW134709   3.762   3.422   6.480  0.7125 -1.0969 -3.1475
 7691SOL    HW234710   3.697   3.545   6.504  0.1297  0.2292 -0.3799
 7692SOL     OW34711   0.965   1.540  17.544 -0.3371 -1.1690 -0.0386
 7692SOL    HW134712   0.956   1.447  17.524 -1.3058 -0.6445 -2.0972
 7692SOL    HW234713   0.945   1.531  17.637  0.7237  1.1279  0.4166
 7693SOL     OW34714   2.918   1.723   7.344  0.2230  0.3002 -0.4870
 7693SOL    HW134715   2.918   1.713   7.249 -1.5341 -2.0926 -0.2429
 7693SOL    HW234716   2.972   1.652   7.379 -1.3016  0.5131  2.3157
 7694SOL     OW34717   4.300   4.088   6.793 -0.1013 -0.2517  0.2557
 7694SOL    HW134718   4.373   4.119   6.739 -0.2442 -0.7195 -0.2155
 7694SOL    HW234719   4.333   4.004   6.822  2.4555  0.4522 -0.6431
 7695SOL     OW34720   2.353   3.030   1.873  0.1498 -0.0206 -0.9066
 7695SOL    HW134721   2.341   3.091   1.947  0.2458 -0.9843 -0.0996
 7695SOL    HW234722   2.424   2.979   1.913 -1.3222 -2.9192 -2.0248
 7696SOL     OW34723   4.421   3.624  16.151 -0.4374  0.4664  0.0024
 7696SOL    HW134724   4.380   3.687  16.091 -1.5129  0.8348  1.1116
 7696SOL    HW234725   4.409   3.674  16.232  0.7983  1.6778 -0.5503
 7697SOL     OW34726   0.576   3.246  13.750 -0.0683 -0.4150 -0.0542
 7697SOL    HW134727   0.492   3.259  13.795  0.3939  0.2428  0.6113
 7697SOL    HW234728   0.611   3.171  13.796  0.1460  1.1581  2.3351
 7698SOL     OW34729   0.959   3.990  10.009 -0.8064 -0.0351 -0.2627
 7698SOL    HW134730   0.975   4.020   9.920  0.1229  0.4442  0.0710
 7698SOL    HW234731   0.872   4.025  10.025 -0.1857  1.5611 -0.4415
 7699SOL     OW34732   0.517   2.799   7.444  0.5827  0.3815 -0.1691
 7699SOL    HW134733   0.497   2.764   7.531  0.3504 -1.4623 -0.9604
 7699SOL    HW234734   0.612   2.813   7.450  0.5569  1.2122 -1.9189
 7700SOL     OW34735   0.617   3.393  17.404 -0.8145 -0.3646  0.7362
 7700SOL    HW134736   0.660   3.420  17.485 -0.4308 -0.4817  0.5677
 7700SOL    HW234737   0.647   3.302  17.406 -0.2390 -0.1812  0.4407
 7701SOL     OW34738   0.048   1.072  13.860 -0.0260  0.0177  0.2482
 7701SOL    HW134739   0.044   1.103  13.950  2.8203 -0.9787  0.7133
 7701SOL    HW234740   0.063   0.979  13.874  0.6405  0.1126  0.1601
 7702SOL     OW34741   3.505   3.127   6.160  0.5037 -0.0629  0.2479
 7702SOL    HW134742   3.540   3.212   6.132 -0.6726  1.0745  2.2604
 7702SOL    HW234743   3.578   3.099   6.214  0.2891 -1.9504 -0.4361
 7703SOL     OW34744   4.617   2.685  17.331  0.0767  0.2767  0.2610
 7703SOL    HW134745   4.582   2.751  17.272 -0.4204 -0.1093  0.1190
 7703SOL    HW234746   4.701   2.664  17.292 -0.5973 -2.3933  0.2324
 7704SOL     OW34747   0.465   2.959   2.675 -0.3263 -0.2760 -0.5680
 7704SOL    HW134748   0.556   2.938   2.697  0.0276  0.9328 -0.8536
 7704SOL    HW234749   0.470   3.032   2.613  0.4577  0.6518  0.5852
 7705SOL     OW34750   3.358   0.889   8.785  0.2870 -0.1430  0.6640
 7705SOL    HW134751   3.442   0.845   8.771  0.5334  0.3914  0.4301
 7705SOL    HW234752   3.374   0.973   8.741 -0.6023  0.1850  0.9683
 7706SOL     OW34753   0.723   2.814  11.109 -0.0611  0.1075 -0.5060
 7706SOL    HW134754   0.766   2.877  11.167  0.1207 -1.6437  1.2626
 7706SOL    HW234755   0.670   2.766  11.172 -1.7360  0.7200 -1.4542
 7707SOL     OW34756   1.039   4.217   7.449  0.0755  0.4295 -0.3169
 7707SOL    HW134757   1.053   4.154   7.519 -2.0637  0.3593  0.0223
 7707SOL    HW234758   1.058   4.295   7.502  0.4800  0.6605 -0.7936
 7708SOL     OW34759   0.430   0.336   4.456  0.0858  0.4128  0.1592
 7708SOL    HW134760   0.475   0.356   4.538 -0.5777  0.1619  0.5871
 7708SOL    HW234761   0.439   0.241   4.445 -1.3649  0.2053  0.6973
 7709SOL     OW34762   0.076   1.331   6.086  0.0146 -0.2249 -0.2323
 7709SOL    HW134763   0.006   1.314   6.023  0.1858 -1.6414 -0.0226
 7709SOL    HW234764   0.034   1.317   6.171  0.0146  0.6300 -0.0910
 7710SOL     OW34765   2.126   2.536   7.667  0.0566 -0.3410 -0.3470
 7710SOL    HW134766   2.205   2.582   7.694 -0.7850  0.5500  0.5866
 7710SOL    HW234767   2.081   2.603   7.616  0.5153  0.1455 -0.1162
 7711SOL     OW34768   4.420   1.859   7.623 -0.8710  0.1555  0.3317
 7711SOL    HW134769   4.358   1.899   7.684  0.8449  1.2463  1.3548
 7711SOL    HW234770   4.484   1.926   7.598  0.0012 -0.8773 -0.1845
 7712SOL     OW34771   0.639   0.120   8.103  0.3465 -0.1020  0.0437
 7712SOL    HW134772   0.721   0.167   8.087  0.7106 -0.5914  0.4675
 7712SOL    HW234773   0.614   0.167   8.183  0.9569  1.6373 -0.7865
 7713SOL     OW34774   2.012   2.281  10.831  0.3397 -0.4974 -0.1134
 7713SOL    HW134775   2.009   2.329  10.914  2.3643  2.6469 -1.8208
 7713SOL    HW234776   2.104   2.257  10.815  0.1760 -2.5639  2.1302
 7714SOL     OW34777   3.421   2.669  16.118  0.9866 -0.3520 -0.0197
 7714SOL    HW134778   3.400   2.713  16.036 -0.5434  0.7411  0.9660
 7714SOL    HW234779   3.517   2.662  16.113  1.0323  0.3031 -0.0343
 7715SOL     OW34780   4.429   0.591   3.856  0.0322  0.0471  0.3208
 7715SOL    HW134781   4.500   0.530   3.876 -0.3120 -0.4044  0.1820
 7715SOL    HW234782   4.472   0.675   3.871  0.3182 -0.1562  0.6460
 7716SOL     OW34783   2.218   2.929   4.847 -0.3147  0.2790  0.1249
 7716SOL    HW134784   2.181   3.018   4.845 -1.6755 -0.3245 -1.5584
 7716SOL    HW234785   2.298   2.940   4.897 -1.0972 -0.8972  1.6502
 7717SOL     OW34786   3.352   0.426   5.221  0.3948  0.3700  0.7251
 7717SOL    HW134787   3.435   0.380   5.234  1.6430  1.9546 -1.4319
 7717SOL    HW234788   3.381   0.511   5.255  2.7611 -0.1373 -0.0128
 7718SOL     OW34789   4.401   3.683  17.458  0.1281 -0.0330  0.2082
 7718SOL    HW134790   4.473   3.620  17.467  0.1811 -0.1566 -1.0809
 7718SOL    HW234791   4.425   3.752  17.520  1.6575 -0.8536  0.5351
 7719SOL     OW34792   2.020   0.628   6.516  0.4373  0.5251 -0.4943
 7719SOL    HW134793   2.100   0.602   6.469  0.4604 -1.3220  0.5506
 7719SOL    HW234794   2.043   0.720   6.529  0.2503  0.4774  0.1770
 7720SOL     OW34795   0.203   1.059   4.283  0.0768 -0.3906  0.0960
 7720SOL    HW134796   0.120   1.103   4.265 -0.2290 -0.1621  2.0596
 7720SOL    HW234797   0.239   1.077   4.197 -0.5715 -0.1537 -0.1214
 7721SOL     OW34798   2.029   1.238   3.567 -0.4087 -0.2002  0.2998
 7721SOL    HW134799   2.038   1.331   3.588 -2.1593  0.4569 -1.8680
 7721SOL    HW234800   1.980   1.211   3.645  0.8012 -1.6066  0.5827
 7722SOL     OW34801   0.291   0.698   4.810 -0.3945 -0.6239 -0.3380
 7722SOL    HW134802   0.237   0.776   4.801 -1.1947 -1.2810 -1.1932
 7722SOL    HW234803   0.294   0.693   4.906 -0.6572 -1.9402 -0.4022
 7723SOL     OW34804   3.734   1.567   3.785  0.2710  0.1161  0.4849
 7723SOL    HW134805   3.778   1.643   3.823 -1.4798  1.6961 -0.6180
 7723SOL    HW234806   3.714   1.519   3.865 -0.8609  0.2529  0.2755
 7724SOL     OW34807   3.332   2.729  16.389  0.1953 -0.0045 -0.4949
 7724SOL    HW134808   3.380   2.712  16.308  1.0046  1.1257 -0.2462
 7724SOL    HW234809   3.254   2.767  16.349 -0.7707 -1.2118  0.1991
 7725SOL     OW34810   1.418   4.278   1.730  0.1750 -0.2035 -0.2059
 7725SOL    HW134811   1.364   4.275   1.652 -1.1151 -1.7636  0.7299
 7725SOL    HW234812   1.347   4.275   1.795  0.1951  1.5361 -0.1172
 7726SOL     OW34813   1.265   3.477   1.178 -0.0091  0.3165 -0.9059
 7726SOL    HW134814   1.260   3.505   1.269  0.4130 -0.0153 -0.7832
 7726SOL    HW234815   1.292   3.386   1.185 -0.1670  0.0855 -3.3454
 7727SOL     OW34816   1.738   1.166   3.569 -0.1587 -0.4122  0.7263
 7727SOL    HW134817   1.665   1.134   3.516  0.6683  0.2106 -0.7837
 7727SOL    HW234818   1.704   1.202   3.651  0.4169  0.5299  0.5551
 7728SOL     OW34819   3.121   1.911  12.379  0.1671 -0.5914 -0.2447
 7728SOL    HW134820   3.143   1.872  12.464 -1.4256  1.0132  0.8855
 7728SOL    HW234821   3.162   1.854  12.313 -0.0122  0.4541 -1.2484
 7729SOL     OW34822   4.198   4.258   1.076 -0.1935 -0.4243 -0.0075
 7729SOL    HW134823   4.197   4.183   1.136  2.9414 -1.9503 -1.9012
 7729SOL    HW234824   4.291   4.278   1.070 -0.1419 -0.7277 -0.1983
 7730SOL     OW34825   0.481   1.446  16.165  0.1091  0.2555 -0.2597
 7730SOL    HW134826   0.395   1.488  16.164 -1.0110 -2.0245  0.1323
 7730SOL    HW234827   0.524   1.499  16.099  2.1692 -1.0920 -0.0079
 7731SOL     OW34828   2.132   4.147  17.220 -0.1133  0.6047  0.0806
 7731SOL    HW134829   2.124   4.071  17.278 -0.8292  1.5858  1.2498
 7731SOL    HW234830   2.071   4.212  17.255  2.3300  2.9208  0.0206
 7732SOL     OW34831   1.523   2.155  14.823  0.0357  0.2479 -0.1805
 7732SOL    HW134832   1.504   2.072  14.780  3.2995 -0.4310 -0.3004
 7732SOL    HW234833   1.476   2.219  14.769 -1.3939  0.5331  1.4026
 7733SOL     OW34834   4.163   0.567   1.868  0.0649  0.3567 -0.3975
 7733SOL    HW134835   4.107   0.490   1.876 -0.0814  0.2854 -2.0367
 7733SOL    HW234836   4.218   0.548   1.792  1.0077  0.7732  0.1781
 7734SOL     OW34837   1.324   2.254  17.036  0.5801  0.1931 -0.0176
 7734SOL    HW134838   1.280   2.305  17.104  0.7707  0.1908  0.1078
 7734SOL    HW234839   1.250   2.214  16.992 -0.1207  1.2549  0.1871
 7735SOL     OW34840   3.779   0.713  14.839 -0.3192 -0.2231 -0.4507
 7735SOL    HW134841   3.767   0.791  14.893 -1.5920 -0.2614 -0.6877
 7735SOL    HW234842   3.805   0.642  14.897 -0.3546 -0.4348 -0.6954
 7736SOL     OW34843   3.661   2.287   9.037 -0.2602  0.5565  0.6024
 7736SOL    HW134844   3.651   2.369   9.085 -0.8095  2.2153 -2.3360
 7736SOL    HW234845   3.672   2.221   9.105  2.1795 -0.4149 -0.7257
 7737SOL     OW34846   2.682   3.904   6.411 -0.1232  0.1097 -0.6169
 7737SOL    HW134847   2.587   3.902   6.419  0.0081 -0.0268  1.0521
 7737SOL    HW234848   2.700   3.912   6.318 -0.7184 -1.6540 -0.8795
 7738SOL     OW34849   3.431   4.171   4.655 -0.1203  0.3203  0.1366
 7738SOL    HW134850   3.513   4.122   4.651 -0.2323 -0.0016  2.0216
 7738SOL    HW234851   3.432   4.209   4.567  1.3283 -0.4783 -0.1817
 7739SOL     OW34852   2.649   0.800   4.684 -0.4458 -0.5192 -0.0156
 7739SOL    HW134853   2.707   0.733   4.719 -0.7741 -1.1354 -0.6517
 7739SOL    HW234854   2.671   0.796   4.591  0.0162 -1.8731  0.1559
 7740SOL     OW34855   3.234   0.630   9.804 -0.3039 -0.0709  0.0992
 7740SOL    HW134856   3.265   0.560   9.747 -0.3598 -0.5999  0.7224
 7740SOL    HW234857   3.257   0.587   9.886  0.5803 -0.6628 -0.4592
 7741SOL     OW34858   3.551   0.024   2.595  0.6820  0.2685 -0.3687
 7741SOL    HW134859   3.487   0.069   2.651  0.3430 -1.1542  0.4120
 7741SOL    HW234860   3.631   0.057   2.634  0.8634  0.5636 -1.0142
 7742SOL     OW34861   3.765   1.145   7.373 -0.0558 -0.6875  0.4159
 7742SOL    HW134862   3.738   1.082   7.307  2.6245 -1.1796 -0.2251
 7742SOL    HW234863   3.808   1.080   7.428  0.3242 -0.9484 -0.1918
 7743SOL     OW34864   1.229   2.723   0.371  0.4454 -0.5044 -0.2235
 7743SOL    HW134865   1.252   2.786   0.303 -1.2268 -1.1045 -1.3550
 7743SOL    HW234866   1.151   2.678   0.336 -0.5950 -0.9238  2.6628
 7744SOL     OW34867   0.716   3.577   6.628 -0.6573 -0.1800  0.1443
 7744SOL    HW134868   0.804   3.614   6.628 -0.6752 -0.1417 -1.8410
 7744SOL    HW234869   0.666   3.656   6.606 -0.3502  0.4792  1.8514
 7745SOL     OW34870   2.596   1.296   3.272 -0.3149  0.1977 -0.1903
 7745SOL    HW134871   2.568   1.387   3.261  1.9632  1.0877  1.3334
 7745SOL    HW234872   2.553   1.280   3.356 -0.0130 -1.2810 -0.3305
 7746SOL     OW34873   1.600   1.919  16.285  0.3977  0.5068 -0.0816
 7746SOL    HW134874   1.685   1.925  16.329  0.8103 -0.2290 -0.7816
 7746SOL    HW234875   1.632   1.897  16.197  2.1588 -1.0315  0.9540
 7747SOL     OW34876   4.663   0.136  14.161 -0.5383  0.1736 -0.2930
 7747SOL    HW134877   0.004   0.185  14.185  0.9508 -1.5401 -1.6579
 7747SOL    HW234878   4.642   0.163  14.072 -0.1951 -0.0234 -0.4336
 7748SOL     OW34879   0.599   3.307   3.182  0.0951  0.3060 -0.0880
 7748SOL    HW134880   0.631   3.359   3.256  2.1938 -1.7390  0.4403
 7748SOL    HW234881   0.539   3.370   3.140 -0.5443  0.1041  0.5139
 7749SOL     OW34882   2.823   2.607   7.872  0.3924  0.0454 -0.8612
 7749SOL    HW134883   2.918   2.620   7.876  0.0218  1.9303  1.3549
 7749SOL    HW234884   2.783   2.690   7.897  1.4030  0.0962  0.5770
 7750SOL     OW34885   4.676   0.610   3.050  0.1531 -0.0579  0.2933
 7750SOL    HW134886   4.729   0.666   2.993  0.4985  0.8957  1.5627
 7750SOL    HW234887   4.597   0.611   2.997  0.8069 -0.7436 -0.7016
 7751SOL     OW34888   3.385   4.455   6.347 -0.2450  0.2844 -0.3407
 7751SOL    HW134889   3.453   4.507   6.390  2.1862 -2.6583 -0.5403
 7751SOL    HW234890   3.420   4.448   6.258 -0.1074  0.1326 -0.2763
 7752SOL     OW34891   3.833   2.971  11.345 -0.1922  0.1351  0.4046
 7752SOL    HW134892   3.821   3.057  11.304  2.2604  0.2773  0.0410
 7752SOL    HW234893   3.920   2.974  11.383  0.1650  1.3021 -0.5138
 7753SOL     OW34894   1.956   1.243   5.002  0.2218 -0.2115  0.5053
 7753SOL    HW134895   1.936   1.236   4.909 -0.1353  1.4276  0.4525
 7753SOL    HW234896   2.049   1.265   5.001 -0.1289  1.2611  0.3429
 7754SOL     OW34897   2.682   1.025   8.778  0.2371 -0.4391 -0.2193
 7754SOL    HW134898   2.768   1.014   8.738  1.9942 -0.1651  3.5145
 7754SOL    HW234899   2.644   0.943   8.748 -0.6465 -0.0685 -0.1264
 7755SOL     OW34900   1.813   2.555   8.923 -0.2319 -0.3929 -0.2526
 7755SOL    HW134901   1.832   2.621   8.856  1.6031 -0.8039 -0.1297
 7755SOL    HW234902   1.779   2.608   8.995 -3.2678 -0.5964 -1.5388
 7756SOL     OW34903   2.412   2.542   0.198  0.2198  0.3027 -0.2522
 7756SOL    HW134904   2.350   2.496   0.141 -0.9099 -0.4458  1.5837
 7756SOL    HW234905   2.406   2.492   0.279  3.6868  0.9219  0.3971
 7757SOL     OW34906   3.456   4.145   3.464 -0.4079  0.1859  0.0706
 7757SOL    HW134907   3.432   4.203   3.536 -2.1935  0.8244 -1.0283
 7757SOL    HW234908   3.369   4.136   3.425 -0.5030  1.2965  0.0263
 7758SOL     OW34909   2.068   4.225  10.738 -0.2844 -0.6800 -0.2149
 7758SOL    HW134910   2.130   4.153  10.748  0.1457 -0.4179 -1.0793
 7758SOL    HW234911   2.030   4.243  10.825 -0.5692  1.0695 -0.7020
 7759SOL     OW34912   1.420   1.607   5.499  0.2653 -0.3045  0.0369
 7759SOL    HW134913   1.472   1.687   5.496  1.5011 -1.0497  1.2883
 7759SOL    HW234914   1.430   1.564   5.584 -2.7019  1.5365  1.3238
 7760SOL     OW34915   1.980   0.917   9.061  0.3549  0.0090  0.1625
 7760SOL    HW134916   2.060   0.884   9.102 -0.6759 -1.5195  0.9405
 7760SOL    HW234917   1.960   0.983   9.128 -0.4804  0.4027 -0.4755
 7761SOL     OW34918   2.730   0.160  17.481 -0.2117 -0.0918 -0.5491
 7761SOL    HW134919   2.643   0.136  17.513  0.7081 -0.6964  1.5230
 7761SOL    HW234920   2.727   0.244  17.526  0.3859  0.8735 -2.2983
 7762SOL     OW34921   4.262   0.343   6.162 -0.7374  0.0847 -0.5481
 7762SOL    HW134922   4.245   0.288   6.239  1.1211 -0.9151 -0.8492
 7762SOL    HW234923   4.213   0.419   6.193  0.2101  0.1370  0.8355
 7763SOL     OW34924   4.515   4.439   4.786  0.0305 -0.8483  0.3712
 7763SOL    HW134925   4.495   4.497   4.713 -1.7034 -0.9868  0.7426
 7763SOL    HW234926   4.529   4.355   4.742 -0.0981  0.0815 -1.4244
 7764SOL     OW34927   0.418   2.266   6.604  0.4058  0.8355 -0.1237
 7764SOL    HW134928   0.430   2.341   6.664  2.0161 -0.6380  1.4146
 7764SOL    HW234929   0.479   2.209   6.651  0.5748 -0.9818 -2.5768
 7765SOL     OW34930   4.591   4.354   3.432 -0.1623  0.1214  0.3286
 7765SOL    HW134931   4.505   4.368   3.392 -0.3566 -2.1166 -0.0450
 7765SOL    HW234932   4.601   4.412   3.508  0.0824 -1.3482  1.4095
 7766SOL     OW34933   1.803   0.216   5.091  0.5073 -0.2678 -0.2927
 7766SOL    HW134934   1.812   0.137   5.038  0.4950 -1.1682  1.0213
 7766SOL    HW234935   1.893   0.244   5.106 -0.2486  1.9751  0.0509
 7767SOL     OW34936   0.070   1.291   9.010 -0.3809  0.3231  1.0514
 7767SOL    HW134937   0.025   1.218   8.966 -1.7405  1.8131 -0.0596
 7767SOL    HW234938   0.088   1.344   8.932 -0.3939 -1.1811  0.0255
 7768SOL     OW34939   2.775   2.683   7.490  0.2898  0.0017 -0.4314
 7768SOL    HW134940   2.838   2.667   7.561  0.5949  0.8945 -0.4997
 7768SOL    HW234941   2.820   2.747   7.435 -2.5366  0.1890 -2.4845
 7769SOL     OW34942   1.798   0.076  15.981  0.6691 -0.0017 -0.3996
 7769SOL    HW134943   1.792   0.167  16.012  1.3448 -0.2818  0.5654
 7769SOL    HW234944   1.725   0.074  15.919  2.0362  0.9138 -2.0331
 7770SOL     OW34945   1.648   1.031   4.249  0.2689 -0.3152  0.4232
 7770SOL    HW134946   1.590   1.105   4.264  0.9592  0.3896 -0.3808
 7770SOL    HW234947   1.598   1.002   4.173  2.9758 -0.8879 -1.1529
 7771SOL     OW34948   3.132   4.143   2.001 -0.6952  0.5003  0.0691
 7771SOL    HW134949   3.100   4.198   2.072  1.7434 -0.2568  1.7538
 7771SOL    HW234950   3.104   4.056   2.028  2.3465 -0.4912  0.1154
 7772SOL     OW34951   1.806   1.094   5.542  0.0017 -0.0680  0.5847
 7772SOL    HW134952   1.801   1.071   5.449 -2.6111  1.0909  0.4499
 7772SOL    HW234953   1.852   1.178   5.535  0.9171 -0.4413  2.1444
 7773SOL     OW34954   2.010   3.809   6.953 -0.3485  0.0349 -0.2214
 7773SOL    HW134955   1.956   3.731   6.966  2.5956 -1.9145  0.0833
 7773SOL    HW234956   1.952   3.866   6.902 -3.2085 -1.8562  0.9061
 7774SOL     OW34957   0.001   4.643   2.869  0.3260  0.7855  0.1022
 7774SOL    HW134958   0.014   4.704   2.796 -0.3608  1.0830  0.2256
 7774SOL    HW234959   4.650   4.670   2.894  0.0330  1.2460 -1.4144
 7775SOL     OW34960   2.481   1.377   7.757  0.4943 -0.0819  0.0674
 7775SOL    HW134961   2.558   1.429   7.783  0.9257 -1.0220  0.6794
 7775SOL    HW234962   2.418   1.442   7.787 -1.7278 -1.1212 -2.3248
 7776SOL     OW34963   3.539   4.417   6.116 -0.3055  0.5022 -0.3733
 7776SOL    HW134964   3.589   4.497   6.132  2.3335 -1.4966  1.1616
 7776SOL    HW234965   3.603   4.347   6.127 -0.0059  0.6119 -1.4004
 7777SOL     OW34966   1.873   2.522   2.787 -0.4161  0.1247 -0.3327
 7777SOL    HW134967   1.883   2.484   2.875 -0.3740  0.3343 -0.2484
 7777SOL    HW234968   1.802   2.585   2.791 -1.0570 -0.6114 -0.0278
 7778SOL     OW34969   3.604   3.837   9.082 -0.0373  0.4116  0.6968
 7778SOL    HW134970   3.686   3.791   9.103 -0.2543  0.2294  1.1507
 7778SOL    HW234971   3.558   3.824   9.165  2.9613 -0.0553  2.2965
 7779SOL     OW34972   4.089   0.471   4.643  0.0412 -0.3541  0.4117
 7779SOL    HW134973   4.066   0.378   4.648 -2.0485  0.1911  1.0286
 7779SOL    HW234974   4.155   0.467   4.573 -0.6927 -0.5339 -0.2744
 7780SOL     OW34975   3.123   3.124  10.156 -0.0262 -0.3054 -0.0657
 7780SOL    HW134976   3.104   3.142  10.248  2.6843 -2.8164  0.9939
 7780SOL    HW234977   3.103   3.031  10.164  0.3550 -0.3586  0.2834
 7781SOL     OW34978   1.652   0.091   8.695  0.1945  0.7531 -0.3501
 7781SOL    HW134979   1.690   0.172   8.660  2.9039  0.0801  1.0451
 7781SOL    HW234980   1.628   0.117   8.784 -0.7649  1.4224 -0.8043
 7782SOL     OW34981   1.185   1.230   4.883  0.0829  0.0582 -0.0075
 7782SOL    HW134982   1.137   1.164   4.833  0.8328 -1.0294  0.7014
 7782SOL    HW234983   1.278   1.206   4.878  0.0610 -0.2757  1.0433
 7783SOL     OW34984   0.027   2.259   8.715 -0.5327  0.4120  0.3187
 7783SOL    HW134985   4.697   2.192   8.726  1.9843 -2.2000 -0.1581
 7783SOL    HW234986   4.718   2.312   8.650  0.4548  0.3262 -0.4542
 7784SOL     OW34987   0.483   3.440   3.507  0.5925  0.2172 -0.0312
 7784SOL    HW134988   0.547   3.487   3.455 -1.1497  2.6813  0.0405
 7784SOL    HW234989   0.536   3.413   3.582 -1.2499  2.4275  2.0887
 7785SOL     OW34990   1.452   4.197   4.945 -0.4251 -0.1323 -0.5147
 7785SOL    HW134991   1.381   4.247   4.904 -0.3033  0.4862  0.0117
 7785SOL    HW234992   1.503   4.271   4.978  0.8669  0.0727 -2.9589
 7786SOL     OW34993   0.393   1.224  16.434  0.5490 -0.0181  0.4699
 7786SOL    HW134994   0.421   1.226  16.343  0.1018  0.2323  0.3355
 7786SOL    HW234995   0.368   1.133  16.448  0.3085 -0.2351 -1.4002
 7787SOL     OW34996   1.690   1.075   8.413 -0.5984  0.0385 -0.0694
 7787SOL    HW134997   1.658   1.003   8.359 -0.0111  0.9501 -1.6050
 7787SOL    HW234998   1.614   1.133   8.418 -1.9824 -1.9914  2.5573
 7788SOL     OW34999   2.968   3.754   7.587 -0.1843  0.3346  0.0428
 7788SOL    HW135000   2.926   3.690   7.529  0.1176  0.1729  0.0031
 7788SOL    HW235001   3.055   3.751   7.546  0.0832  0.0407  0.6268
 7789SOL     OW35002   4.734   4.040  10.894  0.3925 -0.0402 -0.2168
 7789SOL    HW135003   0.050   4.042  10.814 -0.9946  0.7032 -1.1259
 7789SOL    HW235004   4.705   3.949  10.882 -0.8470  0.5271 -1.4597
 7790SOL     OW35005   3.938   4.379  15.222 -0.0209 -0.4183 -0.3812
 7790SOL    HW135006   4.007   4.445  15.217 -1.1403  0.7939  0.1161
 7790SOL    HW235007   3.917   4.377  15.129  0.2877 -1.2102 -0.4265
 7791SOL     OW35008   0.464   3.581   4.359  0.1458  0.4943  0.1592
 7791SOL    HW135009   0.555   3.611   4.352 -0.0603  0.9308 -0.6474
 7791SOL    HW235010   0.434   3.583   4.268 -1.0706  1.3616  0.5801
 7792SOL     OW35011   1.522   0.987   3.050 -0.0754 -0.1216 -0.3381
 7792SOL    HW135012   1.436   1.005   3.013  0.9612  0.5443 -2.4385
 7792SOL    HW235013   1.499   0.974   3.142  2.3858 -2.2148 -0.0503
 7793SOL     OW35014   1.248   4.243   4.372 -0.4949 -0.5928 -0.7189
 7793SOL    HW135015   1.190   4.170   4.392 -1.2748  0.0880 -0.5166
 7793SOL    HW235016   1.332   4.212   4.406 -0.9299  1.4219  2.2908
 7794SOL     OW35017   2.237   3.118   5.729  0.0245 -1.0144 -0.8729
 7794SOL    HW135018   2.290   3.051   5.771  2.0446  1.0583 -0.0930
 7794SOL    HW235019   2.208   3.071   5.651 -2.7640 -0.2432 -0.3056
 7795SOL     OW35020   0.481   4.465   7.886  0.7659  0.2633 -0.0335
 7795SOL    HW135021   0.389   4.450   7.909  0.6571 -0.2701 -0.8294
 7795SOL    HW235022   0.486   4.550   7.842 -0.8252  1.8347  2.8167
 7796SOL     OW35023   4.027   4.592   0.697  0.0404  0.5644 -0.1674
 7796SOL    HW135024   4.012   4.684   0.721  1.3979  0.3896  1.3276
 7796SOL    HW235025   4.110   4.600   0.649  0.0825  0.3213 -0.1350
 7797SOL     OW35026   0.557   4.179   5.812  0.3007  0.0001 -0.2637
 7797SOL    HW135027   0.572   4.273   5.821 -0.5822 -0.0586  1.9423
 7797SOL    HW235028   0.619   4.132   5.867  0.5595 -0.0173 -0.5736
 7798SOL     OW35029   1.783   4.359   7.185 -0.0604  0.3855  0.3282
 7798SOL    HW135030   1.780   4.418   7.261  4.1119  0.4515  0.4132
 7798SOL    HW235031   1.868   4.384   7.150 -1.3051  2.9874 -0.9160
 7799SOL     OW35032   2.600   1.697   1.453 -0.1560  0.1295  0.1598
 7799SOL    HW135033   2.553   1.778   1.437 -1.4907 -0.6552  0.1086
 7799SOL    HW235034   2.683   1.735   1.482 -0.5144  2.7894 -2.3342
 7800SOL     OW35035   4.416   2.385   4.373  0.4342 -0.4437  0.2880
 7800SOL    HW135036   4.375   2.427   4.448 -1.6079  0.0226 -1.0755
 7800SOL    HW235037   4.460   2.312   4.416 -2.2816 -3.0566 -1.3257
 7801SOL     OW35038   1.531   3.507   7.791  0.4315 -0.3513  0.7716
 7801SOL    HW135039   1.556   3.423   7.753 -1.3029  0.2775 -1.7426
 7801SOL    HW235040   1.461   3.530   7.729  1.2078  1.3101  0.5187
 7802SOL     OW35041   0.426   3.202   2.224 -0.6912 -0.8228 -0.3751
 7802SOL    HW135042   0.518   3.202   2.198 -0.4607  0.2774  0.4582
 7802SOL    HW235043   0.400   3.285   2.185 -1.5523 -0.0959  1.7401
 7803SOL     OW35044   3.487   2.759   1.592 -0.4295  0.0780  0.1382
 7803SOL    HW135045   3.540   2.837   1.579  0.2813 -0.1040  1.9532
 7803SOL    HW235046   3.553   2.700   1.627 -0.8760 -1.1842 -1.1242
 7804SOL     OW35047   3.287   2.475  14.474  0.4199 -0.1365  0.6757
 7804SOL    HW135048   3.227   2.403  14.495  0.4309 -0.5433 -0.6773
 7804SOL    HW235049   3.350   2.468  14.545  0.3662  0.0157  0.7382
 7805SOL     OW35050   2.428   0.914   2.751  0.1155  0.2807 -0.0651
 7805SOL    HW135051   2.393   0.852   2.814 -1.8757  2.9012  1.4347
 7805SOL    HW235052   2.502   0.861   2.722  0.6846  0.3189  1.3656
 7806SOL     OW35053   2.654   2.256   4.329  0.4422 -0.8551 -0.1664
 7806SOL    HW135054   2.683   2.324   4.390  1.6882 -0.6980 -0.9405
 7806SOL    HW235055   2.737   2.224   4.294  0.9525  0.7609 -0.4497
 7807SOL     OW35056   2.849   3.714   7.844 -0.0617 -0.1081  0.2511
 7807SOL    HW135057   2.921   3.659   7.874  0.5043  0.1673 -0.6048
 7807SOL    HW235058   2.892   3.737   7.762  1.7029 -1.5965  0.7601
 7808SOL     OW35059   0.485   3.154   1.714  0.2680  0.6681 -0.3016
 7808SOL    HW135060   0.416   3.173   1.651  0.3646  2.4112  0.1052
 7808SOL    HW235061   0.429   3.124   1.785  0.5447  0.2335 -0.2715
 7809SOL     OW35062   4.733   4.381   4.939 -0.6179  0.4743  0.5335
 7809SOL    HW135063   0.056   4.440   4.893 -0.4376  0.3919  0.6639
 7809SOL    HW235064   4.651   4.414   4.904 -0.7024  0.2560  0.5261
 7810SOL     OW35065   4.312   3.811   6.568 -0.2093 -0.1513 -0.0466
 7810SOL    HW135066   4.336   3.828   6.659 -3.4609  1.8830  0.4374
 7810SOL    HW235067   4.309   3.716   6.576  1.7907 -0.3092 -1.2520
 7811SOL     OW35068   1.142   4.590   3.510 -0.3811  0.4595  0.2395
 7811SOL    HW135069   1.152   4.628   3.597 -1.2244  0.7745  0.1980
 7811SOL    HW235070   1.145   4.498   3.536  1.4341  0.0709 -1.3317
 7812SOL     OW35071   4.253   3.213   4.062  0.4145 -0.0253 -0.2176
 7812SOL    HW135072   4.326   3.154   4.079  1.4673  1.2149 -0.4524
 7812SOL    HW235073   4.211   3.175   3.985 -0.8929 -0.5289  0.7315
 7813SOL     OW35074   0.977   2.847   8.471  0.6344 -0.2818 -0.4264
 7813SOL    HW135075   0.983   2.753   8.456 -1.4622 -0.2027 -1.7750
 7813SOL    HW235076   1.068   2.871   8.486  0.6224 -1.9002  2.1699
 7814SOL     OW35077   1.265   2.494   9.774  0.1164  0.0997 -0.2278
 7814SOL    HW135078   1.297   2.571   9.726  3.1810 -1.9325 -1.3979
 7814SOL    HW235079   1.330   2.488   9.844  1.3116  0.1969 -1.3285
 7815SOL     OW35080   3.825   3.554  15.360 -0.2800  0.1434 -0.5222
 7815SOL    HW135081   3.900   3.612  15.347  2.0582 -2.2310  2.4866
 7815SOL    HW235082   3.869   3.482  15.406 -2.2026 -0.1772  0.8106
 7816SOL     OW35083   4.716   1.900  12.951  0.2243  0.1746 -0.0793
 7816SOL    HW135084   4.714   1.919  13.044 -2.4249  2.1261 -0.5385
 7816SOL    HW235085   4.697   1.806  12.948 -1.1155  0.5308 -2.5789
 7817SOL     OW35086   3.064   1.905  12.670  0.0644 -0.0639 -0.0131
 7817SOL    HW135087   3.027   1.818  12.654 -1.5246  0.8731 -1.4026
 7817SOL    HW235088   2.986   1.953  12.643  0.4162  1.7463  2.2083
 7818SOL     OW35089   1.593   3.420   6.061 -0.1524  0.6519 -0.4001
 7818SOL    HW135090   1.672   3.369   6.041 -0.1540  0.0185  1.1976
 7818SOL    HW235091   1.574   3.448   5.972 -1.3800  0.6547 -0.1285
 7819SOL     OW35092   2.518   3.100   8.217 -0.3783 -0.1539  0.1672
 7819SOL    HW135093   2.436   3.067   8.253 -0.7613  0.5998 -0.0056
 7819SOL    HW235094   2.533   3.030   8.154 -1.0305  0.7665 -1.0171
 7820SOL     OW35095   0.514   0.019   7.865 -0.3763  0.9946 -0.2889
 7820SOL    HW135096   0.601   4.726   7.840 -0.3973  0.4750  0.2624
 7820SOL    HW235097   0.535   0.059   7.950 -1.6387  0.5913  0.2176
 7821SOL     OW35098   4.086   3.260  11.517 -0.3221  0.0579 -0.2836
 7821SOL    HW135099   4.066   3.337  11.570  0.0806 -0.7489  1.0438
 7821SOL    HW235100   4.082   3.299  11.429 -0.0771  0.1746 -0.2442
 7822SOL     OW35101   3.387   3.051   8.199  0.2147 -0.0294  0.2788
 7822SOL    HW135102   3.423   3.003   8.273  1.1650  0.0229 -0.1502
 7822SOL    HW235103   3.351   2.978   8.149 -2.0569 -0.8817  3.1726
 7823SOL     OW35104   1.369   1.898  16.430 -0.1224  0.1600 -0.3268
 7823SOL    HW135105   1.436   1.871  16.368  1.6976  4.8476 -0.3743
 7823SOL    HW235106   1.425   1.909  16.507  1.3619 -2.8253 -1.0073
 7824SOL     OW35107   4.427   4.726   5.065 -0.2362 -0.0109  0.1038
 7824SOL    HW135108   4.509   0.009   5.021  0.7385 -0.0366  1.9030
 7824SOL    HW235109   4.426   0.062   5.127  0.3910  1.1018 -1.1930
 7825SOL     OW35110   0.016   1.908   7.177  0.2992 -0.1184 -0.4828
 7825SOL    HW135111   0.042   1.891   7.086  0.4363 -1.0323 -0.2693
 7825SOL    HW235112   0.002   2.003   7.175  1.8338  0.0795 -2.6232
 7826SOL     OW35113   1.866   0.932  12.593 -0.3522 -0.3114 -0.2420
 7826SOL    HW135114   1.820   1.008  12.627 -0.0253  0.7815 -2.2530
 7826SOL    HW235115   1.876   0.957  12.501 -0.5799  0.6761  0.0050
 7827SOL     OW35116   0.357   3.228  13.430 -0.2814  0.1796  0.4369
 7827SOL    HW135117   0.443   3.206  13.393 -0.4947  1.0024 -0.5370
 7827SOL    HW235118   0.300   3.223  13.354 -0.6381  1.7475  0.5864
 7828SOL     OW35119   1.870   1.772  11.107 -0.0619  0.3248  0.3795
 7828SOL    HW135120   1.923   1.711  11.157  1.0706 -0.7455 -2.1142
 7828SOL    HW235121   1.898   1.859  11.135  2.0186 -0.0454 -0.5208
 7829SOL     OW35122   2.035   4.546   0.993 -0.4349 -0.0507  0.3123
 7829SOL    HW135123   2.059   4.639   0.994 -1.5620  0.2624 -1.6373
 7829SOL    HW235124   2.066   4.524   1.081 -2.3609 -1.0233  0.7574
 7830SOL     OW35125   2.922   0.323   9.144  0.0766  0.2360 -0.1803
 7830SOL    HW135126   2.982   0.396   9.127  1.5591 -0.8728  0.2708
 7830SOL    HW235127   2.877   0.327   9.060  2.1442  0.4022 -1.2710
 7831SOL     OW35128   1.281   0.979  11.514  0.3733 -0.1874 -0.0557
 7831SOL    HW135129   1.268   1.001  11.422 -1.2533 -0.6352  0.0632
 7831SOL    HW235130   1.333   1.053  11.544 -0.8709  0.5580  0.2618
 7832SOL     OW35131   1.100   3.247   9.620  0.4197  0.9202 -0.0484
 7832SOL    HW135132   1.147   3.325   9.589  0.6145  1.0205  0.5096
 7832SOL    HW235133   1.054   3.218   9.541  0.0921 -0.0473  0.5020
 7833SOL     OW35134   2.122   3.407   2.458 -0.3077  0.1392  0.1111
 7833SOL    HW135135   2.059   3.477   2.445  0.2314  0.6798  0.4137
 7833SOL    HW235136   2.171   3.444   2.531  0.6190 -1.4070  0.2745
 7834SOL     OW35137   1.992   1.623   7.617  0.6976 -0.4070  0.1198
 7834SOL    HW135138   2.021   1.552   7.559  2.3705 -0.3522  0.8969
 7834SOL    HW235139   1.926   1.575   7.667 -0.8041  1.5026 -0.0170
 7835SOL     OW35140   0.817   1.058  12.056  0.2256  0.5558 -0.2827
 7835SOL    HW135141   0.759   1.121  12.014 -0.6684  1.0414  1.6586
 7835SOL    HW235142   0.888   1.073  11.995 -1.1576  0.8054 -1.8378
 7836SOL     OW35143   1.109   3.018   3.668 -0.3371  0.0379 -0.0393
 7836SOL    HW135144   1.146   3.092   3.717 -0.5175  0.3066 -0.3111
 7836SOL    HW235145   1.018   3.043   3.684 -0.6532 -0.9317 -0.3393
 7837SOL     OW35146   3.170   3.018   4.008  0.1240  0.0960 -0.6023
 7837SOL    HW135147   3.094   3.056   4.052  1.3563 -0.1411  1.7421
 7837SOL    HW235148   3.146   3.022   3.916 -0.3399 -0.8123 -0.5233
 7838SOL     OW35149   1.112   1.447   0.711  0.1256  0.3560  0.2610
 7838SOL    HW135150   1.193   1.396   0.714 -0.6114 -0.8378  0.0457
 7838SOL    HW235151   1.129   1.509   0.640  0.3867  0.8493  0.7586
 7839SOL     OW35152   3.130   4.590  11.310  0.3498 -0.3484  0.0518
 7839SOL    HW135153   3.091   4.672  11.279 -0.2640 -1.0797 -1.0836
 7839SOL    HW235154   3.201   4.624  11.365 -1.3805 -2.1368  3.2886
 7840SOL     OW35155   4.459   3.877  13.105  0.3339  0.7623  0.1574
 7840SOL    HW135156   4.483   3.935  13.177  1.1785 -1.0197  1.3153
 7840SOL    HW235157   4.511   3.927  13.042  3.0294 -1.3373  0.6873
 7841SOL     OW35158   2.967   3.068   7.145  0.0198 -0.0789  0.6497
 7841SOL    HW135159   2.937   3.157   7.128 -0.4931 -0.3536  0.0968
 7841SOL    HW235160   3.060   3.088   7.152 -0.0871  0.5325  0.2889
 7842SOL     OW35161   4.677   0.643   2.575 -0.0092  0.1981 -0.0812
 7842SOL    HW135162   4.733   0.720   2.564  1.4207 -0.8922 -0.3080
 7842SOL    HW235163   4.595   0.682   2.543 -1.0356 -1.3397  0.6958
 7843SOL     OW35164   2.766   1.761   6.840  0.3511 -0.4901 -0.2183
 7843SOL    HW135165   2.836   1.701   6.813 -0.5659 -2.0565  0.8652
 7843SOL    HW235166   2.756   1.813   6.760  0.2286  1.4293  1.0632
 7844SOL     OW35167   3.741   0.439   0.570  0.3021  0.1496  0.1533
 7844SOL    HW135168   3.832   0.467   0.570 -0.2591  1.9608 -1.7086
 7844SOL    HW235169   3.695   0.521   0.550 -0.4982  0.0651  1.6600
 7845SOL     OW35170   1.385   4.616   4.902 -0.3824 -0.5433 -0.3227
 7845SOL    HW135171   1.339   4.609   4.986 -1.0227  0.4330 -0.5832
 7845SOL    HW235172   1.415   4.706   4.914 -0.3750 -0.6623  0.6162
 7846SOL     OW35173   2.332   1.733  13.071  0.5197 -0.1601 -0.1577
 7846SOL    HW135174   2.275   1.670  13.027 -0.1935  0.0945  0.3984
 7846SOL    HW235175   2.412   1.689  13.041  0.5270 -1.0095  1.0899
 7847SOL     OW35176   4.435   3.752   9.059  0.2066 -0.1367  0.4081
 7847SOL    HW135177   4.503   3.741   9.126  0.4627 -0.2158  0.1303
 7847SOL    HW235178   4.363   3.789   9.111 -1.4776  1.3480 -2.9604
 7848SOL     OW35179   1.220   2.273   7.039 -0.3924  0.2286 -0.0669
 7848SOL    HW135180   1.130   2.287   7.008 -0.7848 -0.3454  0.8179
 7848SOL    HW235181   1.272   2.264   6.959 -2.0371  1.0550 -1.2359
 7849SOL     OW35182   2.487   2.996   0.801 -0.3401 -0.3895 -0.4252
 7849SOL    HW135183   2.435   3.076   0.792 -1.9441 -1.2162  1.6261
 7849SOL    HW235184   2.470   2.968   0.890 -1.3917 -1.0691 -0.8361
 7850SOL     OW35185   4.508   4.557  13.375  0.2252 -0.0208 -0.4714
 7850SOL    HW135186   4.505   4.621  13.447 -2.9941 -1.1779  0.4020
 7850SOL    HW235187   4.456   4.486  13.413 -1.3325  1.8839  0.9822
 7851SOL     OW35188   4.290   3.271   9.416 -0.2860  0.0167 -0.5937
 7851SOL    HW135189   4.300   3.184   9.379  2.9215  0.5344 -0.9745
 7851SOL    HW235190   4.286   3.250   9.509  1.0205  0.4765 -0.4410
 7852SOL     OW35191   0.755   0.639   2.897 -0.3424  0.2039  0.5344
 7852SOL    HW135192   0.842   0.679   2.890 -1.2561  2.3182  1.6109
 7852SOL    HW235193   0.726   0.674   2.981 -0.4873 -0.8711  0.9309
 7853SOL     OW35194   0.623   1.187   9.944  0.1295  0.3105 -0.6683
 7853SOL    HW135195   0.570   1.149  10.014 -2.0531  1.1510 -1.8795
 7853SOL    HW235196   0.679   1.241  10.000 -1.7666 -0.1863  1.6905
 7854SOL     OW35197   2.191   2.419   1.452 -0.3607  0.4373 -0.6203
 7854SOL    HW135198   2.157   2.335   1.485  0.9999  0.2931  0.3907
 7854SOL    HW235199   2.223   2.393   1.366 -0.6450 -1.5018 -0.1617
 7855SOL     OW35200   2.572   3.799  11.000  0.3950  0.5391  0.0224
 7855SOL    HW135201   2.576   3.890  11.029 -1.2603  0.1901  1.3191
 7855SOL    HW235202   2.565   3.761  11.087 -0.2625  0.7858  0.0715
 7856SOL     OW35203   2.090   1.893   7.662 -0.1787 -0.1851 -0.2278
 7856SOL    HW135204   2.175   1.896   7.618 -0.3372 -2.8454 -0.7062
 7856SOL    HW235205   2.058   1.806   7.641  0.6398 -0.9147  1.5922
 7857SOL     OW35206   2.956   1.840   0.946 -0.1729 -0.3319  0.5377
 7857SOL    HW135207   3.027   1.836   1.010 -2.2863 -0.1210  2.8848
 7857SOL    HW235208   2.952   1.761   0.892  1.2020  0.1297 -0.2541
 7858SOL     OW35209   2.836   3.298   7.622  0.4699 -0.0333 -0.1635
 7858SOL    HW135210   2.822   3.216   7.575 -4.1674  2.4427 -3.0115
 7858SOL    HW235211   2.791   3.290   7.706 -0.3219 -0.1460 -0.6034
 7859SOL     OW35212   1.350   1.116   9.511  0.3208  0.0881  0.1604
 7859SOL    HW135213   1.357   1.202   9.552 -0.7294  1.2777 -2.1571
 7859SOL    HW235214   1.262   1.090   9.539 -0.1140  0.0693 -1.2382
 7860SOL     OW35215   3.163   3.116   3.747 -0.6358 -0.1098  0.0540
 7860SOL    HW135216   3.232   3.132   3.683 -2.3797  1.9219 -1.3479
 7860SOL    HW235217   3.099   3.068   3.693  0.1693  1.6546 -2.4657
 7861SOL     OW35218   1.847   1.411  12.590  0.3788 -0.0972  0.2933
 7861SOL    HW135219   1.866   1.497  12.626  1.6089 -0.3540  0.2395
 7861SOL    HW235220   1.889   1.358  12.658  0.8739  0.3165  0.3070
 7862SOL     OW35221   3.054   0.650   2.236  0.4005 -0.9316  0.3481
 7862SOL    HW135222   3.141   0.686   2.219  0.5893 -1.4027  0.3166
 7862SOL    HW235223   2.997   0.727   2.231  1.7489  0.2420  2.9065
 7863SOL     OW35224   2.394   2.855   8.964 -0.6787  0.0918  0.4867
 7863SOL    HW135225   2.378   2.938   8.917  0.7385  0.3192  0.4235
 7863SOL    HW235226   2.432   2.885   9.046  1.3130  1.8454 -1.0543
 7864SOL     OW35227   3.074   3.878   6.197 -0.4337  0.0909  0.4804
 7864SOL    HW135228   3.155   3.872   6.248  0.1379 -1.3192 -0.5917
 7864SOL    HW235229   3.096   3.963   6.159 -0.4758 -1.6833 -3.4940
 7865SOL     OW35230   3.636   2.587   5.736 -0.9027  0.1088 -0.4528
 7865SOL    HW135231   3.627   2.678   5.706 -1.7292 -0.4447 -1.9090
 7865SOL    HW235232   3.670   2.603   5.824  0.3616 -0.7550 -0.7724
 7866SOL     OW35233   3.224   0.074   6.747  0.0292 -0.1095 -0.0953
 7866SOL    HW135234   3.244   0.154   6.795 -3.4836  0.3287  0.6409
 7866SOL    HW235235   3.307   0.071   6.698 -0.7913  0.1489 -1.5047
 7867SOL     OW35236   3.892   3.404   5.410  0.9132  0.1537  0.0944
 7867SOL    HW135237   3.979   3.431   5.440  1.3854  0.8362 -1.9019
 7867SOL    HW235238   3.899   3.316   5.374  4.2147  0.3242  0.2978
 7868SOL     OW35239   0.315   0.192   3.058 -0.2942  0.1533 -0.5743
 7868SOL    HW135240   0.335   0.271   3.110  0.7072 -1.1769  1.0496
 7868SOL    HW235241   0.243   0.159   3.113  0.2027 -0.2098 -0.1437
 7869SOL     OW35242   1.990   0.189   7.381 -0.1419  0.0409 -0.0530
 7869SOL    HW135243   2.067   0.163   7.331  0.0354  0.8639 -0.2060
 7869SOL    HW235244   1.972   0.273   7.338 -2.1640 -1.4607 -2.1473
 7870SOL     OW35245   2.590   4.031   8.849 -0.0209  0.4143  0.1049
 7870SOL    HW135246   2.590   3.936   8.851 -0.7070  0.4396  0.9589
 7870SOL    HW235247   2.528   4.062   8.784  1.3637  1.8681 -0.5311
 7871SOL     OW35248   4.350   4.649   3.984  0.0639  0.1433 -0.0879
 7871SOL    HW135249   4.285   4.610   3.926 -0.6098 -1.3479  1.6620
 7871SOL    HW235250   4.291   4.682   4.052 -0.0643  0.6226 -0.4322
 7872SOL     OW35251   0.948   2.483   3.825 -0.3106 -0.4939  0.1572
 7872SOL    HW135252   0.909   2.549   3.882 -2.9226 -0.2259 -1.9237
 7872SOL    HW235253   1.041   2.491   3.849 -0.4160  0.5355  0.1861
 7873SOL     OW35254   4.186   4.358   9.189 -0.2537 -0.3437  0.0940
 7873SOL    HW135255   4.148   4.426   9.244 -1.2980 -1.5737  0.8906
 7873SOL    HW235256   4.244   4.307   9.245 -1.0942  0.4721  1.7097
 7874SOL     OW35257   4.332   2.452   9.161  0.0610 -0.5148 -0.0761
 7874SOL    HW135258   4.319   2.379   9.222  1.8091 -1.5357 -0.9006
 7874SOL    HW235259   4.316   2.402   9.082  0.6572 -1.1841  0.2220
 7875SOL     OW35260   0.055   1.289   7.849 -0.3865 -0.3534 -0.2677
 7875SOL    HW135261   0.051   1.352   7.777 -0.6825 -0.6380 -0.5037
 7875SOL    HW235262   0.061   1.204   7.804  0.7766 -0.1001 -0.5988
 7876SOL     OW35263   3.847   1.458  16.979  0.3238  0.4582 -0.1953
 7876SOL    HW135264   3.934   1.457  16.938  0.4952  1.7835  0.1331
 7876SOL    HW235265   3.852   1.394  17.050 -1.7008  0.8749  0.3247
 7877SOL     OW35266   1.329   2.636  15.050  0.5638 -0.2397 -0.0299
 7877SOL    HW135267   1.235   2.642  15.033  0.4241  0.9765  1.1166
 7877SOL    HW235268   1.367   2.718  15.017 -0.0028 -0.0402 -0.1904
 7878SOL     OW35269   1.360   3.487  14.649 -0.1701 -0.4392 -0.2584
 7878SOL    HW135270   1.269   3.512  14.631  0.5785  0.9602 -2.0761
 7878SOL    HW235271   1.363   3.391  14.640 -0.8744 -0.5531  0.6930
 7879SOL     OW35272   0.189   4.444   3.644  0.7810  0.2460  0.3162
 7879SOL    HW135273   0.209   4.537   3.635 -0.2916  0.3605 -0.8595
 7879SOL    HW235274   0.151   4.422   3.559 -0.2948  0.2039  0.8145
 7880SOL     OW35275   0.985   0.221   4.183 -0.4144  0.3190 -0.0650
 7880SOL    HW135276   1.007   0.186   4.269 -2.9576  0.3244  0.5992
 7880SOL    HW235277   1.072   0.226   4.145 -0.5827 -1.0143 -0.6217
 7881SOL     OW35278   3.438   0.332   4.463 -0.0799  0.2457  0.3562
 7881SOL    HW135279   3.363   0.276   4.446  0.8142 -0.7887 -0.2000
 7881SOL    HW235280   3.502   0.286   4.408 -3.3600 -2.2084 -1.3496
 7882SOL     OW35281   1.901   0.264   8.153  0.6733 -0.6287  0.1894
 7882SOL    HW135282   1.951   0.183   8.164  2.1601 -0.0194 -2.0844
 7882SOL    HW235283   1.948   0.317   8.217 -0.2753 -2.3192  2.3105
 7883SOL     OW35284   2.920   1.036   7.306 -0.0735  0.3910 -0.0344
 7883SOL    HW135285   2.874   1.119   7.319  0.7480  1.3398 -3.0605
 7883SOL    HW235286   2.885   1.006   7.222  2.4499  2.2762 -1.7719
 7884SOL     OW35287   2.699   1.525   5.547 -0.3727 -0.3026 -0.0887
 7884SOL    HW135288   2.756   1.534   5.471 -0.1545 -0.5422  0.0455
 7884SOL    HW235289   2.740   1.573   5.619 -1.0000  2.2024 -1.3970
 7885SOL     OW35290   1.649   4.023   1.817 -0.0913 -0.6906  0.2703
 7885SOL    HW135291   1.594   3.954   1.854  0.3037 -0.6090  1.0214
 7885SOL    HW235292   1.721   3.971   1.783  0.9810 -0.1857  1.7866
 7886SOL     OW35293   4.064   3.019   6.089  0.0169  0.2544  0.0609
 7886SOL    HW135294   4.056   3.099   6.037  2.3443  0.9325  0.7073
 7886SOL    HW235295   4.155   2.993   6.076  1.3335  3.1028  3.2853
 7887SOL     OW35296   1.163   3.538   6.028 -0.0349  0.0324  0.2258
 7887SOL    HW135297   1.162   3.627   6.063  1.5934  0.9758 -2.1012
 7887SOL    HW235298   1.076   3.518   6.061  0.4527 -2.7484 -0.1425
 7888SOL     OW35299   3.286   0.446   9.981  0.0648 -0.4033 -0.2855
 7888SOL    HW135300   3.326   0.367   9.944  2.1153 -0.3467  1.7854
 7888SOL    HW235301   3.209   0.407  10.021  0.8772 -1.6544  0.0690
 7889SOL     OW35302   0.211   0.809   7.664  0.2196  0.4284 -0.3743
 7889SOL    HW135303   0.286   0.766   7.706 -0.5119 -1.4555 -0.9892
 7889SOL    HW235304   0.155   0.733   7.653  0.5141 -0.0953  1.7961
 7890SOL     OW35305   0.080   0.393   3.133 -0.0212  0.7996 -0.0161
 7890SOL    HW135306   0.066   0.476   3.087 -0.7851  0.8898  0.3774
 7890SOL    HW235307   0.055   0.330   3.066 -0.7265 -0.8793  1.8172
 7891SOL     OW35308   3.670   2.173  12.130  0.0246 -1.2612 -0.2933
 7891SOL    HW135309   3.664   2.238  12.059 -0.0834 -0.1554  0.7348
 7891SOL    HW235310   3.765   2.166  12.120  0.4807 -0.0862  3.2141
 7892SOL     OW35311   1.770   1.562  12.352  0.2358 -0.0269 -0.0590
 7892SOL    HW135312   1.762   1.500  12.425 -1.4985 -1.9556 -1.8673
 7892SOL    HW235313   1.759   1.500  12.280 -5.7162 -1.5374  2.0518
 7893SOL     OW35314   1.867   3.038   3.098 -0.2752  0.0201  0.0696
 7893SOL    HW135315   1.950   3.085   3.111 -1.2108  1.5779  0.4126
 7893SOL    HW235316   1.816   3.110   3.060 -0.9332  0.7620  2.3671
 7894SOL     OW35317   2.363   3.328   2.336  0.6158  0.2294  0.0229
 7894SOL    HW135318   2.276   3.360   2.358  0.5621 -1.5269  2.3227
 7894SOL    HW235319   2.409   3.411   2.321  1.7365 -0.3881 -0.0290
 7895SOL     OW35320   0.661   1.757  13.890 -0.4920  0.2974 -0.4010
 7895SOL    HW135321   0.725   1.713  13.946  1.1925 -0.1300 -2.6625
 7895SOL    HW235322   0.592   1.697  13.862  1.0749 -1.3799 -0.6773
 7896SOL     OW35323   1.558   0.733   3.392 -0.5169  0.5948 -0.2554
 7896SOL    HW135324   1.621   0.696   3.330  1.6527  2.1263  1.0240
 7896SOL    HW235325   1.578   0.675   3.466  1.9679  3.7228  1.5276
 7897SOL     OW35326   0.595   1.701  11.963  0.0375  0.2415  0.1661
 7897SOL    HW135327   0.587   1.738  12.051  1.9167 -1.4802  1.0473
 7897SOL    HW235328   0.526   1.636  11.974  1.4824 -1.2757  0.2184
 7898SOL     OW35329   2.140   3.967   2.116  0.5447 -0.0620  0.1653
 7898SOL    HW135330   2.062   3.977   2.171  0.7582 -0.6363  0.5678
 7898SOL    HW235331   2.159   3.877   2.141  0.6542  0.0935  0.6456
 7899SOL     OW35332   1.333   4.023   3.135 -0.2101 -0.0304 -0.5553
 7899SOL    HW135333   1.356   4.102   3.184  1.9780 -0.0875 -1.5001
 7899SOL    HW235334   1.327   3.964   3.210  1.6693 -0.1020 -0.4689
 7900SOL     OW35335   3.116   2.617   6.019 -0.3079 -0.0798  0.5103
 7900SOL    HW135336   3.135   2.525   6.035 -0.1715 -0.3454 -1.1985
 7900SOL    HW235337   3.041   2.614   5.958 -0.0230  0.0098  0.1555
 7901SOL     OW35338   3.383   1.378   3.479 -0.2980 -0.7086 -0.1325
 7901SOL    HW135339   3.305   1.432   3.469  0.2884  0.6488  2.6077
 7901SOL    HW235340   3.447   1.444   3.505 -0.2835 -0.3233 -1.1339
 7902SOL     OW35341   2.556   1.981   3.187  0.2659 -0.6244 -0.0830
 7902SOL    HW135342   2.529   2.040   3.258 -1.9635 -1.5790 -0.1205
 7902SOL    HW235343   2.479   1.925   3.199 -1.1967  0.8357 -2.8110
 7903SOL     OW35344   0.644   1.234  12.896  0.3320  0.1399  0.1948
 7903SOL    HW135345   0.576   1.227  12.963 -0.2719 -0.0887 -0.4389
 7903SOL    HW235346   0.715   1.179  12.930 -0.3568 -0.5409  0.5425
 7904SOL     OW35347   1.904   3.450   7.690 -0.5522 -0.1387  0.4162
 7904SOL    HW135348   1.829   3.414   7.738 -1.9111 -0.9956 -2.3749
 7904SOL    HW235349   1.970   3.419   7.752  0.3373 -0.7466 -0.8377
 7905SOL     OW35350   3.527   3.640   7.523  0.0139 -0.0736  0.0586
 7905SOL    HW135351   3.475   3.676   7.595 -0.9907 -2.3931  0.5218
 7905SOL    HW235352   3.615   3.668   7.547 -0.3788  1.7557 -0.6626
 7906SOL     OW35353   3.048   1.439   7.268 -0.3850 -0.0153 -0.2155
 7906SOL    HW135354   3.087   1.487   7.195 -1.7123 -0.5355 -1.2717
 7906SOL    HW235355   3.130   1.418   7.312  0.2527  0.4763 -1.1887
 7907SOL     OW35356   2.368   1.276   2.685  0.0882 -0.2518 -0.4812
 7907SOL    HW135357   2.350   1.369   2.700 -0.7903 -0.4092 -0.5542
 7907SOL    HW235358   2.301   1.228   2.734 -1.9608  1.1193 -1.9288
 7908SOL     OW35359   1.127   4.240  16.694  0.1579  0.0045  0.0117
 7908SOL    HW135360   1.083   4.189  16.762  1.0050 -0.3535  0.2854
 7908SOL    HW235361   1.214   4.240  16.733 -1.0118  0.3019  2.6271
 7909SOL     OW35362   3.680   2.476   1.387 -0.1970  0.2094 -0.1042
 7909SOL    HW135363   3.693   2.388   1.353 -0.4488  0.0619  0.1861
 7909SOL    HW235364   3.621   2.516   1.323 -1.5521 -0.2377  0.8872
 7910SOL     OW35365   3.887   1.201   3.124  0.4342 -0.6442  0.2198
 7910SOL    HW135366   3.965   1.229   3.172  1.5337  1.1104 -2.6034
 7910SOL    HW235367   3.915   1.119   3.084 -0.7435 -1.6740  1.5303
 7911SOL     OW35368   0.374   2.306   9.435  0.5240 -0.0454 -0.4859
 7911SOL    HW135369   0.369   2.345   9.348  2.0296  0.0824 -0.5136
 7911SOL    HW235370   0.447   2.349   9.480 -1.2694  1.3241  1.1546
 7912SOL     OW35371   4.488   0.514   7.907 -0.4916 -0.0479 -0.1448
 7912SOL    HW135372   4.400   0.482   7.886  0.3573 -2.0519 -0.5903
 7912SOL    HW235373   4.474   0.608   7.891 -0.4106  0.3541  2.1898
 7913SOL     OW35374   4.471   2.203   9.943  0.2181  0.0978 -0.2032
 7913SOL    HW135375   4.393   2.226   9.994 -0.3178 -2.3371  0.0508
 7913SOL    HW235376   4.547   2.243   9.985 -0.0464  0.0120  0.3570
 7914SOL     OW35377   0.043   1.835   2.910 -0.2988 -0.1465  0.4349
 7914SOL    HW135378   0.022   1.841   2.816 -0.5862 -1.6592  0.4032
 7914SOL    HW235379   0.095   1.915   2.920 -1.6296  0.7823  0.0389
 7915SOL     OW35380   0.280   3.100   1.156  0.3592 -0.0029 -0.1361
 7915SOL    HW135381   0.230   3.054   1.223 -0.8619 -0.2474 -1.2281
 7915SOL    HW235382   0.348   3.034   1.141  1.0884  0.8635 -0.7310
 7916SOL     OW35383   1.383   3.470  15.200  0.4066  0.1680  0.1675
 7916SOL    HW135384   1.404   3.457  15.293  1.8768 -0.1695 -0.2063
 7916SOL    HW235385   1.441   3.545  15.190  0.5167  0.5897  3.8616
 7917SOL     OW35386   1.929   2.368   4.566 -0.2443  0.3409  0.1633
 7917SOL    HW135387   1.947   2.333   4.478  2.8547  1.4250  0.4038
 7917SOL    HW235388   1.844   2.412   4.556 -0.3305 -0.0200 -0.7365
 7918SOL     OW35389   0.633   3.648   4.802 -0.2014 -0.5720  0.5997
 7918SOL    HW135390   0.655   3.559   4.832  0.7847 -0.5154  0.0414
 7918SOL    HW235391   0.590   3.684   4.880 -0.7472  2.5556 -1.1609
 7919SOL     OW35392   3.338   1.827   0.019 -0.0916  0.3483  0.4222
 7919SOL    HW135393   3.281   1.800   0.091  0.1013  0.0782  0.4703
 7919SOL    HW235394   3.277   1.860  17.699 -1.0036  1.0623  1.6201
 7920SOL     OW35395   3.231   1.221   3.317  0.0602  0.3794 -0.0285
 7920SOL    HW135396   3.182   1.299   3.341  0.3116  0.3361  0.6413
 7920SOL    HW235397   3.318   1.243   3.352 -0.1480 -1.0334  1.4015
 7921SOL     OW35398   0.633   2.406   3.086  0.0460 -0.1032  0.0319
 7921SOL    HW135399   0.559   2.465   3.072 -0.6694 -1.2280 -0.9880
 7921SOL    HW235400   0.588   2.323   3.103 -1.0599  0.2289 -1.2718
 7922SOL     OW35401   0.557   2.204   9.184  0.0742  0.3057 -0.0116
 7922SOL    HW135402   0.556   2.109   9.175  2.7366  0.2255  0.5007
 7922SOL    HW235403   0.616   2.205   9.259 -3.2834  2.0623  2.6463
 7923SOL     OW35404   1.071   0.629   5.831 -0.2018  0.3330  0.0600
 7923SOL    HW135405   1.033   0.625   5.918 -1.7390  2.2989 -0.5302
 7923SOL    HW235406   1.118   0.711   5.842  0.6189 -0.1906  0.4148
 7924SOL     OW35407   1.522   1.193   6.409  0.4776 -0.1265 -0.3724
 7924SOL    HW135408   1.490   1.180   6.320 -3.6460  0.2137  1.0682
 7924SOL    HW235409   1.609   1.161   6.385  1.5008  1.1534  1.5712
 7925SOL     OW35410   3.215   2.291   4.107 -0.0685 -0.2190 -0.6317
 7925SOL    HW135411   3.172   2.268   4.024  0.9822 -2.2965 -0.6120
 7925SOL    HW235412   3.149   2.338   4.158  0.5068 -0.2518  0.1371
 7926SOL     OW35413   3.089   3.095  12.516 -0.0625 -0.6364  0.0652
 7926SOL    HW135414   2.998   3.124  12.517  0.4703  1.0012  0.0371
 7926SOL    HW235415   3.083   3.045  12.435  1.8594  0.9711 -1.0835
 7927SOL     OW35416   2.810   2.810  10.470  0.2953  0.2310 -0.6872
 7927SOL    HW135417   2.756   2.874  10.516 -1.5701 -1.7924 -0.0375
 7927SOL    HW235418   2.757   2.730  10.468  0.7572 -0.1215  1.2069
 7928SOL     OW35419   4.669   1.152  13.227 -0.7667  0.6670  0.1137
 7928SOL    HW135420   4.713   1.218  13.281 -2.5058  2.0036 -0.1112
 7928SOL    HW235421   4.730   1.145  13.154  2.0944  0.5718  2.4904
 7929SOL     OW35422   1.554   3.340   1.396  0.9455 -0.3757 -0.4060
 7929SOL    HW135423   1.562   3.389   1.478  0.5719  0.6980 -1.0105
 7929SOL    HW235424   1.617   3.271   1.419  0.4213 -1.1677 -1.3688
 7930SOL     OW35425   2.047   0.801   8.283 -0.3782 -0.2086 -0.7116
 7930SOL    HW135426   2.113   0.800   8.352 -1.4084  4.2655  0.3288
 7930SOL    HW235427   2.003   0.885   8.295 -0.6723 -0.6303  1.0471
 7931SOL     OW35428   4.431   3.644   3.003 -1.0983  0.2527 -0.4214
 7931SOL    HW135429   4.462   3.691   2.926 -0.5845  1.0182  0.2638
 7931SOL    HW235430   4.427   3.556   2.963 -0.9438 -0.8314  1.9497
 7932SOL     OW35431   1.814   0.437   7.763  0.3912  0.4366  0.2826
 7932SOL    HW135432   1.862   0.485   7.696 -0.3674  0.2759 -0.3785
 7932SOL    HW235433   1.797   0.352   7.723 -1.7025  0.2370  1.5593
 7933SOL     OW35434   0.620   3.658   3.839 -0.1826  0.1324  0.3747
 7933SOL    HW135435   0.693   3.720   3.848 -1.0901  1.4513 -1.4303
 7933SOL    HW235436   0.557   3.711   3.791  0.1220 -2.1456 -2.5245
 7934SOL     OW35437   0.874   2.984   4.381 -0.5775  0.6659  0.6020
 7934SOL    HW135438   0.780   2.982   4.361 -0.4751 -0.9637  0.3278
 7934SOL    HW235439   0.890   2.905   4.431 -0.6348  1.9564  2.6749
 7935SOL     OW35440   1.651   2.865   1.574  0.2926  0.5172 -0.4794
 7935SOL    HW135441   1.738   2.886   1.607 -0.1547  0.4456  0.7261
 7935SOL    HW235442   1.671   2.795   1.511 -1.8345 -0.0577 -0.5350
 7936SOL     OW35443   3.744   4.525  14.966  0.2070 -0.1772 -0.1426
 7936SOL    HW135444   3.799   4.576  14.907 -0.8886  0.1262 -0.9094
 7936SOL    HW235445   3.783   4.439  14.950 -0.1898 -0.3424 -0.2269
 7937SOL     OW35446   0.297   3.512   7.522 -0.2637 -0.2217  0.1034
 7937SOL    HW135447   0.242   3.446   7.481  0.3352 -2.1950  2.5180
 7937SOL    HW235448   0.378   3.496   7.474  0.6215 -1.1812  1.9281
 7938SOL     OW35449   1.616   0.170   8.955  0.1929 -0.2962 -0.0645
 7938SOL    HW135450   1.669   0.247   8.975 -1.8949  1.3568 -0.9941
 7938SOL    HW235451   1.556   0.165   9.029  0.5587  0.3543  0.2720
 7939SOL     OW35452   4.115   2.644   6.252 -0.3233 -0.1106 -0.9588
 7939SOL    HW135453   4.195   2.695   6.261 -0.5721  0.2328 -0.7142
 7939SOL    HW235454   4.155   2.557   6.253  2.8875  1.3774 -1.0051
 7940SOL     OW35455   2.482   1.991   7.779 -0.2568  0.3054  0.2073
 7940SOL    HW135456   2.480   1.958   7.869  0.2516  0.5502  0.3086
 7940SOL    HW235457   2.574   2.009   7.759 -0.2433  0.3374  0.3019
 7941SOL     OW35458   3.422   1.426   0.677  0.3525  0.3993 -0.5911
 7941SOL    HW135459   3.462   1.512   0.684 -3.6648  2.0777  2.3095
 7941SOL    HW235460   3.479   1.368   0.728 -0.2686  0.1619 -0.1613
 7942SOL     OW35461   3.608   0.192   8.789  0.0941  0.1091  0.4146
 7942SOL    HW135462   3.545   0.122   8.805 -0.8367  0.7955 -0.2479
 7942SOL    HW235463   3.600   0.234   8.875  0.3309  0.4194  0.2862
 7943SOL     OW35464   4.380   4.505  13.157 -0.3721 -0.5383 -0.5216
 7943SOL    HW135465   4.423   4.528  13.239  2.7169  2.0240 -2.8531
 7943SOL    HW235466   4.326   4.583  13.145 -2.0095 -1.8653 -1.8989
 7944SOL     OW35467   2.475   1.582   2.421 -0.1996 -0.3539  0.2022
 7944SOL    HW135468   2.402   1.605   2.479  1.0749  3.3646  0.3351
 7944SOL    HW235469   2.548   1.611   2.475 -0.7457  0.6378  0.4148
 7945SOL     OW35470   3.903   4.391   4.015 -0.2776 -0.0225  0.0197
 7945SOL    HW135471   3.867   4.467   3.970  0.3120  0.8469  1.0127
 7945SOL    HW235472   3.824   4.338   4.011  0.3749 -0.9748 -0.4210
 7946SOL     OW35473   1.722   0.500   9.701  0.5556 -0.1447  0.0354
 7946SOL    HW135474   1.636   0.488   9.742  1.1807  2.3294  2.1330
 7946SOL    HW235475   1.737   0.593   9.719  0.1040  0.2282 -1.5080
 7947SOL     OW35476   4.489   4.574   8.447 -0.3632 -0.4787  0.3766
 7947SOL    HW135477   4.488   4.506   8.379 -0.2137 -1.6168  1.5165
 7947SOL    HW235478   4.410   4.543   8.490 -0.9059 -0.7076 -0.7739
 7948SOL     OW35479   3.515   0.937  17.439  0.0084  0.2013  0.0775
 7948SOL    HW135480   3.602   0.977  17.437 -0.4658  1.2514  0.2499
 7948SOL    HW235481   3.485   0.947  17.348 -0.0056 -1.4782 -0.0987
 7949SOL     OW35482   4.084   3.941   6.565 -0.5909  0.7077  0.8860
 7949SOL    HW135483   4.101   4.007   6.498 -1.9975  0.7423  0.5705
 7949SOL    HW235484   4.171   3.902   6.567 -0.4819  0.8790 -1.2181
 7950SOL     OW35485   2.529   0.461   9.406 -0.2117 -0.5980 -0.0406
 7950SOL    HW135486   2.500   0.533   9.351  0.3214 -0.3594 -0.0074
 7950SOL    HW235487   2.452   0.410   9.379 -0.9586 -1.0549  2.9178
 7951SOL     OW35488   2.027   4.321  15.303 -0.6919 -0.1012  0.2671
 7951SOL    HW135489   1.957   4.282  15.250 -0.1901  0.7312 -1.0054
 7951SOL    HW235490   2.051   4.398  15.253 -0.9236 -0.8951 -1.0619
 7952SOL     OW35491   0.252   3.296   9.397 -0.0640  0.2091  0.0494
 7952SOL    HW135492   0.227   3.280   9.306  0.0242  0.1233  0.0408
 7952SOL    HW235493   0.165   3.309   9.435  0.5780  0.9949  1.2677
 7953SOL     OW35494   2.254   3.225   7.470  0.0104 -0.0229 -0.1497
 7953SOL    HW135495   2.291   3.311   7.492 -0.1014  0.1628 -0.6954
 7953SOL    HW235496   2.254   3.226   7.374  2.1594  1.3888 -0.1329
 7954SOL     OW35497   4.520   1.219   6.999  0.0989  0.3114 -0.5949
 7954SOL    HW135498   4.600   1.267   7.019  0.5706 -0.7610  0.1100
 7954SOL    HW235499   4.504   1.176   7.083  1.4183 -0.3152 -0.6659
 7955SOL     OW35500   2.185   3.724   3.008 -0.3438 -0.3094  0.6815
 7955SOL    HW135501   2.273   3.760   3.006  0.1178 -1.4895 -0.7219
 7955SOL    HW235502   2.134   3.801   3.033 -0.9840 -0.8004  0.8904
 7956SOL     OW35503   1.005   0.426  12.621  0.7039 -0.2490 -0.0303
 7956SOL    HW135504   1.034   0.421  12.529 -1.5976 -1.3540 -0.6972
 7956SOL    HW235505   0.941   0.355  12.625  2.3513 -1.8536 -2.2059
 7957SOL     OW35506   3.759   0.533  16.845  0.6557 -0.6220  0.1887
 7957SOL    HW135507   3.812   0.462  16.811 -0.2423 -0.3406 -1.7777
 7957SOL    HW235508   3.821   0.592  16.888  1.5775 -2.0126  0.7717
 7958SOL     OW35509   1.831   3.205   1.772 -0.3058  0.2501 -0.3971
 7958SOL    HW135510   1.867   3.147   1.706 -0.7076 -1.8125  1.1936
 7958SOL    HW235511   1.911   3.252   1.796 -0.6319  0.7247 -0.2216
 7959SOL     OW35512   4.196   0.495   1.123  0.1728 -0.0792  0.7115
 7959SOL    HW135513   4.113   0.463   1.088  0.1190  1.2200 -0.3616
 7959SOL    HW235514   4.163   0.513   1.211  1.0203 -0.4779  1.1105
 7960SOL     OW35515   0.448   2.150   2.488  0.1564 -0.3020  0.2180
 7960SOL    HW135516   0.445   2.090   2.414 -1.5200  0.0505 -0.0115
 7960SOL    HW235517   0.534   2.188   2.472 -1.3608  3.1240  0.1803
 7961SOL     OW35518   3.298   3.272  11.496  0.7374  0.5089 -0.6201
 7961SOL    HW135519   3.232   3.275  11.565  2.0346 -1.3825  0.7131
 7961SOL    HW235520   3.363   3.316  11.552 -0.9835 -0.3831  2.1154
 7962SOL     OW35521   3.056   3.099   9.162 -0.2307  0.3294  0.0027
 7962SOL    HW135522   3.042   3.172   9.222 -1.1183 -0.1166  0.3396
 7962SOL    HW235523   2.998   3.037   9.207  1.1164  1.3179  3.0930
 7963SOL     OW35524   4.664   0.412   5.851 -0.0948  0.2770 -0.2790
 7963SOL    HW135525   4.600   0.347   5.879  1.4745  0.0302  2.6906
 7963SOL    HW235526   4.728   0.408   5.922 -0.5013 -0.4191  0.0438
 7964SOL     OW35527   2.295   0.275   6.821 -0.1483 -0.4523 -0.3985
 7964SOL    HW135528   2.282   0.290   6.915  3.1579 -1.9473  0.3258
 7964SOL    HW235529   2.229   0.211   6.796  1.7953 -2.4689 -0.4475
 7965SOL     OW35530   0.310   1.170   6.243  0.4446 -0.0182 -0.5570
 7965SOL    HW135531   0.215   1.183   6.236  0.7488  2.7865  0.5235
 7965SOL    HW235532   0.330   1.201   6.331  0.4892 -1.3464 -0.1048
 7966SOL     OW35533   0.130   1.625  11.952  0.2820 -0.2063 -0.6627
 7966SOL    HW135534   0.096   1.715  11.959  0.3638  0.0451 -3.5753
 7966SOL    HW235535   0.053   1.580  11.986  1.6892 -2.7645 -0.8428
 7967SOL     OW35536   1.629   3.883  15.397 -0.2724 -0.4779 -0.3336
 7967SOL    HW135537   1.638   3.793  15.428  0.0758 -0.2781  0.1558
 7967SOL    HW235538   1.546   3.902  15.440 -0.2355  1.3913 -1.0807
 7968SOL     OW35539   3.806   3.240   6.524 -0.5071 -0.4364  0.5731
 7968SOL    HW135540   3.808   3.210   6.615  0.5861  1.1484  1.0669
 7968SOL    HW235541   3.798   3.160   6.472  1.2579  0.8571 -1.7013
 7969SOL     OW35542   4.356   0.605   5.990 -0.1514  0.2618 -1.0838
 7969SOL    HW135543   4.297   0.675   5.962 -0.3424 -0.0795 -1.5392
 7969SOL    HW235544   4.296   0.533   5.972 -1.2440  0.7166  0.7084
 7970SOL     OW35545   2.445   1.140   3.048 -0.0198 -0.6363  0.9467
 7970SOL    HW135546   2.466   1.174   2.960  0.1772  0.2978  1.3562
 7970SOL    HW235547   2.499   1.202   3.096  0.2569 -2.0039  2.3919
 7971SOL     OW35548   2.115   0.873  14.068  0.0381  0.2357 -0.5261
 7971SOL    HW135549   2.167   0.940  14.025  0.9747  0.3084  0.7461
 7971SOL    HW235550   2.120   0.906  14.157  0.4064 -2.0852  0.3056
 7972SOL     OW35551   3.314   3.785   6.957 -0.0730 -0.2327  0.2979
 7972SOL    HW135552   3.227   3.804   6.923 -1.2633 -0.4411  3.1982
 7972SOL    HW235553   3.301   3.780   7.052  0.7937  0.9141  0.4737
 7973SOL     OW35554   3.081   2.074   4.635 -0.1698 -0.0162  0.5841
 7973SOL    HW135555   3.147   2.012   4.668  0.7982  0.5105 -0.3592
 7973SOL    HW235556   3.009   2.012   4.621  0.2849 -0.5068  0.3837
 7974SOL     OW35557   3.292   3.736   0.251  0.2586  0.3070 -0.1694
 7974SOL    HW135558   3.239   3.742   0.330  1.4488  0.9380  0.5789
 7974SOL    HW235559   3.368   3.785   0.280  0.1759  0.1962  0.2310
 7975SOL     OW35560   0.899   4.349   3.083  0.9681 -0.1371 -0.0917
 7975SOL    HW135561   0.883   4.376   3.173  1.2535 -0.8335  0.1691
 7975SOL    HW235562   0.962   4.416   3.057  0.5573 -0.2546 -1.3693
 7976SOL     OW35563   0.028   4.259   7.996  0.3848 -0.0062  0.1273
 7976SOL    HW135564   0.078   4.208   7.932  0.6886 -1.5226  1.5487
 7976SOL    HW235565   4.681   4.257   7.952  0.1325 -1.5308  0.6632
 7977SOL     OW35566   4.135   1.227  13.556 -0.4481 -0.6134  0.2021
 7977SOL    HW135567   4.227   1.237  13.533 -0.2171 -1.1251  0.9229
 7977SOL    HW235568   4.085   1.216  13.475 -0.0047  1.0765 -0.3087
 7978SOL     OW35569   3.400   2.417  13.546 -0.3602 -0.0630 -0.4458
 7978SOL    HW135570   3.320   2.426  13.494 -0.5644 -1.5421 -0.3923
 7978SOL    HW235571   3.385   2.329  13.582 -0.4045 -0.8367 -2.3779
 7979SOL     OW35572   0.170   0.553   1.695  0.0419 -0.2121  0.2766
 7979SOL    HW135573   0.263   0.576   1.695  0.0377 -0.2013 -3.0280
 7979SOL    HW235574   0.161   0.462   1.666 -0.0629 -0.1684  0.1728
 7980SOL     OW35575   1.374   4.023   5.685  0.2019  0.4243  0.0791
 7980SOL    HW135576   1.434   4.075   5.631 -0.1142  0.4435 -0.2533
 7980SOL    HW235577   1.437   3.983   5.746 -0.1746 -0.5905 -0.1898
 7981SOL     OW35578   2.425   2.112  13.370 -0.0420  0.1080 -0.0092
 7981SOL    HW135579   2.388   2.187  13.325  0.0204  1.5827  2.3880
 7981SOL    HW235580   2.371   2.044  13.330 -0.7351  0.7383 -0.1430
 7982SOL     OW35581   0.536   2.741   9.091 -0.2758 -0.3526 -0.0648
 7982SOL    HW135582   0.535   2.807   9.161  0.2538 -0.5488  0.1250
 7982SOL    HW235583   0.449   2.701   9.102 -0.2616  0.0684  1.6737
 7983SOL     OW35584   4.563   2.278   8.957  0.5102  0.2274 -0.1831
 7983SOL    HW135585   4.575   2.321   9.041  3.0609 -1.0770  0.1354
 7983SOL    HW235586   4.528   2.343   8.896 -0.9463 -0.2249  0.1782
 7984SOL     OW35587   3.006   0.798   8.910  0.5621  0.3169 -0.1692
 7984SOL    HW135588   2.971   0.886   8.924 -2.8110 -1.1604  0.8159
 7984SOL    HW235589   2.958   0.767   8.833 -2.2969  0.2868  1.6284
 7985SOL     OW35590   2.712   2.952   4.656 -0.0708  0.0592 -0.5153
 7985SOL    HW135591   2.786   3.008   4.635  0.2563 -0.2436 -0.1689
 7985SOL    HW235592   2.729   2.962   4.750  1.2237 -1.8199 -0.5588
 7986SOL     OW35593   2.867   0.884   2.564 -0.1981 -0.2558  0.3193
 7986SOL    HW135594   2.912   0.884   2.648 -1.3338 -2.5950  0.9304
 7986SOL    HW235595   2.865   0.974   2.530  0.9603 -0.4578 -0.2830
 7987SOL     OW35596   0.638   0.091   3.459  0.2279 -0.0978 -0.3565
 7987SOL    HW135597   0.558   0.040   3.445  0.1256 -0.0365 -0.0048
 7987SOL    HW235598   0.683   0.073   3.376  3.1578  1.5326  0.8810
 7988SOL     OW35599   0.518   3.310   5.163  0.1165  0.2360 -0.3607
 7988SOL    HW135600   0.563   3.378   5.213 -0.8740  1.7265 -1.5274
 7988SOL    HW235601   0.433   3.310   5.207  0.0675  0.1965 -0.4551
 7989SOL     OW35602   1.906   1.311   3.966 -0.6146 -0.7676  0.0938
 7989SOL    HW135603   1.948   1.332   4.050 -1.0156  2.8731 -0.5952
 7989SOL    HW235604   1.982   1.286   3.914  0.1445 -0.1742  0.8951
 7990SOL     OW35605   1.744   1.034  11.871  0.4389  0.2339  0.2601
 7990SOL    HW135606   1.651   1.029  11.846  0.4284  2.0111 -0.0760
 7990SOL    HW235607   1.733   1.127  11.889 -0.3413  0.0096  0.9250
 7991SOL     OW35608   0.682   1.045   6.301 -0.2462  0.7583  0.0254
 7991SOL    HW135609   0.696   1.053   6.395 -1.2541 -0.9516  0.3278
 7991SOL    HW235610   0.730   1.115   6.256  0.5592  0.8840  1.0674
 7992SOL     OW35611   3.271   3.639  13.285 -0.2554 -0.5939  0.0421
 7992SOL    HW135612   3.255   3.702  13.215 -0.0703 -0.3240  0.2431
 7992SOL    HW235613   3.228   3.557  13.261  0.8902 -0.6174 -1.9735
 7993SOL     OW35614   1.453   0.088   4.081 -0.0237  0.3587  0.0727
 7993SOL    HW135615   1.530   0.064   4.030 -0.6651  0.3263 -0.8920
 7993SOL    HW235616   1.413   0.003   4.101  1.7768 -0.1203  1.6243
 7994SOL     OW35617   1.067   3.650  12.360  0.4802  0.2240  0.5678
 7994SOL    HW135618   0.978   3.683  12.371  0.3723 -0.3663  1.5113
 7994SOL    HW235619   1.058   3.647  12.265  0.5636 -1.6466  0.6190
 7995SOL     OW35620   0.888   2.372   0.215  0.2204 -0.1244  0.2816
 7995SOL    HW135621   0.932   2.288   0.198 -0.8245 -0.7922  0.9153
 7995SOL    HW235622   0.957   2.438   0.208  1.2478 -1.5563 -3.5393
 7996SOL     OW35623   4.366   0.745  14.905  0.2471  0.1101  0.2683
 7996SOL    HW135624   4.273   0.734  14.925  0.2437  0.3269  0.3729
 7996SOL    HW235625   4.362   0.675  14.840  0.1239  0.9909 -0.6604
 7997SOL     OW35626   1.191   1.627   3.460  0.3569  0.1754 -0.5796
 7997SOL    HW135627   1.173   1.640   3.367 -0.0473 -0.5845 -0.6065
 7997SOL    HW235628   1.227   1.713   3.483  1.6973 -0.3729 -0.6584
 7998SOL     OW35629   0.063   1.648   6.634 -0.3575 -0.0437 -0.3667
 7998SOL    HW135630   0.066   1.701   6.554  0.4743  0.8331  0.2561
 7998SOL    HW235631   4.708   1.621   6.627 -0.8261  0.6747  2.9932
 7999SOL     OW35632   0.233   3.422   5.601 -0.0523  0.3030 -0.5400
 7999SOL    HW135633   0.257   3.483   5.670  0.5636 -0.6332  0.0653
 7999SOL    HW235634   0.156   3.376   5.634 -0.1512  0.5706 -0.3933
 8000SOL     OW35635   2.901   2.035   3.182  0.4587 -0.3359  0.3849
 8000SOL    HW135636   2.823   2.060   3.133  0.9545  3.7540  1.6442
 8000SOL    HW235637   2.954   1.987   3.119 -0.0123 -0.1847 -0.1190
 8001SOL     OW35638   4.132   3.078   8.636 -0.3703  0.2549  0.3546
 8001SOL    HW135639   4.053   3.025   8.626 -0.4278  0.5952 -1.0081
 8001SOL    HW235640   4.197   3.017   8.602  0.0062  2.1824 -2.3808
 8002SOL     OW35641   3.212   2.088   4.320  0.9319  0.4936 -0.2673
 8002SOL    HW135642   3.278   2.141   4.363  0.2728  0.4312  0.8163
 8002SOL    HW235643   3.212   2.127   4.232  0.6940  1.2950  0.0938
 8003SOL     OW35644   3.175   0.186   4.469  0.6994 -0.1053  0.0601
 8003SOL    HW135645   3.092   0.140   4.486  0.1537  1.0691  0.5159
 8003SOL    HW235646   3.177   0.236   4.550  1.1131 -0.3782  0.2171
 8004SOL     OW35647   2.459   1.587   2.134 -1.0674  0.3719 -0.0413
 8004SOL    HW135648   2.369   1.558   2.148 -0.8244 -0.2087  0.3264
 8004SOL    HW235649   2.477   1.621   2.221  2.1983  1.5722 -1.1769
 8005SOL     OW35650   4.098   1.959   9.214 -0.1567  1.0237 -0.8488
 8005SOL    HW135651   4.161   1.922   9.277 -1.1397 -0.1026 -0.5178
 8005SOL    HW235652   4.037   1.996   9.278 -1.2614 -1.1903 -0.6120
 8006SOL     OW35653   0.784   0.527   3.196 -0.1613 -0.4994 -0.2690
 8006SOL    HW135654   0.783   0.495   3.287 -0.3960  0.2563 -0.0021
 8006SOL    HW235655   0.749   0.616   3.209 -0.5528 -0.6485 -0.2832
 8007SOL     OW35656   3.558   2.344   5.246  0.5722  0.3109 -0.9482
 8007SOL    HW135657   3.468   2.324   5.219 -0.2649  3.4333 -0.4448
 8007SOL    HW235658   3.598   2.258   5.260 -1.1460 -0.1598  0.9651
 8008SOL     OW35659   4.079   3.094   3.246  0.2829  0.0794 -0.4975
 8008SOL    HW135660   3.997   3.142   3.235  1.0925  1.4591 -0.5015
 8008SOL    HW235661   4.065   3.010   3.201  1.2628 -0.2885 -0.1287
 8009SOL     OW35662   2.619   2.782  13.052  0.1820  0.1805  0.0458
 8009SOL    HW135663   2.641   2.704  13.002 -2.2586  0.5456 -1.6025
 8009SOL    HW235664   2.665   2.848  13.001 -1.7157  0.7026 -0.9969
 8010SOL     OW35665   4.168   4.092   0.446  0.2090  0.5616  0.2988
 8010SOL    HW135666   4.198   4.083   0.356 -2.0957 -3.5495 -0.0602
 8010SOL    HW235667   4.212   4.169   0.481  1.7900  0.4138 -1.4089
 8011SOL     OW35668   1.974   4.685   5.331  0.7934  0.0271  0.8900
 8011SOL    HW135669   1.993   4.595   5.305  0.4308  0.2372 -0.1053
 8011SOL    HW235670   1.886   4.692   5.294  0.2651 -2.4419  1.6976
 8012SOL     OW35671   4.538   3.844   2.808  0.1667 -0.6006  0.2631
 8012SOL    HW135672   4.600   3.913   2.785 -0.3356 -0.1507  0.2500
 8012SOL    HW235673   4.499   3.822   2.723  1.1786 -0.2842 -0.2787
 8013SOL     OW35674   4.307   3.373  14.470 -0.3880  0.0937  0.7701
 8013SOL    HW135675   4.357   3.454  14.472 -0.7258  0.3227 -0.2847
 8013SOL    HW235676   4.323   3.340  14.558 -2.2160  0.7562  1.3622
 8014SOL     OW35677   1.284   0.367   4.732 -0.3051 -0.0482 -0.0283
 8014SOL    HW135678   1.235   0.449   4.729  1.1696  0.8297 -0.2145
 8014SOL    HW235679   1.332   0.370   4.649 -1.3701 -2.5574 -0.7232
 8015SOL     OW35680   2.261   4.506   8.671 -0.4028 -0.6907  0.4666
 8015SOL    HW135681   2.329   4.518   8.605 -0.9373 -0.2393 -0.0063
 8015SOL    HW235682   2.176   4.508   8.627 -0.0250  0.7331 -0.1880
 8016SOL     OW35683   2.185   1.009  14.322 -0.5175  0.0610  0.4685
 8016SOL    HW135684   2.279   0.990  14.322 -0.5285  0.0116  1.6195
 8016SOL    HW235685   2.164   1.093  14.363 -2.2267 -0.6694  1.0772
 8017SOL     OW35686   3.877   3.294   7.734 -0.3850 -0.3393 -0.2290
 8017SOL    HW135687   3.874   3.200   7.749  0.7927 -0.5475 -1.2967
 8017SOL    HW235688   3.846   3.330   7.817  0.7222 -0.2126  0.1266
 8018SOL     OW35689   0.779   4.680  16.357  0.5274  0.3073 -0.1704
 8018SOL    HW135690   0.870   4.671  16.329  0.3404  0.2685 -0.7605
 8018SOL    HW235691   0.719   4.689  16.282 -1.0594  2.0857  1.3026
 8019SOL     OW35692   0.850   1.130   3.582  0.1044 -0.2199  0.8352
 8019SOL    HW135693   0.933   1.145   3.536  0.2496 -1.3024  0.7313
 8019SOL    HW235694   0.816   1.050   3.543  1.3890 -0.9662  1.2277
 8020SOL     OW35695   4.645   3.282  14.314 -0.1473 -0.2493  0.4918
 8020SOL    HW135696   4.714   3.318  14.258  0.3668  0.3696  1.5406
 8020SOL    HW235697   4.578   3.318  14.256  0.8587  1.8058  0.6077
 8021SOL     OW35698   4.592   4.122   2.801 -0.0270  0.0158  0.4749
 8021SOL    HW135699   4.640   4.202   2.823 -1.1209  1.1046 -1.0317
 8021SOL    HW235700   4.501   4.154   2.801  0.0103  0.1105  1.1001
 8022SOL     OW35701   1.665   1.288   1.588  0.5197 -0.3077  0.0791
 8022SOL    HW135702   1.606   1.264   1.660  0.1062  0.1197 -0.1202
 8022SOL    HW235703   1.726   1.214   1.588  1.3571  0.3950 -2.4823
 8023SOL     OW35704   3.822   3.488   9.723  0.2417  0.3618  0.2004
 8023SOL    HW135705   3.810   3.410   9.777  0.2498  0.3760  0.2228
 8023SOL    HW235706   3.777   3.548   9.782  0.1728 -0.5478  1.0766
 8024SOL     OW35707   0.282   2.763  16.185 -0.3966 -0.1736 -0.0880
 8024SOL    HW135708   0.347   2.785  16.119 -0.9058 -0.2931 -0.6297
 8024SOL    HW235709   0.282   2.669  16.169  0.3028  0.0905 -1.6302
 8025SOL     OW35710   4.205   0.112  15.390  0.0804  0.2824  0.1011
 8025SOL    HW135711   4.174   0.096  15.300  0.7073  4.0701 -0.7567
 8025SOL    HW235712   4.280   0.053  15.393 -0.1605 -0.0259  0.0844
 8026SOL     OW35713   0.086   3.186   3.002  0.6137 -0.1843 -1.1445
 8026SOL    HW135714   0.047   3.273   2.996  0.3722 -0.2980 -1.2044
 8026SOL    HW235715   0.172   3.226   3.014 -0.4333  0.9834  2.6200
 8027SOL     OW35716   0.444   2.792   0.763 -0.4308 -0.7644  0.5571
 8027SOL    HW135717   0.356   2.761   0.784 -0.3929  0.0467  1.8939
 8027SOL    HW235718   0.495   2.744   0.828 -0.8556 -1.7324  0.1870
 8028SOL     OW35719   0.507   1.885   0.988  0.0070 -0.0375 -0.1664
 8028SOL    HW135720   0.549   1.814   0.939 -2.0441 -1.9171  0.7738
 8028SOL    HW235721   0.438   1.892   0.922  0.4650 -2.9065 -0.9408
 8029SOL     OW35722   1.891   3.561   2.461  0.0047 -0.3338  0.3853
 8029SOL    HW135723   1.903   3.484   2.517 -1.8736 -1.2350 -0.4333
 8029SOL    HW235724   1.825   3.527   2.401  1.1952  1.5600 -1.9428
 8030SOL     OW35725   2.665   0.317   4.514  0.0221 -0.0019 -0.1032
 8030SOL    HW135726   2.623   0.262   4.448 -0.4633 -0.4569  0.5781
 8030SOL    HW235727   2.614   0.396   4.495 -1.5770 -0.8583  0.6091
 8031SOL     OW35728   2.887   0.614   6.603  0.1763 -0.5934  0.1747
 8031SOL    HW135729   2.897   0.519   6.605  1.1171 -0.5227 -0.7380
 8031SOL    HW235730   2.926   0.635   6.518 -0.0047 -1.0114 -0.0113
 8032SOL     OW35731   1.947   2.782   9.200 -0.4813  0.2067  0.5854
 8032SOL    HW135732   1.872   2.744   9.155  1.7386 -0.7360 -2.3079
 8032SOL    HW235733   2.023   2.735   9.167 -0.3711 -0.1012  1.2636
 8033SOL     OW35734   3.504   4.072   1.950  0.3798 -0.0899  0.1028
 8033SOL    HW135735   3.575   4.012   1.973 -0.5820 -1.1025  0.4173
 8033SOL    HW235736   3.508   4.131   2.025  0.2644 -0.3895  0.3430
 8034SOL     OW35737   1.537   1.880   5.128  0.5321 -0.0459 -0.7656
 8034SOL    HW135738   1.539   1.784   5.120 -0.4734 -0.1501  0.2047
 8034SOL    HW235739   1.615   1.904   5.078  0.3654 -2.9440 -2.4609
 8035SOL     OW35740   2.122   4.267   8.166 -0.0947  0.5271  0.0192
 8035SOL    HW135741   2.106   4.361   8.156 -0.4240  0.7596  2.5423
 8035SOL    HW235742   2.065   4.218   8.108  1.7638 -2.4822  0.7635
 8036SOL     OW35743   0.666   0.787   9.084  0.2645 -0.1784 -0.7801
 8036SOL    HW135744   0.678   0.843   9.160 -1.4224 -0.6634 -0.1535
 8036SOL    HW235745   0.705   0.703   9.108 -1.2499 -0.5051  0.5098
 8037SOL     OW35746   0.617   3.455   1.507 -0.0469  0.4463 -0.3671
 8037SOL    HW135747   0.525   3.449   1.484  0.3472 -0.8036 -1.6093
 8037SOL    HW235748   0.607   3.525   1.572  0.2771  1.1719 -1.0899
 8038SOL     OW35749   3.585   1.897   3.983 -0.1891  0.6623 -0.5918
 8038SOL    HW135750   3.624   1.834   4.044 -0.8072  1.0526  0.1908
 8038SOL    HW235751   3.617   1.981   4.015 -0.8870  0.3911  0.8135
 8039SOL     OW35752   3.741   3.458  11.716  0.9274 -0.1497  0.2025
 8039SOL    HW135753   3.751   3.396  11.789  0.8207 -0.0302  0.3197
 8039SOL    HW235754   3.679   3.403  11.669 -1.3417  3.9605 -1.5942
 8040SOL     OW35755   1.963   1.317   5.850 -0.5294  0.1686  0.0058
 8040SOL    HW135756   1.915   1.261   5.912  0.9074  0.1948  1.1416
 8040SOL    HW235757   1.951   1.399   5.897 -0.2413 -0.5525  1.3519
 8041SOL     OW35758   3.460   2.613   2.229  0.3347 -0.3301  0.1254
 8041SOL    HW135759   3.550   2.643   2.215 -0.5400  1.9602 -0.5836
 8041SOL    HW235760   3.444   2.638   2.320 -1.2685  1.3069 -0.6007
 8042SOL     OW35761   3.162   2.529   6.744 -0.2484 -0.7413 -0.4713
 8042SOL    HW135762   3.076   2.568   6.727 -0.1359 -0.3649 -0.1821
 8042SOL    HW235763   3.212   2.610   6.730 -1.2210  0.1551  1.0986
 8043SOL     OW35764   1.595   1.921   9.023  0.1006  0.0982  0.3442
 8043SOL    HW135765   1.623   1.887   9.107 -0.3917  2.1876  1.3700
 8043SOL    HW235766   1.565   1.840   8.981  0.8285 -0.2135  0.4329
 8044SOL     OW35767   3.362   1.861   6.696 -0.0923 -0.0501  0.0555
 8044SOL    HW135768   3.297   1.926   6.670  1.1831  0.8688 -0.7931
 8044SOL    HW235769   3.302   1.793   6.728  2.5973 -1.9925  0.9721
 8045SOL     OW35770   1.442   1.954   9.534  0.4316 -0.5240 -0.0120
 8045SOL    HW135771   1.472   2.001   9.456 -2.4451 -0.4200 -1.0330
 8045SOL    HW235772   1.352   1.983   9.547  0.4290  0.4056 -2.0815
 8046SOL     OW35773   1.302   2.632   5.248 -0.4925  0.2591  0.0903
 8046SOL    HW135774   1.352   2.594   5.319  1.5052 -0.4795 -1.7223
 8046SOL    HW235775   1.213   2.641   5.282 -0.5182  0.7224 -0.0914
 8047SOL     OW35776   1.402   0.885   6.411  0.2683  0.1975  0.6579
 8047SOL    HW135777   1.472   0.938   6.450 -0.1118 -1.0025  2.9702
 8047SOL    HW235778   1.382   0.828   6.485  0.4397 -0.7275 -0.0147
 8048SOL     OW35779   4.712   0.361   7.948  0.4273 -0.0489  0.5690
 8048SOL    HW135780   0.026   0.442   7.947  2.6321 -1.4725 -1.6810
 8048SOL    HW235781   4.627   0.402   7.964  0.6951  0.8897 -0.3617
 8049SOL     OW35782   4.018   3.497  11.661 -0.3509  0.3032  0.1955
 8049SOL    HW135783   3.925   3.475  11.665  0.1030 -0.9742  3.9283
 8049SOL    HW235784   4.006   3.591  11.653  0.0955  0.0900 -3.0568
 8050SOL     OW35785   2.400   4.089   7.107 -0.3202  0.1740  0.3137
 8050SOL    HW135786   2.341   4.029   7.153  0.7252 -1.9116 -1.0433
 8050SOL    HW235787   2.366   4.110   7.020 -2.2163 -0.2233  0.9415
 8051SOL     OW35788   4.252   1.993   9.621  0.0030 -0.0470 -0.1873
 8051SOL    HW135789   4.273   2.029   9.535  0.2787 -0.4911 -0.3033
 8051SOL    HW235790   4.339   1.991   9.661 -0.9427 -3.1788  1.7592
 8052SOL     OW35791   4.104   1.970  11.014  0.0067 -0.4573 -0.2866
 8052SOL    HW135792   4.020   2.007  11.040  0.8586  1.3876 -0.1688
 8052SOL    HW235793   4.156   2.016  11.080  1.4107  1.4151 -2.7064
 8053SOL     OW35794   3.626   3.819   5.889 -0.6515 -0.0923 -0.1035
 8053SOL    HW135795   3.560   3.750   5.893 -0.1360 -0.6790 -1.4160
 8053SOL    HW235796   3.698   3.760   5.864 -1.1430 -0.6303 -0.2619
 8054SOL     OW35797   2.775   3.902   5.100 -0.4424  0.1835 -0.2334
 8054SOL    HW135798   2.860   3.864   5.124 -1.1911 -1.0373  0.4941
 8054SOL    HW235799   2.764   3.984   5.148 -1.4440 -0.0159 -0.1227
 8055SOL     OW35800   4.048   3.551   7.203 -0.5132  0.5820  0.5105
 8055SOL    HW135801   3.958   3.582   7.212  0.0278  1.8210  1.6671
 8055SOL    HW235802   4.077   3.633   7.163 -1.5578  1.9218  2.5090
 8056SOL     OW35803   0.649   1.462   3.830  0.2957 -0.2500  0.0675
 8056SOL    HW135804   0.729   1.428   3.791  0.1853  0.9859 -1.2235
 8056SOL    HW235805   0.583   1.402   3.794 -0.7687  0.2147  1.2283
 8057SOL     OW35806   3.246   1.684   5.307 -0.3192  0.1163 -0.1307
 8057SOL    HW135807   3.265   1.594   5.332  0.7791  1.3125  3.3450
 8057SOL    HW235808   3.265   1.674   5.213 -0.0147 -0.9774  0.0555
 8058SOL     OW35809   3.537   0.282  15.243 -0.3196  0.3485  0.8423
 8058SOL    HW135810   3.480   0.315  15.313  0.6235  2.2630  0.7242
 8058SOL    HW235811   3.525   0.188  15.239  1.9390  0.0382  1.6833
 8059SOL     OW35812   3.865   1.720  13.465 -0.1339  0.0686 -0.2070
 8059SOL    HW135813   3.887   1.805  13.503  3.1755 -1.5920  1.5880
 8059SOL    HW235814   3.884   1.665  13.541 -2.3844 -1.1981 -0.5671
 8060SOL     OW35815   2.984   2.975   4.579 -0.1298 -0.4123  0.1326
 8060SOL    HW135816   3.006   3.052   4.631 -1.9847 -0.7669  1.4288
 8060SOL    HW235817   2.996   3.005   4.489 -2.6749  0.8562  0.2154
 8061SOL     OW35818   0.547   3.520  13.680 -0.0332  0.3556  0.6588
 8061SOL    HW135819   0.574   3.431  13.702  0.2094  0.0327 -0.9966
 8061SOL    HW235820   0.596   3.538  13.600 -0.7724 -2.4370 -0.4170
 8062SOL     OW35821   4.442   2.530   9.484  0.3915 -0.8311  0.2873
 8062SOL    HW135822   4.478   2.537   9.573 -0.0930 -0.5465  0.4600
 8062SOL    HW235823   4.508   2.483   9.433  2.0895 -0.9803  2.6294
 8063SOL     OW35824   2.459   2.317   4.129 -0.0872  0.3227  0.4452
 8063SOL    HW135825   2.511   2.270   4.195  1.2116  1.1686  0.0188
 8063SOL    HW235826   2.376   2.288   4.167 -0.3935  1.8346  0.9253
 8064SOL     OW35827   4.119   3.479   6.291 -0.1347  0.3376  0.1334
 8064SOL    HW135828   4.046   3.534   6.264 -0.5459 -0.6825 -0.8299
 8064SOL    HW235829   4.188   3.533   6.253  0.1406 -1.5055 -1.9507
 8065SOL     OW35830   2.818   3.451  17.199 -1.1210 -0.4463 -0.2096
 8065SOL    HW135831   2.889   3.398  17.235  0.4565  1.3482 -0.6801
 8065SOL    HW235832   2.739   3.400  17.216 -0.1930 -1.7481  0.1430
 8066SOL     OW35833   1.595   4.328   0.529 -0.1095  0.3572  0.3098
 8066SOL    HW135834   1.683   4.343   0.564  0.1106  0.9164 -0.4947
 8066SOL    HW235835   1.549   4.317   0.613  0.9531  0.3854  0.8972
 8067SOL     OW35836   3.504   2.421   2.939  0.1361 -0.4006 -0.9291
 8067SOL    HW135837   3.440   2.438   3.008 -1.1275 -2.1289 -1.6614
 8067SOL    HW235838   3.580   2.427   2.997 -0.2284 -0.9634 -0.3858
 8068SOL     OW35839   1.409   0.117   5.026  0.7820 -0.5910  0.5490
 8068SOL    HW135840   1.444   0.181   4.964 -2.2161  0.7120  0.2320
 8068SOL    HW235841   1.446   0.143   5.110 -0.4730  0.1346  0.8684
 8069SOL     OW35842   1.120   3.870   9.649  0.5828 -0.0680  1.0462
 8069SOL    HW135843   1.142   3.793   9.701  0.7192 -1.1394 -0.6128
 8069SOL    HW235844   1.026   3.874   9.669  0.9006 -0.0364  2.5543
 8070SOL     OW35845   3.632   1.949   4.359  1.1645  0.0408  0.0820
 8070SOL    HW135846   3.593   2.036   4.361  1.1440  0.0060  1.3377
 8070SOL    HW235847   3.682   1.968   4.438  0.2727 -1.4596  1.0025
 8071SOL     OW35848   0.958   1.808   3.697 -0.6640  0.2169 -0.4580
 8071SOL    HW135849   0.938   1.722   3.661 -1.0537  0.4657 -0.8518
 8071SOL    HW235850   0.880   1.818   3.751  2.4289  0.5694  3.9518
 8072SOL     OW35851   3.034   2.835   8.121  0.0853  0.2484  0.1507
 8072SOL    HW135852   3.070   2.802   8.039 -2.0901  0.7508 -1.0162
 8072SOL    HW235853   2.953   2.787   8.137  0.9906 -1.1445  0.5005
 8073SOL     OW35854   2.012   2.820   5.064  0.4902 -0.1915 -0.0444
 8073SOL    HW135855   1.993   2.893   5.006  0.7570  1.3252  1.7761
 8073SOL    HW235856   2.048   2.750   5.009 -1.2899 -1.2927  0.1857
 8074SOL     OW35857   0.665   1.651   5.403 -0.0910 -0.5202 -0.1872
 8074SOL    HW135858   0.701   1.713   5.467 -0.4386  2.2620 -2.7197
 8074SOL    HW235859   0.646   1.576   5.460 -0.7051  0.2151  0.5686
 8075SOL     OW35860   2.659   1.125  15.212 -0.0745  0.6472 -0.2294
 8075SOL    HW135861   2.727   1.133  15.278  1.1310  0.1825 -1.4108
 8075SOL    HW235862   2.601   1.066  15.261  0.8233  0.0195  0.0606
 8076SOL     OW35863   0.036   0.452   6.677  0.2035  0.9436  0.1089
 8076SOL    HW135864   4.689   0.495   6.693  0.5754  0.7169  2.6342
 8076SOL    HW235865   0.021   0.359   6.661  0.5759  0.5051  2.2325
 8077SOL     OW35866   1.414   2.098   3.214 -0.2637 -0.2661 -0.1491
 8077SOL    HW135867   1.481   2.151   3.171  1.1098 -1.1794  0.8902
 8077SOL    HW235868   1.376   2.157   3.279 -1.3667 -0.4588 -0.6100
 8078SOL     OW35869   0.178   1.131   4.958 -0.2585 -0.2922  0.1529
 8078SOL    HW135870   0.105   1.188   4.932 -0.2770  0.2820  1.4530
 8078SOL    HW235871   0.242   1.202   4.961 -1.4700  0.6803  3.2971
 8079SOL     OW35872   3.493   1.304   3.830 -0.0855  0.3625  0.0151
 8079SOL    HW135873   3.521   1.356   3.906 -1.1958 -0.1660  0.7836
 8079SOL    HW235874   3.575   1.269   3.795 -0.9979 -0.3583 -1.3815
 8080SOL     OW35875   2.308   1.360  12.670 -0.5211 -0.3465 -0.5031
 8080SOL    HW135876   2.309   1.341  12.577  2.1353 -0.0774 -0.5491
 8080SOL    HW235877   2.258   1.285  12.702  1.9619 -0.0981  4.0664
 8081SOL     OW35878   1.603   1.055   9.569  0.8714  0.8096  0.2818
 8081SOL    HW135879   1.669   1.099   9.517 -0.5651  0.3602 -1.9307
 8081SOL    HW235880   1.522   1.092   9.535 -0.2073 -1.2755  0.5734
 8082SOL     OW35881   3.755   4.385   6.532 -0.0014 -0.3221  0.6142
 8082SOL    HW135882   3.786   4.418   6.448 -0.0351 -0.9248  0.3665
 8082SOL    HW235883   3.685   4.324   6.509  0.1583 -0.4244  0.4033
 8083SOL     OW35884   2.363   1.870   5.379 -0.3913 -0.5500  0.5841
 8083SOL    HW135885   2.339   1.805   5.314  0.0910 -3.5184  3.3395
 8083SOL    HW235886   2.271   1.888   5.396 -1.2949 -0.8618 -4.0079
 8084SOL     OW35887   1.465   1.976  10.929  0.5093  0.2048  0.5449
 8084SOL    HW135888   1.524   2.025  10.872 -0.6095 -0.5487 -1.2884
 8084SOL    HW235889   1.437   1.915  10.860  1.9544  1.2223 -0.9303
 8085SOL     OW35890   2.514   1.057   7.030  0.6358 -0.4259  0.1497
 8085SOL    HW135891   2.574   1.127   7.006  0.2621 -0.5651 -1.1715
 8085SOL    HW235892   2.448   1.058   6.960 -1.4977 -0.5580  2.1353
 8086SOL     OW35893   2.942   1.168   2.480 -0.4037 -0.1231 -0.2676
 8086SOL    HW135894   3.028   1.185   2.518 -0.2873 -1.6883  0.1731
 8086SOL    HW235895   2.956   1.138   2.390  1.5286 -1.0531  0.3458
 8087SOL     OW35896   4.667   0.206  17.019  0.6222 -0.3400  0.2332
 8087SOL    HW135897   4.642   0.116  16.997 -0.2931 -0.7449  2.8641
 8087SOL    HW235898   4.716   0.230  16.941  2.2920  0.4154  1.5129
 8088SOL     OW35899   1.114   1.873   3.203 -0.1960  0.1109  0.1952
 8088SOL    HW135900   1.203   1.840   3.195  0.1717  1.2150 -0.2857
 8088SOL    HW235901   1.129   1.943   3.267 -2.7783  1.1707 -0.3219
 8089SOL     OW35902   4.191   2.921   7.653 -0.2057 -0.0980 -0.3300
 8089SOL    HW135903   4.188   2.995   7.592 -0.3642 -0.4702 -0.7738
 8089SOL    HW235904   4.173   2.850   7.591  0.9945 -1.3507  0.7630
 8090SOL     OW35905   3.091   4.154   3.659  0.0076 -0.6557 -0.3332
 8090SOL    HW135906   3.041   4.192   3.587 -1.1663  0.2739  0.9927
 8090SOL    HW235907   3.181   4.155   3.626  0.7284  2.2111  1.7204
 8091SOL     OW35908   4.182   0.542   7.727 -0.4572 -0.1831  0.1964
 8091SOL    HW135909   4.217   0.474   7.669  0.0175 -0.4806  0.8414
 8091SOL    HW235910   4.122   0.498   7.788  0.0179 -2.1336 -0.7529
 8092SOL     OW35911   1.416   2.157   2.825  0.0135  0.3944  0.4831
 8092SOL    HW135912   1.450   2.184   2.910 -0.4047  2.7451 -0.0855
 8092SOL    HW235913   1.328   2.194   2.831  0.1167  0.6635  0.3515
 8093SOL     OW35914   0.295   3.192  14.828  0.1751  0.3386 -0.3030
 8093SOL    HW135915   0.258   3.165  14.744  0.8537  2.7075 -1.3484
 8093SOL    HW235916   0.315   3.285  14.815  1.7627 -0.3490 -2.6951
 8094SOL     OW35917   3.071   4.675   4.228  0.2349 -0.0560  0.2154
 8094SOL    HW135918   3.059   0.033   4.221  2.0367  0.0782 -1.0134
 8094SOL    HW235919   2.991   4.646   4.271 -0.9462  0.5048 -1.6060
 8095SOL     OW35920   0.543   0.527   9.329  0.3054 -0.1180 -0.5029
 8095SOL    HW135921   0.638   0.536   9.328  0.2126  1.3348  2.2944
 8095SOL    HW235922   0.515   0.560   9.415  1.7161 -1.4191  0.4711
 8096SOL     OW35923   1.164   4.681   6.804 -0.1200 -0.0676 -0.3567
 8096SOL    HW135924   1.178   0.026   6.852 -0.7398 -0.5468  0.6533
 8096SOL    HW235925   1.130   4.621   6.871  0.8129 -0.8171 -0.5530
 8097SOL     OW35926   1.599   0.570  14.788  0.5174  0.1127  0.2467
 8097SOL    HW135927   1.541   0.502  14.823 -0.7475  0.3197 -1.4790
 8097SOL    HW235928   1.556   0.590  14.705 -0.0433  0.5749  0.6454
 8098SOL     OW35929   3.926   1.021  13.949 -0.0871 -0.3934 -0.3888
 8098SOL    HW135930   3.864   1.000  13.879 -1.3557 -0.5728  0.8043
 8098SOL    HW235931   4.009   1.020  13.900  1.2308 -1.2808  1.8878
 8099SOL     OW35932   4.668   0.408   7.377  0.4228  0.1124  0.6291
 8099SOL    HW135933   4.622   0.337   7.331 -0.6875  1.8341 -0.9016
 8099SOL    HW235934   4.643   0.389   7.467  0.7135 -1.8835  0.3058
 8100SOL     OW35935   0.559   0.887  12.883  0.4671 -0.2182  0.6975
 8100SOL    HW135936   0.554   0.803  12.930  1.1756  0.4763  2.0298
 8100SOL    HW235937   0.622   0.865  12.814  0.3971 -1.1751  0.9405
 8101SOL     OW35938   3.526   3.516   3.549 -0.4193 -0.2823  0.0681
 8101SOL    HW135939   3.442   3.515   3.504 -1.0877  0.1406  1.3146
 8101SOL    HW235940   3.494   3.485   3.633  1.4372 -1.3561  0.3831
 8102SOL     OW35941   4.201   0.888   7.030  0.3929  0.7396  0.6208
 8102SOL    HW135942   4.250   0.815   7.069 -1.2694 -1.9458 -2.3388
 8102SOL    HW235943   4.276   0.947   7.033  1.5644 -0.6305 -1.8441
 8103SOL     OW35944   1.140   3.807   3.719 -0.2234  0.5909 -0.1048
 8103SOL    HW135945   1.192   3.739   3.762  0.7719  0.2420 -1.8383
 8103SOL    HW235946   1.208   3.870   3.695  0.3981 -0.2052 -0.4569
 8104SOL     OW35947   1.163   3.597   8.482  0.1546  0.2852  0.6386
 8104SOL    HW135948   1.094   3.637   8.534 -1.6368  0.8218 -2.1799
 8104SOL    HW235949   1.126   3.604   8.394 -0.3302 -1.3372  0.6987
 8105SOL     OW35950   3.395   3.882   8.036 -0.0529  1.2014 -0.2319
 8105SOL    HW135951   3.306   3.849   8.046  0.7328 -1.4997 -2.0338
 8105SOL    HW235952   3.441   3.838   8.108 -1.0293 -0.1533 -0.4446
 8106SOL     OW35953   3.037   4.418   7.618  0.0481 -0.6393 -0.3655
 8106SOL    HW135954   2.999   4.420   7.706 -0.4266 -0.6259 -0.5720
 8106SOL    HW235955   2.961   4.432   7.562 -1.7137 -0.6082  2.0027
 8107SOL     OW35956   2.633   1.302   1.331  0.0708 -0.1850 -0.0181
 8107SOL    HW135957   2.644   1.361   1.405 -0.0616  0.1179 -0.2371
 8107SOL    HW235958   2.688   1.227   1.353 -0.1267 -0.3310 -0.0190
 8108SOL     OW35959   0.665   2.972   7.779 -0.4337  0.0643  0.1557
 8108SOL    HW135960   0.687   2.981   7.686 -2.0415 -0.0722 -0.2418
 8108SOL    HW235961   0.573   2.997   7.775 -0.6091 -0.3441  1.6111
 8109SOL     OW35962   3.186   4.629   7.899 -0.4374  0.3571  0.0828
 8109SOL    HW135963   3.227   4.569   7.837  0.5427  0.7214  0.3918
 8109SOL    HW235964   3.096   4.618   7.867  0.0048  2.2734 -1.8176
 8110SOL     OW35965   3.321   3.497   7.836  0.0934  0.1324  0.7151
 8110SOL    HW135966   3.302   3.408   7.865 -0.9325  0.9392  2.4309
 8110SOL    HW235967   3.416   3.508   7.844  0.2613  0.3082 -1.4701
 8111SOL     OW35968   3.487   1.949   3.011 -0.3703 -0.1849 -0.5152
 8111SOL    HW135969   3.542   1.995   2.948 -2.1797  1.2573 -1.0641
 8111SOL    HW235970   3.410   1.937   2.954 -1.6903  2.2173  0.7423
 8112SOL     OW35971   3.163   0.430   2.884  0.1260 -0.2813  0.0510
 8112SOL    HW135972   3.096   0.498   2.883 -0.9859 -1.3990 -0.9072
 8112SOL    HW235973   3.237   0.490   2.894 -0.0841  0.7034 -4.0299
 8113SOL     OW35974   1.483   1.031   5.318  0.7955 -0.2835  0.3736
 8113SOL    HW135975   1.481   0.937   5.336  3.1385 -0.1508  1.2613
 8113SOL    HW235976   1.577   1.042   5.329  0.4487  3.7824 -0.7824
 8114SOL     OW35977   4.304   4.509   0.372 -0.1438 -0.2950 -0.2164
 8114SOL    HW135978   4.230   4.543   0.321  0.7735  0.3681 -1.0866
 8114SOL    HW235979   4.319   4.432   0.316 -0.5435 -1.5095  1.3499
 8115SOL     OW35980   4.685   1.625   8.894  0.1592  0.3770 -0.3640
 8115SOL    HW135981   0.005   1.692   8.859 -1.3907  0.9953 -1.6943
 8115SOL    HW235982   4.600   1.668   8.889 -0.5827 -1.1719 -1.1217
 8116SOL     OW35983   2.507   0.533   1.898  0.0868  0.1598 -0.0065
 8116SOL    HW135984   2.552   0.455   1.866 -0.8326 -0.1763 -0.4989
 8116SOL    HW235985   2.419   0.504   1.923  1.1027 -1.6538  1.3564
 8117SOL     OW35986   0.358   1.160   5.969  0.4966  0.1947 -0.3068
 8117SOL    HW135987   0.283   1.104   5.946  0.5580 -0.1012  0.2048
 8117SOL    HW235988   0.343   1.165   6.063  0.1632 -0.5751 -0.3224
 8118SOL     OW35989   0.309   3.060  13.643  0.2358  0.6550 -0.1976
 8118SOL    HW135990   0.310   3.109  13.726  1.5142  0.9305 -0.3770
 8118SOL    HW235991   0.331   3.129  13.580 -1.5577  0.2143 -1.2803
 8119SOL     OW35992   3.277   4.290  15.876  0.4909 -0.0997  0.4913
 8119SOL    HW135993   3.278   4.204  15.918 -1.9488 -0.5156 -0.2643
 8119SOL    HW235994   3.183   4.310  15.871  0.5553 -0.1297 -0.9909
 8120SOL     OW35995   4.068   1.378   6.156 -0.3006  0.2331  0.0685
 8120SOL    HW135996   4.074   1.299   6.103  0.7512  0.2090  0.2248
 8120SOL    HW235997   4.004   1.430   6.107  0.4028 -0.4169 -1.5202
 8121SOL     OW35998   2.495   2.243   2.996  0.1884 -0.0559  0.3959
 8121SOL    HW135999   2.426   2.197   3.044  1.7576 -1.7596  1.0183
 8121SOL    HW236000   2.447   2.301   2.938  0.9769  1.6325  1.4069
 8122SOL     OW36001   3.066   2.694   7.343 -0.2617  0.2065 -0.1000
 8122SOL    HW136002   3.023   2.664   7.263  2.0627  2.2290 -2.1116
 8122SOL    HW236003   3.156   2.677   7.316  0.0233  0.5066  0.6427
 8123SOL     OW36004   4.579   3.979   4.200 -0.3149  0.1406  0.0685
 8123SOL    HW136005   4.588   3.999   4.107 -0.7965 -1.2185 -0.2679
 8123SOL    HW236006   4.497   4.025   4.213 -0.8230 -0.7145 -0.1155
 8124SOL     OW36007   3.775   4.504   4.277 -0.4650 -0.7048  0.6798
 8124SOL    HW136008   3.741   4.415   4.280 -0.6251 -0.7465 -2.1786
 8124SOL    HW236009   3.710   4.557   4.230  1.4992  1.1535  0.0440
 8125SOL     OW36010   3.767   4.399  10.619 -0.1868 -0.0320  0.0177
 8125SOL    HW136011   3.683   4.371  10.656  0.1508  0.8942  1.4493
 8125SOL    HW236012   3.806   4.315  10.644  0.8015  0.5555  0.4101
 8126SOL     OW36013   2.184   2.959   8.128  0.0922 -0.2427 -0.2522
 8126SOL    HW136014   2.154   2.967   8.218  1.8312  1.5467  0.1635
 8126SOL    HW236015   2.188   3.052   8.103  2.7712 -0.8368 -2.0081
 8127SOL     OW36016   4.197   2.975  17.131 -0.3641  0.3136  0.6947
 8127SOL    HW136017   4.121   2.938  17.176  0.9632 -1.2042  1.7134
 8127SOL    HW236018   4.252   3.013  17.200  1.1187  1.4597 -1.1214
 8128SOL     OW36019   0.167   1.451   5.125  0.1271 -0.0596 -0.0472
 8128SOL    HW136020   0.156   1.390   5.199 -0.7700  1.2049  0.8620
 8128SOL    HW236021   0.081   1.493   5.129  0.5350  0.9468 -2.0524
 8129SOL     OW36022   4.725   1.683   9.732  0.1576  0.1209 -0.8527
 8129SOL    HW136023   0.066   1.632   9.709  0.8248  0.9176 -0.3634
 8129SOL    HW236024   0.029   1.755   9.780  2.2699 -1.4575 -0.2515
 8130SOL     OW36025   0.024   2.906   9.978  0.0234  0.2969  0.0420
 8130SOL    HW136026   0.105   2.869   9.944  0.4258 -1.0747  2.4200
 8130SOL    HW236027   0.047   2.996   9.999 -0.7805  0.3881  0.5358
 8131SOL     OW36028   4.192   3.532  14.231 -0.0062 -0.5097  0.5093
 8131SOL    HW136029   4.220   3.566  14.146  1.3560 -1.4170  0.5976
 8131SOL    HW236030   4.130   3.465  14.202  0.9913  0.0548 -2.8805
 8132SOL     OW36031   4.639   3.122   1.098 -0.1609 -0.2536 -0.1477
 8132SOL    HW136032   4.732   3.143   1.106  0.0446 -1.0858 -0.3280
 8132SOL    HW236033   4.598   3.208   1.100  0.7757  0.1858  0.0270
 8133SOL     OW36034   1.984   1.685   9.619 -0.0435 -0.5870  0.2516
 8133SOL    HW136035   2.019   1.716   9.535 -0.6052 -1.4239 -0.3041
 8133SOL    HW236036   2.042   1.729   9.680  1.0706 -0.6465 -0.7591
 8134SOL     OW36037   4.274   0.399  15.259 -0.6406  0.2260 -0.0509
 8134SOL    HW136038   4.335   0.352  15.316  0.4790  0.9532 -0.6549
 8134SOL    HW236039   4.199   0.399  15.319  0.1145  0.4545  0.9110
 8135SOL     OW36040   4.383   3.292   4.793  0.2291  0.1148  0.1518
 8135SOL    HW136041   4.340   3.331   4.716  0.8810  0.3710 -0.0759
 8135SOL    HW236042   4.401   3.201   4.766 -0.0575 -0.4091  1.7475
 8136SOL     OW36043   0.507   2.951   9.267  0.1087 -0.0673  0.1489
 8136SOL    HW136044   0.539   3.037   9.241  0.8457 -0.0874  1.0163
 8136SOL    HW236045   0.442   2.983   9.330  0.8493  0.4837  0.6222
 8137SOL     OW36046   0.328   3.029   9.483 -0.0016 -0.0068 -0.1109
 8137SOL    HW136047   0.342   3.121   9.504 -0.7175 -0.6529  3.1877
 8137SOL    HW236048   0.234   3.017   9.471  0.3028 -1.0018 -1.5135
 8138SOL     OW36049   1.586   2.749  12.421  0.0862  0.6459  0.2930
 8138SOL    HW136050   1.584   2.818  12.354  0.5978 -0.0078 -0.3971
 8138SOL    HW236051   1.495   2.746  12.452  0.0324  0.0617  0.0773
 8139SOL     OW36052   3.997   0.250   5.814  0.2518 -0.1339  0.0850
 8139SOL    HW136053   3.925   0.309   5.792  0.1831 -0.6483 -1.0661
 8139SOL    HW236054   3.963   0.163   5.795  0.4134 -0.0320 -0.6485
 8140SOL     OW36055   1.515   3.139   5.756 -0.0429 -0.1096 -0.1184
 8140SOL    HW136056   1.482   3.227   5.740 -2.0268 -0.9075 -0.4520
 8140SOL    HW236057   1.468   3.093   5.687  0.3259 -0.7507  0.0577
 8141SOL     OW36058   1.434   3.716   9.031  0.3778  0.3846  0.6114
 8141SOL    HW136059   1.355   3.763   9.059  0.1664 -0.3963  1.3250
 8141SOL    HW236060   1.427   3.732   8.937  2.4953 -1.2772  0.1711
 8142SOL     OW36061   1.696   2.508   5.383 -0.5136 -0.1836  0.0107
 8142SOL    HW136062   1.748   2.507   5.464 -2.5403 -0.3622  1.3061
 8142SOL    HW236063   1.606   2.521   5.412 -0.0496  2.9825  0.0186
 8143SOL     OW36064   0.229   0.484  13.000  0.1906 -0.3030  0.1208
 8143SOL    HW136065   0.259   0.557  13.054  1.9682 -1.4048  0.6119
 8143SOL    HW236066   0.301   0.423  13.013 -0.5548 -1.6599 -1.9985
 8144SOL     OW36067   0.996   3.993   4.605  0.0893 -0.6498  0.0851
 8144SOL    HW136068   0.960   4.078   4.630  1.1946  0.2708 -1.5204
 8144SOL    HW236069   0.923   3.949   4.649 -0.8703  2.0133  1.1819
 8145SOL     OW36070   4.713   2.669   8.952 -0.0307  0.1381 -0.8628
 8145SOL    HW136071   0.017   2.594   8.996  2.6058  2.1831  0.1536
 8145SOL    HW236072   4.625   2.672   8.989 -0.8347 -0.0825 -2.7950
 8146SOL     OW36073   1.869   0.528   0.789  0.2887  0.4175  0.2960
 8146SOL    HW136074   1.846   0.599   0.729 -0.3283 -0.5265 -0.5876
 8146SOL    HW236075   1.778   0.503   0.807 -0.4746  0.6197 -3.3323
 8147SOL     OW36076   4.356   1.742   9.181 -0.9866 -0.4492 -0.3000
 8147SOL    HW136077   4.418   1.732   9.108 -0.4034  1.6653 -0.0935
 8147SOL    HW236078   4.295   1.674   9.153 -0.5215 -0.3495 -1.5567
 8148SOL     OW36079   0.256   3.853   4.817  0.1635  0.2214  0.1253
 8148SOL    HW136080   0.194   3.794   4.773 -1.2240  1.0091  1.0248
 8148SOL    HW236081   0.336   3.802   4.829  1.1362  1.6680 -0.1966
 8149SOL     OW36082   4.649   1.979   0.859  0.3184  0.5383 -0.7738
 8149SOL    HW136083   4.718   1.913   0.867 -0.4698 -0.1508  0.3966
 8149SOL    HW236084   4.682   2.047   0.918  3.2606  0.7427 -2.6474
 8150SOL     OW36085   1.627   1.973  11.729  0.0428 -0.5499  0.2965
 8150SOL    HW136086   1.606   1.985  11.636 -3.2948  1.2139  1.2911
 8150SOL    HW236087   1.547   1.933  11.764 -0.7568  1.0671  0.3093
 8151SOL     OW36088   0.615   1.887  13.537 -0.0935  0.2068 -0.6821
 8151SOL    HW136089   0.686   1.834  13.499  0.0942  0.5718 -0.8406
 8151SOL    HW236090   0.636   1.978  13.520  0.9510  0.2696  0.9560
 8152SOL     OW36091   0.300   4.694  17.455  0.3269  0.2633  0.3950
 8152SOL    HW136092   0.206   4.685  17.440  0.2690 -1.3320  1.6548
 8152SOL    HW236093   0.310   0.052  17.455 -0.0428  0.3201  2.3499
 8153SOL     OW36094   2.666   0.939   5.696  0.1651  0.3501  0.8019
 8153SOL    HW136095   2.587   0.962   5.745 -0.5481  0.0792 -0.2269
 8153SOL    HW236096   2.728   1.008   5.719  1.2163 -0.6102  0.8619
 8154SOL     OW36097   0.501   1.528   7.505  0.3358  0.6387  0.8171
 8154SOL    HW136098   0.489   1.602   7.564  0.5850  1.8583 -0.6560
 8154SOL    HW236099   0.564   1.571   7.447 -0.9469  1.3816 -0.0085
 8155SOL     OW36100   4.568   0.505  11.029 -0.3791 -0.3684  0.6988
 8155SOL    HW136101   4.513   0.583  11.019  0.9678  0.3588 -1.0409
 8155SOL    HW236102   4.643   0.520  10.971 -1.0599 -0.6681 -0.2730
 8156SOL     OW36103   4.347   3.278  10.310  0.0146  0.1076  0.3833
 8156SOL    HW136104   4.306   3.277  10.223 -0.3731  1.4777  0.5511
 8156SOL    HW236105   4.274   3.307  10.364 -0.3145  2.1319 -1.1325
 8157SOL     OW36106   1.753   1.255   5.199  0.3196  0.2857  0.1449
 8157SOL    HW136107   1.765   1.161   5.213  1.1427  0.6429  1.9567
 8157SOL    HW236108   1.811   1.270   5.124 -0.2555  2.3536  0.1088
 8158SOL     OW36109   2.251   1.228   3.443  0.3135  0.6653 -0.7670
 8158SOL    HW136110   2.192   1.301   3.423  2.2396  2.9537  1.8938
 8158SOL    HW236111   2.210   1.197   3.524 -0.4842  1.7848 -0.7379
 8159SOL     OW36112   4.175   0.486  14.546  0.2106 -0.0187 -0.2421
 8159SOL    HW136113   4.178   0.565  14.492  1.0671 -0.3625 -0.6894
 8159SOL    HW236114   4.227   0.516  14.621  0.1870 -3.3854  1.1234
 8160SOL     OW36115   1.326   3.282   2.246 -0.6040  0.4168  0.4115
 8160SOL    HW136116   1.236   3.304   2.271 -0.0265  0.1047  2.7785
 8160SOL    HW236117   1.345   3.340   2.172 -1.6484 -0.9227 -0.9186
 8161SOL     OW36118   2.199   0.753   8.532 -0.1312 -0.4103 -0.0984
 8161SOL    HW136119   2.199   0.816   8.603  1.8281 -0.3181 -0.1658
 8161SOL    HW236120   2.168   0.681   8.587 -1.3485 -0.7275 -1.1855
 8162SOL     OW36121   2.706   2.627   2.788  0.6697  0.1276  0.4831
 8162SOL    HW136122   2.733   2.707   2.833 -1.8644  0.1797  1.9553
 8162SOL    HW236123   2.644   2.680   2.737  0.7444  0.7610  1.0536
 8163SOL     OW36124   0.233   4.611   6.875 -0.1020 -0.1136 -0.0410
 8163SOL    HW136125   0.328   4.614   6.864 -0.1624 -1.3292 -0.8680
 8163SOL    HW236126   0.233   4.567   6.960  0.4420  0.7228  0.3942
 8164SOL     OW36127   3.479   4.573   4.953  0.5331  0.4176 -0.2955
 8164SOL    HW136128   3.548   4.619   4.905 -0.4940  0.7877 -1.4094
 8164SOL    HW236129   3.514   4.574   5.043  2.3181 -0.5855 -0.9742
 8165SOL     OW36130   1.454   1.284   5.472 -0.3897  0.0440  0.3219
 8165SOL    HW136131   1.469   1.216   5.406 -1.3629  1.4057 -1.3244
 8165SOL    HW236132   1.393   1.339   5.424  0.2212 -1.3151 -2.0138
 8166SOL     OW36133   4.445   3.426  14.215  0.1506 -0.5387  0.5875
 8166SOL    HW136134   4.364   3.458  14.175 -0.0960 -1.4414  0.3574
 8166SOL    HW236135   4.426   3.451  14.305 -1.3813 -0.8881  0.3680
 8167SOL     OW36136   0.853   2.545   6.287  0.2682 -0.2726  0.1903
 8167SOL    HW136137   0.827   2.535   6.378  0.6233 -2.2560  0.0684
 8167SOL    HW236138   0.833   2.637   6.269  0.8079 -0.3966 -1.0800
 8168SOL     OW36139   3.693   1.676   8.338 -0.5443 -0.1110 -0.1688
 8168SOL    HW136140   3.642   1.623   8.278 -1.6784  3.0301 -1.9473
 8168SOL    HW236141   3.663   1.762   8.309  1.1116  0.4935 -0.1110
 8169SOL     OW36142   2.015   2.187   3.234  0.0160  0.9566  0.4379
 8169SOL    HW136143   1.974   2.222   3.314  0.2222  0.9624  0.5416
 8169SOL    HW236144   1.967   2.239   3.170 -2.3728  0.9706  2.2391
 8170SOL     OW36145   0.596   1.610   6.125  0.4891  0.1393  0.1930
 8170SOL    HW136146   0.660   1.590   6.193 -0.1967  1.5721  1.2645
 8170SOL    HW236147   0.556   1.523   6.112  0.1182  0.0890  1.6124
 8171SOL     OW36148   2.405   2.148   5.513 -0.4626  0.4780  0.1675
 8171SOL    HW136149   2.439   2.071   5.559 -0.0742 -0.4858 -1.7239
 8171SOL    HW236150   2.459   2.214   5.557 -2.0794  0.7340  1.7866
 8172SOL     OW36151   2.617   4.351   2.490 -0.2374 -0.3379 -0.1390
 8172SOL    HW136152   2.553   4.367   2.421 -0.7498  0.9183  0.6225
 8172SOL    HW236153   2.549   4.328   2.555  1.3160  0.2363  1.6921
 8173SOL     OW36154   0.708   0.157   9.570  0.3607  0.1211 -0.5642
 8173SOL    HW136155   0.712   0.077   9.517  2.0234  0.2237 -0.5933
 8173SOL    HW236156   0.756   0.120   9.644 -0.7508 -1.5099 -0.6499
 8174SOL     OW36157   4.480   3.156  10.879  0.6754 -0.0907  0.0279
 8174SOL    HW136158   4.524   3.079  10.916  1.2221  0.1705 -0.0843
 8174SOL    HW236159   4.550   3.182  10.818  1.0117 -0.9648  0.0397
 8175SOL     OW36160   2.518   2.225   8.122  0.3161 -0.4642  0.3580
 8175SOL    HW136161   2.570   2.302   8.099 -1.6342  1.3664  2.0751
 8175SOL    HW236162   2.436   2.271   8.105  1.0454  0.2715 -1.2272
 8176SOL     OW36163   0.452   0.615   1.987 -0.0204  0.6307 -0.0453
 8176SOL    HW136164   0.533   0.630   2.036 -0.5125  1.6006  0.4840
 8176SOL    HW236165   0.385   0.597   2.053 -0.1142 -0.0354 -0.3268
 8177SOL     OW36166   4.203   1.224   4.367  0.0347 -0.0087 -0.1010
 8177SOL    HW136167   4.200   1.277   4.447  1.4927 -0.9792  0.5833
 8177SOL    HW236168   4.284   1.174   4.374  0.9285  1.6586  1.4121
 8178SOL     OW36169   1.548   3.441   0.229 -0.5295  0.4892 -0.1651
 8178SOL    HW136170   1.475   3.396   0.270  1.1897 -0.0953  2.2642
 8178SOL    HW236171   1.572   3.376   0.162 -0.4986  0.3572 -0.0252
 8179SOL     OW36172   2.038   4.442   5.237  0.3041 -0.2506  0.1368
 8179SOL    HW136173   2.063   4.394   5.158 -1.8896  1.2784 -1.4927
 8179SOL    HW236174   1.979   4.379   5.278 -0.4855  0.5770  0.2715
 8180SOL     OW36175   3.644   0.094   3.670  0.5831 -0.2717  0.3267
 8180SOL    HW136176   3.647   0.177   3.623 -1.9073 -0.5344 -0.3128
 8180SOL    HW236177   3.738   0.085   3.685  0.3605 -0.2106  1.8000
 8181SOL     OW36178   1.866   3.017   3.660  0.3396  0.0332  0.3819
 8181SOL    HW136179   1.863   2.998   3.567  0.4608 -1.5397  0.7028
 8181SOL    HW236180   1.820   3.101   3.662 -2.6744 -1.5590 -3.2245
 8182SOL     OW36181   3.528   3.169  11.221  0.5050 -0.1750 -0.2913
 8182SOL    HW136182   3.622   3.183  11.221  0.2685  1.2185 -3.1803
 8182SOL    HW236183   3.503   3.260  11.232  1.0642  0.2754 -2.8716
 8183SOL     OW36184   4.694   0.119  11.411  1.0597  0.3567  0.6862
 8183SOL    HW136185   4.706   0.185  11.343  0.5854 -0.7688 -0.4840
 8183SOL    HW236186   4.598   0.122  11.416  0.8005 -1.4217 -4.2630
 8184SOL     OW36187   3.176   3.335  12.159 -0.1081  0.0548  0.2086
 8184SOL    HW136188   3.084   3.307  12.160  0.2841 -1.3331 -2.8333
 8184SOL    HW236189   3.214   3.254  12.126  0.7806  1.5061 -2.3731
 8185SOL     OW36190   3.700   2.798   4.883 -0.0986 -0.4215 -0.3370
 8185SOL    HW136191   3.772   2.827   4.827  0.4117 -1.1239 -0.0419
 8185SOL    HW236192   3.632   2.769   4.822  0.5466 -2.4235 -0.0786
 8186SOL     OW36193   1.553   4.502   5.506  0.5553 -0.2516  0.0662
 8186SOL    HW136194   1.598   4.488   5.423 -0.5660 -1.8283 -0.2686
 8186SOL    HW236195   1.604   4.577   5.538 -1.6481  0.4860  1.8483
 8187SOL     OW36196   2.741   3.682  11.571 -0.2031 -0.3938  0.0368
 8187SOL    HW136197   2.837   3.691  11.571 -0.0106 -2.4007  2.8142
 8187SOL    HW236198   2.725   3.699  11.478  0.0565  2.4128  0.5088
 8188SOL     OW36199   2.224   1.875  12.040  0.5603 -0.3649  0.3754
 8188SOL    HW136200   2.161   1.944  12.023  0.0709 -0.7830  0.4830
 8188SOL    HW236201   2.296   1.918  11.994  0.1615 -1.1845 -1.0119
 8189SOL     OW36202   3.603   0.949   9.031  0.1624 -0.3617  0.4873
 8189SOL    HW136203   3.564   1.036   9.043  2.7477  1.0790 -1.7467
 8189SOL    HW236204   3.605   0.934   8.937 -2.4375 -1.6054  0.6226
 8190SOL     OW36205   4.581   0.854  14.047 -0.6071  0.0060  0.2053
 8190SOL    HW136206   4.659   0.856  13.993  0.8115 -0.2263  2.2489
 8190SOL    HW236207   4.625   0.895  14.122  0.9556  0.4258 -0.9657
 8191SOL     OW36208   2.995   0.664   1.094  0.7684 -0.3684 -0.5421
 8191SOL    HW136209   2.954   0.727   1.035 -0.6362  0.0555  0.9014
 8191SOL    HW236210   2.976   0.584   1.046 -2.4180  0.1325 -0.0661
 8192SOL     OW36211   4.732   2.363   4.133  0.2919  0.1935  1.0222
 8192SOL    HW136212   0.079   2.318   4.128  0.5142  0.8339 -0.8628
 8192SOL    HW236213   4.671   2.289   4.133 -1.2328  1.4526  2.5351
 8193SOL     OW36214   1.966   2.039   5.645  0.2060  0.2139 -0.1887
 8193SOL    HW136215   1.872   2.054   5.657 -0.4333 -2.6748 -1.6913
 8193SOL    HW236216   1.998   2.126   5.671  2.1876 -0.4237 -0.5475
 8194SOL     OW36217   4.484   3.890  15.143  0.1379  0.1244  0.1125
 8194SOL    HW136218   4.414   3.948  15.172 -0.0563 -0.3827  0.6766
 8194SOL    HW236219   4.434   3.824  15.096 -0.4141  1.5719 -1.3078
 8195SOL     OW36220   4.337   0.473   8.898 -0.4477  0.3277  0.6568
 8195SOL    HW136221   4.374   0.430   8.975  2.4302  2.1330  0.2732
 8195SOL    HW236222   4.258   0.421   8.886 -1.2049  1.3074  1.3441
 8196SOL     OW36223   3.263   3.018  11.443 -0.2958 -0.5583 -0.0749
 8196SOL    HW136224   3.340   3.013  11.386 -0.4696  1.8976 -0.5159
 8196SOL    HW236225   3.247   3.112  11.445  2.4298 -0.0712 -1.5646
 8197SOL     OW36226   3.783   0.621   0.843  0.3195  0.0825  0.1639
 8197SOL    HW136227   3.703   0.574   0.818  0.6389 -0.5447  0.3199
 8197SOL    HW236228   3.741   0.690   0.894  1.6411  0.5597  0.6158
 8198SOL     OW36229   2.834   1.205   3.323 -0.6258 -0.4740 -0.1247
 8198SOL    HW136230   2.742   1.216   3.303 -0.1673  0.3913 -1.7878
 8198SOL    HW236231   2.878   1.204   3.238  0.1753  0.2138  0.2684
 8199SOL     OW36232   1.836   4.039   7.220  0.9453 -0.9490  0.5233
 8199SOL    HW136233   1.883   3.987   7.154  0.6452  0.6719 -0.9590
 8199SOL    HW236234   1.897   4.106   7.251  0.1454  0.7012 -1.4725
 8200SOL     OW36235   0.893   1.326   7.242 -0.2295  0.4980 -0.0930
 8200SOL    HW136236   0.807   1.304   7.279 -1.7539  1.2256 -3.1232
 8200SOL    HW236237   0.958   1.260   7.264  0.7618  1.7192  0.5993
 8201SOL     OW36238   0.135   3.100   2.661  0.5195  0.5184  0.2242
 8201SOL    HW136239   0.061   3.157   2.639  0.2801  0.1571  0.1082
 8201SOL    HW236240   0.211   3.159   2.668 -0.8335  2.3372 -0.3675
 8202SOL     OW36241   0.673   3.309   6.678  0.3960  0.1371 -0.5134
 8202SOL    HW136242   0.761   3.297   6.714  0.3892  0.0422 -0.5297
 8202SOL    HW236243   0.674   3.402   6.655  0.5842  0.4519  0.7640
 8203SOL     OW36244   4.310   4.072   4.280  0.1791 -0.3703  0.6943
 8203SOL    HW136245   4.315   4.154   4.330  2.7990 -0.0769 -0.0758
 8203SOL    HW236246   4.268   4.010   4.339  0.0304  0.6648  1.6945
 8204SOL     OW36247   4.521   0.307   5.064  0.5089 -0.2532 -0.0473
 8204SOL    HW136248   4.489   0.250   5.134  0.2799  2.2805  1.9131
 8204SOL    HW236249   4.559   0.378   5.116 -1.9372 -0.0067  1.3997
 8205SOL     OW36250   3.541   3.878  13.575  0.1842  0.7549  0.3589
 8205SOL    HW136251   3.547   3.971  13.551  0.2755  0.5203 -0.5469
 8205SOL    HW236252   3.632   3.856  13.597 -0.5707 -2.1593  0.4353
 8206SOL     OW36253   2.334   2.831   2.800 -0.3805  0.1247  0.1227
 8206SOL    HW136254   2.286   2.862   2.723  0.2201  0.1128 -0.2535
 8206SOL    HW236255   2.403   2.783   2.755 -1.7936 -1.6819 -0.1232
 8207SOL     OW36256   3.251   1.748   8.316 -0.2890  0.2944  0.2655
 8207SOL    HW136257   3.171   1.776   8.361  0.2381  2.1037  0.0644
 8207SOL    HW236258   3.224   1.670   8.267  0.8918  2.1478 -3.2537
 8208SOL     OW36259   4.194   0.034  10.341  0.5326  0.4499  0.3953
 8208SOL    HW136260   4.111   0.018  10.296  0.9088 -0.7583  0.1149
 8208SOL    HW236261   4.179   4.726  10.424  1.6653  0.0752  0.3988
 8209SOL     OW36262   3.709   0.416   0.284 -0.0662 -0.1555 -0.1341
 8209SOL    HW136263   3.616   0.427   0.262  0.2607  2.2281 -0.3578
 8209SOL    HW236264   3.714   0.413   0.380 -1.7441  4.3953  0.1369
 8210SOL     OW36265   3.287   2.102   6.531 -0.6398 -0.3888 -0.0295
 8210SOL    HW136266   3.368   2.153   6.535  0.6182 -2.3106 -0.8759
 8210SOL    HW236267   3.224   2.169   6.559 -1.0651 -0.2581 -1.2987
 8211SOL     OW36268   1.030   4.713   7.632  0.2806  0.5707 -0.3333
 8211SOL    HW136269   1.045   4.688   7.724  0.4073  0.8845 -0.2688
 8211SOL    HW236270   1.035   0.071   7.624  2.0370  0.7140  2.2726
 8212SOL     OW36271   1.779   2.619  17.256  0.1291 -0.0241  0.0763
 8212SOL    HW136272   1.827   2.542  17.286 -1.9862 -2.2597 -2.2148
 8212SOL    HW236273   1.851   2.677  17.230  1.2032 -0.6405  1.6676
 8213SOL     OW36274   1.986   1.138  11.422  0.7155  0.1393  0.1883
 8213SOL    HW136275   1.989   1.056  11.373 -0.5591  0.2341 -0.0537
 8213SOL    HW236276   2.078   1.142  11.445  0.8609  0.1082 -0.3983
 8214SOL     OW36277   2.939   0.096   5.413  0.2191 -0.1848  0.2801
 8214SOL    HW136278   2.849   0.129   5.404  0.9203  2.4175  2.5449
 8214SOL    HW236279   2.984   0.174   5.381 -0.5951  0.2455  0.2002
 8215SOL     OW36280   1.999   4.709   1.265 -0.1467 -0.5495 -0.1394
 8215SOL    HW136281   1.931   4.725   1.331  0.9381  1.3287  0.5134
 8215SOL    HW236282   1.955   0.004   1.187  1.3125  0.5758 -0.4844
 8216SOL     OW36283   0.976   1.066  16.078  0.0361  0.3318 -0.8418
 8216SOL    HW136284   0.902   1.054  16.138  0.1753  0.0187 -0.7330
 8216SOL    HW236285   1.045   1.047  16.141 -0.2072  0.1729 -0.6218
 8217SOL     OW36286   4.369   0.954   7.589  0.3038 -0.3145 -0.0674
 8217SOL    HW136287   4.434   0.884   7.600 -0.5781 -0.8638  1.5676
 8217SOL    HW236288   4.390   1.008   7.666 -1.3328 -0.4680  0.4754
 8218SOL     OW36289   0.472   0.689   4.001 -0.0891 -0.4145  0.0908
 8218SOL    HW136290   0.544   0.751   3.995 -0.9438  0.7936  2.3204
 8218SOL    HW236291   0.507   0.627   4.066  0.0179  1.2794  1.6363
 8219SOL     OW36292   1.969   0.685   2.731  0.4405  0.5369  0.0510
 8219SOL    HW136293   2.039   0.695   2.668  0.4230 -1.3816 -0.2914
 8219SOL    HW236294   2.004   0.726   2.810  1.7669 -1.3330  0.4472
 8220SOL     OW36295   0.017   3.120  10.203 -0.2485 -0.2199 -0.0030
 8220SOL    HW136296   0.018   3.040  10.255 -1.8259 -0.4530 -0.3242
 8220SOL    HW236297   0.073   3.183  10.248  0.3176  0.2310 -1.3597
 8221SOL     OW36298   2.256   0.036   5.126 -0.2654 -0.2749 -0.0037
 8221SOL    HW136299   2.222   0.070   5.209  0.2743  1.2049 -0.3788
 8221SOL    HW236300   2.175   0.009   5.082  0.6740 -1.9286 -0.7071
 8222SOL     OW36301   3.422   1.955  13.767 -0.4121 -0.0600 -0.2285
 8222SOL    HW136302   3.327   1.968  13.771 -0.5570 -1.5882  1.1354
 8222SOL    HW236303   3.453   2.024  13.709 -1.1021  0.1855 -0.3128
 8223SOL     OW36304   0.255   2.967   8.267 -0.6761  0.5245 -0.2591
 8223SOL    HW136305   0.228   2.883   8.231  0.1602  0.3459 -0.4450
 8223SOL    HW236306   0.204   3.030   8.214 -0.4204 -1.0411 -2.3331
 8224SOL     OW36307   3.235   2.778   1.489 -0.1248  0.2026 -0.4098
 8224SOL    HW136308   3.322   2.768   1.528  0.0681 -0.9024 -1.1090
 8224SOL    HW236309   3.181   2.751   1.563 -0.2665  0.8278 -0.2902
 8225SOL     OW36310   2.633   3.720   5.526 -0.2221 -0.3906 -0.8808
 8225SOL    HW136311   2.542   3.709   5.553  0.0286 -0.9674 -0.2501
 8225SOL    HW236312   2.684   3.677   5.595 -0.6630  0.5361  0.0130
 8226SOL     OW36313   0.493   3.627   1.734  0.0090 -0.5458  0.3083
 8226SOL    HW136314   0.431   3.695   1.707 -0.1495  0.1728  2.5419
 8226SOL    HW236315   0.444   3.597   1.810 -2.2688 -0.3393 -1.0839
 8227SOL     OW36316   2.100   2.196  17.011  0.0837  0.5512 -0.0257
 8227SOL    HW136317   2.141   2.267  16.961  0.5504  0.9007  0.8558
 8227SOL    HW236318   2.178   2.164  17.057  0.4560 -1.2785 -1.9544
 8228SOL     OW36319   0.327   0.332   6.749 -0.4693  0.5650 -0.4285
 8228SOL    HW136320   0.379   0.270   6.698  0.0477  1.4295 -0.9521
 8228SOL    HW236321   0.302   0.392   6.678 -0.2005  0.0085 -0.9879
 8229SOL     OW36322   4.446   2.701   7.988  0.3697 -0.0238 -0.2479
 8229SOL    HW136323   4.457   2.704   8.083  1.0586 -0.3856 -0.3169
 8229SOL    HW236324   4.359   2.662   7.984 -0.1549  1.2813 -1.6949
 8230SOL     OW36325   2.806   0.326   1.900  0.1557 -0.6045 -0.7897
 8230SOL    HW136326   2.866   0.401   1.900 -0.2687 -0.2733  0.0809
 8230SOL    HW236327   2.837   0.276   1.975  1.8634  0.4449 -0.7911
 8231SOL     OW36328   2.373   0.492  13.542  0.1901 -0.0435 -0.5846
 8231SOL    HW136329   2.456   0.447  13.555 -0.1175 -0.1238  1.1049
 8231SOL    HW236330   2.398   0.567  13.487  1.8809 -0.6131 -0.5935
 8232SOL     OW36331   1.548   3.745   5.315  0.4815 -0.5926  0.1374
 8232SOL    HW136332   1.518   3.661   5.280 -0.1690 -0.7819  1.1547
 8232SOL    HW236333   1.600   3.721   5.392 -0.2726  0.4549  0.9647
 8233SOL     OW36334   4.244   1.793   4.107 -0.7761  0.0395 -0.1158
 8233SOL    HW136335   4.192   1.811   4.185 -1.1699  0.7396 -0.5349
 8233SOL    HW236336   4.278   1.881   4.086 -1.0250  0.5067  1.4187
 8234SOL     OW36337   0.065   0.256  16.780  0.4780  0.0659  0.0482
 8234SOL    HW136338   0.127   0.195  16.821 -0.9476 -0.8450  0.8702
 8234SOL    HW236339   0.053   0.214  16.695  1.0372  0.6494 -0.3171
 8235SOL     OW36340   2.703   2.229   3.748 -0.3453 -0.0069 -0.2651
 8235SOL    HW136341   2.698   2.323   3.735  0.1433 -0.1150 -1.2509
 8235SOL    HW236342   2.799   2.231   3.744 -0.1987 -3.3525  1.0995
 8236SOL     OW36343   3.837   0.736   8.302  0.6696  0.1135  0.5012
 8236SOL    HW136344   3.873   0.651   8.276 -0.5441 -0.4724  0.7802
 8236SOL    HW236345   3.897   0.795   8.255 -0.8125 -0.0845 -1.6404
 8237SOL     OW36346   2.171   1.429   8.470 -0.3953 -0.0600 -0.1525
 8237SOL    HW136347   2.168   1.333   8.474  1.4006 -0.0318  2.1172
 8237SOL    HW236348   2.196   1.448   8.560  0.2538 -0.0058 -0.3383
 8238SOL     OW36349   1.674   1.552   6.716  0.1360  0.2329  0.4995
 8238SOL    HW136350   1.759   1.508   6.716 -0.9910 -1.9116 -0.7079
 8238SOL    HW236351   1.615   1.479   6.734  0.9647 -1.0294 -1.8593
 8239SOL     OW36352   4.148   3.455   7.974  0.8080  0.4764  0.3912
 8239SOL    HW136353   4.187   3.382   8.022 -1.2510 -0.9120 -0.0126
 8239SOL    HW236354   4.054   3.440   7.991  1.1300 -0.6447  1.1845
 8240SOL     OW36355   3.718   4.561   8.288  0.2890 -0.8765 -0.1471
 8240SOL    HW136356   3.741   4.503   8.361 -1.7470 -1.2660  0.1999
 8240SOL    HW236357   3.711   4.497   8.218  0.3486  0.8373 -1.6983
 8241SOL     OW36358   1.848   1.685  17.054 -0.1178 -0.0409  0.4707
 8241SOL    HW136359   1.779   1.733  17.100 -2.2298 -0.6125 -2.1250
 8241SOL    HW236360   1.835   1.592  17.069 -4.1980  0.8524  2.4117
 8242SOL     OW36361   0.112   1.932  15.682 -0.2313  0.4996 -0.3100
 8242SOL    HW136362   0.023   1.968  15.687  0.3467  1.7778  0.9227
 8242SOL    HW236363   0.123   1.930  15.587  2.6282  2.5080 -0.0377
 8243SOL     OW36364   0.857   4.443   7.359 -0.2152 -0.1395 -0.5097
 8243SOL    HW136365   0.856   4.486   7.444 -1.5020  0.2048 -0.7068
 8243SOL    HW236366   0.929   4.496   7.323 -1.2415  0.7919 -1.1956
 8244SOL     OW36367   0.411   0.082  11.662 -0.1097 -0.0558 -0.3912
 8244SOL    HW136368   0.429   4.737  11.708 -1.4125  0.8420  1.7383
 8244SOL    HW236369   0.319   0.083  11.639 -0.4669  3.7547  1.1304
 8245SOL     OW36370   4.560   0.311  17.258 -0.2439 -0.2537 -0.3560
 8245SOL    HW136371   4.575   0.258  17.179 -2.3775 -0.2423 -0.7915
 8245SOL    HW236372   4.646   0.350  17.273 -0.5945  0.8029 -1.0241
 8246SOL     OW36373   2.345   1.175   2.105  0.2413 -0.0524 -0.0052
 8246SOL    HW136374   2.392   1.225   2.038 -2.0926  0.8245 -0.9728
 8246SOL    HW236375   2.365   1.212   2.191 -1.9186 -0.1480  0.5296
 8247SOL     OW36376   0.169   3.447   2.216  0.0385  0.5115 -0.5321
 8247SOL    HW136377   0.117   3.373   2.247 -0.1580  0.9329  0.1373
 8247SOL    HW236378   0.220   3.402   2.148 -0.3020  1.7315 -1.5976
 8248SOL     OW36379   4.661   4.552   9.103  0.0699  0.1122 -0.1209
 8248SOL    HW136380   4.565   4.553   9.111  0.1489  1.7507  0.6329
 8248SOL    HW236381   4.686   4.496   9.177  0.9058  0.7352  0.0590
 8249SOL     OW36382   3.354   2.066   2.457 -0.1797  0.6317  0.1222
 8249SOL    HW136383   3.433   2.096   2.502  0.1885 -1.1335  0.6562
 8249SOL    HW236384   3.399   2.025   2.383 -1.2791 -0.3310 -0.0156
 8250SOL     OW36385   3.098   3.574   9.203  0.0077  0.2048 -0.6513
 8250SOL    HW136386   3.058   3.605   9.122 -0.5331  1.6835  0.1760
 8250SOL    HW236387   3.190   3.577   9.177 -0.1058  2.0625 -0.8522
 8251SOL     OW36388   2.643   4.719   2.144 -0.0515  0.2178 -0.0605
 8251SOL    HW136389   2.602   4.661   2.080 -0.5743 -0.2360  0.6873
 8251SOL    HW236390   2.735   4.703   2.122  0.6805  2.2250  1.5557
 8252SOL     OW36391   2.996   1.006   8.629  0.0977 -0.1076 -0.3182
 8252SOL    HW136392   2.988   1.059   8.550 -0.5480  0.7145  0.3063
 8252SOL    HW236393   3.041   0.934   8.584 -1.6521  1.3093 -4.3606
 8253SOL     OW36394   2.115   4.279   2.786  0.0420  0.2151  0.3029
 8253SOL    HW136395   2.089   4.201   2.836  0.3802 -0.9243 -1.2805
 8253SOL    HW236396   2.164   4.312   2.862  0.9105  1.1228 -0.6577
 8254SOL     OW36397   2.028   3.205   4.758  0.1755  0.2564 -0.1357
 8254SOL    HW136398   2.109   3.252   4.776  0.5105 -0.5735  0.4990
 8254SOL    HW236399   2.007   3.173   4.846  2.2125 -1.5719 -0.3065
 8255SOL     OW36400   1.077   0.244   4.461 -0.0807  0.0338  0.3319
 8255SOL    HW136401   1.116   0.312   4.406 -1.5267  2.1102  1.8704
 8255SOL    HW236402   0.989   0.277   4.477 -0.1908  1.0340 -2.3327
 8256SOL     OW36403   0.471   0.482   7.630 -0.0496 -0.0870 -0.3839
 8256SOL    HW136404   0.391   0.451   7.673  0.4027 -0.5750  0.1090
 8256SOL    HW236405   0.444   0.464   7.540 -0.5674  1.0872 -0.4673
 8257SOL     OW36406   0.060   2.884   7.049 -0.6178 -0.3169 -0.2986
 8257SOL    HW136407   0.110   2.869   6.968  1.4135 -0.5729  0.9836
 8257SOL    HW236408   0.130   2.913   7.109 -1.5768  0.8206  0.2747
 8258SOL     OW36409   0.485   2.632   4.089 -0.2628 -0.3461  0.2146
 8258SOL    HW136410   0.555   2.631   4.154  0.6778  1.2847 -0.7820
 8258SOL    HW236411   0.500   2.545   4.050 -4.0254 -1.4558  1.2938
 8259SOL     OW36412   2.743   3.257   7.263 -0.1329  0.1332 -0.3053
 8259SOL    HW136413   2.651   3.232   7.254 -0.5204  1.0780  1.0626
 8259SOL    HW236414   2.764   3.195   7.333 -1.7738 -0.7005 -0.5460
 8260SOL     OW36415   0.086   2.215   7.810 -0.0504  0.2122 -0.3186
 8260SOL    HW136416   0.040   2.295   7.835  0.1871  0.5078 -0.8305
 8260SOL    HW236417   0.046   2.144   7.860 -0.4527  0.2113 -0.6457
 8261SOL     OW36418   0.852   3.612   6.933  0.4997 -0.7664  0.2313
 8261SOL    HW136419   0.789   3.683   6.946  2.8382  0.8860  2.5206
 8261SOL    HW236420   0.892   3.642   6.851 -0.2466  0.8650  0.4733
 8262SOL     OW36421   0.018   1.575  13.753  0.3189  0.3903 -0.0954
 8262SOL    HW136422   4.672   1.535  13.780 -0.8841  2.1354 -1.2790
 8262SOL    HW236423   4.729   1.631  13.681 -0.3480  1.4128  0.9412
 8263SOL     OW36424   0.306   3.761   6.606  0.2495  0.3258  0.0972
 8263SOL    HW136425   0.371   3.755   6.675 -1.0422  1.6002  1.4284
 8263SOL    HW236426   0.363   3.749   6.530  0.8599 -0.0453  0.6204
 8264SOL     OW36427   1.510   3.512   3.379  0.7828  0.0637  0.0827
 8264SOL    HW136428   1.459   3.584   3.340 -0.5877 -0.7467  0.3726
 8264SOL    HW236429   1.459   3.431   3.376  0.8913  0.0697 -1.6284
 8265SOL     OW36430   1.703   0.206   2.350  0.0219  0.3560  1.0468
 8265SOL    HW136431   1.698   0.186   2.444 -0.4092 -0.5188  0.8377
 8265SOL    HW236432   1.678   0.298   2.354 -0.8569  0.1749 -0.2275
 8266SOL     OW36433   0.143   3.802  16.711 -0.0882 -0.1476  0.2786
 8266SOL    HW136434   0.118   3.841  16.794  1.2259 -0.1445  0.6763
 8266SOL    HW236435   0.209   3.742  16.745 -0.2996 -1.4991 -1.6811
 8267SOL     OW36436   4.200   1.408   4.564 -0.2040 -0.5159 -0.1765
 8267SOL    HW136437   4.178   1.493   4.603 -1.9994 -0.6710 -0.8387
 8267SOL    HW236438   4.293   1.403   4.585  0.0172  0.3998 -0.9523
 8268SOL     OW36439   4.549   0.001  15.255 -0.1980  0.4853  0.0297
 8268SOL    HW136440   4.518   4.715  15.343  0.3776  0.8613  0.3272
 8268SOL    HW236441   4.551   0.096  15.251 -2.1324  0.6255  2.3582
 8269SOL     OW36442   0.082   1.997  11.686 -0.4433  0.5209  0.4013
 8269SOL    HW136443   0.177   1.982  11.682 -0.7973 -1.5216  0.1627
 8269SOL    HW236444   0.051   1.974  11.598  0.0802 -0.6228  0.5244
 8270SOL     OW36445   3.739   2.971   5.338 -0.4110 -0.1517  0.4058
 8270SOL    HW136446   3.726   2.911   5.412  1.1560 -0.2257  0.6176
 8270SOL    HW236447   3.680   2.935   5.272  1.4353 -2.9378  0.2756
 8271SOL     OW36448   0.687   1.233  16.199  0.9613 -0.2536 -0.3431
 8271SOL    HW136449   0.597   1.203  16.208  0.4979  1.0657 -0.6020
 8271SOL    HW236450   0.666   1.326  16.188 -0.1307 -0.3614  0.9473
 8272SOL     OW36451   4.302   2.591   7.390 -0.5089  0.1287  0.3690
 8272SOL    HW136452   4.225   2.546   7.356 -0.5287  0.9646 -0.6862
 8272SOL    HW236453   4.351   2.522   7.435 -0.2017 -0.6052 -1.0953
 8273SOL     OW36454   1.801   1.759   7.228  0.3146 -0.3044 -0.1170
 8273SOL    HW136455   1.753   1.720   7.301 -1.3166  4.0249  1.0770
 8273SOL    HW236456   1.747   1.751   7.149  0.8344  0.5337 -0.5517
 8274SOL     OW36457   3.093   1.574   5.949 -0.4512 -0.2091 -0.1263
 8274SOL    HW136458   3.186   1.574   5.971 -0.7886 -0.4450  1.2777
 8274SOL    HW236459   3.082   1.482   5.923  2.4792 -0.5238 -0.2576
 8275SOL     OW36460   3.978   0.477  14.808  0.2187  0.2162  0.3309
 8275SOL    HW136461   4.015   0.397  14.773  0.7068  0.6943 -0.2404
 8275SOL    HW236462   3.923   0.500  14.733  0.1954 -1.1129 -0.0455
 8276SOL     OW36463   2.950   0.704   6.112 -0.0626 -0.2724 -0.2334
 8276SOL    HW136464   3.037   0.691   6.151 -0.2844 -0.8232  0.0772
 8276SOL    HW236465   2.905   0.632   6.156  0.6302 -1.0180 -0.7256
 8277SOL     OW36466   3.380   3.390   7.412 -0.1186  0.3099 -0.2862
 8277SOL    HW136467   3.332   3.355   7.337 -1.4115 -0.6377  1.0062
 8277SOL    HW236468   3.339   3.362   7.493 -0.1252  1.3562  0.0661
 8278SOL     OW36469   3.266   0.710   3.338 -0.4887 -0.0373 -0.1366
 8278SOL    HW136470   3.306   0.796   3.351  1.0550 -0.4535 -2.0858
 8278SOL    HW236471   3.230   0.698   3.426 -0.3284 -1.8223 -0.3075
 8279SOL     OW36472   2.227   0.729   2.011  0.4523  0.1500 -0.0350
 8279SOL    HW136473   2.217   0.820   1.983 -1.1310 -0.0413 -0.0919
 8279SOL    HW236474   2.144   0.697   1.976 -0.1919  3.6734 -1.7131
 8280SOL     OW36475   0.460   4.188   8.855 -0.7050 -0.2694 -0.2901
 8280SOL    HW136476   0.539   4.185   8.908 -0.2159  0.9701 -0.9595
 8280SOL    HW236477   0.418   4.264   8.895  1.7549 -0.5753  2.8283
 8281SOL     OW36478   0.760   0.216  12.502 -0.0379  0.2269 -0.1257
 8281SOL    HW136479   0.699   0.143  12.493  1.7333 -1.1844 -0.8829
 8281SOL    HW236480   0.707   0.250  12.573 -0.9130  0.2823 -0.7980
 8282SOL     OW36481   2.622   0.673   7.476  0.2885 -0.2872 -0.2310
 8282SOL    HW136482   2.715   0.666   7.499 -0.3076 -0.8329  2.0654
 8282SOL    HW236483   2.615   0.768   7.461  1.2041 -0.3826 -1.2461
 8283SOL     OW36484   1.553   2.078   3.481  0.5783  0.2317  0.3203
 8283SOL    HW136485   1.485   2.012   3.494 -0.9477  1.3056 -2.2392
 8283SOL    HW236486   1.525   2.112   3.396 -2.3827 -1.5530  0.5878
 8284SOL     OW36487   3.098   3.668  16.394 -0.2099  0.1806  0.0589
 8284SOL    HW136488   3.065   3.596  16.340  1.3208 -0.6303  0.2275
 8284SOL    HW236489   3.016   3.716  16.408 -0.5286 -0.1403 -0.7140
 8285SOL     OW36490   1.702   3.168   2.154 -0.4900  0.2671  0.3400
 8285SOL    HW136491   1.763   3.201   2.220  0.9106 -1.2144 -0.2240
 8285SOL    HW236492   1.648   3.114   2.211 -1.1619 -0.5403 -1.0608
 8286SOL     OW36493   3.742   1.237  10.858  0.2745  0.6040 -0.0950
 8286SOL    HW136494   3.684   1.166  10.888 -0.3469  2.4939  3.1484
 8286SOL    HW236495   3.671   1.301  10.856  0.1857  0.5380  0.8619
 8287SOL     OW36496   3.702   4.099  15.588 -0.4237  0.1203 -0.3796
 8287SOL    HW136497   3.672   4.026  15.535 -1.2682  0.3404 -0.2049
 8287SOL    HW236498   3.626   4.121  15.641 -1.0231 -0.4361 -1.0238
 8288SOL     OW36499   4.004   2.008   8.522  0.2849  0.0564  0.1272
 8288SOL    HW136500   3.952   1.936   8.557 -0.6506  1.1974  1.0794
 8288SOL    HW236501   4.082   1.963   8.489  0.0741 -0.1227 -0.1297
 8289SOL     OW36502   2.651   2.210  16.083 -0.3249 -0.3012  0.4333
 8289SOL    HW136503   2.631   2.211  16.176 -1.0214  1.8265  0.2686
 8289SOL    HW236504   2.602   2.132  16.058  0.1368 -0.1684 -0.9035
 8290SOL     OW36505   2.181   4.355  10.490 -0.1881  0.8816  0.2788
 8290SOL    HW136506   2.126   4.422  10.449 -0.1418  0.9462  0.3211
 8290SOL    HW236507   2.121   4.313  10.552  1.0314 -0.7907  0.3224
 8291SOL     OW36508   3.837   0.125   3.943 -0.3349  0.4681 -0.3311
 8291SOL    HW136509   3.921   0.170   3.928 -0.9651  1.0017 -2.2048
 8291SOL    HW236510   3.781   0.186   3.894 -0.3394  0.6323 -0.1219
 8292SOL     OW36511   3.470   4.136   8.308 -0.2817 -0.2110  0.7089
 8292SOL    HW136512   3.403   4.186   8.355 -0.8971 -0.0864 -0.2926
 8292SOL    HW236513   3.447   4.045   8.330 -0.7648 -0.4554 -0.7798
 8293SOL     OW36514   3.661   1.329  11.348  0.0332 -0.6035  0.0421
 8293SOL    HW136515   3.755   1.331  11.333  0.0422 -0.5874  0.1015
 8293SOL    HW236516   3.643   1.277  11.426 -2.7724  0.3542  0.0311
 8294SOL     OW36517   4.007   1.270  12.598  0.2788 -0.1318  0.1554
 8294SOL    HW136518   4.059   1.275  12.679  1.7558 -1.4843 -0.7316
 8294SOL    HW236519   4.071   1.296  12.532 -0.6185 -0.4322 -0.8359
 8295SOL     OW36520   1.154   2.677   2.329  0.1223 -0.3380 -0.1558
 8295SOL    HW136521   1.086   2.667   2.261  0.1562  0.0963 -0.2547
 8295SOL    HW236522   1.147   2.593   2.374 -2.1651 -0.2385 -0.3214
 8296SOL     OW36523   1.932   3.890   1.413 -0.8089 -0.2576 -0.5108
 8296SOL    HW136524   1.966   3.804   1.389 -1.1880 -0.4579 -0.3317
 8296SOL    HW236525   1.878   3.916   1.339  0.8680 -1.4735 -2.1677
 8297SOL     OW36526   0.389   2.718   7.690 -0.0312 -0.5542 -0.2698
 8297SOL    HW136527   0.310   2.672   7.661 -0.8269  0.0591  0.9241
 8297SOL    HW236528   0.350   2.773   7.759  0.4760 -0.3065 -0.1860
 8298SOL     OW36529   4.418   1.644  12.043  0.1678  0.7903  0.5752
 8298SOL    HW136530   4.417   1.737  12.021  0.4307  0.1363 -2.1512
 8298SOL    HW236531   4.475   1.640  12.120  0.4466 -2.1591  0.1992
 8299SOL     OW36532   4.473   1.481  12.464  0.4494  0.3044  0.0184
 8299SOL    HW136533   4.499   1.542  12.395  0.6715 -1.1588 -1.2124
 8299SOL    HW236534   4.556   1.443  12.494  0.9153  2.2842  1.1954
 8300SOL     OW36535   0.051   0.723   3.813 -0.6802  0.6562  0.2444
 8300SOL    HW136536   4.718   0.759   3.867 -1.5357 -3.5394  1.9091
 8300SOL    HW236537   0.114   0.795   3.815  1.9841 -1.6113 -1.0802
 8301SOL     OW36538   1.833   4.719   7.228 -0.0289  0.1569  0.5521
 8301SOL    HW136539   1.885   0.053   7.265 -0.3918  1.4065 -1.3210
 8301SOL    HW236540   1.844   4.642   7.284  0.8374  0.3820  0.6817
 8302SOL     OW36541   3.644   4.355  12.222  0.0485 -0.5344  0.0183
 8302SOL    HW136542   3.597   4.315  12.295 -1.4712 -1.4626 -1.4688
 8302SOL    HW236543   3.716   4.296  12.200 -0.1894 -0.5066 -0.8437
 8303SOL     OW36544   1.230   0.239   3.990  0.5347 -0.1915 -0.0868
 8303SOL    HW136545   1.310   0.191   4.010  1.3464  1.2775  0.1643
 8303SOL    HW236546   1.247   0.321   4.037  1.3234  0.1432 -0.9486
 8304SOL     OW36547   3.302   4.484  14.760  0.2101  0.4730 -0.2757
 8304SOL    HW136548   3.268   4.462  14.673  3.0065 -0.9892 -0.9988
 8304SOL    HW236549   3.243   4.558  14.770 -0.7363 -0.0755 -1.8527
 8305SOL     OW36550   1.013   1.767   8.515 -0.4978 -0.3453  0.2533
 8305SOL    HW136551   0.959   1.844   8.495  0.8636  0.8693  1.3078
 8305SOL    HW236552   1.066   1.762   8.435  0.0032  1.4465  0.4663
 8306SOL     OW36553   1.219   1.431   4.060 -0.1697  0.3266 -0.1355
 8306SOL    HW136554   1.157   1.445   4.131  0.1154  0.4631  0.0905
 8306SOL    HW236555   1.183   1.353   4.019 -2.4916  1.5545 -0.4382
 8307SOL     OW36556   4.321   0.891  10.486  1.0982 -0.3696  0.3452
 8307SOL    HW136557   4.387   0.933  10.431 -0.7402  0.1012 -1.5111
 8307SOL    HW236558   4.272   0.968  10.516  1.7567  0.6167 -1.1087
 8308SOL     OW36559   2.660   2.149  11.978 -0.4886  0.0895  0.3003
 8308SOL    HW136560   2.708   2.154  11.895  0.5710  0.5204  0.9373
 8308SOL    HW236561   2.733   2.156  12.040 -0.7830  0.2910  0.6233
 8309SOL     OW36562   1.269   0.652   3.662 -0.1612 -0.2655 -0.2924
 8309SOL    HW136563   1.320   0.573   3.642 -1.1172 -1.0768  0.4815
 8309SOL    HW236564   1.230   0.665   3.576 -1.8938 -1.1272  0.3601
 8310SOL     OW36565   4.094   3.527   1.962 -0.6494  0.2509 -0.4387
 8310SOL    HW136566   4.039   3.537   2.040 -0.8058 -0.7338 -0.4212
 8310SOL    HW236567   4.028   3.513   1.894 -0.0727 -3.2870 -0.2759
 8311SOL     OW36568   2.335   0.434  15.501  0.1607 -0.5905  0.0246
 8311SOL    HW136569   2.241   0.430  15.484  0.1917  2.2502 -0.8618
 8311SOL    HW236570   2.335   0.500  15.570  1.6450 -2.5901  1.9454
 8312SOL     OW36571   2.847   4.443  11.277 -0.0605 -0.3796  0.3836
 8312SOL    HW136572   2.791   4.520  11.285 -1.5474 -1.3708 -0.5600
 8312SOL    HW236573   2.922   4.480  11.230  0.0309  0.0194  0.8466
 8313SOL     OW36574   2.111   0.949   5.916  0.2305  0.6397  0.0370
 8313SOL    HW136575   2.162   0.869   5.927 -4.0265 -2.1534 -0.6237
 8313SOL    HW236576   2.135   1.001   5.992  1.8989  0.1524 -0.1620
 8314SOL     OW36577   0.245   2.262   0.314 -0.2033  0.5022  0.2586
 8314SOL    HW136578   0.188   2.211   0.256 -0.7085  2.1646 -0.6942
 8314SOL    HW236579   0.241   2.344   0.266  1.3795  1.5201  1.8741
 8315SOL     OW36580   2.095   2.647   7.991  1.0859 -0.2379  0.3481
 8315SOL    HW136581   2.069   2.729   7.950 -0.4851 -0.1464  1.5086
 8315SOL    HW236582   2.168   2.623   7.934  0.6053 -0.3745 -0.2120
 8316SOL     OW36583   3.013   3.786   3.981  0.9309 -0.4773 -0.2744
 8316SOL    HW136584   3.104   3.764   4.001  0.4343 -3.6580 -1.6033
 8316SOL    HW236585   3.037   3.842   3.908  0.9832 -1.7706 -1.2474
 8317SOL     OW36586   1.423   3.440   2.038  0.6226 -0.3183 -0.0680
 8317SOL    HW136587   1.496   3.381   2.020  2.0040  1.4695 -0.3628
 8317SOL    HW236588   1.459   3.529   2.038 -0.0109 -0.0730  1.3273
 8318SOL     OW36589   2.112   3.163   2.159  0.4050 -0.4257 -0.0259
 8318SOL    HW136590   2.025   3.161   2.200 -0.1832 -1.7950 -1.3136
 8318SOL    HW236591   2.137   3.071   2.162 -1.3769 -0.9908 -1.9875
 8319SOL     OW36592   3.739   4.628   3.995  0.4993 -0.5943 -0.5990
 8319SOL    HW136593   3.649   4.661   3.990  0.5100 -0.4103  0.4145
 8319SOL    HW236594   3.778   4.715   3.996 -1.1903  0.1326  1.7753
 8320SOL     OW36595   3.367   2.184   7.470  0.2235  0.4435 -0.1110
 8320SOL    HW136596   3.435   2.125   7.437 -1.5491 -1.2889 -0.6805
 8320SOL    HW236597   3.334   2.136   7.546  1.6985 -1.5514 -0.7407
 8321SOL     OW36598   2.362   0.301   3.368  0.2129  0.1945  1.0265
 8321SOL    HW136599   2.372   0.228   3.307  0.7308  0.3632  0.9150
 8321SOL    HW236600   2.435   0.277   3.424  0.2645 -1.0277  0.4413
 8322SOL     OW36601   1.585   2.516  13.202  0.0410  0.3780 -0.0656
 8322SOL    HW136602   1.677   2.501  13.178  0.3002 -0.8644  1.7493
 8322SOL    HW236603   1.569   2.582  13.134  1.0422 -0.4512 -1.1151
 8323SOL     OW36604   3.688   1.595  12.101 -0.3653 -0.0257 -0.2887
 8323SOL    HW136605   3.774   1.564  12.129 -0.5932 -1.4145 -1.1213
 8323SOL    HW236606   3.690   1.533  12.028  0.3974  0.8426 -0.9987
 8324SOL     OW36607   1.728   3.224   8.194 -0.3922  0.2429 -0.1959
 8324SOL    HW136608   1.766   3.241   8.108 -0.0304 -0.8524 -0.2536
 8324SOL    HW236609   1.756   3.133   8.201  3.6003  1.4592 -0.3669
 8325SOL     OW36610   3.340   3.755   5.235  0.0578  0.1809  0.3184
 8325SOL    HW136611   3.341   3.765   5.140 -0.3705 -2.0728  0.0664
 8325SOL    HW236612   3.378   3.837   5.266 -0.8232  0.7299 -0.0677
 8326SOL     OW36613   2.607   2.716   8.764  0.2745 -0.0500  0.1945
 8326SOL    HW136614   2.537   2.698   8.827 -1.0516  3.6175 -0.2360
 8326SOL    HW236615   2.619   2.626   8.734  0.2527 -0.5477  1.6580
 8327SOL     OW36616   2.013   2.361  14.875  0.8278  0.0748 -0.7522
 8327SOL    HW136617   2.066   2.439  14.891  1.3633 -0.4859  0.2385
 8327SOL    HW236618   2.078   2.308  14.829  0.7627 -0.1093 -0.6328
 8328SOL     OW36619   0.870   0.500   9.301 -0.0091  0.0355 -0.4099
 8328SOL    HW136620   0.822   0.515   9.220 -1.9473 -1.0967  0.5210
 8328SOL    HW236621   0.939   0.566   9.299  1.1763 -1.1668  0.4505
 8329SOL     OW36622   3.296   2.265   6.269  0.6890 -0.0261  0.3071
 8329SOL    HW136623   3.263   2.187   6.313 -1.4745  1.5225  1.4132
 8329SOL    HW236624   3.305   2.241   6.176 -1.2734  0.3931  0.0093
 8330SOL     OW36625   1.419   1.962   8.059 -0.0417 -0.2497 -0.4689
 8330SOL    HW136626   1.497   1.907   8.070 -0.0313 -0.3197 -0.9245
 8330SOL    HW236627   1.457   2.014   7.989  0.8507 -1.2788 -0.7511
 8331SOL     OW36628   0.951   0.504   9.770  0.0169 -0.4263  0.0197
 8331SOL    HW136629   0.897   0.496   9.691 -0.9527  0.1206  0.6255
 8331SOL    HW236630   0.940   0.593   9.804 -0.8921 -0.1028 -1.1189
 8332SOL     OW36631   3.724   4.222   4.284  0.2849  0.6898  0.2404
 8332SOL    HW136632   3.721   4.170   4.365  1.7880 -0.7207 -0.6053
 8332SOL    HW236633   3.694   4.163   4.215  1.1734 -0.3363  0.7293
 8333SOL     OW36634   4.187   2.766   2.860  0.1897  0.2493 -0.1874
 8333SOL    HW136635   4.132   2.707   2.911  1.0036  0.4736  0.9473
 8333SOL    HW236636   4.271   2.744   2.900  0.1327  0.4660  0.0488
 8334SOL     OW36637   2.243   0.937   6.827  0.1377 -0.1924 -0.3966
 8334SOL    HW136638   2.215   0.920   6.737  1.1894  0.0781 -0.7695
 8334SOL    HW236639   2.176   0.999   6.855 -1.4676 -2.1326  0.1200
 8335SOL     OW36640   0.941   2.299  11.685  0.4020  0.2154 -0.4363
 8335SOL    HW136641   0.987   2.253  11.615 -1.0833 -1.5621 -0.2596
 8335SOL    HW236642   0.855   2.321  11.649  0.5238 -2.4645 -2.4091
 8336SOL     OW36643   3.906   0.542  15.224 -0.2653  0.5868  0.2372
 8336SOL    HW136644   3.930   0.629  15.257 -2.0796  0.5028  1.8009
 8336SOL    HW236645   3.814   0.555  15.200  0.4450  0.4653 -2.5529
 8337SOL     OW36646   0.560   2.719   0.532  0.2142 -0.1047 -0.1166
 8337SOL    HW136647   0.496   2.750   0.597  0.9588 -1.8036  1.4316
 8337SOL    HW236648   0.516   2.643   0.494 -2.5489  1.4621 -0.1094
 8338SOL     OW36649   2.721   2.481  15.056 -0.4754 -0.4973  0.4017
 8338SOL    HW136650   2.629   2.455  15.051 -0.0687 -2.1917  2.0154
 8338SOL    HW236651   2.730   2.474  15.151 -0.2405 -0.2097  0.4022
 8339SOL     OW36652   0.476   0.635   2.703 -0.6409 -0.2842 -0.1628
 8339SOL    HW136653   0.410   0.586   2.752  0.2796 -0.5386  0.8282
 8339SOL    HW236654   0.501   0.709   2.759 -4.1266  0.9648 -0.2817
 8340SOL     OW36655   0.449   2.973   8.452  0.2960 -0.8929  0.2765
 8340SOL    HW136656   0.384   2.962   8.383  0.5723  0.3282 -0.1745
 8340SOL    HW236657   0.394   3.008   8.522 -2.5429 -2.8525 -0.9740
 8341SOL     OW36658   0.729   1.591   7.333  0.2701  0.0572  0.0247
 8341SOL    HW136659   0.801   1.566   7.390 -1.3665 -1.5967  1.3582
 8341SOL    HW236660   0.700   1.680   7.356 -1.8991 -0.5411 -0.4081
 8342SOL     OW36661   2.083   0.471   7.679  0.3146 -0.3275  0.3865
 8342SOL    HW136662   2.116   0.512   7.759 -0.1624 -0.3466  0.5965
 8342SOL    HW236663   2.034   0.545   7.642 -1.0893 -1.4685 -0.0132
 8343SOL     OW36664   3.181   2.343  11.261  0.2390 -0.1284 -0.1428
 8343SOL    HW136665   3.088   2.348  11.284  0.3654 -0.7882  0.4995
 8343SOL    HW236666   3.218   2.300  11.338  1.7432 -0.7957 -1.2357
 8344SOL     OW36667   2.754   1.829   4.264  0.4185 -0.0445  0.3027
 8344SOL    HW136668   2.842   1.860   4.287  0.7719 -1.1405  0.4128
 8344SOL    HW236669   2.760   1.852   4.171  0.0576  1.9093  0.7612
 8345SOL     OW36670   2.203   0.624   2.613 -0.1541  0.6727  0.2973
 8345SOL    HW136671   2.252   0.547   2.641 -1.3153 -0.0238  0.4163
 8345SOL    HW236672   2.277   0.673   2.576 -0.0870  1.3463  1.3328
 8346SOL     OW36673   4.454   3.491   3.842 -0.0253 -0.0822 -0.8126
 8346SOL    HW136674   4.361   3.511   3.832 -0.3071  0.0643  2.0451
 8346SOL    HW236675   4.461   3.428   3.770  0.3442  1.1339 -1.8464
 8347SOL     OW36676   2.898   1.755   2.432  0.0962  0.0807 -0.2209
 8347SOL    HW136677   2.978   1.772   2.381 -0.0656 -2.3474 -1.2687
 8347SOL    HW236678   2.853   1.680   2.393  0.1429  0.1598 -0.4266
 8348SOL     OW36679   0.022   3.425   6.987  0.3981 -0.2815 -0.0631
 8348SOL    HW136680   0.093   3.369   7.019 -0.1571 -0.3796  1.0026
 8348SOL    HW236681   0.016   3.501   7.044 -0.0546 -1.6121  1.6495
 8349SOL     OW36682   0.709   2.241   8.803 -0.2240 -0.3040 -0.2010
 8349SOL    HW136683   0.736   2.149   8.807 -0.6061 -0.5204 -2.5716
 8349SOL    HW236684   0.759   2.271   8.878  0.7856 -1.2452 -0.4884
 8350SOL     OW36685   2.295   2.991  14.518  0.7595 -0.9888  0.3857
 8350SOL    HW136686   2.238   3.031  14.452  2.8688  0.8278 -0.3542
 8350SOL    HW236687   2.246   3.011  14.598 -1.4598 -1.6745 -0.8097
 8351SOL     OW36688   3.878   0.446   7.058  0.2446 -0.1032  0.4271
 8351SOL    HW136689   3.839   0.485   7.137 -0.9311 -2.5402  1.0461
 8351SOL    HW236690   3.912   0.521   7.009  0.7590 -0.9638 -0.5289
 8352SOL     OW36691   2.358   3.520   7.628 -0.2425 -0.3305 -0.6430
 8352SOL    HW136692   2.399   3.531   7.543 -1.1493 -1.7217 -1.2454
 8352SOL    HW236693   2.421   3.551   7.693 -0.1981 -0.1571 -0.7666
 8353SOL     OW36694   0.323   2.690  10.684 -0.5799 -0.7097  0.8559
 8353SOL    HW136695   0.303   2.680  10.591 -0.2692  0.7411  0.6275
 8353SOL    HW236696   0.330   2.602  10.720  0.9808 -1.0662 -0.3256
 8354SOL     OW36697   4.320   3.716  14.997  0.0750 -0.5803 -0.7795
 8354SOL    HW136698   4.364   3.635  14.973 -2.0571 -2.4568  1.5433
 8354SOL    HW236699   4.229   3.686  14.999  0.0055 -0.3641 -0.6857
 8355SOL     OW36700   0.195   2.685   1.285 -0.3122  0.0017  0.4334
 8355SOL    HW136701   0.212   2.753   1.350 -0.1579  1.7753 -1.4983
 8355SOL    HW236702   0.268   2.702   1.227 -1.8514  1.2783 -1.1219
 8356SOL     OW36703   4.136   0.207   3.678  0.1378 -0.5144  0.5350
 8356SOL    HW136704   4.097   0.234   3.760 -0.9014  0.0049 -0.1390
 8356SOL    HW236705   4.119   0.275   3.612  2.7982 -0.2706  0.0729
 8357SOL     OW36706   4.556   1.106   3.980 -0.0953  0.2595 -0.0459
 8357SOL    HW136707   4.495   1.162   4.027 -1.7574 -0.5849 -1.1859
 8357SOL    HW236708   4.625   1.109   4.046  0.0981  2.6858 -0.3667
 8358SOL     OW36709   4.459   2.724   4.683  0.1590 -0.4738  0.3777
 8358SOL    HW136710   4.382   2.766   4.644 -0.9591 -1.2972  1.6700
 8358SOL    HW236711   4.472   2.774   4.764 -0.5003 -0.1546  0.2832
 8359SOL     OW36712   3.538   3.204   2.667  0.6797 -0.3550 -0.0387
 8359SOL    HW136713   3.525   3.239   2.579 -0.6998 -0.0617  0.2820
 8359SOL    HW236714   3.473   3.249   2.720  1.2895  0.2916  0.1484
 8360SOL     OW36715   3.686   4.243   3.938  0.4444  0.3735 -0.0990
 8360SOL    HW136716   3.701   4.154   3.969 -0.5966  0.5579  0.9550
 8360SOL    HW236717   3.598   4.253   3.975 -0.0825 -1.3517 -0.8908
 8361SOL     OW36718   0.037   1.346  13.407  0.1261 -0.1993  0.4350
 8361SOL    HW136719   0.131   1.359  13.420  0.8104 -0.1794 -4.4705
 8361SOL    HW236720   0.006   1.308  13.489 -3.8663  2.5008  0.1441
 8362SOL     OW36721   0.012   3.329   5.074 -0.0702  0.1206  0.5431
 8362SOL    HW136722   0.072   3.361   5.141  0.7377  1.0365 -0.6234
 8362SOL    HW236723   4.681   3.290   5.129 -0.5099 -1.3282 -1.0229
 8363SOL     OW36724   2.658   3.101   9.335 -0.0188 -0.1058 -0.0274
 8363SOL    HW136725   2.637   3.164   9.404 -0.5990  1.6733 -1.8075
 8363SOL    HW236726   2.742   3.063   9.360  0.2544  0.1097 -0.6188
 8364SOL     OW36727   3.103   3.097   8.104  0.1423 -0.3689 -0.3759
 8364SOL    HW136728   3.187   3.099   8.149 -0.7434 -1.1535  1.3538
 8364SOL    HW236729   3.082   3.004   8.097  1.7606 -0.7192 -0.4706
 8365SOL     OW36730   0.886   4.666   5.921  0.1703 -0.3105 -0.1160
 8365SOL    HW136731   0.924   0.017   5.918  0.5066 -0.5257 -2.4887
 8365SOL    HW236732   0.834   4.670   6.000  0.0327 -2.0258 -0.1374
 8366SOL     OW36733   3.502   4.067  11.282 -0.3776  0.5742 -0.5331
 8366SOL    HW136734   3.422   4.089  11.329 -0.7172 -2.0457  0.1339
 8366SOL    HW236735   3.498   4.132  11.212  1.0073  1.7129  0.4471
 8367SOL     OW36736   4.188   3.309   4.402 -0.3440 -0.2978 -0.4291
 8367SOL    HW136737   4.191   3.369   4.328 -0.1978  0.5317  0.2483
 8367SOL    HW236738   4.257   3.353   4.452 -1.2427 -0.3994  0.9080
 8368SOL     OW36739   3.153   2.767   4.156 -0.6807  0.3906 -0.3862
 8368SOL    HW136740   3.192   2.849   4.125  0.4946  0.1805  0.5639
 8368SOL    HW236741   3.059   2.782   4.167 -0.4218  1.2296  0.6129
 8369SOL     OW36742   0.047   3.602   2.753 -0.1520  0.5369  0.4151
 8369SOL    HW136743   4.691   3.619   2.737  0.2810  2.5985  0.1219
 8369SOL    HW236744   0.070   3.564   2.669  0.4627  1.0093  0.3735
 8370SOL     OW36745   2.864   4.190   0.622  0.4868  0.0529  0.3990
 8370SOL    HW136746   2.913   4.218   0.544  0.6704 -0.4411  0.3329
 8370SOL    HW236747   2.907   4.246   0.686  0.6817 -1.8364  1.8989
 8371SOL     OW36748   4.443   1.556  16.649  0.2826  0.2059  0.2867
 8371SOL    HW136749   4.493   1.588  16.724  0.3612 -0.0881  0.3580
 8371SOL    HW236750   4.366   1.611  16.659 -0.7666 -1.3890  0.9324
 8372SOL     OW36751   3.274   0.581   0.531 -0.3807 -0.3256  0.7199
 8372SOL    HW136752   3.234   0.617   0.610 -0.3455 -0.3599  0.7535
 8372SOL    HW236753   3.288   0.494   0.569 -0.6396  0.3097  2.2400
 8373SOL     OW36754   1.851   1.372  10.968  0.4975  0.1205  0.2534
 8373SOL    HW136755   1.841   1.392  11.061  0.4941 -1.9568  0.7189
 8373SOL    HW236756   1.912   1.298  10.974 -0.7488 -0.9439 -0.0957
 8374SOL     OW36757   0.817   3.919  17.275 -0.5692 -0.0269 -0.0992
 8374SOL    HW136758   0.843   3.864  17.202  1.4573  1.2479 -0.3260
 8374SOL    HW236759   0.762   3.979  17.224 -3.3079 -0.4920  2.2601
 8375SOL     OW36760   1.840   3.144   9.076 -0.2038  0.1132  0.1562
 8375SOL    HW136761   1.755   3.164   9.115 -0.5585  0.6082 -0.8575
 8375SOL    HW236762   1.883   3.097   9.148 -1.8081 -1.8902 -0.1877
 8376SOL     OW36763   3.114   2.069   8.917  0.2041 -0.5815  0.3772
 8376SOL    HW136764   3.185   2.075   8.853  1.5728 -1.6866  1.8178
 8376SOL    HW236765   3.164   2.029   8.987  0.7072  0.6753  0.7266
 8377SOL     OW36766   3.075   3.809   8.526  0.0764  0.3653 -0.3010
 8377SOL    HW136767   3.003   3.799   8.464 -0.3323 -0.8637  0.3666
 8377SOL    HW236768   3.042   3.758   8.600 -0.6799 -1.4838 -1.9228
 8378SOL     OW36769   2.908   4.386  10.685  0.0122 -0.4549 -0.2071
 8378SOL    HW136770   2.860   4.405  10.765  1.1318  1.4896  0.0014
 8378SOL    HW236771   2.862   4.310  10.650 -0.0224 -0.7636  0.5290
 8379SOL     OW36772   3.311   3.027   1.757  0.3653 -0.3002  0.0718
 8379SOL    HW136773   3.277   3.025   1.668 -2.3451 -0.8956  1.1181
 8379SOL    HW236774   3.297   2.936   1.785  0.2843 -1.0526 -2.4112
 8380SOL     OW36775   4.588   2.926   1.275 -0.1494  0.1910 -0.1460
 8380SOL    HW136776   4.588   3.014   1.236  0.6835  0.3049  0.1134
 8380SOL    HW236777   4.568   2.949   1.366 -0.6634  0.6031 -0.3621
 8381SOL     OW36778   3.404   4.226  17.522 -0.0502 -0.3595 -0.3453
 8381SOL    HW136779   3.337   4.176  17.476  0.3872  0.0648 -1.4360
 8381SOL    HW236780   3.350   4.273  17.585  0.4134 -1.4683  0.9049
 8382SOL     OW36781   4.422   3.509   6.336 -0.1859  0.3123  0.6177
 8382SOL    HW136782   4.444   3.588   6.286 -0.6761  0.4976  0.6909
 8382SOL    HW236783   4.424   3.546   6.424  2.8152  3.7069 -0.8783
 8383SOL     OW36784   3.157   4.647  16.132 -0.4534 -0.5290  0.1319
 8383SOL    HW136785   3.118   4.670  16.048  1.7099  2.8447  0.0564
 8383SOL    HW236786   3.098   4.698  16.188 -1.5045  1.2209 -2.5853
 8384SOL     OW36787   2.289   3.126  11.947 -0.1489  0.3132  0.0177
 8384SOL    HW136788   2.368   3.077  11.925  0.1513  1.4360 -1.3690
 8384SOL    HW236789   2.328   3.176  12.019  0.8785  0.7137 -0.8210
 8385SOL     OW36790   2.687   1.180   0.487 -0.0998  0.3735 -0.2965
 8385SOL    HW136791   2.666   1.165   0.579 -0.6221 -2.4531 -0.8748
 8385SOL    HW236792   2.780   1.158   0.491 -0.6909 -1.8714  1.3389
 8386SOL     OW36793   4.461   0.703  11.236 -0.3043 -0.0495 -0.3172
 8386SOL    HW136794   4.510   0.783  11.221 -0.6276  0.5865  2.1254
 8386SOL    HW236795   4.526   0.638  11.208 -0.3834 -0.4451  0.4412
 8387SOL     OW36796   2.698   4.445   4.936 -0.1953 -0.5607  0.1584
 8387SOL    HW136797   2.668   4.531   4.967  0.4066  0.6516 -2.6221
 8387SOL    HW236798   2.769   4.421   4.996  0.4993 -1.6826 -1.1276
 8388SOL     OW36799   0.243   4.007   9.722  0.1451 -0.1332  0.1519
 8388SOL    HW136800   0.332   3.980   9.703 -0.4432 -1.2648 -1.0366
 8388SOL    HW236801   0.258   4.096   9.756  0.2485 -0.7459  1.6795
 8389SOL     OW36802   2.765   2.742   3.923 -0.3320 -0.1760  0.3477
 8389SOL    HW136803   2.736   2.830   3.902 -1.5327 -0.7061 -0.2424
 8389SOL    HW236804   2.685   2.697   3.951  0.0833 -1.6049 -0.7508
 8390SOL     OW36805   0.160   2.897   7.737  0.7109 -0.5711  0.8882
 8390SOL    HW136806   0.120   2.975   7.775  1.4633  0.2269  0.0360
 8390SOL    HW236807   0.087   2.835   7.731  0.6770 -0.5355  0.9307
 8391SOL     OW36808   3.579   1.792   2.677 -0.1753  0.1191 -0.2765
 8391SOL    HW136809   3.643   1.806   2.608  1.9250 -2.9600  1.0687
 8391SOL    HW236810   3.570   1.880   2.715  1.0043  0.5375 -0.9750
 8392SOL     OW36811   0.592   2.383   5.979 -0.3292 -0.7687 -0.3059
 8392SOL    HW136812   0.547   2.412   5.900  0.2259  2.4967  0.5472
 8392SOL    HW236813   0.603   2.291   5.955  2.7910 -0.1443 -1.2716
 8393SOL     OW36814   3.724   1.708  15.381 -0.4738  0.1085  0.0992
 8393SOL    HW136815   3.784   1.651  15.334  0.9011 -0.9396  3.1328
 8393SOL    HW236816   3.761   1.794  15.358 -2.1652  0.5191 -1.1180
 8394SOL     OW36817   3.428   1.100   7.595 -0.2078  0.6862 -0.5890
 8394SOL    HW136818   3.442   1.010   7.625  0.8900  0.6985 -1.0639
 8394SOL    HW236819   3.399   1.154   7.669  0.3144  3.4696 -2.4227
 8395SOL     OW36820   4.354   1.351   6.511 -0.3174  0.5042  0.2196
 8395SOL    HW136821   4.261   1.354   6.533 -0.9073 -0.5647 -2.1045
 8395SOL    HW236822   4.386   1.303   6.588  2.4130  0.5408 -0.8652
 8396SOL     OW36823   1.460   1.912   6.944 -0.1459 -0.1793 -0.2092
 8396SOL    HW136824   1.482   1.912   6.851 -1.2417 -0.5351 -0.4730
 8396SOL    HW236825   1.416   1.827   6.946 -0.7951  0.1673  0.4095
 8397SOL     OW36826   0.015   2.062   1.932 -0.6381  0.2007 -0.3849
 8397SOL    HW136827   0.015   1.966   1.940 -2.3573  0.4665  2.9131
 8397SOL    HW236828   0.107   2.084   1.918 -0.2033 -0.1421  1.9567
 8398SOL     OW36829   1.552   4.110  15.205 -0.5972  0.2475 -0.5701
 8398SOL    HW136830   1.521   4.073  15.123  0.2973 -0.3962 -0.6185
 8398SOL    HW236831   1.547   4.042  15.273  1.2863 -0.0446 -0.7260
 8399SOL     OW36832   0.689   0.627   2.101  0.4593  0.0383 -0.8642
 8399SOL    HW136833   0.720   0.617   2.191 -1.1082  0.8222 -0.2440
 8399SOL    HW236834   0.701   0.721   2.090 -0.1453  0.1843 -0.2322
 8400SOL     OW36835   2.685   2.233   6.323 -0.5701  0.2704 -0.2354
 8400SOL    HW136836   2.619   2.220   6.391 -0.9456  3.5662  0.0047
 8400SOL    HW236837   2.711   2.141   6.310 -1.6439 -0.0348 -0.1835
 8401SOL     OW36838   0.282   1.476  13.751 -0.1102  0.4866  0.4086
 8401SOL    HW136839   0.292   1.417  13.676 -2.7598  1.1713 -0.4868
 8401SOL    HW236840   0.195   1.510  13.730  0.8234  3.4996  1.3487
 8402SOL     OW36841   0.871   2.595   4.975 -0.4554  0.0174  0.9066
 8402SOL    HW136842   0.956   2.638   4.984  0.3721 -1.3693 -0.3140
 8402SOL    HW236843   0.855   2.554   5.060  0.1092 -0.1196  0.9471
 8403SOL     OW36844   1.797   0.027  14.556 -0.4002 -0.6824 -0.5621
 8403SOL    HW136845   1.835   0.079  14.485 -0.9368  0.8336  0.2710
 8403SOL    HW236846   1.741   0.092  14.598 -1.1527 -1.7533  0.0840
 8404SOL     OW36847   4.726   2.615  12.886 -0.2476 -0.2397  0.1549
 8404SOL    HW136848   0.051   2.583  12.821  1.1232  2.9305 -0.0827
 8404SOL    HW236849   0.004   2.560  12.963  1.2469  1.1189  0.8319
 8405SOL     OW36850   3.227   0.176   6.173  0.1505 -0.0973 -0.3136
 8405SOL    HW136851   3.198   0.214   6.256 -1.2328  1.5892 -1.5672
 8405SOL    HW236852   3.166   0.103   6.166  0.7804 -0.6256 -0.3185
 8406SOL     OW36853   3.366   2.275   4.855 -0.0122 -0.1577  0.0791
 8406SOL    HW136854   3.440   2.215   4.848  0.6275  0.4389  1.7576
 8406SOL    HW236855   3.310   2.229   4.917  1.5168  1.9795  3.0335
 8407SOL     OW36856   0.270   3.367   2.660  0.0689 -0.0702  0.5418
 8407SOL    HW136857   0.328   3.417   2.717 -0.2099 -0.0543  0.8084
 8407SOL    HW236858   0.213   3.431   2.618  0.2212  0.7626  1.6172
 8408SOL     OW36859   2.476   0.573  11.849  0.6379  0.3539 -0.0561
 8408SOL    HW136860   2.568   0.552  11.865  0.4648 -0.4082 -0.0832
 8408SOL    HW236861   2.474   0.667  11.831 -1.6702  0.3072 -0.1031
 8409SOL     OW36862   0.283   0.552   5.863  0.0648 -0.4623 -0.1577
 8409SOL    HW136863   0.325   0.490   5.923  1.3631 -0.9912 -1.6094
 8409SOL    HW236864   0.250   0.503   5.788  0.2207 -2.3446  1.0022
 8410SOL     OW36865   1.520   3.618   3.097 -0.4845  0.4762  0.2131
 8410SOL    HW136866   1.465   3.540   3.087  0.9505 -0.3916 -0.9463
 8410SOL    HW236867   1.465   3.680   3.048  0.6746 -0.2574 -2.0327
 8411SOL     OW36868   3.763   1.327   8.115 -0.2822 -0.0216  0.0755
 8411SOL    HW136869   3.762   1.292   8.026 -0.8622  0.4383 -0.0994
 8411SOL    HW236870   3.846   1.376   8.117 -0.6959  0.6405  1.0722
 8412SOL     OW36871   0.991   2.263   7.506 -0.7675  0.2313  0.0942
 8412SOL    HW136872   0.961   2.174   7.487  1.4609 -0.0940 -2.0488
 8412SOL    HW236873   0.912   2.306   7.475 -0.9909  0.4831  1.0166
 8413SOL     OW36874   0.055   0.989   9.390  0.0899  0.3255 -0.2055
 8413SOL    HW136875   4.715   1.023   9.344 -0.3116 -0.3827 -0.0543
 8413SOL    HW236876   0.109   1.068   9.398 -0.0100  0.1118  2.6641
 8414SOL     OW36877   3.767   0.912   3.922 -0.1188  0.5410 -0.8328
 8414SOL    HW136878   3.773   0.949   4.010  2.2505 -3.7347  0.7750
 8414SOL    HW236879   3.701   0.968   3.880 -0.7158  1.2346  1.0228
 8415SOL     OW36880   0.404   3.306   8.607 -0.2624  0.4615  0.6295
 8415SOL    HW136881   0.449   3.381   8.568 -1.0079  0.2616 -0.5909
 8415SOL    HW236882   0.466   3.266   8.669 -0.8729  1.1855  1.7223
 8416SOL     OW36883   0.247   2.108  14.259  0.4010  0.1010  0.1068
 8416SOL    HW136884   0.192   2.156  14.197 -0.8984 -1.5395 -0.0419
 8416SOL    HW236885   0.177   2.105  14.324 -0.3011  0.8434 -0.6161
 8417SOL     OW36886   1.441   2.592  14.017 -0.2589  0.4934 -0.8762
 8417SOL    HW136887   1.393   2.541  13.952 -0.0961 -0.4610 -0.2446
 8417SOL    HW236888   1.525   2.599  13.970  0.8478 -0.6183  0.9372
 8418SOL     OW36889   1.786   1.703   0.265 -0.1727 -0.1723 -0.0942
 8418SOL    HW136890   1.752   1.689   0.354 -0.2943 -0.8736 -0.2537
 8418SOL    HW236891   1.704   1.736   0.229  0.8524  1.9891 -0.4844
 8419SOL     OW36892   4.444   0.360  10.683  0.4256  0.7502 -0.3550
 8419SOL    HW136893   4.367   0.336  10.632 -0.0116 -0.7498  1.0009
 8419SOL    HW236894   4.491   0.278  10.701 -0.7805 -0.0083 -0.7335
 8420SOL     OW36895   0.197   4.011   2.689 -0.0133 -0.1241 -0.0325
 8420SOL    HW136896   0.149   4.010   2.772  1.2060  3.6144  0.7325
 8420SOL    HW236897   0.265   3.945   2.702 -0.9553 -0.9863  0.4937
 8421SOL     OW36898   0.480   2.448   8.861 -0.2670 -0.5415  0.1602
 8421SOL    HW136899   0.392   2.432   8.826 -0.7171 -2.6975  2.2094
 8421SOL    HW236900   0.537   2.460   8.785 -2.3990  2.0909 -1.0101
 8422SOL     OW36901   0.252   2.468   8.468 -0.1036 -0.1743  0.4357
 8422SOL    HW136902   0.164   2.506   8.465  0.4223  0.9691 -0.8200
 8422SOL    HW236903   0.284   2.507   8.387 -0.9100 -3.2925 -1.3600
 8423SOL     OW36904   2.077   2.882   8.645 -0.1089  0.0637  0.6754
 8423SOL    HW136905   2.109   2.919   8.726  3.3850  0.3480 -0.8632
 8423SOL    HW236906   1.997   2.836   8.671 -0.2079  0.1058  0.4479
 8424SOL     OW36907   2.699   2.981  17.504 -0.2828 -0.3589  0.6606
 8424SOL    HW136908   2.719   2.897  17.545 -1.5205  0.2025  2.4328
 8424SOL    HW236909   2.648   2.951  17.429 -0.6591  1.0707  0.3355
 8425SOL     OW36910   1.449   3.872   9.409  0.2701  0.1422 -0.4620
 8425SOL    HW136911   1.446   3.921   9.491  2.0399 -1.1877  0.4056
 8425SOL    HW236912   1.507   3.924   9.353  3.0326 -2.7205 -0.3051
 8426SOL     OW36913   1.530   0.905   3.737  0.1944 -0.5568  0.1288
 8426SOL    HW136914   1.449   0.857   3.720 -0.0332 -0.8950  2.0979
 8426SOL    HW236915   1.575   0.907   3.653 -1.0567  0.9997 -0.4877
 8427SOL     OW36916   4.001   0.603   5.404 -0.0332 -0.4958 -0.2754
 8427SOL    HW136917   4.057   0.565   5.336  0.7081 -1.2073  0.7450
 8427SOL    HW236918   4.030   0.558   5.483  3.6847 -0.0091 -1.3698
 8428SOL     OW36919   3.363   2.092   0.542  0.9668 -1.2588  0.6200
 8428SOL    HW136920   3.394   2.123   0.456 -1.8301 -1.8482 -0.6116
 8428SOL    HW236921   3.350   2.004   0.507 -2.4443 -1.5802  2.7954
 8429SOL     OW36922   1.552   1.049   7.601  0.1236  0.2230 -0.1264
 8429SOL    HW136923   1.473   1.051   7.654 -0.0272 -2.4648 -0.2380
 8429SOL    HW236924   1.542   1.135   7.560  1.4254 -0.5798 -2.1441
 8430SOL     OW36925   1.475   1.663   8.931  0.0500 -0.1972  0.0643
 8430SOL    HW136926   1.488   1.587   8.874  0.2307 -0.9349  1.0836
 8430SOL    HW236927   1.525   1.618   9.000  0.2152 -0.8640 -0.4862
 8431SOL     OW36928   4.034   0.299   2.653 -0.0366  0.8490 -0.5430
 8431SOL    HW136929   4.101   0.362   2.627  1.9585 -0.9849  0.2253
 8431SOL    HW236930   4.082   0.244   2.715  0.8360 -0.5031 -2.4253
 8432SOL     OW36931   4.596   4.295   6.984 -0.5867  0.1203 -0.0855
 8432SOL    HW136932   4.644   4.215   7.003 -1.7784 -0.5928 -0.0372
 8432SOL    HW236933   4.663   4.351   7.023 -1.7685  2.4970 -1.4384
 8433SOL     OW36934   3.285   1.286   6.652  0.1646 -0.4297 -0.0099
 8433SOL    HW136935   3.300   1.296   6.746 -2.6631  3.6761 -0.0244
 8433SOL    HW236936   3.274   1.378   6.629 -0.3533 -0.2597  0.9508
 8434SOL     OW36937   3.130   2.466   4.618 -0.1061  0.2241 -0.3224
 8434SOL    HW136938   3.139   2.511   4.534 -0.2914  0.3166 -0.2910
 8434SOL    HW236939   3.166   2.528   4.682  0.9409 -0.1375 -0.5606
 8435SOL     OW36940   2.016   2.502   8.633 -0.3683 -0.3452  0.4159
 8435SOL    HW136941   2.085   2.460   8.581 -3.2418 -2.0584 -2.0343
 8435SOL    HW236942   2.065   2.559   8.691  0.6168 -1.0533  0.2731
 8436SOL     OW36943   1.639   1.809   5.870 -0.2910 -0.7403  0.7045
 8436SOL    HW136944   1.591   1.737   5.831  1.7223 -1.0160 -1.2867
 8436SOL    HW236945   1.598   1.802   5.956 -0.9713 -0.3144  0.4162
 8437SOL     OW36946   1.260   3.317   8.566  0.1020  0.5143  0.1064
 8437SOL    HW136947   1.335   3.307   8.507  0.1848  1.4659  0.0511
 8437SOL    HW236948   1.251   3.412   8.565 -0.3425  0.4846  1.0885
 8438SOL     OW36949   2.243   2.751   4.153  0.1042 -0.1754 -0.5611
 8438SOL    HW136950   2.326   2.791   4.178 -0.2814  0.8906 -1.0012
 8438SOL    HW236951   2.176   2.790   4.208  0.9870 -2.9943  2.5063
 8439SOL     OW36952   2.684   1.226  12.832  0.1016  0.7979  0.0078
 8439SOL    HW136953   2.676   1.149  12.775  2.5601 -1.1529  2.2859
 8439SOL    HW236954   2.598   1.220  12.873  0.2251  2.6810  0.5121
 8440SOL     OW36955   0.314   4.254   8.262  0.0639  0.3920  0.2782
 8440SOL    HW136956   0.319   4.215   8.349 -0.3845  0.5323  0.3667
 8440SOL    HW236957   0.295   4.184   8.201  4.0504  0.2801 -0.8163
 8441SOL     OW36958   4.478   2.611   8.245  0.1959 -0.7746  0.0539
 8441SOL    HW136959   4.435   2.557   8.310  2.0423 -0.9732  1.1187
 8441SOL    HW236960   4.517   2.672   8.308 -1.3352 -1.2759  1.4658
 8442SOL     OW36961   2.976   0.630  12.755 -0.8162 -0.2169  0.3582
 8442SOL    HW136962   2.911   0.655  12.690 -0.0636  2.2175  0.5417
 8442SOL    HW236963   2.981   0.713  12.803 -1.2547 -0.6932  1.2136
 8443SOL     OW36964   3.245   2.142  11.960  0.1839  0.3357 -0.6017
 8443SOL    HW136965   3.270   2.199  12.033  1.1395 -1.8977  0.8253
 8443SOL    HW236966   3.177   2.099  12.012 -0.6436  0.5576 -1.5058
 8444SOL     OW36967   3.171   2.732  15.977 -0.9331 -0.3228 -0.2471
 8444SOL    HW136968   3.185   2.791  16.052  1.2501  0.0435 -0.9250
 8444SOL    HW236969   3.143   2.789  15.905  0.7936  0.7515 -0.0924
 8445SOL     OW36970   1.394   1.198   6.172  0.1491 -0.0261 -0.3433
 8445SOL    HW136971   1.377   1.103   6.170 -0.8745  0.1468  0.2013
 8445SOL    HW236972   1.366   1.210   6.081  0.0046 -1.1269 -0.4543
 8446SOL     OW36973   0.989   0.253  16.262 -0.1621  0.6083  0.2794
 8446SOL    HW136974   0.935   0.298  16.196 -1.4422  1.1051  1.6659
 8446SOL    HW236975   0.919   0.224  16.320 -0.7831 -0.4060 -0.9583
 8447SOL     OW36976   2.604   4.310   8.400 -0.5026 -0.3689 -0.4224
 8447SOL    HW136977   2.667   4.289   8.331  1.1209  1.9108  0.3457
 8447SOL    HW236978   2.660   4.289   8.474 -0.0115  1.4397 -0.2679
 8448SOL     OW36979   1.675   3.575   8.008  0.1283  0.4581 -0.2606
 8448SOL    HW136980   1.589   3.599   8.041  0.3902 -1.1730  1.5679
 8448SOL    HW236981   1.661   3.579   7.913 -0.3805  0.5902 -0.1777
 8449SOL     OW36982   2.185   1.433   9.814 -0.6276  0.1569  0.6810
 8449SOL    HW136983   2.200   1.524   9.838 -0.0135  0.1106  0.4639
 8449SOL    HW236984   2.242   1.385   9.874 -1.1207  0.8804  1.7174
 8450SOL     OW36985   4.101   2.559   4.835  0.0369  0.5832  0.4264
 8450SOL    HW136986   4.010   2.541   4.859  0.1375 -2.0102 -1.1365
 8450SOL    HW236987   4.077   2.633   4.778  1.0388 -0.6805 -1.6390
 8451SOL     OW36988   3.991   1.184   6.337 -0.0965  0.1137 -0.2065
 8451SOL    HW136989   4.036   1.231   6.408  0.4037  1.5463 -1.4594
 8451SOL    HW236990   3.977   1.256   6.275  0.5538 -0.8378 -1.4543
 8452SOL     OW36991   4.659   3.940   0.706 -0.2379 -0.2516 -0.2348
 8452SOL    HW136992   4.590   3.876   0.690  1.3459 -1.6667 -1.4171
 8452SOL    HW236993   4.622   4.026   0.686  3.0192  1.2246  0.1412
 8453SOL     OW36994   3.557   0.331   8.516 -0.1780  0.1230 -0.1020
 8453SOL    HW136995   3.520   0.342   8.429 -1.5971  1.3734  0.6548
 8453SOL    HW236996   3.507   0.251   8.534  2.1813 -1.7564 -1.9546
 8454SOL     OW36997   0.749   3.517   5.053 -0.2837  0.7213 -0.0168
 8454SOL    HW136998   0.832   3.552   5.087  1.1036 -1.4783 -1.0981
 8454SOL    HW236999   0.773   3.426   5.034 -2.6813 -0.3954  2.3880
 8455SOL     OW37000   0.780   4.044   3.885  0.2052  0.3994  0.1024
 8455SOL    HW137001   0.690   4.033   3.914 -1.3263  2.2778 -3.8558
 8455SOL    HW237002   0.767   4.127   3.839 -0.6406 -0.5943 -1.4747
 8456SOL     OW37003   1.388   2.759   6.000  0.7080  0.1137 -0.1180
 8456SOL    HW137004   1.312   2.732   6.052 -0.2526  1.2249 -0.9485
 8456SOL    HW237005   1.386   2.853   6.016  0.2325  0.3486 -1.5439
 8457SOL     OW37006   1.796   3.840  15.169 -0.0858  0.1673  0.3151
 8457SOL    HW137007   1.734   3.842  15.242  0.2578  0.0703  0.6143
 8457SOL    HW237008   1.874   3.887  15.199 -0.0374 -0.3735  1.0632
 8458SOL     OW37009   3.141   3.981   4.532 -0.4630  0.3730  0.4488
 8458SOL    HW137010   3.139   4.076   4.532  2.1116  0.4145  2.0914
 8458SOL    HW237011   3.226   3.965   4.491 -1.6506 -0.4345 -1.7006
 8459SOL     OW37012   1.460   0.970  14.786 -0.1214  0.0498 -0.2297
 8459SOL    HW137013   1.528   0.923  14.835 -0.9344 -1.9417 -1.0287
 8459SOL    HW237014   1.507   1.034  14.732  0.5088  2.1231  2.7515
 8460SOL     OW37015   1.890   3.679   8.454 -0.6373  0.6600  0.4155
 8460SOL    HW137016   1.889   3.722   8.368  0.0886  0.9867  0.5681
 8460SOL    HW237017   1.980   3.701   8.480 -0.9491 -0.1485  2.1459
 8461SOL     OW37018   4.212   0.715  14.320  0.1834  0.6034  0.2532
 8461SOL    HW137019   4.226   0.790  14.379 -1.0262 -0.2974  1.7054
 8461SOL    HW237020   4.280   0.722  14.254  0.2046  3.6494  0.5861
 8462SOL     OW37021   1.933   3.839  11.975  0.0423 -0.4331  0.0730
 8462SOL    HW137022   1.893   3.922  11.948 -1.7139 -1.2948 -0.0274
 8462SOL    HW237023   1.990   3.878  12.041 -1.0192 -1.3021  1.5234
 8463SOL     OW37024   4.490   3.996   8.721 -0.3168 -0.3247 -0.3360
 8463SOL    HW137025   4.398   3.991   8.747 -0.4880  2.5977 -0.4678
 8463SOL    HW237026   4.533   3.923   8.767  1.3773 -0.4131 -2.0779
 8464SOL     OW37027   1.333   1.441   3.021  0.1832  0.1776  0.0865
 8464SOL    HW137028   1.419   1.435   2.979  0.5079  1.4931  0.5672
 8464SOL    HW237029   1.293   1.493   2.951 -0.0703  1.1542  0.9639
 8465SOL     OW37030   2.558   3.801  17.192 -0.6807 -0.5518  0.3471
 8465SOL    HW137031   2.591   3.826  17.106 -0.1806 -0.8942  0.4411
 8465SOL    HW237032   2.500   3.729  17.165  1.1282 -1.0910 -2.0210
 8466SOL     OW37033   4.351   0.349   7.042  0.4648 -0.4396  0.7616
 8466SOL    HW137034   4.396   0.282   6.989 -2.0317 -0.8456 -0.8656
 8466SOL    HW237035   4.407   0.337   7.119 -0.9219  1.3979  2.0505
 8467SOL     OW37036   1.423   2.706   3.582 -0.4492  0.0035  0.0009
 8467SOL    HW137037   1.386   2.638   3.525 -0.4378 -0.2945  0.3437
 8467SOL    HW237038   1.496   2.658   3.622 -0.9832 -0.6942  0.1446
 8468SOL     OW37039   2.103   4.326   4.984  1.1410 -0.8638  0.1843
 8468SOL    HW137040   2.151   4.324   4.901  2.7411  0.5415  1.0657
 8468SOL    HW237041   2.096   4.232   5.000 -2.9167 -0.4766  0.7035
 8469SOL     OW37042   1.773   4.646   7.732 -0.1111 -0.1273  0.6063
 8469SOL    HW137043   1.765   0.003   7.713 -1.3038 -0.2316  0.5875
 8469SOL    HW237044   1.791   4.639   7.826  1.8315  2.0209  0.3977
 8470SOL     OW37045   2.615   3.669   1.984  0.7261 -0.0332  0.1780
 8470SOL    HW137046   2.527   3.670   1.946  0.5040  2.6404  0.7587
 8470SOL    HW237047   2.596   3.726   2.059 -1.5520 -1.3425  0.6054
 8471SOL     OW37048   4.159   2.690   5.530 -0.7229  0.0463  0.0452
 8471SOL    HW137049   4.141   2.621   5.593  0.9569 -1.2285 -0.8468
 8471SOL    HW237050   4.078   2.679   5.481  0.0086  1.6427 -1.5566
 8472SOL     OW37051   0.712   1.296   0.424 -0.2272 -0.1508  0.6824
 8472SOL    HW137052   0.777   1.262   0.485  0.5676  1.1158  0.5363
 8472SOL    HW237053   0.661   1.358   0.477 -1.1932  1.0211 -1.6022
 8473SOL     OW37054   4.568   2.165   4.174 -0.1264  0.4904  0.5406
 8473SOL    HW137055   4.610   2.079   4.174 -0.6591  0.2299 -0.0908
 8473SOL    HW237056   4.522   2.157   4.257 -0.5255  1.4328  0.4056
 8474SOL     OW37057   2.906   1.985   2.202  0.3320 -0.1865 -0.2201
 8474SOL    HW137058   2.842   2.056   2.202  0.4692 -0.0791  2.0351
 8474SOL    HW237059   2.985   2.021   2.242  0.0579 -0.2316  0.3547
 8475SOL     OW37060   3.396   4.546   7.451 -0.6008  0.1325 -0.1154
 8475SOL    HW137061   3.391   4.473   7.389 -1.9215  0.2430 -0.1456
 8475SOL    HW237062   3.402   4.625   7.399  2.7580  0.1256  0.2869
 8476SOL     OW37063   3.867   4.613   9.816 -0.1038  0.2620 -0.0956
 8476SOL    HW137064   3.956   4.581   9.831 -0.5231 -0.7402  0.2382
 8476SOL    HW237065   3.870   4.625   9.721  0.2086  0.3241 -0.0764
 8477SOL     OW37066   4.723   0.949   2.266  0.4927 -0.1222 -0.4224
 8477SOL    HW137067   4.638   0.910   2.246  0.3761  0.5346 -1.1937
 8477SOL    HW237068   0.001   1.004   2.190  1.1376 -1.1645 -1.0565
 8478SOL     OW37069   1.737   1.174   6.868  0.1359 -0.0855  0.1477
 8478SOL    HW137070   1.811   1.119   6.843 -0.6809 -0.6648 -0.9802
 8478SOL    HW237071   1.664   1.113   6.858 -0.4080  0.3064  1.6230
 8479SOL     OW37072   3.124   2.633   8.597 -0.1454 -0.0762 -0.9994
 8479SOL    HW137073   3.145   2.705   8.656  0.0813 -0.7318 -0.2931
 8479SOL    HW237074   3.121   2.683   8.515  0.5854  0.4379 -0.7115
 8480SOL     OW37075   2.993   3.305   8.417  0.5268  0.0983  0.4164
 8480SOL    HW137076   2.898   3.306   8.419  0.5033  0.6997 -0.8360
 8480SOL    HW237077   3.004   3.221   8.462 -1.9135  1.3191  3.2938
 8481SOL     OW37078   0.319   3.863  11.136 -0.0871 -0.9287 -0.0587
 8481SOL    HW137079   0.328   3.958  11.131 -0.7120 -0.8792 -0.2742
 8481SOL    HW237080   0.351   3.848  11.225  1.0764 -0.3833 -0.3884
 8482SOL     OW37081   1.990   1.888  15.996 -0.2086  0.4650  0.0061
 8482SOL    HW137082   1.953   1.842  15.920 -2.6252 -1.7162  2.5157
 8482SOL    HW237083   1.977   1.815  16.056 -3.5480  0.5458 -0.6291
 8483SOL     OW37084   0.224   0.038   5.084 -0.0769 -0.0543 -0.2617
 8483SOL    HW137085   0.303   4.723   5.071  0.4053  0.9716 -1.4285
 8483SOL    HW237086   0.262   0.120   5.117  1.3431 -0.8461  0.0599
 8484SOL     OW37087   2.577   1.231   5.558  0.0954 -0.4076  0.4968
 8484SOL    HW137088   2.589   1.326   5.562  0.3092 -0.3516 -1.8345
 8484SOL    HW237089   2.666   1.215   5.528 -0.4118  0.5810 -1.5339
 8485SOL     OW37090   0.676   1.006   5.645 -0.0666  0.1087  0.0991
 8485SOL    HW137091   0.664   1.065   5.719 -0.3065 -0.2744  0.3665
 8485SOL    HW237092   0.768   1.023   5.623 -0.1500  1.0374  0.4901
 8486SOL     OW37093   1.328   0.220  13.381  0.4023 -0.1047  0.0804
 8486SOL    HW137094   1.420   0.215  13.407  0.1080  1.1024  1.3478
 8486SOL    HW237095   1.279   0.190  13.458  0.9055  1.1710  0.8951
 8487SOL     OW37096   2.607   4.073  16.111  0.0815 -0.4220  0.1380
 8487SOL    HW137097   2.512   4.078  16.119 -0.1308 -0.4891 -2.3336
 8487SOL    HW237098   2.615   4.014  16.037 -0.7868  0.2466 -0.4949
 8488SOL     OW37099   3.268   1.675   3.026  0.1449  0.0578  0.1597
 8488SOL    HW137100   3.355   1.637   3.012 -0.5004 -2.1378  2.0397
 8488SOL    HW237101   3.225   1.609   3.081  0.6706 -1.5121 -1.3290
 8489SOL     OW37102   2.750   2.997   0.809  0.0295  0.7097  0.3766
 8489SOL    HW137103   2.655   2.994   0.803  0.1273  1.1434 -1.4163
 8489SOL    HW237104   2.774   3.059   0.740 -1.2116 -0.5566 -1.1603
 8490SOL     OW37105   2.245   1.134   8.093  0.4100 -0.1436  0.2901
 8490SOL    HW137106   2.264   1.044   8.069 -0.0257  0.0982 -0.9685
 8490SOL    HW237107   2.209   1.160   8.008  2.0603  0.5578 -0.2038
 8491SOL     OW37108   1.230   4.026   2.372  0.2057 -0.9542 -0.3797
 8491SOL    HW137109   1.140   3.996   2.362 -0.7182  1.5804  0.2693
 8491SOL    HW237110   1.218   4.081   2.450  0.2663  0.6312 -1.4972
 8492SOL     OW37111   4.113   0.964  14.545  0.4214 -0.6195  0.1293
 8492SOL    HW137112   4.039   0.999  14.496 -0.1088 -0.2167  1.2261
 8492SOL    HW237113   4.064   0.891  14.581 -0.0959 -0.6231 -0.5799
 8493SOL     OW37114   1.640   0.163   6.006 -0.5258  0.5635 -0.3581
 8493SOL    HW137115   1.563   0.161   5.949  0.6078 -1.2722 -1.7968
 8493SOL    HW237116   1.708   0.126   5.950 -0.3482  1.3775 -0.6846
 8494SOL     OW37117   2.018   0.269   4.556  0.3026 -0.0677 -0.1902
 8494SOL    HW137118   2.004   0.234   4.468 -0.3500 -0.9582  0.2687
 8494SOL    HW237119   1.936   0.257   4.603  1.1551 -0.5250  1.1817
 8495SOL     OW37120   3.566   2.970   2.231  0.5404 -0.5393 -0.0571
 8495SOL    HW137121   3.603   2.884   2.212 -2.1979 -1.7447  0.1220
 8495SOL    HW237122   3.477   2.961   2.198  1.1295 -2.0261 -1.2036
 8496SOL     OW37123   1.547   3.312   3.909  0.1704 -0.5878 -0.1419
 8496SOL    HW137124   1.521   3.222   3.889 -1.1931  0.0572 -1.1981
 8496SOL    HW237125   1.528   3.308   4.003 -0.4704  0.1164 -0.2497
 8497SOL     OW37126   2.325   1.850  11.213 -0.4338  1.1001  0.8156
 8497SOL    HW137127   2.295   1.766  11.247 -0.3073  0.9742  0.6241
 8497SOL    HW237128   2.322   1.835  11.118 -0.5827  1.5953  0.7453
 8498SOL     OW37129   1.600   0.614   7.413 -0.1466  0.7692  0.0394
 8498SOL    HW137130   1.652   0.694   7.409 -2.6904  2.3193 -1.6389
 8498SOL    HW237131   1.572   0.619   7.504  0.5003  1.4427  0.2061
 8499SOL     OW37132   0.313   4.029   8.487 -0.0458 -0.0022 -0.1917
 8499SOL    HW137133   0.275   3.964   8.428  1.4013  0.9002 -2.1217
 8499SOL    HW237134   0.244   4.022   8.554 -0.5058  0.4023 -0.6344
 8500SOL     OW37135   4.449   2.024   8.986 -0.3579  0.6290  0.0444
 8500SOL    HW137136   4.390   2.097   9.006 -1.3133 -0.2483  0.5200
 8500SOL    HW237137   4.519   2.078   8.950  0.5906 -1.1646 -0.7772
 8501SOL     OW37138   2.797   1.507   6.268  0.3921  0.1364 -0.0888
 8501SOL    HW137139   2.851   1.546   6.337  3.5431 -3.0541 -0.7034
 8501SOL    HW237140   2.863   1.469   6.210  1.1993  1.1816  0.1455
 8502SOL     OW37141   2.049   1.691  17.263 -0.3108 -0.5674 -0.2588
 8502SOL    HW137142   2.070   1.777  17.299 -0.1544  0.0949 -1.8886
 8502SOL    HW237143   2.012   1.718  17.178  0.9129 -0.1140 -0.6470
 8503SOL     OW37144   2.936   2.214  12.662 -0.0472 -0.5646 -0.3110
 8503SOL    HW137145   2.885   2.141  12.628  0.8979 -0.4878 -1.9083
 8503SOL    HW237146   3.014   2.219  12.606  0.4687 -0.8519  0.3861
 8504SOL     OW37147   4.485   4.658   8.799  0.4145  0.3143 -0.0272
 8504SOL    HW137148   4.435   4.727   8.756  0.1312  1.8274  2.7461
 8504SOL    HW237149   4.420   4.591   8.821  0.4977  0.2804  0.1209
 8505SOL     OW37150   4.090   0.029   6.903 -0.1279 -0.3251 -0.8414
 8505SOL    HW137151   4.185   0.024   6.902  0.1043  4.1109  0.8792
 8505SOL    HW237152   4.063   0.077   6.981 -1.0100  0.1042 -1.4095
 8506SOL     OW37153   3.380   0.884   5.065 -0.2867 -0.2628  0.1273
 8506SOL    HW137154   3.425   0.815   5.016 -0.2740  1.1227 -1.7887
 8506SOL    HW237155   3.399   0.968   5.023  0.2955  0.3964  1.7316
 8507SOL     OW37156   3.437   1.636  12.017 -0.1506 -0.2310 -0.1826
 8507SOL    HW137157   3.520   1.618  12.061  0.2960  1.9377 -0.1249
 8507SOL    HW237158   3.454   1.727  11.992 -2.9680  0.8065  1.7327
 8508SOL     OW37159   2.807   3.115   8.690 -0.7364  0.4606  0.3106
 8508SOL    HW137160   2.768   3.182   8.746  0.4889  0.2897  1.3820
 8508SOL    HW237161   2.786   3.033   8.734  2.0625 -0.2261  0.3963
 8509SOL     OW37162   2.071   1.218  13.890 -0.0157  0.1379 -0.3872
 8509SOL    HW137163   1.987   1.189  13.925  0.6952 -0.5966  0.6984
 8509SOL    HW237164   2.136   1.184  13.951 -1.6289 -0.5841  0.9323
 8510SOL     OW37165   3.915   2.700   6.492 -0.0631 -0.1238 -0.1927
 8510SOL    HW137166   3.935   2.677   6.401  0.9365 -2.8741  0.7110
 8510SOL    HW237167   3.821   2.717   6.484  0.4344  1.4939 -2.8141
 8511SOL     OW37168   0.658   3.213   2.618  0.4602  0.0821  0.0369
 8511SOL    HW137169   0.594   3.202   2.688 -0.6454 -1.1782 -1.1682
 8511SOL    HW237170   0.648   3.303   2.587  1.7506  1.3578  3.3455
 8512SOL     OW37171   4.585   0.746   5.947  0.3049 -0.0579 -0.3612
 8512SOL    HW137172   4.500   0.701   5.945  0.8024 -0.8780 -2.6359
 8512SOL    HW237173   4.559   0.819   6.003  2.0949  0.8406 -0.7188
 8513SOL     OW37174   0.372   1.107   8.240 -0.1740  0.1199 -0.3205
 8513SOL    HW137175   0.405   1.172   8.177 -0.3622 -1.9666 -2.5452
 8513SOL    HW237176   0.456   1.090   8.284 -0.1289 -1.6526 -1.1154
 8514SOL     OW37177   1.735   0.599   3.191 -0.1084 -0.0087  0.0133
 8514SOL    HW137178   1.701   0.512   3.172 -2.5125  1.4259 -2.3792
 8514SOL    HW237179   1.826   0.575   3.174  0.2724  2.1471 -1.0349
 8515SOL     OW37180   0.526   0.786   5.942  0.1012  0.1525  0.1493
 8515SOL    HW137181   0.489   0.840   6.012  1.7960  0.8486  0.4909
 8515SOL    HW237182   0.462   0.797   5.872 -1.0225  1.4061  1.3610
 8516SOL     OW37183   2.880   4.539   4.371 -0.0414  0.6699  0.1563
 8516SOL    HW137184   2.886   4.486   4.450 -0.5223 -0.1973 -0.3957
 8516SOL    HW237185   2.787   4.548   4.354  0.0851 -0.1772 -0.9632
 8517SOL     OW37186   0.291   4.118   5.829 -0.5470 -0.9649 -0.1801
 8517SOL    HW137187   0.251   4.090   5.747  0.4195 -1.1287 -0.5927
 8517SOL    HW237188   0.377   4.154   5.807 -1.0667  1.2774  1.4481
 8518SOL     OW37189   0.228   0.445   7.694 -0.5909  0.1332  0.1719
 8518SOL    HW137190   0.161   0.488   7.640  0.6184 -0.4843 -1.7946
 8518SOL    HW237191   0.200   0.485   7.776  1.7894  0.5436  0.7733
 8519SOL     OW37192   3.965   0.760   1.237 -0.2900  0.2850 -0.1084
 8519SOL    HW137193   3.919   0.735   1.317 -1.1332  0.2491 -0.6029
 8519SOL    HW237194   3.956   0.679   1.186 -0.9669  0.5280 -0.3788
 8520SOL     OW37195   2.758   0.508  12.931  0.5122  0.4120 -0.6941
 8520SOL    HW137196   2.792   0.512  13.021 -1.9761 -0.9866  0.2984
 8520SOL    HW237197   2.830   0.550  12.885  1.4490 -0.6230 -0.1872
 8521SOL     OW37198   2.104   2.275   7.618  0.0505 -0.2455  0.1240
 8521SOL    HW137199   2.095   2.365   7.648  1.1111 -0.0535 -0.1510
 8521SOL    HW237200   2.134   2.294   7.530 -2.3841  0.5544 -0.5476
 8522SOL     OW37201   3.458   3.419   5.012  0.2553  0.0738  0.4526
 8522SOL    HW137202   3.428   3.500   4.969 -1.3919 -0.5621  0.4190
 8522SOL    HW237203   3.551   3.426   4.989 -0.2945 -1.1948 -2.2278
 8523SOL     OW37204   4.602   3.853  17.008  0.1408  0.2347  0.4267
 8523SOL    HW137205   4.522   3.802  17.012 -0.8185  1.6550 -0.7904
 8523SOL    HW237206   4.577   3.924  16.949 -0.4149  0.4653  0.9354
 8524SOL     OW37207   3.165   3.338   4.973  0.0568  0.3319  0.1700
 8524SOL    HW137208   3.217   3.257   4.972  0.7299  0.7378  1.6223
 8524SOL    HW237209   3.182   3.380   4.889  0.4563  2.4377  1.2972
 8525SOL     OW37210   4.303   1.128   4.903  0.1723  0.1407  0.0829
 8525SOL    HW137211   4.372   1.098   4.961 -0.1664 -3.4061 -1.3342
 8525SOL    HW237212   4.234   1.108   4.966  0.7342 -0.3566  0.5327
 8526SOL     OW37213   2.843   0.572   8.142 -0.1988  0.2303  0.1520
 8526SOL    HW137214   2.924   0.608   8.104 -0.3360  0.6938  0.2917
 8526SOL    HW237215   2.821   0.651   8.191 -1.0649  0.8116 -1.1569
 8527SOL     OW37216   4.148   0.220  16.980 -0.1829  0.4486  0.9394
 8527SOL    HW137217   4.176   0.217  17.072  0.8128 -1.2049  0.5821
 8527SOL    HW237218   4.071   0.163  16.985  1.1828 -1.5662 -1.1327
 8528SOL     OW37219   4.082   3.140  14.658  0.2502 -0.4273  0.0033
 8528SOL    HW137220   4.087   3.048  14.684  0.7349 -0.8577 -1.6123
 8528SOL    HW237221   4.035   3.150  14.575 -1.4121 -1.6271  0.8059
 8529SOL     OW37222   3.388   4.672   2.969  0.1293  0.0527 -0.5353
 8529SOL    HW137223   3.365   4.602   2.908  0.5310 -0.9473  0.4453
 8529SOL    HW237224   3.409   0.005   2.908 -0.7643 -0.3090 -1.2663
 8530SOL     OW37225   2.500   4.563   5.812 -0.3810 -0.6364  0.0691
 8530SOL    HW137226   2.555   4.506   5.866  0.3330 -0.4169 -0.4256
 8530SOL    HW237227   2.526   4.534   5.724 -0.9708 -2.7093  0.5643
 8531SOL     OW37228   0.692   1.368   9.436  0.3630 -0.2410  1.3420
 8531SOL    HW137229   0.634   1.297   9.411 -1.1774  1.0889  1.1404
 8531SOL    HW237230   0.629   1.426   9.479 -0.2609  0.8434 -1.0452
 8532SOL     OW37231   3.194   2.762   2.325  0.4678 -0.4360 -0.2565
 8532SOL    HW137232   3.272   2.711   2.348  0.0410 -1.3136 -0.7441
 8532SOL    HW237233   3.232   2.817   2.256 -0.8030  0.3568 -0.3336
 8533SOL     OW37234   0.364   4.467   5.443  0.4733  0.1696 -0.7621
 8533SOL    HW137235   0.379   4.372   5.442  0.0382  0.1059 -1.0562
 8533SOL    HW237236   0.416   4.485   5.365 -1.0638  1.4877 -1.4622
 8534SOL     OW37237   1.127   1.001   8.820 -0.8718 -0.1290  0.0642
 8534SOL    HW137238   1.117   1.086   8.863 -0.9952  1.5023 -3.2169
 8534SOL    HW237239   1.158   0.942   8.889 -0.7779 -0.3316 -0.1510
 8535SOL     OW37240   4.069   2.319   2.181  0.0198 -0.4283  0.3473
 8535SOL    HW137241   4.101   2.229   2.175  1.7563  0.1022  1.5148
 8535SOL    HW237242   3.979   2.299   2.207 -0.3614  0.2629 -0.4026
 8536SOL     OW37243   0.468   1.059  12.029 -0.4492 -0.7419  0.3127
 8536SOL    HW137244   0.507   1.060  12.116 -0.2258 -0.4124  0.2115
 8536SOL    HW237245   0.416   0.980  12.042  0.8338 -1.8850 -1.3545
 8537SOL     OW37246   3.104   1.441   3.126  0.0269 -0.1524 -0.4486
 8537SOL    HW137247   3.032   1.432   3.064 -0.9070  3.2724  0.1117
 8537SOL    HW237248   3.181   1.398   3.089  1.6014  0.4971  2.0889
 8538SOL     OW37249   4.500   1.312   5.048  0.8577 -0.0796  0.1829
 8538SOL    HW137250   4.446   1.236   5.069  0.5308  0.1049 -0.0074
 8538SOL    HW237251   4.434   1.376   5.023  1.6780  0.5048 -0.4923
 8539SOL     OW37252   4.015   1.576   3.062 -0.0718 -0.3684 -0.3845
 8539SOL    HW137253   4.069   1.525   3.122 -0.7654  0.7855  1.1930
 8539SOL    HW237254   3.942   1.588   3.122 -0.4547 -0.7459 -0.7709
 8540SOL     OW37255   0.269   2.512   0.178 -0.3429  0.3207 -0.4078
 8540SOL    HW137256   0.264   2.496   0.084  0.1360 -1.5127 -0.1153
 8540SOL    HW237257   0.200   2.578   0.184  0.0447  0.7844 -0.9997
 8541SOL     OW37258   1.754   1.527   5.344  0.3098  0.1247 -1.0567
 8541SOL    HW137259   1.757   1.437   5.311 -0.6101 -0.3674  0.2126
 8541SOL    HW237260   1.668   1.538   5.384  0.4716  0.5452 -0.8315
 8542SOL     OW37261   0.119   4.246   2.575  0.2632  0.0293 -0.9280
 8542SOL    HW137262   0.157   4.182   2.634 -0.0039  0.8254  0.1100
 8542SOL    HW237263   0.042   4.201   2.540 -0.4034 -0.2587  0.9363
 8543SOL     OW37264   1.135   0.899  16.639  0.6196 -0.2431 -0.1303
 8543SOL    HW137265   1.053   0.864  16.604 -0.6898  0.9426  1.7718
 8543SOL    HW237266   1.194   0.901  16.564 -1.0625 -1.9476 -1.4929
 8544SOL     OW37267   1.864   2.001   0.245 -0.4948 -0.3494 -0.3132
 8544SOL    HW137268   1.778   2.033   0.218 -0.2413  1.3040  0.8594
 8544SOL    HW237269   1.861   1.912   0.210 -0.5094 -1.3897  2.2890
 8545SOL     OW37270   0.103   1.915   6.878  0.2066  0.3470  0.1849
 8545SOL    HW137271   0.169   1.982   6.893 -0.2827  0.7223  0.6460
 8545SOL    HW237272   0.103   1.910   6.782 -0.2379 -0.4594  0.2159
 8546SOL     OW37273   0.173   0.287   8.159  0.0447  0.1933 -0.1676
 8546SOL    HW137274   0.179   0.266   8.066  3.1505 -0.9537  0.2928
 8546SOL    HW237275   0.220   0.208   8.184 -0.5565 -0.4331 -1.0223
 8547SOL     OW37276   1.439   4.584   1.986 -0.6185  0.2706 -0.4090
 8547SOL    HW137277   1.525   4.588   1.944  0.5377 -2.5239  1.7309
 8547SOL    HW237278   1.451   4.630   2.069  1.1961 -0.8249 -0.0709
 8548SOL     OW37279   4.426   3.567  16.784 -0.8289  0.1962 -0.0723
 8548SOL    HW137280   4.361   3.619  16.736  0.1606 -0.8446 -2.5528
 8548SOL    HW237281   4.463   3.515  16.712  0.2556 -1.8031  1.9316
 8549SOL     OW37282   1.098   2.088   2.112 -0.3189 -0.2404  0.0477
 8549SOL    HW137283   1.138   2.069   2.197 -3.4537  2.1212  2.0176
 8549SOL    HW237284   1.126   2.009   2.067 -0.3294 -0.4121  0.3429
 8550SOL     OW37285   3.276   3.619  17.063 -0.8439  0.2867 -0.2808
 8550SOL    HW137286   3.232   3.619  16.978  1.5157 -2.4199 -1.5044
 8550SOL    HW237287   3.213   3.588  17.128 -0.4483  3.7215  1.7687
 8551SOL     OW37288   2.006   1.410  12.989  0.3556  0.2966 -0.6086
 8551SOL    HW137289   1.961   1.372  13.064 -1.6018  1.6785 -1.0754
 8551SOL    HW237290   1.981   1.344  12.925 -1.4983 -0.2016  0.6118
 8552SOL     OW37291   2.989   2.520   7.079 -0.0357 -0.0380 -0.3262
 8552SOL    HW137292   2.920   2.473   7.126 -1.2409  2.9180  0.8346
 8552SOL    HW237293   2.943   2.555   7.003 -0.1820  0.2045 -0.1236
 8553SOL     OW37294   2.441   1.136   0.130  0.2542 -0.5667 -0.1306
 8553SOL    HW137295   2.499   1.082   0.076 -0.0131 -0.2864 -0.7044
 8553SOL    HW237296   2.507   1.185   0.178  0.6415  0.2975 -1.5250
 8554SOL     OW37297   0.175   3.809  16.082  0.0024  0.1253  0.0357
 8554SOL    HW137298   0.198   3.772  16.167 -1.1376 -2.4805 -0.8112
 8554SOL    HW237299   0.248   3.785  16.026  1.1812  0.1436  1.5722
 8555SOL     OW37300   1.049   1.325   2.156  0.0000 -0.1249  0.0499
 8555SOL    HW137301   1.012   1.413   2.156 -1.7210 -0.8345 -1.0533
 8555SOL    HW237302   1.098   1.324   2.073 -0.9694  3.3009 -0.5649
 8556SOL     OW37303   0.660   0.869   5.035  0.2218 -0.7088 -0.0386
 8556SOL    HW137304   0.634   0.870   4.943  0.3725 -2.6952 -0.0946
 8556SOL    HW237305   0.591   0.814   5.072 -0.8017  0.0856 -0.7472
 8557SOL     OW37306   1.898   3.974  14.134  0.0693 -0.1637  0.1764
 8557SOL    HW137307   1.970   4.006  14.189 -0.0487 -1.7025  1.2310
 8557SOL    HW237308   1.916   3.880  14.140 -0.7577 -0.3786 -0.7291
 8558SOL     OW37309   2.232   0.207   3.815  0.5578 -0.3378  0.3368
 8558SOL    HW137310   2.144   0.185   3.783  0.7002 -2.1466  1.1663
 8558SOL    HW237311   2.260   0.278   3.757 -0.5460 -1.5765 -1.7275
 8559SOL     OW37312   1.126   2.936   4.828 -0.8299  0.0253  0.2635
 8559SOL    HW137313   1.133   2.876   4.754 -0.0061  0.9796 -0.4229
 8559SOL    HW237314   1.213   2.973   4.836 -1.3600  1.4046 -0.5162
 8560SOL     OW37315   4.486   3.896   5.153  0.0532  0.0424 -0.1107
 8560SOL    HW137316   4.415   3.895   5.088 -0.9577  0.3552  0.9925
 8560SOL    HW237317   4.490   3.984   5.191  0.3885 -0.4080  0.8787
 8561SOL     OW37318   0.095   0.612  14.930  0.0646 -0.2725 -0.4517
 8561SOL    HW137319   0.047   0.694  14.940  2.6003  1.3725 -1.8283
 8561SOL    HW237320   0.024   0.564  14.887  0.7933  0.0096 -1.9780
 8562SOL     OW37321   4.625   4.143   2.487  0.3174  0.6013  0.2507
 8562SOL    HW137322   4.541   4.179   2.517  1.1859  1.8324  1.2214
 8562SOL    HW237323   4.617   4.050   2.509  4.1704  0.1479 -0.2403
 8563SOL     OW37324   4.022   3.482   7.586 -0.2143  0.0540 -0.0954
 8563SOL    HW137325   4.088   3.451   7.524  0.9850  1.8496  0.2853
 8563SOL    HW237326   4.003   3.397   7.627  1.8254 -1.0145 -1.3629
 8564SOL     OW37327   4.247   2.309  13.576 -0.5105  0.4341 -0.1521
 8564SOL    HW137328   4.194   2.387  13.593  1.5351  1.5960  0.8279
 8564SOL    HW237329   4.308   2.307  13.649 -0.2432  1.7483 -0.3385
 8565SOL     OW37330   0.666   4.656  16.108 -0.1888  0.3905  0.5156
 8565SOL    HW137331   0.728   4.584  16.112  1.4910  1.8273  0.0603
 8565SOL    HW237332   0.588   4.607  16.081 -0.0448  0.3588  0.1709
 8566SOL     OW37333   2.593   4.576   6.755  0.1229  0.1743 -0.3092
 8566SOL    HW137334   2.572   4.669   6.763  0.5650  0.5110 -2.8891
 8566SOL    HW237335   2.599   4.555   6.848 -0.2786 -0.2316 -0.3712
 8567SOL     OW37336   3.130   3.638  16.115  0.3823  0.7390 -0.5708
 8567SOL    HW137337   3.100   3.547  16.122  0.8714  0.3596 -3.3211
 8567SOL    HW237338   3.181   3.648  16.196  0.2124  0.3697 -0.4149
 8568SOL     OW37339   0.541   1.101   3.431  0.3434  0.0581 -0.6838
 8568SOL    HW137340   0.591   1.134   3.356  1.9018  1.1287  0.8243
 8568SOL    HW237341   0.552   1.009   3.410 -2.7231 -1.1499  2.9647
 8569SOL     OW37342   3.074   4.234   1.428 -0.1474  0.3821 -0.3278
 8569SOL    HW137343   3.052   4.141   1.420 -0.1040  0.3776 -0.3927
 8569SOL    HW237344   3.000   4.255   1.485 -0.6814 -0.8887 -0.5523
 8570SOL     OW37345   0.369   1.367   8.485  0.2118  0.1454 -0.2170
 8570SOL    HW137346   0.347   1.301   8.551 -0.5260  1.6078  1.0204
 8570SOL    HW237347   0.370   1.435   8.553  0.3962 -1.0612  0.9857
 8571SOL     OW37348   2.563   2.258   8.990  0.1153  0.4762  0.1701
 8571SOL    HW137349   2.547   2.238   8.898  0.0617 -0.9799  0.5006
 8571SOL    HW237350   2.519   2.189   9.039 -0.2651  0.8986  0.4175
 8572SOL     OW37351   1.852   3.308   9.609 -0.1216  0.0570  0.2710
 8572SOL    HW137352   1.827   3.393   9.573  0.2913  0.5723  1.1979
 8572SOL    HW237353   1.769   3.260   9.606  0.2980 -0.6510 -0.1896
 8573SOL     OW37354   1.072   2.035   5.083  0.2951  0.0722  0.7467
 8573SOL    HW137355   1.067   2.119   5.037  1.9597 -0.5109 -0.4724
 8573SOL    HW237356   1.022   2.061   5.160 -2.0703  0.4231 -0.9084
 8574SOL     OW37357   0.336   0.931   8.466  0.3925  0.5384 -0.5314
 8574SOL    HW137358   0.396   0.955   8.536  0.9150 -0.0696 -0.7784
 8574SOL    HW237359   0.335   1.013   8.417 -0.9805  1.2043  0.5844
 8575SOL     OW37360   3.441   0.677   6.168  0.0891  0.7371 -0.3717
 8575SOL    HW137361   3.403   0.592   6.149  1.5698  0.8915 -4.1400
 8575SOL    HW237362   3.373   0.739   6.141 -0.3589  0.5569  0.3481
 8576SOL     OW37363   1.354   3.860   5.129 -0.4576 -0.0997  0.0373
 8576SOL    HW137364   1.349   3.766   5.112 -1.2427  0.2534 -1.6537
 8576SOL    HW237365   1.389   3.894   5.046 -0.5125 -1.7206 -0.6544
 8577SOL     OW37366   4.066   1.515  11.118  0.8838  0.4803 -0.5004
 8577SOL    HW137367   3.986   1.523  11.066 -0.4089 -0.9710  1.2942
 8577SOL    HW237368   4.083   1.422  11.109  2.0558  0.6137  0.2936
 8578SOL     OW37369   1.949   2.580  13.384 -0.1925 -0.5087 -0.2503
 8578SOL    HW137370   1.996   2.537  13.312  0.2891  0.6466 -0.6247
 8578SOL    HW237371   1.888   2.629  13.330 -1.6512  0.4753  2.3122
 8579SOL     OW37372   0.644   2.141   5.882  0.5974  0.3479  0.2629
 8579SOL    HW137373   0.632   2.137   5.787 -0.5137 -0.4351  0.4262
 8579SOL    HW237374   0.711   2.073   5.891  0.4484 -0.0211 -1.3392
 8580SOL     OW37375   0.268   4.308  15.333  0.0632  0.0302  0.1842
 8580SOL    HW137376   0.300   4.218  15.338 -0.1470 -0.1151 -1.0095
 8580SOL    HW237377   0.337   4.349  15.280  0.4856 -1.0535 -0.0993
 8581SOL     OW37378   0.126   3.967   8.727 -0.4547  0.4893 -0.2495
 8581SOL    HW137379   0.187   3.908   8.771 -0.5976  1.5947  1.4030
 8581SOL    HW237380   0.098   4.020   8.802  0.5874 -0.7309  1.0092
 8582SOL     OW37381   3.208   4.194   0.712  0.7314  0.1441 -0.0360
 8582SOL    HW137382   3.197   4.286   0.689 -0.2834 -0.2060 -0.9435
 8582SOL    HW237383   3.215   4.196   0.808  0.0167 -0.0739  0.0262
 8583SOL     OW37384   1.213   3.854  11.401  0.3901 -0.1691 -0.3910
 8583SOL    HW137385   1.277   3.787  11.375  0.3548  0.3062 -1.6987
 8583SOL    HW237386   1.271   3.930  11.406  0.2046  0.1148 -2.4245
 8584SOL     OW37387   1.648   4.225   4.735 -0.0227  0.2792  0.0239
 8584SOL    HW137388   1.567   4.216   4.684  0.2411  0.8178 -0.4961
 8584SOL    HW237389   1.616   4.196   4.820 -0.0703  0.4186  0.0524
 8585SOL     OW37390   1.544   2.184  10.738 -0.1938 -0.3634  0.7921
 8585SOL    HW137391   1.636   2.187  10.764 -0.3274  1.2814  1.0974
 8585SOL    HW237392   1.505   2.241  10.805 -0.5309  1.7054 -1.1501
 8586SOL     OW37393   2.683   3.731  16.190 -0.3624  0.3965  0.4507
 8586SOL    HW137394   2.710   3.731  16.282  1.5452  0.2524 -0.0945
 8586SOL    HW237395   2.588   3.727  16.185 -0.3463  0.2124  0.2912
 8587SOL     OW37396   4.154   0.393  15.658  0.3826 -0.3275  0.3543
 8587SOL    HW137397   4.097   0.376  15.584  2.6727 -0.6105 -1.3360
 8587SOL    HW237398   4.160   0.487  15.644  2.4327 -0.5924 -0.4570
 8588SOL     OW37399   2.137   2.430  13.220  0.7641  0.0152  0.3305
 8588SOL    HW137400   2.167   2.357  13.166 -1.1535 -0.2567 -0.3737
 8588SOL    HW237401   2.206   2.448  13.284  0.2968  1.9244  0.2776
 8589SOL     OW37402   0.081   0.244  12.711  0.4201 -0.1050  0.3662
 8589SOL    HW137403   0.029   0.165  12.698 -3.0921  2.3914 -0.9756
 8589SOL    HW237404   0.074   0.281  12.623  3.4371 -2.6227 -0.9172
 8590SOL     OW37405   0.377   3.438  14.711 -0.1915  0.6713 -0.0246
 8590SOL    HW137406   0.337   3.448  14.625 -1.6297 -0.7265  0.4838
 8590SOL    HW237407   0.471   3.455  14.707  0.1635 -1.5645 -1.4953
 8591SOL     OW37408   0.927   1.749   2.495 -0.5036  0.4373  0.1140
 8591SOL    HW137409   0.848   1.702   2.471  0.6494 -0.9998 -0.8788
 8591SOL    HW237410   0.982   1.691   2.442 -0.7162  0.5598 -0.2426
 8592SOL     OW37411   0.233   0.914   1.733 -0.2380 -0.0333  0.6350
 8592SOL    HW137412   0.201   0.886   1.819 -1.3982 -0.6237  0.0137
 8592SOL    HW237413   0.327   0.918   1.749  0.5560 -1.5447 -3.6801
 8593SOL     OW37414   1.946   2.437   5.491  0.4112  0.1345 -0.2661
 8593SOL    HW137415   1.974   2.488   5.415  1.2601 -0.1993 -0.1763
 8593SOL    HW237416   2.015   2.375   5.513  0.6687  0.8234  0.8379
 8594SOL     OW37417   3.431   4.628  12.892 -0.5262  0.8946 -1.0820
 8594SOL    HW137418   3.499   4.692  12.912 -0.9550  1.0521 -0.1295
 8594SOL    HW237419   3.347   4.672  12.879 -0.3861  0.9336 -1.8747
 8595SOL     OW37420   2.969   1.731   6.149  0.4855  0.0945 -0.3554
 8595SOL    HW137421   2.899   1.768   6.095  1.5053 -0.3548 -1.9810
 8595SOL    HW237422   3.010   1.671   6.086  0.2271  0.1145 -0.5456
 8596SOL     OW37423   3.820   3.908   8.243  0.1991  0.2732  0.1848
 8596SOL    HW137424   3.771   3.847   8.189 -1.2790  3.2661 -1.8773
 8596SOL    HW237425   3.912   3.900   8.219  1.1305  2.2460  2.9795
 8597SOL     OW37426   1.455   1.195   1.766 -0.5707 -0.5848  0.3459
 8597SOL    HW137427   1.380   1.232   1.719  0.0407 -0.9774 -0.9335
 8597SOL    HW237428   1.428   1.104   1.754 -1.0867 -0.6139  1.7963
 8598SOL     OW37429   3.923   3.825   4.251  0.1482 -0.0958 -0.3095
 8598SOL    HW137430   3.985   3.771   4.203 -1.4531 -0.1961 -2.2666
 8598SOL    HW237431   3.839   3.796   4.214 -0.0546 -1.1248  0.9571
 8599SOL     OW37432   1.010   0.609  15.543  0.1255 -0.0494  0.2330
 8599SOL    HW137433   0.983   0.541  15.604  1.2019  0.4216  1.2297
 8599SOL    HW237434   0.982   0.685  15.594 -1.0700 -0.3961  0.0942
 8600SOL     OW37435   1.616   2.380   4.837  0.5674  0.0431  0.3073
 8600SOL    HW137436   1.532   2.336   4.820  0.8049 -0.1371 -0.4147
 8600SOL    HW237437   1.657   2.322   4.901 -0.8754 -0.4511  0.7804
 8601SOL     OW37438   2.604   2.516  16.086 -1.0944  0.3182  0.3249
 8601SOL    HW137439   2.634   2.427  16.106 -1.8901  0.3675  1.7329
 8601SOL    HW237440   2.685   2.549  16.047 -0.0664 -2.1481  0.3874
 8602SOL     OW37441   3.598   2.744   6.151 -0.2427 -0.0811 -0.3138
 8602SOL    HW137442   3.519   2.790   6.122 -0.0372 -0.8366 -2.0730
 8602SOL    HW237443   3.577   2.714   6.239 -2.1067  0.1684 -0.6780
 8603SOL     OW37444   2.449   0.720   2.531  1.1620 -0.2668  0.2603
 8603SOL    HW137445   2.518   0.718   2.598  2.0727 -0.8908 -0.6885
 8603SOL    HW237446   2.498   0.674   2.462 -1.3128  0.2733 -1.8534
 8604SOL     OW37447   3.455   1.560  11.107 -0.2008  0.1897 -0.3739
 8604SOL    HW137448   3.449   1.483  11.050  0.9558 -1.4321  1.7030
 8604SOL    HW237449   3.379   1.610  11.076 -1.2344 -3.0516 -3.0857
 8605SOL     OW37450   2.961   4.177   0.937  0.3810  0.7372 -0.1434
 8605SOL    HW137451   2.941   4.216   1.022  1.8020 -2.9840  1.8872
 8605SOL    HW237452   2.961   4.247   0.871  0.2631  0.6277 -0.2605
 8606SOL     OW37453   4.571   0.883   5.475 -0.8069 -0.0014  0.2880
 8606SOL    HW137454   4.570   0.787   5.484 -1.7553  0.1225  1.4843
 8606SOL    HW237455   4.478   0.898   5.492 -0.7843  0.7286 -0.2482
 8607SOL     OW37456   1.038   0.316   4.994 -0.1284 -0.3019  0.1091
 8607SOL    HW137457   1.083   0.255   5.051  1.7240  1.4291  0.4772
 8607SOL    HW237458   1.100   0.315   4.921 -0.5263  1.8550 -0.2576
 8608SOL     OW37459   1.405   2.500   5.485  0.0404 -0.3219  0.3439
 8608SOL    HW137460   1.423   2.509   5.579  2.4766 -0.4444 -0.1052
 8608SOL    HW237461   1.399   2.406   5.468  2.4079 -0.3648 -0.2714
 8609SOL     OW37462   2.553   1.410   8.416 -0.3163 -0.5602  0.2312
 8609SOL    HW137463   2.586   1.354   8.486  1.4089 -0.2269 -0.3227
 8609SOL    HW237464   2.525   1.487   8.465  1.3156 -0.6618  1.2873
 8610SOL     OW37465   0.165   1.594  10.222 -0.6135  0.7765  0.0365
 8610SOL    HW137466   0.152   1.577  10.129  1.2410 -1.3070  0.1559
 8610SOL    HW237467   0.261   1.595  10.230 -0.6172 -0.7523  0.1723
 8611SOL     OW37468   4.218   3.758   1.820  0.3183  0.7321 -0.5942
 8611SOL    HW137469   4.141   3.702   1.811  0.2827  0.8561 -1.0914
 8611SOL    HW237470   4.214   3.788   1.911  0.5316  0.0444 -0.3639
 8612SOL     OW37471   0.521   3.321   9.021 -0.3212  0.5628  0.5490
 8612SOL    HW137472   0.516   3.226   9.012  1.8645  0.2093  3.2510
 8612SOL    HW237473   0.491   3.344   8.933 -1.3548  1.3250  1.0992
 8613SOL     OW37474   1.068   2.784  15.253 -0.2615  0.4316 -0.3099
 8613SOL    HW137475   1.112   2.868  15.244 -0.0057  0.0103 -2.9253
 8613SOL    HW237476   0.976   2.811  15.261 -0.0797  1.1049 -0.5705
 8614SOL     OW37477   2.510   3.006   4.458  0.0347 -0.2639 -0.2325
 8614SOL    HW137478   2.557   3.034   4.380  1.4341  0.0177  0.7187
 8614SOL    HW237479   2.583   2.971   4.509  0.7752  0.0945 -1.0418
 8615SOL     OW37480   3.727   4.563   7.061 -0.2446 -0.4716 -0.1219
 8615SOL    HW137481   3.783   4.574   6.984  2.4535  0.9635  2.0321
 8615SOL    HW237482   3.802   4.575   7.119  1.5954 -0.1240 -2.5848
 8616SOL     OW37483   3.885   0.317  16.710 -0.2589 -0.1044 -0.2226
 8616SOL    HW137484   3.860   0.316  16.618 -0.5711  3.0255 -0.1901
 8616SOL    HW237485   3.979   0.299  16.704 -0.2913 -1.0629  2.0365
 8617SOL     OW37486   4.254   1.768  16.774  0.1065 -0.1885 -0.2469
 8617SOL    HW137487   4.323   1.746  16.836  0.4036  2.0177  0.2202
 8617SOL    HW237488   4.258   1.864  16.774  2.3660 -0.3012  1.4954
 8618SOL     OW37489   4.429   0.215  16.845 -0.3235  0.3990 -0.2159
 8618SOL    HW137490   4.468   0.282  16.902 -2.5584  1.2845  0.2601
 8618SOL    HW237491   4.347   0.200  16.892  0.2254  1.4949  1.1026
 8619SOL     OW37492   1.842   1.588   0.807 -0.3949  0.0434  0.1698
 8619SOL    HW137493   1.908   1.527   0.776  0.2831  1.8518 -1.8636
 8619SOL    HW237494   1.812   1.626   0.725 -0.3534 -1.1829 -0.4084
 8620SOL     OW37495   3.701   1.148  14.451  0.5215 -0.3634  0.4834
 8620SOL    HW137496   3.616   1.107  14.466 -1.3231  3.1869 -0.3846
 8620SOL    HW237497   3.731   1.180  14.537 -0.7857  2.0685  0.0375
 8621SOL     OW37498   0.306   3.366   5.340  0.3367  0.3379  0.2560
 8621SOL    HW137499   0.270   3.367   5.429 -0.8005 -2.3745 -0.1928
 8621SOL    HW237500   0.337   3.455   5.323 -0.9875  0.2994 -2.3184
 8622SOL     OW37501   2.835   2.015   8.143 -0.2068 -0.0143 -0.2926
 8622SOL    HW137502   2.909   2.075   8.133 -0.1506  0.0366  0.4615
 8622SOL    HW237503   2.769   2.073   8.105  0.8924  2.7858  2.1030
 8623SOL     OW37504   1.496   1.200  16.831 -0.1957  0.0272  0.2979
 8623SOL    HW137505   1.503   1.235  16.920 -2.1124  1.0513  0.0411
 8623SOL    HW237506   1.582   1.161  16.814  0.7972  1.4514  2.1143
 8624SOL     OW37507   2.837   2.723  17.595 -0.3008 -0.0291 -0.2771
 8624SOL    HW137508   2.834   2.792  17.660  0.9942 -0.5840  0.3574
 8624SOL    HW237509   2.863   2.653  17.655  1.0191  1.0516  0.4093
 8625SOL     OW37510   3.890   3.885   3.946  0.0929  0.1717 -0.3231
 8625SOL    HW137511   3.986   3.885   3.950  0.0694  1.5763  0.3397
 8625SOL    HW237512   3.884   3.864   3.853  0.2928 -1.8345  0.1312
 8626SOL     OW37513   2.291   3.280   9.615  0.0965 -0.4384  0.2650
 8626SOL    HW137514   2.263   3.345   9.551 -1.5152 -1.8480 -0.4521
 8626SOL    HW237515   2.222   3.215   9.600  0.9758 -0.6176 -2.8980
 8627SOL     OW37516   2.546   4.514  12.366  0.6868 -0.3441 -0.3188
 8627SOL    HW137517   2.570   4.468  12.286  0.9850 -0.2782 -0.2705
 8627SOL    HW237518   2.605   4.472  12.430 -0.9886 -0.9302  0.8376
 8628SOL     OW37519   4.423   1.289   8.797 -0.7074 -1.1899 -0.5689
 8628SOL    HW137520   4.384   1.359   8.744 -3.3374 -1.0494  1.5415
 8628SOL    HW237521   4.512   1.296   8.762 -0.3950 -0.0322  0.4665
 8629SOL     OW37522   3.664   2.240  17.568 -0.1019 -0.3119  0.6736
 8629SOL    HW137523   3.590   2.275  17.618 -1.1816 -0.1718 -1.0409
 8629SOL    HW237524   3.743   2.234  17.622  0.0596  0.1804  0.4954
 8630SOL     OW37525   3.298   3.158   8.617  0.0675 -0.3592 -0.2028
 8630SOL    HW137526   3.215   3.125   8.583 -0.1112  0.1086 -0.2142
 8630SOL    HW237527   3.276   3.135   8.707  1.8782 -0.4520  0.2179
 8631SOL     OW37528   3.807   4.563   6.332 -0.3536  0.1746 -0.0232
 8631SOL    HW137529   3.767   4.612   6.260  1.3501  0.0173 -1.0596
 8631SOL    HW237530   3.893   4.598   6.354  0.0171 -0.3971 -0.5785
 8632SOL     OW37531   0.009   1.617  13.043  0.5942 -0.1991  0.0086
 8632SOL    HW137532   4.697   1.589  13.121  0.6577 -1.5626 -0.4425
 8632SOL    HW237533   0.007   1.539  12.988 -0.3124  0.3930 -0.8014
 8633SOL     OW37534   0.972   0.115   2.463 -0.2940  0.3001  0.4445
 8633SOL    HW137535   1.062   0.093   2.440  0.1543 -0.2951  2.7342
 8633SOL    HW237536   0.923   0.040   2.430 -0.4889  0.2524  0.8439
 8634SOL     OW37537   0.945   3.752   3.270  0.4675  0.1151 -0.1215
 8634SOL    HW137538   1.024   3.712   3.233  1.1228  1.3871 -0.1065
 8634SOL    HW237539   0.941   3.728   3.362  0.6399 -0.6200 -0.3019
 8635SOL     OW37540   2.083   4.326   9.735  0.5949 -0.3958 -0.7293
 8635SOL    HW137541   2.046   4.272   9.666  0.5974 -1.1257 -0.1605
 8635SOL    HW237542   2.161   4.271   9.741  3.0538  3.2556  0.8544
 8636SOL     OW37543   0.201   3.220   7.103 -0.2486  0.3518  0.1625
 8636SOL    HW137544   0.155   3.188   7.180  0.0210  0.7067  0.4716
 8636SOL    HW237545   0.293   3.196   7.112 -0.0791  1.1084  0.4077
 8637SOL     OW37546   4.231   2.642   7.099  0.7661 -0.0012 -0.2631
 8637SOL    HW137547   4.283   2.569   7.065  1.3258 -0.7521  2.2164
 8637SOL    HW237548   4.244   2.638   7.194 -0.1589  0.9244 -0.0911
 8638SOL     OW37549   4.295   3.793  16.659 -0.1249  0.4818 -0.0601
 8638SOL    HW137550   4.216   3.741  16.646  0.6771 -0.7845  0.1179
 8638SOL    HW237551   4.284   3.829  16.746  2.4530 -2.7425  1.6120
 8639SOL     OW37552   4.241   1.012  14.965  0.5416  0.2528 -0.2321
 8639SOL    HW137553   4.268   1.077  15.030  0.8357 -0.6499  0.5320
 8639SOL    HW237554   4.251   0.926  15.005 -1.2428  0.4127  0.5670
 8640SOL     OW37555   0.820   3.769   2.381  0.4856  0.1903 -0.1281
 8640SOL    HW137556   0.782   3.745   2.296  2.3698 -0.1960 -0.8557
 8640SOL    HW237557   0.843   3.680   2.406  0.4755  0.5034  0.9805
 8641SOL     OW37558   0.144   0.029   6.484 -0.6607  0.0839 -0.1886
 8641SOL    HW137559   0.074   0.088   6.514  0.3773 -0.2699  2.9807
 8641SOL    HW237560   0.192   0.098   6.439 -0.5339  1.1156  1.4901
 8642SOL     OW37561   1.867   3.321   6.837  0.3596  0.5577  0.0707
 8642SOL    HW137562   1.850   3.245   6.894  1.9910  1.9699  2.4180
 8642SOL    HW237563   1.857   3.279   6.751  1.7836 -0.0977  0.2352
 8643SOL     OW37564   2.670   1.782  11.276  0.0990  0.0307 -0.7122
 8643SOL    HW137565   2.587   1.810  11.315 -0.0024 -0.1789 -0.7761
 8643SOL    HW237566   2.710   1.869  11.273 -2.1507  1.1245  1.1094
 8644SOL     OW37567   2.577   1.126   9.006  0.1743 -0.4893 -0.0688
 8644SOL    HW137568   2.607   1.083   8.926 -0.2574  2.0897 -1.6370
 8644SOL    HW237569   2.528   1.197   8.964 -1.1362 -1.8373 -0.8429
 8645SOL     OW37570   1.301   3.556   7.604  0.3045 -0.0040 -0.3184
 8645SOL    HW137571   1.250   3.504   7.665 -0.1945  0.5143 -0.2871
 8645SOL    HW237572   1.234   3.613   7.564 -0.7355 -1.8219 -1.1526
 8646SOL     OW37573   0.367   1.236   1.841 -0.3309 -0.2814  0.1252
 8646SOL    HW137574   0.280   1.220   1.879 -0.4627 -1.2115 -0.5792
 8646SOL    HW237575   0.366   1.194   1.756  2.1791 -1.3460  0.6278
 8647SOL     OW37576   0.849   0.418  16.071  0.7164 -0.0465 -0.0012
 8647SOL    HW137577   0.869   0.493  16.016  3.5763 -0.4499  0.4885
 8647SOL    HW237578   0.829   0.349  16.008 -0.5000 -2.7912  3.3328
 8648SOL     OW37579   1.829   4.240   9.835 -0.5980  0.6426  0.0647
 8648SOL    HW137580   1.917   4.275   9.827 -1.2365  2.0205 -0.9399
 8648SOL    HW237581   1.836   4.203   9.923 -0.6212  0.4002 -0.0349
 8649SOL     OW37582   0.243   4.572  16.537 -0.4479 -0.1855 -0.0246
 8649SOL    HW137583   0.171   4.551  16.597 -1.2361  0.5803 -0.7034
 8649SOL    HW237584   0.314   4.604  16.592 -2.1037  0.4400  1.7376
 8650SOL     OW37585   2.884   2.022   8.551 -0.0465  0.2868  0.3981
 8650SOL    HW137586   2.919   2.078   8.620 -0.6040  1.0275  0.0868
 8650SOL    HW237587   2.798   1.994   8.584  0.5887  0.3112  2.0604
 8651SOL     OW37588   1.645   1.891  17.117 -0.1645 -0.0453 -0.2541
 8651SOL    HW137589   1.676   1.964  17.170  0.1684  0.7604 -1.5658
 8651SOL    HW237590   1.551   1.899  17.130  0.0796 -0.5747  1.8406
 8652SOL     OW37591   2.962   2.120   2.673  0.2395  0.7971  0.0095
 8652SOL    HW137592   3.012   2.129   2.754 -1.8404 -0.6807  1.4578
 8652SOL    HW237593   2.991   2.030   2.656 -0.4431  0.5088  0.3437
 8653SOL     OW37594   2.875   2.514   3.983  0.1734  0.7844 -0.0119
 8653SOL    HW137595   2.786   2.481   3.975 -0.0110  1.4936 -0.8925
 8653SOL    HW237596   2.860   2.609   3.978  0.1607  0.8843  1.9536
 8654SOL     OW37597   3.829   4.461   7.667  0.0200  0.4051  0.3452
 8654SOL    HW137598   3.793   4.426   7.585  0.0359 -1.3523  1.0939
 8654SOL    HW237599   3.901   4.401   7.686 -0.0393  2.1010  5.8358
 8655SOL     OW37600   1.861   1.059   5.842 -0.0979  0.2679 -0.3301
 8655SOL    HW137601   1.853   1.082   5.749 -0.5385  1.1415 -0.0804
 8655SOL    HW237602   1.953   1.034   5.852 -0.1547  0.7678  1.4492
 8656SOL     OW37603   0.733   1.905   2.684 -0.4426  0.4446  0.3609
 8656SOL    HW137604   0.699   1.994   2.672 -1.3419 -0.2127 -2.0597
 8656SOL    HW237605   0.801   1.899   2.616  1.2522  1.3043  1.9923
 8657SOL     OW37606   3.259   0.683   1.419  0.1738 -0.3169 -0.5511
 8657SOL    HW137607   3.184   0.626   1.403 -0.2980  0.4325 -1.0238
 8657SOL    HW237608   3.273   0.656   1.509  1.3308 -0.2478 -0.7088
 8658SOL     OW37609   0.757   2.245   9.363  0.1598  0.7668  0.1214
 8658SOL    HW137610   0.703   2.282   9.433 -0.1839  1.1789 -0.3687
 8658SOL    HW237611   0.826   2.311   9.368  0.4911  0.4387 -0.1561
 8659SOL     OW37612   3.029   3.190   1.544  0.0425  0.2098 -0.8224
 8659SOL    HW137613   3.115   3.155   1.522  1.3776  2.3845  0.9003
 8659SOL    HW237614   3.049   3.253   1.613  2.0975 -1.4436  0.0689
 8660SOL     OW37615   0.099   0.551   0.199  0.2637  0.4418 -0.4230
 8660SOL    HW137616   0.160   0.479   0.214  0.2291  1.7600  5.8239
 8660SOL    HW237617   0.150   0.621   0.240  0.4206  0.1013 -0.0403
 8661SOL     OW37618   2.376   4.603   8.916  0.0057 -0.0819 -0.0831
 8661SOL    HW137619   2.314   4.592   8.843  1.0627  1.5973 -1.2222
 8661SOL    HW237620   2.409   4.513   8.921 -0.7732 -0.2796  1.4893
 8662SOL     OW37621   2.569   0.534   2.344  0.2068 -0.3654 -0.4650
 8662SOL    HW137622   2.641   0.551   2.284  0.9091  1.0186  0.7961
 8662SOL    HW237623   2.555   0.442   2.318 -1.3087 -0.2245 -0.1876
 8663SOL     OW37624   2.558   1.278  15.503 -0.3489 -0.0993  0.5200
 8663SOL    HW137625   2.472   1.237  15.492 -1.4323  2.0108  0.9963
 8663SOL    HW237626   2.526   1.360  15.541 -0.6644  0.0862 -0.1541
 8664SOL     OW37627   0.442   1.682  13.739  0.2133 -0.2876 -0.2992
 8664SOL    HW137628   0.383   1.607  13.740 -0.0539 -0.0706  0.0414
 8664SOL    HW237629   0.411   1.722  13.658 -1.4924  2.5417  1.7452
 8665SOL     OW37630   1.989   1.719  14.434 -0.0032  0.8662 -0.1469
 8665SOL    HW137631   2.048   1.745  14.505  0.4073  1.5951 -0.7545
 8665SOL    HW237632   1.909   1.765  14.463  0.4714  0.1908  2.2681
 8666SOL     OW37633   1.222   4.313   8.590  0.3335 -0.2764  0.8286
 8666SOL    HW137634   1.188   4.375   8.526 -1.6439 -1.2336  0.9394
 8666SOL    HW237635   1.177   4.234   8.560 -1.5601  0.6164  1.2698
 8667SOL     OW37636   1.025   1.334  12.970  0.1003 -0.3172  0.1020
 8667SOL    HW137637   1.021   1.249  12.926 -1.0275  0.5175 -1.4001
 8667SOL    HW237638   1.029   1.385  12.889 -1.4394  0.8100  0.7436
 8668SOL     OW37639   1.674   3.050   9.290  0.1590 -0.2648 -0.2036
 8668SOL    HW137640   1.644   3.136   9.259 -1.0201 -1.6743 -2.9810
 8668SOL    HW237641   1.690   3.076   9.380  1.1655 -0.7749 -0.2310
 8669SOL     OW37642   3.941   2.409   5.195  0.3386  0.4377  0.2442
 8669SOL    HW137643   3.989   2.479   5.150  1.8236  0.1127  1.3069
 8669SOL    HW237644   3.867   2.460   5.227  0.1285  0.0636  0.3551
 8670SOL     OW37645   4.090   3.894   2.870 -0.2573 -0.4051  0.1944
 8670SOL    HW137646   4.181   3.921   2.881 -0.5424  1.1965 -1.3020
 8670SOL    HW237647   4.103   3.814   2.921  0.9294  0.0440  0.5941
 8671SOL     OW37648   3.211   0.909   0.002  0.2266  0.1653 -0.2082
 8671SOL    HW137649   3.208   0.962  17.669  0.9776  1.3245  0.5285
 8671SOL    HW237650   3.236   0.975   0.066 -0.2087 -1.3519  1.5350
 8672SOL     OW37651   4.063   1.219   2.485  0.0744  0.0375 -0.5284
 8672SOL    HW137652   4.065   1.270   2.566 -1.4461  0.3339 -0.6740
 8672SOL    HW237653   4.090   1.282   2.419 -0.0795 -0.2216 -0.8441
 8673SOL     OW37654   1.856   2.457  13.143  0.2637 -0.5990 -0.0368
 8673SOL    HW137655   1.875   2.367  13.172  0.6303 -0.8853 -1.1606
 8673SOL    HW237656   1.943   2.480  13.113  0.4381 -0.7245  0.3706
 8674SOL     OW37657   1.324   3.049  12.342 -0.5028 -0.1248 -0.1098
 8674SOL    HW137658   1.381   2.996  12.286  0.0191  1.7999 -1.4193
 8674SOL    HW237659   1.247   3.039  12.287 -1.9321  2.5368  1.4015
 8675SOL     OW37660   2.295   2.483  15.387 -0.1469 -0.0818 -0.0115
 8675SOL    HW137661   2.321   2.469  15.296 -1.3523 -1.0514 -0.2101
 8675SOL    HW237662   2.364   2.435  15.433  1.6729  0.3621 -2.3194
 8676SOL     OW37663   1.627   1.530  16.445 -0.1689 -0.4775 -0.1349
 8676SOL    HW137664   1.533   1.541  16.431 -0.1263  0.9823  0.7894
 8676SOL    HW237665   1.651   1.507  16.355 -0.4264 -2.1735  0.2320
 8677SOL     OW37666   3.021   0.294   8.123 -0.2613  0.0275  0.6709
 8677SOL    HW137667   2.943   0.346   8.143 -1.8619 -1.9417 -0.5028
 8677SOL    HW237668   3.077   0.332   8.191  0.1172  4.0906 -1.8965
 8678SOL     OW37669   2.622   4.216   3.080  0.2566 -0.1208  0.0558
 8678SOL    HW137670   2.539   4.263   3.095 -0.4268 -0.6562 -2.1674
 8678SOL    HW237671   2.616   4.221   2.985  0.4561 -0.8154  0.0065
 8679SOL     OW37672   1.850   4.180   4.032 -0.2506  0.2022 -0.3577
 8679SOL    HW137673   1.873   4.139   4.116  2.7797  0.3241 -1.1311
 8679SOL    HW237674   1.831   4.269   4.060  0.9228  0.4981 -0.5304
 8680SOL     OW37675   0.746   4.236   7.633 -0.0454  0.4124 -0.5083
 8680SOL    HW137676   0.779   4.320   7.603 -2.2385  1.3593 -0.2342
 8680SOL    HW237677   0.664   4.228   7.585 -0.1639  2.5674 -0.6345
 8681SOL     OW37678   2.728   2.283   5.147 -0.0402  0.4420  0.2966
 8681SOL    HW137679   2.720   2.377   5.165  1.8949  0.5342  0.7193
 8681SOL    HW237680   2.705   2.284   5.054  0.7247  0.4983  0.1119
 8682SOL     OW37681   1.846   0.966  16.719  0.8482  0.0583  0.1024
 8682SOL    HW137682   1.829   0.923  16.803 -2.1506  0.6299 -0.2255
 8682SOL    HW237683   1.813   1.054  16.735  0.0755 -0.3458  0.7187
 8683SOL     OW37684   3.878   2.994   7.070 -0.1014 -0.1557 -1.0140
 8683SOL    HW137685   3.926   3.076   7.061 -0.0012 -0.3053 -1.8188
 8683SOL    HW237686   3.872   2.982   7.165  0.4261  1.6442 -0.7507
 8684SOL     OW37687   0.207   4.034  11.372  0.0849  0.3870 -0.3919
 8684SOL    HW137688   0.119   4.067  11.353 -1.1684 -3.3542 -1.1835
 8684SOL    HW237689   0.204   4.016  11.466  1.1850  0.9356 -0.2595
 8685SOL     OW37690   1.842   4.634   8.013  0.1109  0.1872 -0.4042
 8685SOL    HW137691   1.937   4.628   8.003  0.3341  3.4965 -0.1318
 8685SOL    HW237692   1.834   4.551   8.061  0.3221  0.7457  0.5867
 8686SOL     OW37693   2.480   0.404   6.201 -0.3995  0.4163 -0.0297
 8686SOL    HW137694   2.574   0.386   6.198 -0.1592  1.4954  0.7568
 8686SOL    HW237695   2.441   0.365   6.280 -3.2668  1.2100 -1.0480
 8687SOL     OW37696   1.490   2.646  10.535  0.0198 -0.0515 -0.2373
 8687SOL    HW137697   1.502   2.553  10.519  3.2626  0.3562 -0.1512
 8687SOL    HW237698   1.420   2.635  10.599  0.3739  1.1299  0.3614
 8688SOL     OW37699   4.634   1.995   5.382 -0.4138  0.3266 -0.1906
 8688SOL    HW137700   4.627   1.961   5.472  1.7334  1.6101  0.4662
 8688SOL    HW237701   4.552   1.955   5.355  0.2354 -0.1729 -1.3846
 8689SOL     OW37702   1.561   3.253   7.430 -0.3352 -0.8637 -0.3429
 8689SOL    HW137703   1.596   3.257   7.519  0.7792  1.1650 -0.8788
 8689SOL    HW237704   1.488   3.193   7.449 -0.2721 -1.0223 -0.6101
 8690SOL     OW37705   3.170   1.698  15.013  0.0044 -0.5211 -0.4815
 8690SOL    HW137706   3.215   1.783  15.008  2.6133 -1.8806  0.2902
 8690SOL    HW237707   3.181   1.674  15.104 -2.2851  2.1367  0.5149
 8691SOL     OW37708   4.726   0.454  12.886  0.4520 -0.2030 -0.4838
 8691SOL    HW137709   0.018   0.385  12.826 -1.7443  0.2586 -2.0983
 8691SOL    HW237710   0.068   0.454  12.939  0.9257  2.2399 -1.2021
 8692SOL     OW37711   4.010   1.196   7.182  0.2198 -0.3495 -0.2039
 8692SOL    HW137712   4.068   1.261   7.221  0.0154 -0.2171 -0.1186
 8692SOL    HW237713   3.932   1.211   7.235  0.5731  0.9887 -0.0668
 8693SOL     OW37714   1.837   0.038   9.180 -0.2371  0.1002  0.4803
 8693SOL    HW137715   1.762   4.717   9.191 -0.3569  0.4141  1.2912
 8693SOL    HW237716   1.862   0.003   9.094  1.5202 -1.6804  1.7424
 8694SOL     OW37717   1.528   0.871   7.026 -0.3771  0.1498  0.2331
 8694SOL    HW137718   1.607   0.871   6.972 -0.4351  2.2012  0.1297
 8694SOL    HW237719   1.486   0.786   7.011 -0.7234  0.0818  1.5750
 8695SOL     OW37720   3.312   1.215   7.811  0.2083  0.2719  0.7977
 8695SOL    HW137721   3.315   1.303   7.848 -0.9277  0.1531  1.1523
 8695SOL    HW237722   3.266   1.164   7.876  1.4508  0.5839  1.9200
 8696SOL     OW37723   3.025   3.335   8.025 -0.1963 -0.0647  0.1614
 8696SOL    HW137724   2.946   3.312   8.074 -0.6865  1.4332  0.0731
 8696SOL    HW237725   3.075   3.257   8.051 -0.0281 -0.0917 -0.2443
 8697SOL     OW37726   2.721   2.552   5.229  0.0462  0.6556  0.0964
 8697SOL    HW137727   2.755   2.587   5.312 -0.0602 -2.2493  1.3808
 8697SOL    HW237728   2.776   2.596   5.165  0.3608 -1.1556 -0.8835
 8698SOL     OW37729   2.860   1.496   2.372  0.0290  0.1544  0.0800
 8698SOL    HW137730   2.798   1.422   2.367 -0.0423  0.1269  1.3002
 8698SOL    HW237731   2.940   1.454   2.402 -1.0010  0.6927  3.6413
 8699SOL     OW37732   0.459   1.605   3.982 -0.3203 -0.1146 -0.0104
 8699SOL    HW137733   0.533   1.591   3.923 -0.5730  0.1710 -0.3978
 8699SOL    HW237734   0.442   1.515   4.010 -2.8851  0.5299  0.4452
 8700SOL     OW37735   2.857   0.845  13.062 -1.0820 -0.6052  0.1168
 8700SOL    HW137736   2.951   0.828  13.067 -0.6136  1.5524 -1.3211
 8700SOL    HW237737   2.849   0.851  12.967 -1.3700  0.1302  0.1865
 8701SOL     OW37738   4.207   3.621  17.261 -0.1336 -0.1902  0.1302
 8701SOL    HW137739   4.139   3.624  17.328  0.1392 -0.3457  0.4102
 8701SOL    HW237740   4.278   3.662  17.310 -0.9323  1.0735  0.2459
 8702SOL     OW37741   2.931   2.704   3.698 -0.2280 -0.2233  0.1307
 8702SOL    HW137742   2.969   2.616   3.694  1.2485  0.4937 -1.5955
 8702SOL    HW237743   2.867   2.699   3.769  1.4838  0.6892  1.7580
 8703SOL     OW37744   0.888   3.302   5.002 -0.4148 -0.1891 -0.1386
 8703SOL    HW137745   0.853   3.217   4.976  0.7919 -0.6588 -0.2297
 8703SOL    HW237746   0.971   3.269   5.038 -0.2994 -0.2765 -0.4778
 8704SOL     OW37747   0.191   1.178   0.050 -0.1558 -0.4787  0.2926
 8704SOL    HW137748   0.208   1.100  17.744  1.2851 -0.1541  0.2744
 8704SOL    HW237749   0.119   1.213  17.743  0.5598 -0.4004 -0.6121
 8705SOL     OW37750   4.594   0.065  16.699 -0.2076  0.2672 -0.0776
 8705SOL    HW137751   4.546   0.118  16.763 -1.7943  1.9650 -2.6980
 8705SOL    HW237752   4.621   0.139  16.646 -0.0094  0.8378  0.8181
 8706SOL     OW37753   0.915   4.092   6.574 -0.5023 -0.4935 -0.3200
 8706SOL    HW137754   0.924   4.175   6.621  0.6683 -0.3530 -0.7829
 8706SOL    HW237755   0.986   4.100   6.511 -1.8431 -1.1107 -1.9000
 8707SOL     OW37756   2.315   2.614   6.024 -0.3369 -0.0126 -0.1212
 8707SOL    HW137757   2.220   2.605   6.023 -0.2162 -1.5054  0.8829
 8707SOL    HW237758   2.335   2.624   6.117  1.2010 -1.2461 -0.3169
 8708SOL     OW37759   1.807   0.637   6.042  0.7658 -0.2661  0.0362
 8708SOL    HW137760   1.722   0.598   6.019 -0.4551  1.8958  0.8745
 8708SOL    HW237761   1.857   0.556   6.056  2.6574  0.7634 -0.8082
 8709SOL     OW37762   4.533   3.617   2.551  0.0901  0.3306 -0.1263
 8709SOL    HW137763   4.571   3.626   2.464  0.0934 -1.2908 -0.2935
 8709SOL    HW237764   4.443   3.594   2.530  0.6041  0.4798 -2.4477
 8710SOL     OW37765   3.215   3.642   7.470 -0.1329 -0.0582 -0.0432
 8710SOL    HW137766   3.265   3.721   7.490 -1.1364  1.1195 -2.1144
 8710SOL    HW237767   3.270   3.564   7.477  0.9231  0.7757  0.9084
 8711SOL     OW37768   2.977   3.660   2.219 -0.0467 -0.3564  0.4006
 8711SOL    HW137769   2.920   3.666   2.142 -0.0843  0.9844  0.5300
 8711SOL    HW237770   3.014   3.576   2.191  0.8319 -0.1974  1.0856
 8712SOL     OW37771   4.642   0.750   5.123  0.5800 -0.3111 -0.0379
 8712SOL    HW137772   4.719   0.807   5.120 -0.2745  0.8911  0.8512
 8712SOL    HW237773   4.643   0.707   5.038 -1.9681  0.5864 -0.5113
 8713SOL     OW37774   3.944   2.129   9.008 -0.0229 -0.5826 -0.0485
 8713SOL    HW137775   3.949   2.058   9.072 -0.0570 -0.3044  0.2590
 8713SOL    HW237776   3.887   2.085   8.944  1.4005  0.6401 -2.1649
 8714SOL     OW37777   3.859   0.668  17.092  0.2634 -0.1776  0.5788
 8714SOL    HW137778   3.944   0.623  17.088 -0.9887 -2.4894  0.0583
 8714SOL    HW237779   3.855   0.734  17.023  0.2047  0.4386  1.1792
 8715SOL     OW37780   1.781   4.164  16.833 -0.3484 -0.1451  0.3344
 8715SOL    HW137781   1.710   4.179  16.771  1.6266  0.8964 -1.7066
 8715SOL    HW237782   1.746   4.208  16.910 -2.0167 -2.0528  0.6779
 8716SOL     OW37783   1.479   0.253  17.563  0.5189 -0.2231  0.1983
 8716SOL    HW137784   1.432   0.173  17.545  1.0819 -0.3794 -0.5663
 8716SOL    HW237785   1.553   0.246  17.502  0.4668 -1.9265  0.3433
 8717SOL     OW37786   2.078   3.322   2.807  0.2531  0.4022 -0.0272
 8717SOL    HW137787   2.143   3.380   2.766  1.8317 -2.0357 -0.9878
 8717SOL    HW237788   2.128   3.240   2.815  0.4208  0.7174  2.0194
 8718SOL     OW37789   3.891   3.109   7.472  0.3334 -0.0980 -0.0857
 8718SOL    HW137790   3.984   3.124   7.488 -0.0933 -0.0477  2.2626
 8718SOL    HW237791   3.851   3.192   7.497 -1.7321 -1.0186 -0.3081
 8719SOL     OW37792   1.487   4.363   5.732  0.1223 -0.2990  0.1179
 8719SOL    HW137793   1.533   4.398   5.655 -2.8296 -0.5107 -1.7314
 8719SOL    HW237794   1.501   4.435   5.793 -0.1168  0.8930 -1.2234
 8720SOL     OW37795   4.176   0.068  17.298  0.1800  0.1553  0.1809
 8720SOL    HW137796   4.218   0.054  17.383 -2.0786 -2.2319  0.9011
 8720SOL    HW237797   4.083   0.051  17.316  0.6987 -0.1846  2.6022
 8721SOL     OW37798   0.171   1.851  13.579  0.1730 -0.0454 -0.6446
 8721SOL    HW137799   0.227   1.817  13.509 -2.0806 -2.7737 -1.1104
 8721SOL    HW237800   0.083   1.816  13.567  0.3668 -0.2663 -1.3887
 8722SOL     OW37801   1.495   0.491   9.112  0.3770 -0.5073 -0.2790
 8722SOL    HW137802   1.531   0.579   9.126 -0.3739 -0.7279  2.9870
 8722SOL    HW237803   1.404   0.518   9.096  0.2584 -0.3970  0.5467
 8723SOL     OW37804   2.994   0.020  13.842  0.3389  0.1914  0.3550
 8723SOL    HW137805   2.937   4.733  13.915  0.1387  1.4376  0.6099
 8723SOL    HW237806   3.021   4.668  13.817 -2.8197 -1.0221  1.3001
 8724SOL     OW37807   3.814   4.635   0.062 -0.1551  0.0921  0.0079
 8724SOL    HW137808   3.797   4.718   0.017 -0.0711  0.2692  0.3007
 8724SOL    HW237809   3.812   4.567  17.742  1.3192 -0.0743  0.1410
 8725SOL     OW37810   3.750   2.391   7.415 -0.2459  0.0873  0.5945
 8725SOL    HW137811   3.698   2.401   7.336 -1.3791  1.3854  1.5172
 8725SOL    HW237812   3.749   2.480   7.449  2.6725 -0.4230  2.0721
 8726SOL     OW37813   1.384   2.536   4.611 -0.3752 -0.6611  0.2041
 8726SOL    HW137814   1.447   2.605   4.591  1.2763 -2.4773 -0.8198
 8726SOL    HW237815   1.368   2.514   4.519  0.8796 -0.5117 -0.0458
 8727SOL     OW37816   1.385   0.165  16.107  0.0295 -0.0944 -0.3125
 8727SOL    HW137817   1.301   0.123  16.127  0.2470 -1.4310 -2.2380
 8727SOL    HW237818   1.389   0.230  16.177  1.1553  1.8721 -2.2112
 8728SOL     OW37819   0.482   1.399   1.146 -0.2092  0.7012  0.3010
 8728SOL    HW137820   0.434   1.373   1.067  0.3209 -0.8837  0.5018
 8728SOL    HW237821   0.417   1.459   1.183 -0.5218  1.1859 -1.0185
 8729SOL     OW37822   0.306   1.069   4.021 -0.5320 -0.2964  0.2719
 8729SOL    HW137823   0.258   1.017   3.957 -0.3957 -2.5099  1.9920
 8729SOL    HW237824   0.396   1.038   4.007 -1.0276 -1.2373 -0.7741
 8730SOL     OW37825   1.528   3.242   1.693 -0.1812  0.4189  0.7281
 8730SOL    HW137826   1.526   3.234   1.789  1.1624  0.3519  0.7494
 8730SOL    HW237827   1.526   3.337   1.686 -0.7645  0.4238  0.9118
 8731SOL     OW37828   4.042   0.405  14.006 -0.1877 -0.1982  0.2589
 8731SOL    HW137829   4.060   0.472  13.940 -0.8090  1.2850  1.5928
 8731SOL    HW237830   4.023   0.468  14.075  3.1843 -0.1606  1.1342
 8732SOL     OW37831   1.432   3.656   9.742  1.1106 -0.1401  0.2767
 8732SOL    HW137832   1.382   3.666   9.823  0.8009  0.2963  0.0344
 8732SOL    HW237833   1.484   3.736   9.737  1.3744 -0.3884 -0.9706
 8733SOL     OW37834   0.539   2.491   6.738 -0.0581  0.0635 -0.4810
 8733SOL    HW137835   0.555   2.555   6.807  3.0497 -0.5873 -0.5711
 8733SOL    HW237836   0.576   2.539   6.664  1.9784  0.0752  0.5286
 8734SOL     OW37837   0.910   2.156   1.170 -0.4344 -0.3065 -0.0547
 8734SOL    HW137838   0.884   2.172   1.261 -0.2981 -1.4255  0.1824
 8734SOL    HW237839   0.953   2.070   1.173  0.8358  0.3484  0.3053
 8735SOL     OW37840   3.860   4.256   3.726 -0.1629 -0.0571 -0.4151
 8735SOL    HW137841   3.829   4.250   3.817 -0.8735 -0.1783 -0.6677
 8735SOL    HW237842   3.808   4.185   3.688 -0.4779  0.1621 -0.3902
 8736SOL     OW37843   3.272   3.258   2.777  0.3289 -0.6729  0.2327
 8736SOL    HW137844   3.223   3.252   2.859  0.8606 -2.8371  0.3938
 8736SOL    HW237845   3.256   3.349   2.752 -2.1879 -1.0963  0.2853
 8737SOL     OW37846   1.319   1.546   6.716 -0.3284 -0.3639  0.1510
 8737SOL    HW137847   1.257   1.480   6.746 -1.3656  1.1285  1.2421
 8737SOL    HW237848   1.398   1.502   6.748 -0.0466 -0.7307 -1.0254
 8738SOL     OW37849   0.796   1.245   6.172  0.4363 -0.6696 -0.1153
 8738SOL    HW137850   0.745   1.320   6.143  1.6361  0.4974  0.7835
 8738SOL    HW237851   0.826   1.282   6.255  1.0247 -1.5301  0.0535
 8739SOL     OW37852   2.442   3.212   8.609  0.4176  0.3663 -0.2643
 8739SOL    HW137853   2.424   3.300   8.641 -0.5592  1.2475 -3.2882
 8739SOL    HW237854   2.362   3.181   8.568 -0.2879 -0.2574  1.5875
 8740SOL     OW37855   0.566   4.390   3.535 -0.3664  0.3788 -0.3485
 8740SOL    HW137856   0.596   4.321   3.594  0.1434  0.6149 -0.3294
 8740SOL    HW237857   0.600   4.474   3.566  0.0993 -0.0362  0.2521
 8741SOL     OW37858   4.423   4.119   0.679  0.3406 -0.6283  0.0989
 8741SOL    HW137859   4.451   4.097   0.591 -0.2952 -0.8658 -0.0472
 8741SOL    HW237860   4.364   4.188   0.648 -0.2476 -1.5689 -0.8603
 8742SOL     OW37861   0.682   2.932   3.929  0.4185 -0.2188  0.1990
 8742SOL    HW137862   0.666   3.016   3.972  1.2355  0.2879 -0.5021
 8742SOL    HW237863   0.597   2.910   3.891  0.1407  0.7067  0.2873
 8743SOL     OW37864   1.072   0.692   2.340  0.4852  0.0224  0.4584
 8743SOL    HW137865   0.977   0.675   2.340  0.6901 -1.0980  0.3698
 8743SOL    HW237866   1.103   0.727   2.424  0.2113 -0.7488  0.8849
 8744SOL     OW37867   2.058   0.765  11.531  0.3417 -0.5077  0.1272
 8744SOL    HW137868   1.968   0.736  11.546  0.2867 -0.7507 -0.6705
 8744SOL    HW237869   2.059   0.853  11.568  0.1293 -0.3338 -0.2823
 8745SOL     OW37870   3.602   0.566   4.095 -0.3519  0.2966  0.0886
 8745SOL    HW137871   3.531   0.628   4.082 -1.5382 -0.9403  0.6739
 8745SOL    HW237872   3.626   0.574   4.188 -1.4035  0.1297  0.3685
 8746SOL     OW37873   3.211   4.123   3.340 -0.9147  0.2081  0.9143
 8746SOL    HW137874   3.163   4.040   3.334 -0.4238 -0.0363  0.4021
 8746SOL    HW237875   3.162   4.183   3.283 -0.3532 -1.5959 -1.4479
 8747SOL     OW37876   1.807   3.232   5.523  0.3144  0.1272 -0.5693
 8747SOL    HW137877   1.792   3.138   5.524 -1.7264  0.4790  1.7429
 8747SOL    HW237878   1.795   3.247   5.429 -1.1562 -2.1476 -0.7262
 8748SOL     OW37879   4.730   4.069   5.957  0.4868 -0.5279  0.9438
 8748SOL    HW137880   0.028   4.154   5.982  0.4328  0.3829 -2.0723
 8748SOL    HW237881   4.644   4.100   5.928  0.3055 -2.0669 -0.1941
 8749SOL     OW37882   0.722   4.580   3.686  0.4523  0.2617  0.3665
 8749SOL    HW137883   0.809   4.617   3.676  0.6329 -1.3504 -3.8561
 8749SOL    HW237884   0.660   4.652   3.699 -0.1543 -0.5540  2.0817
 8750SOL     OW37885   1.706   2.647   5.139 -0.7157 -0.0328 -0.4932
 8750SOL    HW137886   1.701   2.609   5.227 -0.9307  0.5493 -0.2482
 8750SOL    HW237887   1.761   2.583   5.096  0.6127  0.6992  0.1103
 8751SOL     OW37888   1.578   3.591   3.798  1.3478 -0.3164  0.2229
 8751SOL    HW137889   1.635   3.666   3.815 -0.1814  0.3681  2.2767
 8751SOL    HW237890   1.601   3.549   3.881  2.3357 -2.4762 -1.1352
 8752SOL     OW37891   3.501   1.138   6.545 -0.0267  0.1742 -0.2022
 8752SOL    HW137892   3.438   1.198   6.585 -1.2355 -0.4751 -1.1382
 8752SOL    HW237893   3.473   1.148   6.454  1.7900  0.1152 -0.7709
 8753SOL     OW37894   1.824   3.881  12.321 -0.0533 -0.2377 -0.0002
 8753SOL    HW137895   1.846   3.857  12.411  1.3330  0.1690 -0.2311
 8753SOL    HW237896   1.912   3.883  12.283 -1.5794  0.9050 -3.4121
 8754SOL     OW37897   2.010   2.344   6.042  0.0327  0.2927  0.3456
 8754SOL    HW137898   1.982   2.258   6.011  1.5771  0.8005 -2.4063
 8754SOL    HW237899   2.038   2.323   6.131  2.1901  1.2006 -0.1338
 8755SOL     OW37900   1.281   0.732   9.407 -0.1041 -0.1796 -0.8875
 8755SOL    HW137901   1.367   0.691   9.417 -0.2170 -0.7438 -2.2792
 8755SOL    HW237902   1.306   0.823   9.393 -0.7925  0.0541 -0.5930
 8756SOL     OW37903   3.054   1.053   5.331  0.0491  0.0984  0.3987
 8756SOL    HW137904   3.078   1.115   5.262 -1.2638 -0.8843 -0.9475
 8756SOL    HW237905   2.982   1.015   5.280  0.4437 -1.1802  0.7828
 8757SOL     OW37906   1.191   3.145   9.203 -0.0547  0.4941 -0.6161
 8757SOL    HW137907   1.251   3.216   9.182 -0.4953  0.7572 -0.9744
 8757SOL    HW237908   1.175   3.110   9.115  0.3924  0.4389 -0.6808
 8758SOL     OW37909   2.839   1.485   9.167  0.0700  0.4482 -0.4754
 8758SOL    HW137910   2.885   1.468   9.085  2.8477 -0.4025  1.2617
 8758SOL    HW237911   2.868   1.574   9.183 -1.0490  0.5762  0.8785
 8759SOL     OW37912   0.155   0.473   3.755  0.1329  0.1203 -0.2213
 8759SOL    HW137913   0.115   0.560   3.762 -2.6681 -1.2738  1.5048
 8759SOL    HW237914   0.248   0.494   3.763  0.6664 -1.8344 -1.2807
 8760SOL     OW37915   0.887   2.496   9.441  0.3623  0.0337  0.2266
 8760SOL    HW137916   0.939   2.576   9.443 -1.5315  1.2683 -0.1086
 8760SOL    HW237917   0.804   2.536   9.466  1.1160  1.7408 -0.0025
 8761SOL     OW37918   2.372   0.929   7.613  0.1141  0.4266 -0.4539
 8761SOL    HW137919   2.372   0.855   7.553  1.0785  0.6052 -0.6677
 8761SOL    HW237920   2.278   0.932   7.632  0.3857 -0.4502  1.1003
 8762SOL     OW37921   4.662   2.411  10.029 -0.4255 -0.3980  0.1178
 8762SOL    HW137922   0.017   2.407  10.003 -0.3756 -1.3218  0.4463
 8762SOL    HW237923   4.662   2.329  10.078  1.9070 -0.2183  0.4010
 8763SOL     OW37924   4.311   2.283   2.503 -0.2446 -0.5744  0.7756
 8763SOL    HW137925   4.383   2.344   2.522 -0.1283 -0.0533 -1.3421
 8763SOL    HW237926   4.258   2.298   2.581  0.4032  0.4122  1.0343
 8764SOL     OW37927   0.423   4.258   2.837  0.1677  0.1096 -0.2144
 8764SOL    HW137928   0.484   4.299   2.899 -0.2864 -1.4845  1.2678
 8764SOL    HW237929   0.376   4.337   2.812 -1.3308 -0.3333  1.2528
 8765SOL     OW37930   4.694   4.155   9.730  0.6078  0.2121 -0.1029
 8765SOL    HW137931   4.728   4.067   9.744 -3.5914 -1.6696 -1.6430
 8765SOL    HW237932   0.034   4.213   9.734 -1.7433  3.4622 -1.5085
 8766SOL     OW37933   1.336   2.761   4.309  0.1588 -0.0522  0.4095
 8766SOL    HW137934   1.344   2.666   4.312 -2.6231 -0.3114 -0.0011
 8766SOL    HW237935   1.413   2.791   4.260 -0.8591  0.7682 -0.6959
 8767SOL     OW37936   2.626   4.127   3.479 -0.4057  0.5463  0.0385
 8767SOL    HW137937   2.582   4.130   3.394  0.5513 -0.8808 -0.5185
 8767SOL    HW237938   2.615   4.034   3.499 -1.8542  0.6166 -0.4123
 8768SOL     OW37939   1.524   3.510   6.731  0.4977  0.3258 -0.1380
 8768SOL    HW137940   1.518   3.444   6.800  1.9412 -0.0516 -0.3735
 8768SOL    HW237941   1.616   3.534   6.720 -0.0141  1.8698 -0.9425
 8769SOL     OW37942   3.604   1.077  12.047  0.5436  0.4444 -0.5484
 8769SOL    HW137943   3.629   0.985  12.061  0.6235  0.1643 -2.4668
 8769SOL    HW237944   3.664   1.128  12.101  2.8368 -1.3839 -1.3376
 8770SOL     OW37945   2.260   4.586   6.878 -0.7111  0.1465  0.5874
 8770SOL    HW137946   2.271   4.528   6.802  1.4866 -1.2776  2.0051
 8770SOL    HW237947   2.347   4.579   6.917 -0.4547  0.5337  0.0874
 8771SOL     OW37948   4.438   0.762   8.007  0.2593  1.0740  0.7967
 8771SOL    HW137949   4.528   0.791   8.023  0.5202  0.4302  0.4796
 8771SOL    HW237950   4.428   0.693   8.073 -1.8804  0.3765 -0.2345
 8772SOL     OW37951   1.914   2.886   1.399 -0.3053 -0.2177 -0.3183
 8772SOL    HW137952   1.972   2.812   1.381 -1.0402 -0.7036 -0.6959
 8772SOL    HW237953   1.897   2.873   1.492 -1.3637  0.8791 -0.3578
 8773SOL     OW37954   1.841   4.402   0.623 -0.3293 -0.2047 -0.4124
 8773SOL    HW137955   1.923   4.379   0.579 -0.1090 -0.0249 -0.0967
 8773SOL    HW237956   1.834   4.495   0.602  0.4554 -0.4414 -1.7295
 8774SOL     OW37957   0.365   3.870   5.670 -0.2724 -0.0810  0.3028
 8774SOL    HW137958   0.372   3.778   5.644 -0.5964  0.5519 -2.0163
 8774SOL    HW237959   0.422   3.866   5.746 -0.0342 -1.3060  0.0680
 8775SOL     OW37960   1.285   1.712   7.029 -0.9376  0.1914  0.2043
 8775SOL    HW137961   1.225   1.639   7.048 -2.7912  2.3111  2.4981
 8775SOL    HW237962   1.227   1.781   6.998 -2.5789 -0.4809  1.7685
 8776SOL     OW37963   1.406   2.499   0.416 -0.4254 -0.4707 -0.1317
 8776SOL    HW137964   1.358   2.435   0.469 -1.5350  2.6154  2.5971
 8776SOL    HW237965   1.356   2.580   0.425  1.0177  0.3060  0.8914
 8777SOL     OW37966   2.624   3.713   6.709 -0.2614 -0.0342 -0.6688
 8777SOL    HW137967   2.560   3.785   6.706  1.2278  1.3317  0.1330
 8777SOL    HW237968   2.679   3.738   6.784  0.0240 -2.0628 -0.1980
 8778SOL     OW37969   0.024   1.598   5.964 -0.2503 -0.2174 -0.1977
 8778SOL    HW137970   4.695   1.579   6.031 -0.4605  1.8856  0.1972
 8778SOL    HW237971   0.037   1.691   5.985 -1.7464  0.2922 -1.5461
 8779SOL     OW37972   0.059   3.293   6.582 -0.1466 -0.2115  0.3094
 8779SOL    HW137973   0.014   3.287   6.498 -1.3801 -2.1167  1.1202
 8779SOL    HW237974   0.060   3.201   6.607 -0.2052 -0.1279  0.6212
 8780SOL     OW37975   1.340   0.789   6.674 -0.0659 -0.1684  0.0911
 8780SOL    HW137976   1.249   0.768   6.652  0.0441  0.5205 -0.9820
 8780SOL    HW237977   1.385   0.706   6.663 -0.2557 -0.0677 -1.4197
 8781SOL     OW37978   3.248   1.086   1.396  0.1555  0.1531 -0.7017
 8781SOL    HW137979   3.174   1.040   1.357  0.3306 -1.9908  1.4572
 8781SOL    HW237980   3.215   1.175   1.393 -0.9733 -0.1908  1.6447
 8782SOL     OW37981   3.574   0.277   5.297 -0.4294 -0.4825 -0.5139
 8782SOL    HW137982   3.626   0.216   5.245  0.1481 -1.2644  0.9850
 8782SOL    HW237983   3.640   0.337   5.334 -0.7461  0.3699 -1.3279
 8783SOL     OW37984   4.056   4.010  13.470 -0.3617  0.6200  0.3747
 8783SOL    HW137985   4.101   3.987  13.551 -0.5290  0.0067  0.2981
 8783SOL    HW237986   3.998   4.083  13.492 -0.0715  0.5450  1.3710
 8784SOL     OW37987   1.563   4.432   4.983  0.1410 -0.5159  0.5069
 8784SOL    HW137988   1.500   4.491   4.942  0.5572 -0.1166  0.4449
 8784SOL    HW237989   1.645   4.481   4.976 -0.9504  0.9177 -2.2389
 8785SOL     OW37990   3.506   1.582   7.926 -0.1091 -0.2448  0.5920
 8785SOL    HW137991   3.569   1.536   7.870  1.6266  1.7750  0.8981
 8785SOL    HW237992   3.528   1.568   8.018  0.3530 -0.8696  0.3832
 8786SOL     OW37993   4.217   3.980   5.771 -0.3276 -0.5252 -0.0143
 8786SOL    HW137994   4.170   3.921   5.830  0.4784 -1.1460  0.0102
 8786SOL    HW237995   4.139   4.005   5.722  0.9102  2.4601 -0.4388
 8787SOL     OW37996   4.573   4.496  16.847 -0.2192 -0.5733 -0.5914
 8787SOL    HW137997   4.601   4.421  16.900  0.6877 -1.8810 -2.9234
 8787SOL    HW237998   4.500   4.458  16.798 -0.8562  0.5436 -0.5257
 8788SOL     OW37999   3.390   1.306   4.807  0.4841 -0.2918  0.3127
 8788SOL    HW138000   3.356   1.243   4.744 -0.3982 -0.9016  1.4017
 8788SOL    HW238001   3.390   1.390   4.759 -2.6929 -0.6575 -0.3155
 8789SOL     OW38002   2.235   3.654   4.242 -0.1709  0.3446 -0.2039
 8789SOL    HW138003   2.182   3.727   4.210  1.4332  2.3529  1.7607
 8789SOL    HW238004   2.279   3.634   4.160  0.1399  2.1848 -0.4809
 8790SOL     OW38005   0.955   1.929  16.251  0.3326  0.8696 -0.1587
 8790SOL    HW138006   0.971   1.966  16.338 -0.8141  0.1389  0.3564
 8790SOL    HW238007   1.040   1.891  16.229 -0.5604  0.9692 -3.7601
 8791SOL     OW38008   2.226   2.371   8.498 -0.0810  0.4872 -0.2377
 8791SOL    HW138009   2.318   2.349   8.486 -0.2145 -1.2908  1.9120
 8791SOL    HW238010   2.206   2.392   8.407  1.8183  0.7712 -0.5909
 8792SOL     OW38011   0.440   1.356   2.989 -0.0121 -0.3020  0.8112
 8792SOL    HW138012   0.417   1.380   2.899  0.9034 -1.0875  0.3602
 8792SOL    HW238013   0.427   1.262   3.001  0.2818 -0.1339  2.3559
 8793SOL     OW38014   3.606   2.129   4.823 -0.0668  0.0134  0.1416
 8793SOL    HW138015   3.631   2.101   4.735  0.4348 -0.8236  0.5457
 8793SOL    HW238016   3.685   2.129   4.877  0.3357  2.3935 -0.4821
 8794SOL     OW38017   1.470   0.762   5.392 -0.4615  0.0911  0.1241
 8794SOL    HW138018   1.555   0.725   5.416 -0.0039 -0.3113 -2.0956
 8794SOL    HW238019   1.429   0.744   5.477 -0.1212 -3.6241 -0.4963
 8795SOL     OW38020   0.458   4.382   1.148 -0.2741  0.0264  0.2921
 8795SOL    HW138021   0.466   4.470   1.184 -0.2446 -0.2983  1.0972
 8795SOL    HW238022   0.363   4.381   1.141 -0.1777  0.3633 -0.9575
 8796SOL     OW38023   0.826   3.783  12.054  0.2470  0.1655  0.0676
 8796SOL    HW138024   0.839   3.778  12.149  0.1782  0.1787  0.0776
 8796SOL    HW238025   0.910   3.824  12.032 -0.2413  2.2021  2.0513
 8797SOL     OW38026   0.553   0.304  15.274 -0.3078  0.0998 -0.5331
 8797SOL    HW138027   0.525   0.270  15.189 -2.3888 -2.9026  1.3644
 8797SOL    HW238028   0.565   0.399  15.269  0.4014 -0.1461 -3.3040
 8798SOL     OW38029   3.518   2.682  16.582 -0.9057  0.1811 -0.1326
 8798SOL    HW138030   3.481   2.597  16.607 -1.2609  0.6843  1.0448
 8798SOL    HW238031   3.436   2.711  16.541 -1.4896 -1.0941  0.1232
 8799SOL     OW38032   1.235   4.557  12.364 -0.2466  0.1101  0.1123
 8799SOL    HW138033   1.305   4.614  12.332 -0.5317 -0.0339 -0.7779
 8799SOL    HW238034   1.185   4.616  12.420 -3.0759  0.7068 -3.0292
 8800SOL     OW38035   0.091   0.418  10.308 -0.3285 -0.2611  0.6396
 8800SOL    HW138036   0.053   0.343  10.264  0.3120 -1.0194  1.3890
 8800SOL    HW238037   0.025   0.451  10.369 -0.7862 -0.0304  0.0089
 8801SOL     OW38038   2.689   2.049  13.323  0.1013 -0.0073  0.1660
 8801SOL    HW138039   2.596   2.063  13.341  0.3989 -1.1097  2.5730
 8801SOL    HW238040   2.712   2.002  13.403 -0.0234 -0.1830  0.0974
 8802SOL     OW38041   3.968   1.822   8.721 -0.6361  0.4081  0.2038
 8802SOL    HW138042   3.925   1.908   8.731 -0.1989  0.6758 -0.2214
 8802SOL    HW238043   4.030   1.830   8.793 -1.0021 -2.5584  0.8528
 8803SOL     OW38044   4.344   1.170   2.790 -0.0543 -0.2329 -0.0361
 8803SOL    HW138045   4.311   1.134   2.873  0.0324 -1.6647 -0.6203
 8803SOL    HW238046   4.374   1.090   2.747 -0.0695 -0.4206  0.3004
 8804SOL     OW38047   2.639   1.918   2.474  0.3323  0.2110 -0.2949
 8804SOL    HW138048   2.708   1.968   2.518  1.9960 -0.3933 -2.2301
 8804SOL    HW238049   2.658   1.831   2.508  0.0188  0.7196  1.2018
 8805SOL     OW38050   2.665   3.997   5.501 -0.0680 -0.4143 -0.2817
 8805SOL    HW138051   2.662   3.901   5.500 -0.9631 -0.3768 -1.7982
 8805SOL    HW238052   2.590   4.018   5.556  0.4239  0.0106  0.2235
 8806SOL     OW38053   4.452   3.135   8.639 -0.7611  0.2757  0.2421
 8806SOL    HW138054   4.530   3.143   8.694 -0.5079 -2.0143  0.2051
 8806SOL    HW238055   4.421   3.057   8.684 -1.6803  0.1590 -0.5839
 8807SOL     OW38056   3.855   2.153  13.081  0.1408  0.1874 -0.0417
 8807SOL    HW138057   3.885   2.220  13.142 -0.5321 -1.7419  2.3990
 8807SOL    HW238058   3.807   2.202  13.013  0.3399  0.9388  0.3628
 8808SOL     OW38059   4.427   2.706   2.990  0.0860 -0.0795  0.6230
 8808SOL    HW138060   4.474   2.709   2.907  1.0257 -1.6226  1.1006
 8808SOL    HW238061   4.452   2.618   3.019 -0.2247 -1.1511 -2.3322
 8809SOL     OW38062   4.395   2.996  10.042  0.0569  0.9220 -0.3634
 8809SOL    HW138063   4.318   3.037  10.083  0.2410  1.0696 -0.1665
 8809SOL    HW238064   4.436   3.075  10.008  0.2723  0.1250 -1.9366
 8810SOL     OW38065   3.749   1.436   7.113  0.4841 -0.4781 -0.1771
 8810SOL    HW138066   3.677   1.486   7.075 -0.8229 -0.9392  1.6981
 8810SOL    HW238067   3.781   1.402   7.030  1.6154 -0.6844  0.3424
 8811SOL     OW38068   0.074   3.463  16.128  0.2321  0.9443 -0.2654
 8811SOL    HW138069   0.046   3.512  16.205  2.0264 -0.4725  1.2824
 8811SOL    HW238070   0.003   3.481  16.066 -0.9716 -0.5311  0.6949
 8812SOL     OW38071   0.746   4.661   3.227 -0.0397  0.6878 -0.3148
 8812SOL    HW138072   0.727   4.568   3.239 -3.0011  1.0155 -2.5851
 8812SOL    HW238073   0.811   4.665   3.157 -0.5357 -1.7430 -0.9010
 8813SOL     OW38074   0.500   2.424   7.082 -0.2497  0.2448 -0.1028
 8813SOL    HW138075   0.543   2.501   7.118 -0.6498  0.8504 -0.9181
 8813SOL    HW238076   0.509   2.366   7.158  0.1642 -0.8072 -0.9484
 8814SOL     OW38077   0.767   3.861   9.429  0.4291 -0.2384 -0.1672
 8814SOL    HW138078   0.781   3.931   9.365  3.7658 -1.2675 -0.5384
 8814SOL    HW238079   0.856   3.844   9.458  0.8839  2.5483 -0.0221
 8815SOL     OW38080   4.205   4.591   7.775  0.1540 -0.3807  0.0291
 8815SOL    HW138081   4.129   4.533   7.777 -1.0841  1.3094  1.8621
 8815SOL    HW238082   4.212   4.610   7.868 -0.4536  0.4395 -0.0854
 8816SOL     OW38083   1.499   3.067   6.266  0.0562 -0.7144  0.6831
 8816SOL    HW138084   1.456   3.043   6.184  0.5397  0.3655  0.1173
 8816SOL    HW238085   1.428   3.042   6.325 -2.8304  2.7349 -1.2815
 8817SOL     OW38086   0.746   4.389   8.212  0.1738 -0.2633 -0.3241
 8817SOL    HW138087   0.737   4.353   8.300 -4.0446  2.6139  0.4157
 8817SOL    HW238088   0.682   4.460   8.218  0.1406 -0.3740  0.6034
 8818SOL     OW38089   3.331   2.818   3.507  0.0894  0.3122  0.4872
 8818SOL    HW138090   3.338   2.883   3.437  1.7775 -1.7897 -1.2910
 8818SOL    HW238091   3.242   2.838   3.535 -0.6310 -0.6957 -1.0648
 8819SOL     OW38092   0.069   1.177  13.006  0.1811 -0.0784  0.0039
 8819SOL    HW138093   0.141   1.173  12.943  0.8598  1.8601  0.6543
 8819SOL    HW238094   0.030   1.263  12.991 -0.2650 -0.0099  1.6153
 8820SOL     OW38095   2.903   2.092   4.073  0.5146 -0.3696  0.3555
 8820SOL    HW138096   2.953   2.025   4.119  1.7336 -0.3518 -0.9333
 8820SOL    HW238097   2.924   2.172   4.120 -1.7161 -0.4604  1.4958
 8821SOL     OW38098   4.618   3.446   6.729 -0.4558 -0.2846 -0.2047
 8821SOL    HW138099   4.662   3.441   6.813 -0.2198  1.0970 -0.2449
 8821SOL    HW238100   4.666   3.377   6.684 -1.4656  0.1058 -1.8878
 8822SOL     OW38101   1.166   0.028   0.383  0.3865 -0.3840 -0.5249
 8822SOL    HW138102   1.252   0.064   0.362  0.0155  1.1064  0.5217
 8822SOL    HW238103   1.108   0.096   0.350 -0.0050 -0.1177  0.7193
 8823SOL     OW38104   3.564   1.354  17.009 -0.1660  0.3816  0.2432
 8823SOL    HW138105   3.659   1.361  16.996 -0.2400 -0.9658 -0.9432
 8823SOL    HW238106   3.535   1.441  17.037 -0.8014  0.6413 -1.2354
 8824SOL     OW38107   2.346   1.885   7.535 -0.6137 -0.1514  0.3454
 8824SOL    HW138108   2.394   1.914   7.612 -1.7304  1.9614  0.2451
 8824SOL    HW238109   2.399   1.818   7.492  0.3701  1.5631 -1.1323
 8825SOL     OW38110   3.568   1.186   2.984 -0.1084 -0.4465  0.0967
 8825SOL    HW138111   3.626   1.244   3.033 -1.3211  3.3284 -2.9846
 8825SOL    HW238112   3.538   1.134   3.059  2.5751  0.2646  1.6670
 8826SOL     OW38113   1.315   2.131  16.616  0.1456 -0.0413 -0.0998
 8826SOL    HW138114   1.367   2.210  16.602  1.1392 -0.1363  3.1409
 8826SOL    HW238115   1.382   2.064  16.623  1.3456  1.1411 -0.2636
 8827SOL     OW38116   0.728   4.495   6.483  0.4272 -0.6786 -0.1423
 8827SOL    HW138117   0.803   4.442   6.509  1.0938 -0.0131 -0.7116
 8827SOL    HW238118   0.658   4.430   6.473 -1.2473  1.4673 -2.4069
 8828SOL     OW38119   2.531   1.637   5.956 -0.1766  0.4192 -0.7137
 8828SOL    HW138120   2.564   1.642   5.866  0.6799 -0.7051 -0.4617
 8828SOL    HW238121   2.469   1.709   5.961 -1.3940 -0.7401  0.8561
 8829SOL     OW38122   1.623   3.461   1.129  0.6609  0.6139  0.7614
 8829SOL    HW138123   1.591   3.513   1.202  0.8662  1.1698  0.4540
 8829SOL    HW238124   1.712   3.443   1.159  1.7300  1.5695 -1.8262
 8830SOL     OW38125   3.733   0.132   4.542 -0.0219 -0.3140  0.0769
 8830SOL    HW138126   3.693   0.177   4.468 -0.1802  0.2979  0.5331
 8830SOL    HW238127   3.775   0.052   4.511  2.4080  1.1251 -0.3267
 8831SOL     OW38128   0.414   0.875   9.008 -0.2081  0.2553  0.1715
 8831SOL    HW138129   0.506   0.849   9.021 -0.1486  0.3380 -0.0827
 8831SOL    HW238130   0.420   0.969   9.020  1.5033  0.0218  1.2155
 8832SOL     OW38131   2.845   1.104   6.181  0.2542 -0.3518  0.0958
 8832SOL    HW138132   2.787   1.121   6.107  1.4701  1.6598 -0.3801
 8832SOL    HW238133   2.787   1.075   6.251 -1.0409  3.2320  0.4955
 8833SOL     OW38134   4.532   3.466   9.717  0.2146 -0.7434  0.0554
 8833SOL    HW138135   4.452   3.489   9.669  0.8585 -1.6243 -1.4615
 8833SOL    HW238136   4.531   3.538   9.780  0.3340  0.8852 -1.7858
 8834SOL     OW38137   2.921   4.549   7.356 -0.3375 -0.3629 -0.4728
 8834SOL    HW138138   2.990   4.501   7.309  0.4648 -0.4372  0.7598
 8834SOL    HW238139   2.857   4.481   7.375  1.4073 -1.6698  0.8036
 8835SOL     OW38140   0.050   0.405   8.726  0.1936 -1.0593 -0.1151
 8835SOL    HW138141   4.714   0.393   8.787  0.0621  3.8149  0.7068
 8835SOL    HW238142   0.113   0.395   8.798  0.3624  0.9981  0.0457
 8836SOL     OW38143   1.385   2.001   5.326 -0.3867  0.4463  0.2973
 8836SOL    HW138144   1.293   1.987   5.303 -0.7705  1.0827  1.4782
 8836SOL    HW238145   1.434   1.957   5.255  0.1488  0.9382  0.3641
 8837SOL     OW38146   1.900   1.336  11.754  0.4180 -1.1390 -0.1634
 8837SOL    HW138147   1.921   1.429  11.761 -0.7041 -0.8251 -1.0856
 8837SOL    HW238148   1.841   1.327  11.829  2.0626 -1.4751  1.1022
 8838SOL     OW38149   2.391   1.126   6.071  0.4508  0.0924  0.5251
 8838SOL    HW138150   2.363   1.196   6.131  2.7916  0.1675  1.5144
 8838SOL    HW238151   2.346   1.156   5.991  0.8670  1.0519  0.6536
 8839SOL     OW38152   3.062   0.468   4.016 -0.1807  0.3124  0.0888
 8839SOL    HW138153   3.152   0.456   3.988 -0.8891 -1.4497 -1.4411
 8839SOL    HW238154   3.047   0.562   4.005  0.1367  0.1753 -1.5004
 8840SOL     OW38155   3.073   1.211   1.771  0.2749  0.0061 -0.4278
 8840SOL    HW138156   2.987   1.248   1.749 -0.3096 -0.7759  0.5586
 8840SOL    HW238157   3.119   1.286   1.810 -1.5948  1.0672 -0.2271
 8841SOL     OW38158   2.636   4.611   9.250  0.6451  0.0699 -0.2304
 8841SOL    HW138159   2.697   4.673   9.209  2.3250 -0.3113  1.7202
 8841SOL    HW238160   2.557   4.666   9.257  1.3319  1.0547 -0.2269
 8842SOL     OW38161   3.990   3.738   3.701 -0.7220 -0.2510  0.3771
 8842SOL    HW138162   4.061   3.788   3.741 -1.1126  0.7703 -0.2118
 8842SOL    HW238163   3.969   3.797   3.629 -1.9908 -2.1294 -0.8027
 8843SOL     OW38164   1.560   1.547   4.858  0.0842  0.2478  0.1548
 8843SOL    HW138165   1.497   1.578   4.923 -1.5944  1.6768 -2.1056
 8843SOL    HW238166   1.561   1.629   4.808 -0.4749  1.0997  1.5442
 8844SOL     OW38167   1.007   2.720   6.719 -0.1361  0.1435 -0.0052
 8844SOL    HW138168   0.992   2.661   6.792  3.0097 -0.6957 -0.0728
 8844SOL    HW238169   1.096   2.691   6.703 -0.9228 -1.9994 -0.5370
 8845SOL     OW38170   0.712   1.343   4.602  0.1999 -0.3471  0.0311
 8845SOL    HW138171   0.767   1.293   4.663  0.1156 -0.1549  0.2632
 8845SOL    HW238172   0.642   1.288   4.568  2.1870 -1.1433 -2.7330
 8846SOL     OW38173   1.186   1.647  14.520  0.4640 -0.2293  0.1237
 8846SOL    HW138174   1.117   1.704  14.486 -0.2504 -0.1346  1.6979
 8846SOL    HW238175   1.144   1.615  14.600  1.2159  2.6308  1.6674
 8847SOL     OW38176   1.423   1.891   5.584  1.1035 -0.2709  0.2465
 8847SOL    HW138177   1.433   1.966   5.643 -2.1302  1.4884 -1.4178
 8847SOL    HW238178   1.411   1.940   5.502 -1.0260 -3.6821 -1.4566
 8848SOL     OW38179   1.810   4.506   6.760  0.5657 -0.7422  0.0039
 8848SOL    HW138180   1.797   4.583   6.816  3.2162  0.1588 -0.6141
 8848SOL    HW238181   1.755   4.444   6.809 -1.6373  2.6671  1.9154
 8849SOL     OW38182   0.964   3.518   2.391  0.7433  0.0619 -0.4594
 8849SOL    HW138183   0.993   3.460   2.321 -1.9715 -1.3293 -0.4421
 8849SOL    HW238184   1.019   3.595   2.381  1.2926 -0.3035 -0.2560
 8850SOL     OW38185   0.736   4.560   8.597 -0.1059 -0.3752  0.0777
 8850SOL    HW138186   0.678   4.591   8.667 -1.1432 -3.9147  0.7646
 8850SOL    HW238187   0.713   4.626   8.531  0.2923 -1.3441 -1.0252
 8851SOL     OW38188   0.047   3.072   1.627  0.1038  0.0512 -0.2769
 8851SOL    HW138189   4.713   3.111   1.677 -0.9494 -1.4972 -0.5764
 8851SOL    HW238190   0.041   2.985   1.667  0.3913  1.0354  1.9080
 8852SOL     OW38191   0.446   0.690   4.487 -0.8279  0.3687  0.9042
 8852SOL    HW138192   0.411   0.779   4.496  3.0827  1.9245  0.7740
 8852SOL    HW238193   0.364   0.645   4.466 -1.9550  3.3236 -1.0407
 8853SOL     OW38194   4.452   0.869   2.773  0.4958  0.1194  0.2360
 8853SOL    HW138195   4.491   0.873   2.686 -2.3425 -1.8915 -1.1169
 8853SOL    HW238196   4.504   0.929   2.827  2.6335 -1.3817 -0.1762
 8854SOL     OW38197   3.549   1.938   2.247  0.1224  0.1374  0.3594
 8854SOL    HW138198   3.481   1.882   2.209  0.7474 -0.3303 -0.0641
 8854SOL    HW238199   3.539   2.014   2.190  0.5606  0.4110  0.6515
 8855SOL     OW38200   1.677   2.010  15.842 -0.4023 -0.1431  0.0751
 8855SOL    HW138201   1.647   2.100  15.833 -1.7925 -0.6973 -0.7327
 8855SOL    HW238202   1.719   1.989  15.759 -0.3277  0.7981 -0.1198
 8856SOL     OW38203   1.065   0.695   9.254 -0.2263 -0.3781  0.8044
 8856SOL    HW138204   1.137   0.705   9.317 -0.4566  0.7951  0.8883
 8856SOL    HW238205   1.071   0.779   9.209 -1.5136 -1.2629 -0.9912
 8857SOL     OW38206   2.809   3.585   3.935 -0.0023 -0.0214  0.5184
 8857SOL    HW138207   2.876   3.651   3.955 -1.1033  1.5649 -1.0158
 8857SOL    HW238208   2.808   3.578   3.840 -3.2682  1.6549  0.4367
 8858SOL     OW38209   1.117   0.307   7.132 -0.2011  0.0718 -0.0943
 8858SOL    HW138210   1.025   0.281   7.144 -0.9471  1.3084 -2.8937
 8858SOL    HW238211   1.153   0.243   7.192 -2.6567 -1.7741 -0.5790
 8859SOL     OW38212   3.320   3.830   7.238  0.2959  0.4110  0.3807
 8859SOL    HW138213   3.247   3.769   7.248  0.7336 -0.1915 -0.0232
 8859SOL    HW238214   3.319   3.868   7.326  1.7627  0.5966  0.3144
 8860SOL     OW38215   3.634   4.122  10.921 -0.0210  0.0345  0.1115
 8860SOL    HW138216   3.622   4.211  10.888 -0.5544  0.4475  1.3887
 8860SOL    HW238217   3.547   4.091  10.946 -0.2574 -1.0034 -2.0349
 8861SOL     OW38218   1.777   3.705   2.688  0.3735  0.8720 -0.2986
 8861SOL    HW138219   1.685   3.678   2.683  1.6171 -3.0458 -2.0851
 8861SOL    HW238220   1.808   3.659   2.610 -1.1980  0.6671 -0.8185
 8862SOL     OW38221   0.904   1.273  17.533  0.1275 -0.3226  0.5492
 8862SOL    HW138222   0.850   1.237  17.463  0.3091 -0.0132  0.2467
 8862SOL    HW238223   0.868   1.221  17.605 -1.0484  2.5560  2.0271
 8863SOL     OW38224   0.656   0.864  11.909  0.4056  0.1951 -0.5917
 8863SOL    HW138225   0.628   0.920  11.981 -1.6459 -1.9648  0.2592
 8863SOL    HW238226   0.623   0.916  11.835  2.1812 -0.9387 -2.1979
 8864SOL     OW38227   4.281   3.558   2.493 -0.9713  0.2461  0.0486
 8864SOL    HW138228   4.252   3.603   2.413 -0.6444 -0.0206 -0.2224
 8864SOL    HW238229   4.192   3.547   2.527 -0.5392  0.6847  1.2819
 8865SOL     OW38230   0.223   1.885   2.107 -0.1332 -0.1896 -0.3032
 8865SOL    HW138231   0.257   1.929   2.030  0.0945 -0.1884 -0.2017
 8865SOL    HW238232   0.291   1.898   2.173 -1.5400 -0.4319  1.2055
 8866SOL     OW38233   0.734   2.143   7.040 -0.1431  0.1214 -0.0466
 8866SOL    HW138234   0.722   2.180   7.128  1.9083 -1.1013  0.7429
 8866SOL    HW238235   0.656   2.175   6.994  0.0646 -1.1190 -1.2553
 8867SOL     OW38236   1.411   3.998   4.171 -0.0907  0.3233 -0.4858
 8867SOL    HW138237   1.405   4.093   4.180 -1.3908 -0.0574  2.6331
 8867SOL    HW238238   1.351   3.974   4.242 -0.9673  3.6424 -0.0804
 8868SOL     OW38239   3.970   2.590   3.667 -0.2772  0.2835 -0.0785
 8868SOL    HW138240   4.034   2.524   3.694  1.0460  1.1601 -1.0400
 8868SOL    HW238241   3.940   2.553   3.583 -2.1132  0.5669  0.4511
 8869SOL     OW38242   3.923   1.741   3.895  0.2869 -0.2813  0.0167
 8869SOL    HW138243   4.010   1.703   3.897  0.4590  0.2381  1.6636
 8869SOL    HW238244   3.937   1.834   3.879 -1.1338 -0.2010 -0.8568
 8870SOL     OW38245   0.284   4.100   9.451 -0.4460  0.2462 -0.2531
 8870SOL    HW138246   0.227   4.117   9.526 -0.0315 -0.6740  0.2641
 8870SOL    HW238247   0.289   4.005   9.447  0.6863  0.2446  1.2731
 8871SOL     OW38248   0.302   1.254  10.930  0.3320 -0.5456 -0.1152
 8871SOL    HW138249   0.363   1.182  10.915 -0.0446 -0.4322 -2.1496
 8871SOL    HW238250   0.354   1.303  10.993  0.5444 -1.3410  0.3189
 8872SOL     OW38251   1.892   0.680   9.313 -0.0803  0.1596 -0.3191
 8872SOL    HW138252   1.913   0.596   9.353 -2.6911 -1.4643 -2.4043
 8872SOL    HW238253   1.943   0.731   9.376 -0.0723 -1.4101  0.9667
 8873SOL     OW38254   2.629   2.677   3.132  0.1098 -0.2008 -0.4259
 8873SOL    HW138255   2.655   2.747   3.072  0.4843 -0.9041 -1.0851
 8873SOL    HW238256   2.547   2.660   3.087  0.6763 -1.1814 -1.0945
 8874SOL     OW38257   3.915   3.661  10.060 -0.8388  0.1186  0.2592
 8874SOL    HW138258   3.937   3.704  10.142 -0.3745  0.3048  0.0393
 8874SOL    HW238259   3.908   3.740  10.006 -1.2134 -0.8085 -1.0460
 8875SOL     OW38260   0.721   3.466   2.032  0.1100  0.1080  0.0326
 8875SOL    HW138261   0.811   3.449   2.006  0.2488 -1.3218  1.4351
 8875SOL    HW238262   0.673   3.463   1.949 -0.9692  0.0191  0.6630
 8876SOL     OW38263   0.851   0.040  17.267  0.6720  0.2081  0.4151
 8876SOL    HW138264   0.911   0.019  17.195 -1.0692 -2.2272 -0.3443
 8876SOL    HW238265   0.914   0.026  17.338 -0.6250 -0.9112  1.3361
 8877SOL     OW38266   3.486   1.230   0.866  0.5554  0.1412  0.1463
 8877SOL    HW138267   3.427   1.293   0.906  2.0237  0.7581  1.3288
 8877SOL    HW238268   3.539   1.209   0.942 -0.6812  1.8495  1.4671
 8878SOL     OW38269   3.839   4.500   0.429 -0.4315  0.0005 -0.1255
 8878SOL    HW138270   3.869   4.586   0.400  0.5456 -0.5748 -0.8552
 8878SOL    HW238271   3.793   4.536   0.504  0.0244 -0.5738  0.4242
 8879SOL     OW38272   2.850   0.383   4.851  0.1872 -0.3669 -0.3340
 8879SOL    HW138273   2.940   0.373   4.883  0.1760 -1.6918 -0.6868
 8879SOL    HW238274   2.809   0.296   4.851  1.2229 -0.8581  0.9901
 8880SOL     OW38275   0.724   4.729   6.764  0.4404 -0.1198  0.7919
 8880SOL    HW138276   0.711   4.639   6.796  1.4871 -0.8776 -0.9036
 8880SOL    HW238277   0.815   4.732   6.736  0.1589 -1.6163 -0.2905
 8881SOL     OW38278   0.644   2.700   8.631  0.0243 -0.0955 -0.0551
 8881SOL    HW138279   0.659   2.711   8.537 -0.2087 -0.1026 -0.0926
 8881SOL    HW238280   0.582   2.628   8.641  0.2939 -0.4295 -0.8414
 8882SOL     OW38281   3.860   4.043   6.381 -0.2003 -0.2930 -0.1290
 8882SOL    HW138282   3.840   4.009   6.468 -0.1213  2.1988  0.8729
 8882SOL    HW238283   3.869   3.961   6.332 -1.6572  1.0258 -2.6087
 8883SOL     OW38284   0.366   0.752   5.690  0.3369  0.1164 -0.1081
 8883SOL    HW138285   0.351   0.677   5.748 -2.5044  0.4092 -0.4989
 8883SOL    HW238286   0.429   0.719   5.625 -0.1017  0.2451 -0.5955
 8884SOL     OW38287   1.133   1.204   9.033  0.5927  0.5504 -0.1844
 8884SOL    HW138288   1.167   1.246   9.112 -0.4533  2.1802 -0.5947
 8884SOL    HW238289   1.175   1.264   8.971 -0.2674  1.6486  0.2989
 8885SOL     OW38290   0.885   2.758   9.823 -0.8216 -0.3514 -0.5649
 8885SOL    HW138291   0.885   2.714   9.908  2.1836  1.3713  0.3375
 8885SOL    HW238292   0.892   2.846   9.860  0.1921  0.0928 -1.8201
 8886SOL     OW38293   2.792   0.743   8.754 -0.3828 -0.0526 -0.1130
 8886SOL    HW138294   2.702   0.728   8.784 -0.5826 -1.7290 -1.5587
 8886SOL    HW238295   2.803   0.697   8.671 -1.8933 -1.2052  0.3068
 8887SOL     OW38296   4.642   1.959   6.549  0.4681  0.5541 -0.2364
 8887SOL    HW138297   4.654   1.959   6.454  0.9807 -2.8866 -0.1642
 8887SOL    HW238298   4.734   1.952   6.575  0.8411 -2.5066 -2.4081
 8888SOL     OW38299   1.171   1.311  10.151 -0.2539 -0.0660  0.8435
 8888SOL    HW138300   1.229   1.247  10.108 -0.2404 -0.0505  0.8384
 8888SOL    HW238301   1.226   1.335  10.225  0.6851 -2.0702  0.8046
 8889SOL     OW38302   0.704   0.879   7.632 -0.0701 -0.0230  0.4007
 8889SOL    HW138303   0.656   0.910   7.709 -1.1083 -0.4606 -0.0677
 8889SOL    HW238304   0.778   0.835   7.674 -0.0353 -0.0269  0.3335
 8890SOL     OW38305   0.163   2.516  17.248  0.5184  0.4568  0.6860
 8890SOL    HW138306   0.175   2.527  17.342  1.7328 -1.7707  0.7891
 8890SOL    HW238307   0.182   2.423  17.237 -1.9957 -0.2346  2.2007
 8891SOL     OW38308   2.710   2.140   5.370 -0.4555  0.0396 -0.7869
 8891SOL    HW138309   2.706   2.184   5.285  1.0479  0.7725 -0.4758
 8891SOL    HW238310   2.671   2.203   5.430 -0.2424 -0.8911  0.3285
 8892SOL     OW38311   3.000   1.041  14.827  0.3778  0.4290 -0.1339
 8892SOL    HW138312   2.933   1.017  14.763 -0.6146  0.6684  0.8190
 8892SOL    HW238313   3.065   0.986  14.781  0.7036  0.2829  0.5009
 8893SOL     OW38314   1.198   3.437   6.963 -0.6257  0.2017  0.0153
 8893SOL    HW138315   1.247   3.455   7.044 -2.4648 -0.7752  1.3635
 8893SOL    HW238316   1.210   3.514   6.908 -1.3094  1.0862  1.1112
 8894SOL     OW38317   0.694   3.703   2.159  0.1775 -0.0454  0.2230
 8894SOL    HW138318   0.600   3.714   2.152  0.1636  1.7043  3.4534
 8894SOL    HW238319   0.703   3.610   2.136  0.1870 -0.3323  1.3774
 8895SOL     OW38320   1.021   4.412   2.172 -0.4076 -0.1548 -0.1833
 8895SOL    HW138321   1.094   4.351   2.165  0.0370  0.4073 -0.4192
 8895SOL    HW238322   0.956   4.348   2.201 -1.7435  1.1270 -0.3411
 8896SOL     OW38323   1.584   0.513   8.513 -0.4183  0.3720 -0.2484
 8896SOL    HW138324   1.669   0.482   8.545  0.2319  0.7701 -1.5861
 8896SOL    HW238325   1.568   0.443   8.450 -1.0375 -0.9380  1.3500
 8897SOL     OW38326   1.774   3.852   8.008  0.0894 -0.1554  0.3170
 8897SOL    HW138327   1.819   3.797   8.072 -0.4308  0.5669  1.3019
 8897SOL    HW238328   1.823   3.826   7.930 -0.4465 -1.2026  0.3204
 8898SOL     OW38329   1.533   2.653   7.527  0.7141  0.3759  0.0302
 8898SOL    HW138330   1.488   2.661   7.442  1.5728  1.0155 -0.3608
 8898SOL    HW238331   1.532   2.745   7.554 -0.2457  0.0378  1.1499
 8899SOL     OW38332   4.620   0.470   3.552 -0.2919 -0.6629  0.7150
 8899SOL    HW138333   4.661   0.391   3.516 -0.2921 -0.4745  0.3023
 8899SOL    HW238334   4.593   0.448   3.641  1.6876  1.2805  1.7977
 8900SOL     OW38335   1.194   3.243   3.856  0.0135 -0.0607 -0.5955
 8900SOL    HW138336   1.107   3.267   3.887  0.9502 -0.0393  2.0380
 8900SOL    HW238337   1.251   3.318   3.872  0.6167 -0.6110 -0.1709
 8901SOL     OW38338   1.532   0.580   6.622  0.7054  0.2597  0.2598
 8901SOL    HW138339   1.602   0.637   6.588  0.1967 -0.3733 -1.8454
 8901SOL    HW238340   1.579   0.519   6.679 -0.5378 -1.4883 -0.6032
 8902SOL     OW38341   3.624   3.884   4.284  0.2534  0.4219 -0.2617
 8902SOL    HW138342   3.608   3.804   4.333  0.8782 -1.0028 -2.3551
 8902SOL    HW238343   3.651   3.942   4.355  1.7433 -0.9602  0.3078
 8903SOL     OW38344   0.955   3.192   6.035 -0.4805 -0.5024  0.3519
 8903SOL    HW138345   0.889   3.130   6.067 -1.1797 -0.4051 -0.9236
 8903SOL    HW238346   1.008   3.207   6.114 -0.6933  0.7510  0.2525
 8904SOL     OW38347   3.845   3.781  10.647 -0.0036  0.2930 -0.6313
 8904SOL    HW138348   3.929   3.737  10.650  0.6380  1.4091 -2.4385
 8904SOL    HW238349   3.795   3.705  10.617 -1.8843  1.1246  0.3822
 8905SOL     OW38350   1.224   0.717   0.860 -0.0140 -0.3066 -0.4285
 8905SOL    HW138351   1.157   0.656   0.890  1.2016 -0.4636  1.9640
 8905SOL    HW238352   1.291   0.704   0.927  0.3524  1.5538 -0.4409
 8906SOL     OW38353   3.295   4.451   2.846 -0.4764 -0.2962 -0.2268
 8906SOL    HW138354   3.332   4.385   2.786 -1.6883 -0.5135 -0.7335
 8906SOL    HW238355   3.224   4.405   2.891  0.0626 -0.0057  0.9185
 8907SOL     OW38356   0.103   0.202  10.662  0.0105 -0.5166  0.2888
 8907SOL    HW138357   0.170   0.142  10.629  0.0273 -0.3024 -0.0651
 8907SOL    HW238358   0.060   0.223  10.579 -0.2312 -1.0007  0.2884
 8908SOL     OW38359   1.327   3.206  12.558  0.3981  0.3111  0.7103
 8908SOL    HW138360   1.314   3.165  12.472  1.0313 -1.6728  1.5603
 8908SOL    HW238361   1.274   3.286  12.559 -1.0762 -0.6505 -0.3694
 8909SOL     OW38362   0.456   0.371  13.888 -0.1370  0.3336 -0.3282
 8909SOL    HW138363   0.440   0.355  13.795  3.8474 -0.7834 -0.8229
 8909SOL    HW238364   0.524   0.438  13.877 -0.1613  0.7153  1.8581
 8910SOL     OW38365   0.507   3.272  15.133 -0.2559  0.4684  0.0262
 8910SOL    HW138366   0.497   3.355  15.087  0.3348  1.0953  1.0514
 8910SOL    HW238367   0.439   3.280  15.200 -0.2711 -0.0636  0.0751
 8911SOL     OW38368   0.234   3.093   8.587  0.0343 -0.0463 -0.7176
 8911SOL    HW138369   0.291   3.170   8.595  0.0359 -0.2442  1.1393
 8911SOL    HW238370   0.193   3.112   8.503 -1.3034  0.9308  0.1504
 8912SOL     OW38371   1.054   3.334   3.133  0.5496 -0.3392 -0.4262
 8912SOL    HW138372   1.070   3.429   3.136  0.0851 -0.3035  0.9699
 8912SOL    HW238373   1.134   3.298   3.171  0.2997 -0.5912 -0.1426
 8913SOL     OW38374   4.039   0.807   5.210 -0.4453 -1.2310  0.0857
 8913SOL    HW138375   4.131   0.782   5.220 -0.1357  1.6510  4.3980
 8913SOL    HW238376   3.994   0.792   5.293  0.5005 -0.9242  0.6538
 8914SOL     OW38377   2.746   1.992   6.231  0.3124  0.0936  0.0550
 8914SOL    HW138378   2.780   1.950   6.151  0.5498 -0.4456  0.4378
 8914SOL    HW238379   2.702   1.916   6.269 -0.1348 -0.7385 -2.1398
 8915SOL     OW38380   3.942   4.534   6.886 -0.2301  0.4377  0.0676
 8915SOL    HW138381   3.985   4.616   6.861 -2.2647  1.4882  0.0037
 8915SOL    HW238382   4.020   4.479   6.887 -0.4366  0.1225 -1.9072
 8916SOL     OW38383   4.343   3.252   0.861 -0.1933  0.0568  0.3527
 8916SOL    HW138384   4.282   3.217   0.926 -1.0806 -2.3377 -1.7646
 8916SOL    HW238385   4.348   3.336   0.907  1.5788  0.6111 -0.8528
 8917SOL     OW38386   0.038   0.416   1.903 -0.4206 -0.1482 -0.3651
 8917SOL    HW138387   0.069   0.485   1.844  1.8482 -0.8547 -0.0068
 8917SOL    HW238388   0.100   0.349   1.875 -1.4293 -1.5469  0.7519
 8918SOL     OW38389   2.719   2.232   2.630 -0.3607 -0.0383 -0.2234
 8918SOL    HW138390   2.674   2.284   2.697  1.8495  1.6011 -0.0269
 8918SOL    HW238391   2.788   2.180   2.672 -2.7441 -1.4305  1.9691
 8919SOL     OW38392   4.417   4.406  10.844 -0.2706 -0.0223  0.0250
 8919SOL    HW138393   4.499   4.378  10.884 -0.2013  3.0839  2.0533
 8919SOL    HW238394   4.386   4.329  10.795 -2.8740  1.4391 -0.6280
 8920SOL     OW38395   4.639   3.672   9.250 -0.1030 -0.0719  0.3034
 8920SOL    HW138396   4.630   3.578   9.231 -1.6045  0.1372 -0.0578
 8920SOL    HW238397   4.724   3.674   9.294 -2.1300 -2.4514  4.3223
 8921SOL     OW38398   4.011   3.643   4.969  0.6180  0.3842  0.2151
 8921SOL    HW138399   4.068   3.612   5.039 -0.4004  0.5299  1.1126
 8921SOL    HW238400   4.070   3.670   4.899  1.4646 -0.6064  0.5545
 8922SOL     OW38401   2.534   0.379   3.690 -0.0322 -0.0632 -0.7132
 8922SOL    HW138402   2.539   0.308   3.625  0.4145 -0.1897 -0.5419
 8922SOL    HW238403   2.576   0.455   3.649 -0.8297 -0.3574 -2.0825
 8923SOL     OW38404   1.169   0.095   5.590  0.4493  0.0356  0.0281
 8923SOL    HW138405   1.164   0.007   5.625 -1.2213  0.9193  1.9804
 8923SOL    HW238406   1.080   0.124   5.609  0.1541  0.6400 -2.2922
 8924SOL     OW38407   1.753   2.658  10.236 -0.2935  0.5567 -0.0357
 8924SOL    HW138408   1.679   2.643  10.177  0.6247 -1.3857 -0.7142
 8924SOL    HW238409   1.801   2.576  10.228  2.5183  2.3436 -1.9125
 8925SOL     OW38410   2.736   1.520   4.908 -0.7461  0.7086  0.0023
 8925SOL    HW138411   2.800   1.481   4.847 -0.3966 -0.3629  1.0524
 8925SOL    HW238412   2.661   1.461   4.900 -0.3615  0.2950 -0.5887
 8926SOL     OW38413   4.059   2.723  17.561 -0.1824  0.1818  0.2424
 8926SOL    HW138414   3.979   2.767  17.534 -0.1552 -0.7889 -1.4851
 8926SOL    HW238415   4.058   2.641  17.511 -2.8966 -0.6054  1.6405
 8927SOL     OW38416   3.205   1.071   0.484  0.3132 -0.0201 -0.0860
 8927SOL    HW138417   3.284   1.124   0.492 -0.2879  0.6355  1.4815
 8927SOL    HW238418   3.236   0.981   0.483  1.7849  0.4859 -0.1426
 8928SOL     OW38419   4.537   0.149   7.978  0.3639  0.0740  0.2995
 8928SOL    HW138420   4.528   0.102   8.060  0.2574 -0.4824 -0.0299
 8928SOL    HW238421   4.631   0.160   7.960  0.6718 -0.2854  1.7495
 8929SOL     OW38422   1.569   4.107   7.575  0.8284  1.1238 -0.0553
 8929SOL    HW138423   1.519   4.156   7.640 -0.7888 -0.8029  0.1554
 8929SOL    HW238424   1.586   4.168   7.503 -1.0451 -0.3622 -1.7602
 8930SOL     OW38425   2.302   1.077  17.482 -0.2378 -0.0001  0.2494
 8930SOL    HW138426   2.327   1.168  17.467  2.0185 -0.3827  1.7515
 8930SOL    HW238427   2.374   1.040  17.432 -0.8957 -0.6808 -0.1982
 8931SOL     OW38428   1.518   1.443  11.594  0.0415  0.0037  0.3197
 8931SOL    HW138429   1.531   1.456  11.688  1.4037  2.7274 -0.2322
 8931SOL    HW238430   1.424   1.456  11.584  0.2674  0.7509 -0.7977
 8932SOL     OW38431   1.065   4.542   6.445  0.2592 -0.0163  0.6253
 8932SOL    HW138432   1.022   4.561   6.361 -1.5073 -1.1835  1.2932
 8932SOL    HW238433   1.151   4.581   6.426 -0.7282  0.9067 -1.9963
 8933SOL     OW38434   3.767   2.745  17.480  0.2295  0.1958 -0.2281
 8933SOL    HW138435   3.682   2.787  17.484  0.4165  0.5190  0.4375
 8933SOL    HW238436   3.756   2.687  17.405 -0.5228 -1.7143  1.3649
 8934SOL     OW38437   2.991   0.083  16.260 -0.2789  0.4102  0.1549
 8934SOL    HW138438   2.980   0.172  16.228 -1.3111  0.9944  2.1588
 8934SOL    HW238439   3.047   0.097  16.336  1.8198  1.9648 -1.6721
 8935SOL     OW38440   1.337   2.035  12.761 -0.0186  0.6599 -0.2144
 8935SOL    HW138441   1.300   1.973  12.698 -1.4395  2.5212 -1.2320
 8935SOL    HW238442   1.337   1.985  12.843  0.5659  0.6390 -0.2277
 8936SOL     OW38443   4.222   4.193   3.541 -0.4637 -0.4638  0.2282
 8936SOL    HW138444   4.245   4.275   3.585 -0.1590 -0.1982 -0.4210
 8936SOL    HW238445   4.189   4.150   3.620 -0.7737  1.4438  1.1354
 8937SOL     OW38446   0.867   2.049   9.023  0.4657  0.3980 -0.3152
 8937SOL    HW138447   0.806   2.006   9.082 -0.0239 -0.2942 -1.3233
 8937SOL    HW238448   0.942   2.014   9.071  0.7284  0.9820 -0.2933
 8938SOL     OW38449   1.277   1.954  12.087 -0.2623  0.4586 -0.5317
 8938SOL    HW138450   1.270   1.974  12.180  0.8601  1.4005 -0.6428
 8938SOL    HW238451   1.184   1.939  12.071 -0.2979 -1.0378  1.1055
 8939SOL     OW38452   2.049   0.813   0.891 -0.0825 -0.9061 -0.0242
 8939SOL    HW138453   1.984   0.832   0.959  1.6240 -0.2856  1.4152
 8939SOL    HW238454   2.004   0.851   0.815  1.7266 -1.2496 -1.2582
 8940SOL     OW38455   2.887   2.892   4.228  0.3086 -0.1430 -0.0578
 8940SOL    HW138456   2.946   2.954   4.271 -2.3452  0.8025  2.2180
 8940SOL    HW238457   2.883   2.936   4.143 -1.2089  1.8021  1.0195
 8941SOL     OW38458   3.506   3.796   8.833 -0.4750  0.2126  0.1140
 8941SOL    HW138459   3.504   3.701   8.843 -0.2889  0.2910  0.9359
 8941SOL    HW238460   3.536   3.820   8.921 -1.1271  0.6166  0.2298
 8942SOL     OW38461   4.708   0.270   6.286  0.2415 -0.3324  0.2934
 8942SOL    HW138462   4.624   0.259   6.241 -0.0813 -0.0298  0.8211
 8942SOL    HW238463   0.033   0.226   6.228  3.4413  1.2780  2.5192
 8943SOL     OW38464   1.330   2.820  12.528 -0.8061  0.3022  0.5178
 8943SOL    HW138465   1.312   2.910  12.499 -1.2900  0.5411  1.5640
 8943SOL    HW238466   1.251   2.778  12.493  0.4672 -2.3645  0.9000
 8944SOL     OW38467   4.284   0.658   6.595 -0.0635  0.2240 -0.0725
 8944SOL    HW138468   4.234   0.740   6.598 -0.7484 -0.2950  2.5539
 8944SOL    HW238469   4.306   0.656   6.502  0.3942 -1.3657  0.0772
 8945SOL     OW38470   3.530   1.067  17.165  0.0134  0.0759 -0.2678
 8945SOL    HW138471   3.564   0.986  17.128 -1.4614 -0.7946  0.2413
 8945SOL    HW238472   3.610   1.104  17.201 -0.7175 -2.3753  3.9371
 8946SOL     OW38473   0.610   3.371   1.810 -0.4274  0.1598  0.0472
 8946SOL    HW138474   0.547   3.419   1.756 -1.1203  1.8012  2.3357
 8946SOL    HW238475   0.599   3.284   1.771 -2.5800 -1.3164  3.9014
 8947SOL     OW38476   4.431   2.609  10.478 -0.8199  0.5014 -0.3871
 8947SOL    HW138477   4.375   2.531  10.480  0.5228 -0.4268  0.3121
 8947SOL    HW238478   4.473   2.596  10.394  0.2438 -2.2487  0.5748
 8948SOL     OW38479   2.905   2.682  13.215  0.1863  0.5145 -0.3813
 8948SOL    HW138480   2.969   2.651  13.151  1.1785  0.9871  0.3893
 8948SOL    HW238481   2.905   2.608  13.276  0.1209 -0.1897 -1.2309
 8949SOL     OW38482   0.567   1.538   3.341  0.1334 -0.2971  0.0546
 8949SOL    HW138483   0.643   1.572   3.293 -1.7099  2.5395 -0.8641
 8949SOL    HW238484   0.590   1.450   3.370 -3.0285 -1.4114 -0.9146
 8950SOL     OW38485   0.308   0.365   4.020  0.2266  0.4534  0.0441
 8950SOL    HW138486   0.281   0.347   4.110 -1.9781  3.2237 -0.0449
 8950SOL    HW238487   0.246   0.432   3.991 -0.4396  0.0932  0.6326
 8951SOL     OW38488   0.059   2.458   5.143 -0.0374 -0.8705 -0.2620
 8951SOL    HW138489   0.008   2.401   5.200 -1.9887 -0.3848 -1.5244
 8951SOL    HW238490   0.073   2.400   5.069  1.2499 -1.1466  0.1885
 8952SOL     OW38491   0.101   2.454  12.018  0.5420 -0.2912  0.1780
 8952SOL    HW138492   0.050   2.387  11.972  0.4916 -0.2006  0.1023
 8952SOL    HW238493   0.144   2.489  11.940 -1.2334 -0.2438 -0.7720
 8953SOL     OW38494   2.191   3.002   3.322 -0.5195 -0.1783 -0.2446
 8953SOL    HW138495   2.133   3.017   3.247  0.6753  0.3503 -1.0683
 8953SOL    HW238496   2.195   3.094   3.349  1.8951  0.2870 -2.1029
 8954SOL     OW38497   4.074   2.997  11.459  0.1872 -0.1215 -0.3249
 8954SOL    HW138498   4.165   2.973  11.475 -0.2600 -0.0650  2.2860
 8954SOL    HW238499   4.081   3.089  11.485 -1.5567  0.0229 -0.3233
 8955SOL     OW38500   3.679   3.011   3.233  0.4865  0.6521 -0.0206
 8955SOL    HW138501   3.662   3.014   3.327 -2.5152  0.2239 -0.5500
 8955SOL    HW238502   3.739   2.937   3.228 -0.8403 -0.4636  0.8342
 8956SOL     OW38503   2.219   2.489   2.293 -0.3159  0.1608 -0.2291
 8956SOL    HW138504   2.173   2.501   2.210  0.8215  1.0550 -0.7282
 8956SOL    HW238505   2.299   2.455   2.253 -0.3925  0.6693 -0.8005
 8957SOL     OW38506   4.313   1.891   3.750  0.3496 -0.5464 -0.4970
 8957SOL    HW138507   4.390   1.941   3.775  0.5924 -1.3643  0.4197
 8957SOL    HW238508   4.296   1.846   3.833  1.0510 -1.6008 -0.9142
 8958SOL     OW38509   1.836   4.440  17.269  0.1125  0.0416 -0.3845
 8958SOL    HW138510   1.834   4.373  17.337  2.9752  0.6710  0.3190
 8958SOL    HW238511   1.931   4.447  17.258  0.3004 -1.2133  0.4180
 8959SOL     OW38512   0.335   0.202  15.995 -0.9230 -0.5389 -0.0021
 8959SOL    HW138513   0.399   0.219  15.927 -1.6931  1.2987 -0.2617
 8959SOL    HW238514   0.274   0.134  15.965 -0.4941 -0.8618 -0.1431
 8960SOL     OW38515   2.840   2.929   5.527  0.1378 -0.0852 -0.0596
 8960SOL    HW138516   2.821   2.970   5.612 -0.2480 -0.7576  0.1792
 8960SOL    HW238517   2.763   2.950   5.475  1.5458 -1.3464 -2.6263
 8961SOL     OW38518   0.157   1.241   7.385 -0.1533 -0.5922 -0.4260
 8961SOL    HW138519   0.251   1.239   7.400 -0.2948 -1.5146  0.3137
 8961SOL    HW238520   0.154   1.329   7.347  0.5622 -1.1219 -1.7007
 8962SOL     OW38521   4.519   2.904   6.262 -0.1418 -0.3026 -0.3946
 8962SOL    HW138522   4.465   2.914   6.184 -0.8678  0.6336  0.2303
 8962SOL    HW238523   4.600   2.952   6.248 -1.4972  2.1171  0.1617
 8963SOL     OW38524   2.437   2.915   8.044  0.6724 -0.1408 -0.2352
 8963SOL    HW138525   2.455   2.929   7.951  0.7329  0.5321 -0.1218
 8963SOL    HW238526   2.344   2.936   8.052  0.8777  0.2157  1.2520
 8964SOL     OW38527   0.521   0.492   8.275 -0.3871  0.0208 -0.6439
 8964SOL    HW138528   0.428   0.512   8.284 -0.3901  0.3088 -1.3682
 8964SOL    HW238529   0.557   0.571   8.315 -0.8038  1.0949 -2.3991
 8965SOL     OW38530   3.940   2.843   4.741 -0.3066 -0.2840 -0.6314
 8965SOL    HW138531   3.991   2.924   4.742 -0.1284 -0.4202  1.2478
 8965SOL    HW238532   3.903   2.841   4.653 -0.5293  0.6842 -0.5568
 8966SOL     OW38533   2.597   1.620   3.232 -0.3840  0.3586 -0.4295
 8966SOL    HW138534   2.689   1.614   3.258 -0.1667  2.5699 -0.6937
 8966SOL    HW238535   2.592   1.714   3.216 -1.0340  0.6058  1.2204
 8967SOL     OW38536   4.532   0.951   0.807  0.5193  0.5764  0.0289
 8967SOL    HW138537   4.467   0.924   0.742 -0.4692  0.4379  1.0718
 8967SOL    HW238538   4.478   0.968   0.884  0.7944 -1.3866  0.6670
 8968SOL     OW38539   4.719   2.558   4.331 -0.0318 -0.3291  0.2192
 8968SOL    HW138540   0.052   2.570   4.268 -2.2705  1.0579 -1.9967
 8968SOL    HW238541   4.649   2.537   4.270 -0.3650  1.0484  0.1274
 8969SOL     OW38542   2.825   3.218   5.897 -0.9804  0.6109 -0.5502
 8969SOL    HW138543   2.774   3.192   5.820 -1.0703  3.7843 -1.5558
 8969SOL    HW238544   2.765   3.226   5.971  2.3295  1.7278  2.0188
 8970SOL     OW38545   3.232   2.117   6.876 -0.2794 -0.1557 -0.2720
 8970SOL    HW138546   3.201   2.195   6.923  1.9734 -0.5580  1.9084
 8970SOL    HW238547   3.273   2.153   6.798  0.4833  1.0687  0.6829
 8971SOL     OW38548   0.455   1.075  17.120 -0.0208  0.1508 -0.2557
 8971SOL    HW138549   0.538   1.080  17.167 -0.0282  1.2999 -0.3531
 8971SOL    HW238550   0.469   1.023  17.041  0.9279 -0.2229  0.1677
 8972SOL     OW38551   3.121   0.755   5.184 -0.5004 -0.4450 -0.4466
 8972SOL    HW138552   3.211   0.739   5.155 -0.4340  1.0891 -1.0899
 8972SOL    HW238553   3.128   0.784   5.275  1.3347 -0.0632 -0.6972
 8973SOL     OW38554   3.330   2.327   9.230  0.4363 -0.6264  0.3316
 8973SOL    HW138555   3.290   2.250   9.270  2.0114 -0.9666  1.2289
 8973SOL    HW238556   3.252   2.358   9.183  0.3283  1.0085  1.5921
 8974SOL     OW38557   3.717   0.247   9.988 -0.3616  0.4666  0.0286
 8974SOL    HW138558   3.774   0.236  10.065  2.1520 -0.2803 -1.9410
 8974SOL    HW238559   3.735   0.339   9.970 -0.7291  0.5167 -0.0824
 8975SOL     OW38560   2.134   3.764   3.705  0.1396  0.6370 -0.6424
 8975SOL    HW138561   2.135   3.859   3.716 -1.5648  1.0737 -4.2719
 8975SOL    HW238562   2.195   3.746   3.634  0.5776 -0.6903  0.0570
 8976SOL     OW38563   1.032   2.485   8.794  0.3414 -0.5150  0.2228
 8976SOL    HW138564   0.987   2.415   8.842  1.1854 -2.4423 -1.7427
 8976SOL    HW238565   0.963   2.551   8.799  0.4568 -0.4119  0.3951
 8977SOL     OW38566   0.842   0.494   8.381 -0.0705 -0.0390 -0.0927
 8977SOL    HW138567   0.850   0.411   8.428  2.9565 -0.4675 -1.3423
 8977SOL    HW238568   0.821   0.554   8.453  0.9023  0.0581  0.1115
 8978SOL     OW38569   3.966   2.551   7.041 -0.1361  0.8171 -0.2973
 8978SOL    HW138570   4.041   2.606   7.065 -0.7803  1.3839  0.3747
 8978SOL    HW238571   4.024   2.479   7.015  1.0154  1.6828 -0.1329
 8979SOL     OW38572   2.583   2.813  17.323 -0.3695  0.8691 -0.4502
 8979SOL    HW138573   2.659   2.767  17.288 -1.3352  0.2813 -1.7436
 8979SOL    HW238574   2.533   2.737  17.353 -0.0921  1.1261  0.6455
 8980SOL     OW38575   3.951   3.025  16.450 -0.3153 -0.5536  0.0150
 8980SOL    HW138576   4.016   3.005  16.383  1.4437  2.3115  0.9088
 8980SOL    HW238577   3.987   2.979  16.526 -3.1695 -2.3889  0.2848
 8981SOL     OW38578   0.163   0.104  16.528  0.3809 -0.2754 -0.0390
 8981SOL    HW138579   0.253   0.128  16.506  0.4683  2.3103  3.0841
 8981SOL    HW238580   0.170   0.009  16.518 -0.5999 -0.3420 -0.1120
 8982SOL     OW38581   2.677   0.360   9.993 -0.4592 -0.2183 -0.3091
 8982SOL    HW138582   2.753   0.383   9.939  0.1556 -2.8018 -0.5336
 8982SOL    HW238583   2.703   0.288  10.050 -0.9487  0.3477  0.6202
 8983SOL     OW38584   1.646   3.842  13.621  0.4316  0.5730 -0.4056
 8983SOL    HW138585   1.688   3.837  13.706  1.0365  1.0372 -0.6759
 8983SOL    HW238586   1.703   3.799  13.557  0.1981  1.0170 -0.9153
 8984SOL     OW38587   0.202   1.874   3.279  0.2117  0.5192  0.1678
 8984SOL    HW138588   0.123   1.829   3.250 -0.1725  2.6441 -2.0626
 8984SOL    HW238589   0.269   1.806   3.285 -0.9856 -0.5554  1.3248
 8985SOL     OW38590   4.495   3.068  12.929  0.5946  0.1410 -0.1699
 8985SOL    HW138591   4.529   2.990  12.885 -0.1006  1.4028 -2.9308
 8985SOL    HW238592   4.540   3.062  13.013  0.9612 -0.0595 -0.3794
 8986SOL     OW38593   4.230   0.232   6.388  0.0804 -0.1968 -0.1884
 8986SOL    HW138594   4.212   0.310   6.440  1.5548 -0.9483  1.4477
 8986SOL    HW238595   4.227   0.169   6.460  1.3682 -1.0290 -0.8643
 8987SOL     OW38596   1.065   0.223   3.007 -0.2041  0.5934  0.1358
 8987SOL    HW138597   1.034   0.223   2.916 -2.5524  1.7504  0.9326
 8987SOL    HW238598   0.980   0.234   3.049 -0.0196 -1.5860  1.0570
 8988SOL     OW38599   0.974   2.886   9.259 -0.3442  0.2315  0.2199
 8988SOL    HW138600   1.008   2.808   9.215  2.5213  1.3761  0.3754
 8988SOL    HW238601   1.034   2.958   9.243 -2.0714  1.1244 -2.1167
 8989SOL     OW38602   4.686   4.363   9.352 -0.2122 -0.6616 -0.0133
 8989SOL    HW138603   4.627   4.295   9.384 -1.4185 -0.4534 -1.7669
 8989SOL    HW238604   4.667   4.429   9.418 -0.5012  0.1087 -0.8696
 8990SOL     OW38605   2.402   0.885   2.195 -0.5560 -0.2044  0.2646
 8990SOL    HW138606   2.351   0.817   2.150  0.0638  0.4773 -1.4462
 8990SOL    HW238607   2.349   0.904   2.273  0.1359  2.7003  0.0281
 8991SOL     OW38608   3.774   3.623   5.781 -0.1212 -0.4379  0.0026
 8991SOL    HW138609   3.860   3.625   5.740  0.4624  1.2560  1.3309
 8991SOL    HW238610   3.716   3.592   5.711 -0.6462  1.0623 -0.2135
 8992SOL     OW38611   1.023   3.691   4.608 -0.2449 -0.3240  0.2129
 8992SOL    HW138612   1.022   3.635   4.685 -0.7609  2.6677  2.3927
 8992SOL    HW238613   0.933   3.724   4.615  0.3606  1.2086  0.8414
 8993SOL     OW38614   3.135   3.596  12.530  0.5939 -0.1584  0.0939
 8993SOL    HW138615   3.043   3.588  12.505  0.6038 -1.1721  0.4136
 8993SOL    HW238616   3.172   3.523  12.481 -1.3435  0.6074 -2.5443
 8994SOL     OW38617   1.999   2.585   3.224  0.7698  0.0025  0.6575
 8994SOL    HW138618   2.042   2.554   3.304  0.1422 -1.0203  0.5994
 8994SOL    HW238619   2.073   2.586   3.163  0.2745  0.0311  0.0626
 8995SOL     OW38620   1.238   2.694   8.275  0.2684 -0.6603  0.0507
 8995SOL    HW138621   1.266   2.672   8.187 -0.8648  2.0459 -0.9929
 8995SOL    HW238622   1.172   2.625   8.278 -0.5358  0.1186  0.3840
 8996SOL     OW38623   3.436   0.861   7.087  0.5529 -0.1426  0.3336
 8996SOL    HW138624   3.397   0.947   7.074  1.4321  0.1675 -0.2382
 8996SOL    HW238625   3.460   0.881   7.177  1.8412 -0.3991  0.0471
 8997SOL     OW38626   4.460   4.602   5.720 -0.2825 -0.1704  0.2718
 8997SOL    HW138627   4.499   4.679   5.678  2.1252  0.3768  3.4798
 8997SOL    HW238628   4.524   4.589   5.790 -0.2138  1.8000  0.5787
 8998SOL     OW38629   3.734   1.080   8.245 -0.5251  0.0770 -0.0306
 8998SOL    HW138630   3.790   1.028   8.187  0.9589 -0.2599  1.7445
 8998SOL    HW238631   3.755   1.172   8.226 -2.7596 -0.1331 -3.6038
 8999SOL     OW38632   1.350   3.747   5.656 -0.3619  0.4355 -0.1292
 8999SOL    HW138633   1.379   3.715   5.742 -0.9830  3.2675  1.1545
 8999SOL    HW238634   1.370   3.841   5.658 -1.4684  0.6490  1.0875
 9000SOL     OW38635   3.971   4.709   5.287 -0.2954  0.6607 -0.0241
 9000SOL    HW138636   4.000   4.621   5.309 -2.7608  0.4956  2.5034
 9000SOL    HW238637   3.912   4.689   5.215  0.4010 -0.1386 -0.3769
 9001SOL     OW38638   4.457   3.140   6.807  0.0701  0.1117  0.0755
 9001SOL    HW138639   4.380   3.098   6.845  1.3993 -1.8724  0.5876
 9001SOL    HW238640   4.441   3.231   6.835  0.6046  0.1662  0.2150
 9002SOL     OW38641   1.430   2.113   5.753  0.2149 -0.1412  0.0367
 9002SOL    HW138642   1.370   2.159   5.694  0.7158  2.1755  1.3464
 9002SOL    HW238643   1.373   2.097   5.828  1.5475 -3.0472  0.4386
 9003SOL     OW38644   4.540   2.109   0.115 -0.4728 -0.3735  0.1164
 9003SOL    HW138645   4.523   2.106   0.209  2.4587 -0.8384  0.6292
 9003SOL    HW238646   4.524   2.202   0.101  4.9564  0.5004 -0.3020
 9004SOL     OW38647   2.326   4.669  12.321  0.1079 -0.1290  0.1452
 9004SOL    HW138648   2.256   4.606  12.302  0.9794 -0.1150 -3.0792
 9004SOL    HW238649   2.397   4.611  12.349  1.9336  2.7149  1.3241
 9005SOL     OW38650   0.094   3.019   1.325  0.6087  1.0888 -0.1120
 9005SOL    HW138651   0.021   2.969   1.289  0.2509  1.5322 -0.0120
 9005SOL    HW238652   0.083   3.025   1.420 -1.5164  0.3184 -0.3224
 9006SOL     OW38653   3.556   3.974   5.025 -0.5888 -0.2339  0.0769
 9006SOL    HW138654   3.620   3.935   5.083  0.2697  1.4803  0.2911
 9006SOL    HW238655   3.538   4.056   5.071  0.3045 -0.5167  0.9206
 9007SOL     OW38656   2.454   3.942   6.744 -0.2938  0.2557  0.4514
 9007SOL    HW138657   2.444   3.982   6.657  1.0372  0.8363  0.5778
 9007SOL    HW238658   2.407   3.996   6.807 -0.2514 -0.5980  1.2053
 9008SOL     OW38659   0.102   3.685   4.659 -0.8952  0.6295 -0.1703
 9008SOL    HW138660   0.163   3.634   4.605  1.0404 -0.3514  2.9831
 9008SOL    HW238661   0.042   3.620   4.696 -0.8560 -0.5070 -2.0969
 9009SOL     OW38662   3.793   2.930  17.125  0.0051 -0.0633  0.3577
 9009SOL    HW138663   3.783   2.887  17.040 -1.8634  3.3767 -1.1817
 9009SOL    HW238664   3.794   3.022  17.098 -1.9305 -0.0393  0.4077
 9010SOL     OW38665   1.675   2.793  16.854  0.4486  0.0343 -0.5869
 9010SOL    HW138666   1.621   2.814  16.777 -0.4793 -2.7376 -0.7202
 9010SOL    HW238667   1.632   2.710  16.877 -0.5707  0.6817 -0.1553
 9011SOL     OW38668   3.022   0.436   7.580  0.0109  0.4920 -0.2633
 9011SOL    HW138669   3.095   0.408   7.524  0.7792  3.6688 -0.8541
 9011SOL    HW238670   2.998   0.354   7.624 -2.9505  1.7928  0.5047
 9012SOL     OW38671   0.325   2.515   0.591 -0.3317 -0.6082 -0.1520
 9012SOL    HW138672   0.271   2.583   0.552  0.5022 -0.1418 -0.4904
 9012SOL    HW238673   0.291   2.518   0.680 -0.4414  1.7242 -0.2837
 9013SOL     OW38674   3.440   0.998   3.158 -0.0612  0.0978  0.4889
 9013SOL    HW138675   3.488   0.918   3.138 -0.6373  0.0912 -0.8576
 9013SOL    HW238676   3.441   0.992   3.253 -1.2167  0.9598  0.5700
 9014SOL     OW38677   3.367   0.384   5.516 -0.0593  0.0021  0.0711
 9014SOL    HW138678   3.444   0.348   5.472  0.7189  0.6405  0.9265
 9014SOL    HW238679   3.369   0.478   5.495  0.0621 -0.1536 -0.6057
 9015SOL     OW38680   1.474   2.325  16.552  0.5717  0.2595  0.4046
 9015SOL    HW138681   1.475   2.364  16.640  0.4220 -2.1842  1.4876
 9015SOL    HW238682   1.471   2.402  16.495 -2.7398  0.1700  0.5047
 9016SOL     OW38683   3.217   3.272   4.224 -0.5508 -0.2283  0.4294
 9016SOL    HW138684   3.288   3.317   4.268 -2.9990  1.2637  2.8533
 9016SOL    HW238685   3.146   3.306   4.279 -1.1482  0.1801 -0.5932
 9017SOL     OW38686   0.149   3.727   7.855 -0.2192  0.3822  0.3646
 9017SOL    HW138687   0.111   3.757   7.772  1.6228 -0.8899 -0.9472
 9017SOL    HW238688   0.243   3.725   7.839 -0.3760  1.3504 -0.6356
 9018SOL     OW38689   1.273   2.401   3.109  0.4638  0.3200  0.1899
 9018SOL    HW138690   1.239   2.312   3.099 -0.6668  0.4040  3.5166
 9018SOL    HW238691   1.203   2.422   3.170  1.2577  3.4795  0.0094
 9019SOL     OW38692   2.816   3.065  16.458 -0.0938  0.2337  0.7783
 9019SOL    HW138693   2.799   3.152  16.493  1.2385 -0.4654  3.1871
 9019SOL    HW238694   2.722   3.045  16.457  0.0527 -0.6904  3.8107
 9020SOL     OW38695   2.863   3.530   7.449  0.0451  0.3968  0.1362
 9020SOL    HW138696   2.871   3.463   7.381 -1.1444 -1.1227  1.4825
 9020SOL    HW238697   2.855   3.466   7.520 -0.0008  1.1283  0.7972
 9021SOL     OW38698   1.047   1.046   5.871 -0.2696  0.0947 -0.8861
 9021SOL    HW138699   1.109   0.975   5.888  1.2638  1.7508  0.4877
 9021SOL    HW238700   1.061   1.093   5.954  1.4796 -1.7458 -0.1390
 9022SOL     OW38701   3.874   3.282   5.998 -0.3208 -0.6673  0.2246
 9022SOL    HW138702   3.858   3.251   5.909 -1.3139 -0.5640  0.3651
 9022SOL    HW238703   3.967   3.302   5.989 -0.9358  1.4672 -1.3575
 9023SOL     OW38704   1.165   1.857   7.341 -0.1002 -0.1802  0.3926
 9023SOL    HW138705   1.159   1.893   7.252 -0.3609  1.3148  1.0289
 9023SOL    HW238706   1.255   1.877   7.363  0.3204 -0.9806 -0.5560
 9024SOL     OW38707   4.645   1.886   4.100 -0.2599 -0.1035  0.2071
 9024SOL    HW138708   4.736   1.857   4.097 -0.8709 -1.9369  0.0197
 9024SOL    HW238709   4.625   1.897   4.007 -2.1289 -2.7287  0.3303
 9025SOL     OW38710   3.940   1.444  12.236 -0.3628 -0.7212  0.3666
 9025SOL    HW138711   3.907   1.453  12.325  2.0502  1.2873  1.0658
 9025SOL    HW238712   4.018   1.389  12.246 -0.8951 -1.9455 -2.0163
 9026SOL     OW38713   3.269   4.397  16.165  0.2770  1.0043  0.9645
 9026SOL    HW138714   3.211   4.461  16.123  2.3394  1.9598 -0.4328
 9026SOL    HW238715   3.308   4.356  16.088  1.4870 -0.3910  2.3125
 9027SOL     OW38716   0.068   2.075   3.376  0.7912  0.4390  0.1214
 9027SOL    HW138717   0.125   2.017   3.326  0.9368 -0.8379  1.7340
 9027SOL    HW238718   0.020   2.111   3.302 -0.8514  2.3454  2.1020
 9028SOL     OW38719   0.275   2.971   2.151  0.0457  0.1055  0.2518
 9028SOL    HW138720   0.236   2.943   2.234 -1.9397 -1.1334 -1.1083
 9028SOL    HW238721   0.320   3.045   2.193 -0.5839  0.2592  0.6568
 9029SOL     OW38722   3.803   0.698   2.753  0.1416 -0.2729  0.6790
 9029SOL    HW138723   3.860   0.771   2.776  0.2778  0.6062 -2.3646
 9029SOL    HW238724   3.798   0.700   2.657 -0.1422 -0.1294  0.6987
 9030SOL     OW38725   3.659   3.295  13.800 -0.6912  0.0789  0.1867
 9030SOL    HW138726   3.665   3.201  13.790  0.2723  0.0323  1.1885
 9030SOL    HW238727   3.570   3.319  13.774  0.3025  3.6563  0.0757
 9031SOL     OW38728   2.403   3.839  14.583 -0.2032 -0.5540 -0.8193
 9031SOL    HW138729   2.318   3.865  14.617  0.0567 -0.8573  0.0639
 9031SOL    HW238730   2.435   3.798  14.664 -0.9385 -0.3251 -0.4200
 9032SOL     OW38731   2.662   1.599   7.929  0.4761 -0.2648  0.7471
 9032SOL    HW138732   2.592   1.597   7.994 -1.2325  0.0246 -1.0907
 9032SOL    HW238733   2.736   1.621   7.986 -0.4288  0.1426  1.7578
 9033SOL     OW38734   0.517   2.045   3.575 -0.1602 -0.1400  0.4315
 9033SOL    HW138735   0.597   2.035   3.523 -0.8753 -0.6435 -0.5691
 9033SOL    HW238736   0.442   2.029   3.518  0.8533 -1.9953 -0.3778
 9034SOL     OW38737   1.704   1.338   3.206 -0.3538 -0.1485  0.4749
 9034SOL    HW138738   1.760   1.374   3.276 -0.7373  0.9426  0.2269
 9034SOL    HW238739   1.744   1.252   3.195  0.2234  0.1859 -0.0252
 9035SOL     OW38740   2.911   2.598  16.015  0.0838 -0.3376  0.0279
 9035SOL    HW138741   2.998   2.612  16.053 -0.4633  1.1809  0.7452
 9035SOL    HW238742   2.914   2.503  16.027  1.0610 -0.1300  1.3356
 9036SOL     OW38743   2.691   1.727   9.057 -0.3060 -0.5368  0.5017
 9036SOL    HW138744   2.759   1.789   9.028 -0.2102 -0.5243  0.7557
 9036SOL    HW238745   2.669   1.657   8.996  2.4910  0.1666 -1.3103
 9037SOL     OW38746   2.000   2.631   6.668 -0.1166  0.5762  0.1622
 9037SOL    HW138747   2.032   2.587   6.747  0.1257 -0.5175 -0.5494
 9037SOL    HW238748   1.910   2.601   6.674  0.2250 -0.9327 -2.3298
 9038SOL     OW38749   4.378   1.206   3.773  0.5523 -0.0160  0.1413
 9038SOL    HW138750   4.444   1.263   3.733  1.0232 -2.2547 -2.2065
 9038SOL    HW238751   4.437   1.162   3.834  0.0973 -0.9629 -0.1118
 9039SOL     OW38752   3.937   1.742  11.801  0.8386 -0.2419  0.3132
 9039SOL    HW138753   3.911   1.668  11.855 -1.1761  0.1569 -0.1192
 9039SOL    HW238754   3.870   1.796  11.844  0.2061 -1.8051  1.2682
 9040SOL     OW38755   3.384   1.482   0.372  0.1776 -0.1395  0.1265
 9040SOL    HW138756   3.454   1.516   0.316  1.1927 -1.0551  0.8504
 9040SOL    HW238757   3.426   1.471   0.457 -0.5148 -0.6448  0.4020
 9041SOL     OW38758   4.009   1.572   8.690 -0.5102  0.3287  0.1477
 9041SOL    HW138759   3.989   1.665   8.679 -2.6109  0.2232  3.1077
 9041SOL    HW238760   4.015   1.546   8.598  1.7982 -0.2643  0.4686
 9042SOL     OW38761   3.268   1.157   4.620  0.1103 -0.0971  0.4507
 9042SOL    HW138762   3.261   1.178   4.527 -2.0810 -1.0324  0.4102
 9042SOL    HW238763   3.180   1.177   4.650 -0.3167  0.5194 -1.2324
 9043SOL     OW38764   1.420   3.865  14.625 -0.7019  0.3608 -0.1214
 9043SOL    HW138765   1.326   3.854  14.612 -0.9222 -0.1945  1.9329
 9043SOL    HW238766   1.445   3.944  14.577 -0.7470  1.1747  1.1848
 9044SOL     OW38767   0.004   4.033   4.418  0.0790  0.6501  0.3995
 9044SOL    HW138768   4.695   4.025   4.335 -0.9822 -1.4192  1.1812
 9044SOL    HW238769   0.052   4.114   4.398  0.7254  0.1009 -0.2417
 9045SOL     OW38770   0.906   1.916   9.682 -0.0115  0.6697 -0.7262
 9045SOL    HW138771   0.866   1.901   9.767 -0.9892  0.6416 -1.1870
 9045SOL    HW238772   0.881   1.833   9.641 -0.1657  0.6014 -0.4956
 9046SOL     OW38773   1.535   2.448   6.865  0.0276  0.1889 -0.3932
 9046SOL    HW138774   1.558   2.441   6.773  0.3892 -1.1130 -0.2113
 9046SOL    HW238775   1.546   2.355   6.887  0.3616  0.7709  1.9716
 9047SOL     OW38776   0.849   4.009   0.123  0.3685 -0.0158 -0.0177
 9047SOL    HW138777   0.855   4.093   0.169 -1.3332 -0.2954  0.7035
 9047SOL    HW238778   0.782   3.971   0.179  0.5670  0.0495  0.2645
 9048SOL     OW38779   2.683   4.687   7.377 -0.1357  0.4299 -0.2837
 9048SOL    HW138780   2.685   0.044   7.361  2.1310  0.3214 -0.7585
 9048SOL    HW238781   2.778   4.675   7.380 -0.1527  0.0514 -1.0433
 9049SOL     OW38782   2.882   0.713   5.864 -1.0396  0.0325 -0.4695
 9049SOL    HW138783   2.826   0.635   5.861 -0.0798 -0.6652 -0.2101
 9049SOL    HW238784   2.889   0.719   5.959 -2.6700  1.7191 -0.4726
 9050SOL     OW38785   3.506   3.439  15.119 -0.0724  0.2873  0.3831
 9050SOL    HW138786   3.500   3.474  15.208 -1.0073  1.5984 -0.1953
 9050SOL    HW238787   3.460   3.511  15.077 -1.2620 -0.0202  1.1707
 9051SOL     OW38788   0.739   3.730   9.153  0.3632  0.8161 -0.1011
 9051SOL    HW138789   0.770   3.805   9.102  0.1569  1.8992  1.3371
 9051SOL    HW238790   0.779   3.751   9.237  0.3553  2.3510 -0.4791
 9052SOL     OW38791   3.184   4.713   0.674  0.1630  0.0309  0.4382
 9052SOL    HW138792   3.205   4.699   0.582 -1.1262  2.8509 -0.2675
 9052SOL    HW238793   3.147   0.061   0.653  0.0904  0.2911  1.6225
 9053SOL     OW38794   3.207   1.993   5.267 -0.2581 -0.5953  0.3969
 9053SOL    HW138795   3.112   1.988   5.260 -0.1485 -1.1679 -0.6449
 9053SOL    HW238796   3.219   1.916   5.322  0.9941  0.0375  1.0233
 9054SOL     OW38797   1.663   4.046   9.309  0.3514 -0.5065 -0.0879
 9054SOL    HW138798   1.674   3.986   9.235  0.3291 -0.0211 -0.4871
 9054SOL    HW238799   1.674   4.131   9.267 -1.5255  0.2402  0.9304
 9055SOL     OW38800   2.294   4.085   5.225 -0.7149  0.3158  0.3640
 9055SOL    HW138801   2.253   4.054   5.306 -0.0912 -0.2758  0.4601
 9055SOL    HW238802   2.220   4.087   5.164  0.2823  0.3527 -0.8328
 9056SOL     OW38803   1.287   1.194  11.779  0.3987 -0.3496  0.0183
 9056SOL    HW138804   1.365   1.227  11.824 -1.1060  0.9682  1.6528
 9056SOL    HW238805   1.273   1.264  11.716 -1.6308 -0.8212 -0.0390
 9057SOL     OW38806   1.079   2.642   9.176  0.5118 -0.3633 -0.0174
 9057SOL    HW138807   1.115   2.673   9.093 -3.1410  0.3608 -1.3566
 9057SOL    HW238808   1.133   2.564   9.186 -1.3632 -1.5092  1.2851
 9058SOL     OW38809   3.237   4.238   6.447 -0.1404  0.2568 -0.2794
 9058SOL    HW138810   3.223   4.202   6.360 -1.3670 -0.2780  0.1396
 9058SOL    HW238811   3.293   4.313   6.429 -1.9063  1.4381 -0.7965
 9059SOL     OW38812   0.010   1.435   2.848  1.0815  0.1412 -0.4011
 9059SOL    HW138813   0.011   1.528   2.873  5.2341 -0.5605  1.8772
 9059SOL    HW238814   0.055   1.441   2.764 -0.2379  0.6560 -1.0884
 9060SOL     OW38815   2.275   0.729   7.450 -0.0525 -0.0999 -0.1582
 9060SOL    HW138816   2.268   0.659   7.385 -0.2650  1.4754 -1.8179
 9060SOL    HW238817   2.208   0.786   7.413  2.3199  1.7729 -1.6267
 9061SOL     OW38818   4.144   0.588  16.715 -0.3095 -0.8326 -0.2528
 9061SOL    HW138819   4.231   0.555  16.690 -0.1003 -1.0443  0.7664
 9061SOL    HW238820   4.125   0.536  16.793 -0.3537 -1.2543 -0.5401
 9062SOL     OW38821   2.424   3.853   3.052  0.0922  0.3923 -0.8370
 9062SOL    HW138822   2.504   3.848   2.999 -1.4859 -2.3103 -2.9588
 9062SOL    HW238823   2.457   3.843   3.141 -0.6906 -1.2047 -0.7151
 9063SOL     OW38824   4.221   0.972  17.550  0.1932  0.0309  0.2608
 9063SOL    HW138825   4.160   0.898  17.540  0.7049  0.2931 -4.6734
 9063SOL    HW238826   4.204   1.015  17.467  2.4477  0.5829  0.0920
 9064SOL     OW38827   4.209   0.820   7.865 -0.5043  0.0112 -0.1582
 9064SOL    HW138828   4.234   0.798   7.776  0.0875 -0.6163  0.1682
 9064SOL    HW238829   4.287   0.793   7.912  0.9085  0.9059 -2.0001
 9065SOL     OW38830   1.771   3.110   6.657  0.3275 -0.2829 -0.8127
 9065SOL    HW138831   1.738   3.083   6.743  0.6497 -1.5505 -1.0849
 9065SOL    HW238832   1.695   3.162   6.630 -0.0364  0.6809  2.0267
 9066SOL     OW38833   3.308   1.034   2.449  0.5810 -0.9554 -0.1379
 9066SOL    HW138834   3.239   1.023   2.383 -1.6896  2.0997  1.7539
 9066SOL    HW238835   3.391   1.047   2.404  0.5448 -0.0699  0.0565
 9067SOL     OW38836   2.489   1.250   8.210 -0.2884 -1.0180  0.5186
 9067SOL    HW138837   2.470   1.321   8.271  0.8329 -1.2823  1.1875
 9067SOL    HW238838   2.413   1.241   8.153 -0.7359  0.7021  0.8507
 9068SOL     OW38839   1.084   2.922  16.094 -0.0406  0.3998 -0.0950
 9068SOL    HW138840   1.105   2.831  16.117  0.9949  0.8487  0.7123
 9068SOL    HW238841   1.164   2.950  16.050  1.6472 -3.3613  0.6183
 9069SOL     OW38842   2.681   1.065   6.406  0.2575  0.1078  0.1905
 9069SOL    HW138843   2.652   1.128   6.472  0.2822 -0.1425  0.4379
 9069SOL    HW238844   2.740   1.014   6.462 -1.7305 -0.9366  1.3252
 9070SOL     OW38845   4.651   2.765  17.622  0.2910  0.0089 -0.2410
 9070SOL    HW138846   4.642   2.846  17.571 -2.6821  0.9704  1.8261
 9070SOL    HW238847   4.618   2.715  17.548 -3.2289 -1.4190  2.3402
 9071SOL     OW38848   4.634   2.791   6.512 -0.2342  0.5260  0.0480
 9071SOL    HW138849   4.651   2.859   6.578  1.5014 -0.6188  0.7704
 9071SOL    HW238850   4.563   2.832   6.462 -1.3789  0.6514  1.7798
 9072SOL     OW38851   3.617   3.241   3.880 -0.0360  1.1104 -0.0606
 9072SOL    HW138852   3.597   3.190   3.801  0.6350  1.5367 -0.5024
 9072SOL    HW238853   3.577   3.183   3.945  0.7879  0.7479  0.1224
 9073SOL     OW38854   1.915   3.732   3.490 -0.2477  0.0223 -0.0444
 9073SOL    HW138855   1.970   3.723   3.568  0.5616  0.4819 -0.5732
 9073SOL    HW238856   1.845   3.667   3.496 -1.4459  1.2447 -0.6878
 9074SOL     OW38857   2.441   1.281  16.853 -0.0834 -0.3355 -0.5107
 9074SOL    HW138858   2.468   1.341  16.923 -0.3821  1.2986 -1.7969
 9074SOL    HW238859   2.446   1.346  16.783  0.7261  0.6008  0.4057
 9075SOL     OW38860   4.426   3.447  15.007 -0.1707  0.9327 -0.1154
 9075SOL    HW138861   4.495   3.383  14.990 -1.3720 -0.3512 -0.1801
 9075SOL    HW238862   4.357   3.408  14.952  0.5380  0.0983 -0.4158
 9076SOL     OW38863   4.571   0.528   5.248 -0.4622  0.4417 -0.2207
 9076SOL    HW138864   4.621   0.544   5.328  0.7216 -0.4763 -0.7837
 9076SOL    HW238865   4.576   0.607   5.195  2.7394 -1.2528 -2.4600
 9077SOL     OW38866   2.349   4.394   7.592 -0.2232 -0.2044 -0.0231
 9077SOL    HW138867   2.416   4.459   7.614 -1.0484  0.3001  1.0152
 9077SOL    HW238868   2.299   4.427   7.516 -1.2324 -0.6301  0.4535
 9078SOL     OW38869   1.896   2.875   5.642  0.2335  0.2256 -0.0281
 9078SOL    HW138870   1.984   2.863   5.677 -0.8058 -4.2591  1.1102
 9078SOL    HW238871   1.849   2.934   5.701  1.3310 -0.2644  1.3349
 9079SOL     OW38872   2.122   0.108   1.913 -0.3680 -0.0828  0.2659
 9079SOL    HW138873   2.099   0.059   1.991  1.8032  1.6611  2.0114
 9079SOL    HW238874   2.153   0.055   1.839 -2.1007  0.5674 -0.9050
 9080SOL     OW38875   0.282   3.156   6.372 -0.3088 -0.3551 -0.0242
 9080SOL    HW138876   0.372   3.160   6.406 -0.6600 -0.6093  0.9250
 9080SOL    HW238877   0.274   3.250   6.359 -2.4318 -0.9285 -2.8213
 9081SOL     OW38878   3.979   0.176  10.566 -0.1662 -0.2791  0.1193
 9081SOL    HW138879   3.893   0.215  10.550 -0.5326 -0.5110  1.4894
 9081SOL    HW238880   3.946   0.092  10.597 -2.1845  0.0205 -1.1809
 9082SOL     OW38881   0.464   0.721   5.147 -0.4649 -0.1863  0.0813
 9082SOL    HW138882   0.522   0.686   5.214  2.1632  3.5139 -0.2947
 9082SOL    HW238883   0.393   0.660   5.168  0.3754 -0.8734  0.9156
 9083SOL     OW38884   3.556   1.516   4.021  0.6329  0.3983 -0.2918
 9083SOL    HW138885   3.578   1.523   4.114 -0.1018 -1.5087  0.0228
 9083SOL    HW238886   3.481   1.576   4.018  3.3751  3.7411 -1.5677
 9084SOL     OW38887   3.630   1.821   6.240 -0.1083  0.2488  0.0669
 9084SOL    HW138888   3.685   1.854   6.311 -0.8718  0.1177  0.7256
 9084SOL    HW238889   3.591   1.901   6.204  0.8210  0.8051  0.3148
 9085SOL     OW38890   3.936   1.897   3.250 -0.6058 -0.5152 -0.0743
 9085SOL    HW138891   3.999   1.825   3.258 -0.4269 -0.3005  0.4606
 9085SOL    HW238892   3.866   1.854   3.201 -1.1324  0.3060 -0.0461
 9086SOL     OW38893   3.984   0.984   6.872 -0.4489  0.0009  0.8060
 9086SOL    HW138894   3.971   0.901   6.827  0.4410  0.9961 -1.3175
 9086SOL    HW238895   4.051   0.953   6.933 -1.3539 -1.1887  1.1948
 9087SOL     OW38896   4.185   0.863  16.722  0.0913  0.2143 -0.4542
 9087SOL    HW138897   4.171   0.773  16.692 -0.7960 -0.1343  1.0106
 9087SOL    HW238898   4.279   0.843  16.729 -0.3893 -2.0843 -0.3953
 9088SOL     OW38899   1.303   3.644   4.092  0.3203 -0.4005 -0.4633
 9088SOL    HW138900   1.381   3.635   4.145 -1.6217  3.7764  3.0529
 9088SOL    HW238901   1.244   3.643   4.167 -0.4938 -0.4445 -1.0939
 9089SOL     OW38902   4.502   2.473   6.272 -0.0455 -0.2497  0.2063
 9089SOL    HW138903   4.568   2.440   6.210 -0.0562 -0.3709  0.2596
 9089SOL    HW238904   4.418   2.466   6.227  0.0482  2.2835 -0.3257
 9090SOL     OW38905   0.206   3.043  16.217  0.3531 -0.4897 -0.2060
 9090SOL    HW138906   0.206   3.037  16.312 -1.6916 -0.6663 -0.2263
 9090SOL    HW238907   0.253   2.961  16.202  1.7174 -0.1873  2.5363
 9091SOL     OW38908   0.424   1.719   7.689  0.4833  0.4995 -0.1706
 9091SOL    HW138909   0.419   1.687   7.779  0.8755 -1.5118 -0.8772
 9091SOL    HW238910   0.465   1.806   7.695  0.5342  0.5033 -0.6240
 9092SOL     OW38911   3.748   0.660   5.052 -0.2264 -0.1485 -0.1237
 9092SOL    HW138912   3.787   0.631   5.135 -1.3842 -0.2006  0.4165
 9092SOL    HW238913   3.830   0.660   5.005  0.7963  1.8145  1.6608
 9093SOL     OW38914   1.188   2.423   0.560 -0.6699 -0.5098  0.4994
 9093SOL    HW138915   1.094   2.416   0.577 -0.5509 -1.7571  0.6127
 9093SOL    HW238916   1.202   2.346   0.506 -0.9350  0.3484 -0.7959
 9094SOL     OW38917   4.144   3.163   1.012 -0.5220  0.5593 -0.0300
 9094SOL    HW138918   4.143   3.133   1.103  0.4519  0.3731 -0.0835
 9094SOL    HW238919   4.067   3.220   1.011 -0.3551  0.8063  1.2062
 9095SOL     OW38920   4.135   3.911   4.438  0.4187 -0.4243  0.8519
 9095SOL    HW138921   4.067   3.873   4.381 -0.7323  2.1488  0.4834
 9095SOL    HW238922   4.085   3.982   4.477 -0.2681 -1.4312  1.8234
 9096SOL     OW38923   1.932   0.935   2.059  0.0174 -0.2573  0.0014
 9096SOL    HW138924   1.886   0.986   1.991 -0.7077 -1.4683 -0.4267
 9096SOL    HW238925   2.024   0.954   2.042  0.0840  0.5277  1.2925
 9097SOL     OW38926   4.402   2.121   6.580 -0.3184 -0.4521  0.3184
 9097SOL    HW138927   4.477   2.062   6.589 -0.7630 -1.4036 -2.1994
 9097SOL    HW238928   4.443   2.204   6.556 -1.6811  0.2089  0.2900
 9098SOL     OW38929   4.706   4.111   2.206 -0.5923 -0.7037  0.2489
 9098SOL    HW138930   4.685   4.091   2.297  2.3590 -3.0611  0.4362
 9098SOL    HW238931   4.649   4.042   2.170  0.7072 -1.0013 -1.2876
 9099SOL     OW38932   3.081   0.734   8.229  0.2210  0.3870  0.6097
 9099SOL    HW138933   3.145   0.731   8.158 -0.2140 -3.0689  0.3643
 9099SOL    HW238934   3.020   0.800   8.196 -0.7480 -0.3075  1.0311
 9100SOL     OW38935   2.152   2.696   5.514  0.5123 -0.0041  0.3124
 9100SOL    HW138936   2.188   2.620   5.560  0.3288  1.0632  2.2312
 9100SOL    HW238937   2.106   2.655   5.441 -0.1875 -2.1207  1.9306
 9101SOL     OW38938   4.208   3.923   3.673  0.1824  0.1726  0.0846
 9101SOL    HW138939   4.256   3.857   3.624 -0.4333  1.4945 -2.2712
 9101SOL    HW238940   4.284   3.956   3.721 -0.7543 -1.7707  2.9191
 9102SOL     OW38941   2.043   1.602   0.497  0.4768 -0.7182  0.2495
 9102SOL    HW138942   2.079   1.529   0.447 -0.8704 -0.3440 -1.2319
 9102SOL    HW238943   1.950   1.584   0.499  0.0793  1.4357  1.7663
 9103SOL     OW38944   3.209   2.003   6.283 -0.2086 -0.2840  0.1625
 9103SOL    HW138945   3.220   2.020   6.377 -2.6065 -0.2409  0.4502
 9103SOL    HW238946   3.219   1.908   6.274  1.1771 -0.2719  1.5969
 9104SOL     OW38947   3.553   3.310  11.562  0.0668 -0.0752 -0.1106
 9104SOL    HW138948   3.560   3.345  11.473 -0.6367 -1.2348 -0.6176
 9104SOL    HW238949   3.573   3.218  11.547 -0.1922 -0.1638  0.0953
 9105SOL     OW38950   2.987   2.023  12.045 -0.3167  0.4659 -0.0041
 9105SOL    HW138951   3.011   1.943  11.998  0.7646  1.1852 -0.6740
 9105SOL    HW238952   2.946   1.980  12.120 -0.3482  0.5408  0.0218
 9106SOL     OW38953   0.106   0.471   9.527  0.0132 -0.0366  0.3433
 9106SOL    HW138954   0.154   0.549   9.554  0.3381 -0.2004  0.2330
 9106SOL    HW238955   0.034   0.478   9.590  0.1938 -0.5059  0.5998
 9107SOL     OW38956   1.585   1.373   6.005 -0.0391  0.0350 -0.0595
 9107SOL    HW138957   1.519   1.310   6.034 -0.2632  0.5162  0.5025
 9107SOL    HW238958   1.661   1.326   6.038  0.8470  2.1566  0.9786
 9108SOL     OW38959   4.540   3.997   6.339  0.0835 -0.4944  0.9836
 9108SOL    HW138960   4.498   3.982   6.424 -1.0128  2.7278  1.0057
 9108SOL    HW238961   4.534   4.092   6.335  1.0510 -0.5650 -2.4591
 9109SOL     OW38962   1.135   1.208   7.273  0.4365 -0.5159  0.1416
 9109SOL    HW138963   1.183   1.134   7.310  1.2427  0.1904  0.5329
 9109SOL    HW238964   1.137   1.182   7.181  0.8988  2.8300 -0.7965
 9110SOL     OW38965   0.814   0.366   7.001  0.1764 -0.6641 -0.3443
 9110SOL    HW138966   0.726   0.335   6.982 -0.0168 -0.9358  0.9795
 9110SOL    HW238967   0.841   0.306   7.071  0.8323  1.5054  1.2697
 9111SOL     OW38968   1.995   3.062   9.265  0.7714  0.3212  0.3434
 9111SOL    HW138969   1.991   3.057   9.360 -0.0053 -0.7050  0.2530
 9111SOL    HW238970   2.012   2.972   9.240 -1.2670 -0.1628  0.6599
 9112SOL     OW38971   0.879   2.524   5.758  0.2713  0.1113  0.1620
 9112SOL    HW138972   0.831   2.566   5.687  0.1287 -0.1685  0.0982
 9112SOL    HW238973   0.822   2.555   5.829  1.2731 -0.0373  1.0476
 9113SOL     OW38974   1.419   2.200   8.981 -0.2958  0.6190  0.2643
 9113SOL    HW138975   1.446   2.109   8.982  0.9129  0.9525 -2.0298
 9113SOL    HW238976   1.482   2.239   8.920 -0.6648  1.2403  0.2790
 9114SOL     OW38977   3.567   4.204   6.498  0.2308 -0.0490 -0.0419
 9114SOL    HW138978   3.565   4.123   6.548 -3.1784  0.9923  1.4570
 9114SOL    HW238979   3.517   4.179   6.420 -0.7060 -0.2255  0.6157
 9115SOL     OW38980   3.905   4.731  17.329  0.1691  0.1385  0.3735
 9115SOL    HW138981   3.896   4.636  17.332 -1.0775  0.2728  0.8338
 9115SOL    HW238982   3.853   0.020  17.253  1.2154  2.3520  0.4147
 9116SOL     OW38983   3.698   4.068   5.721  0.1404 -0.0136  0.4240
 9116SOL    HW138984   3.685   3.975   5.741 -1.6944 -0.2091 -1.6802
 9116SOL    HW238985   3.605   4.088   5.731 -0.1994 -0.8925 -0.9919
 9117SOL     OW38986   0.957   0.395   6.148 -0.5079  0.5848  0.6299
 9117SOL    HW138987   0.876   0.382   6.197 -0.2437 -3.6393 -0.0250
 9117SOL    HW238988   0.935   0.477   6.105 -0.1714  0.6086  0.5060
 9118SOL     OW38989   1.264   3.202  14.528 -0.9015  0.3425 -0.4446
 9118SOL    HW138990   1.264   3.154  14.611 -2.3879  0.9523 -0.0829
 9118SOL    HW238991   1.183   3.165  14.492 -0.5815 -2.2303  1.4542
 9119SOL     OW38992   4.189   1.623   7.781  0.0347  0.5170  0.4185
 9119SOL    HW138993   4.251   1.590   7.715  0.7676 -0.0192  1.3797
 9119SOL    HW238994   4.152   1.699   7.736  1.0087  1.3373  0.9985
 9120SOL     OW38995   0.876   2.978   2.996 -0.4689 -0.1049 -0.1118
 9120SOL    HW138996   0.848   3.069   2.985 -0.6294  0.0171  1.2346
 9120SOL    HW238997   0.956   2.983   3.049  0.6475 -0.7433 -1.7395
 9121SOL     OW38998   0.503   0.990  11.708 -0.2612  0.1128 -0.0328
 9121SOL    HW138999   0.412   0.962  11.719  0.7029 -3.0299 -0.0979
 9121SOL    HW239000   0.497   1.085  11.718 -2.6744 -0.3530  3.2551
 9122SOL     OW39001   0.088   1.515   9.210  0.0213 -0.0277 -0.1018
 9122SOL    HW139002   0.086   1.423   9.184 -2.6899 -0.3478  1.3369
 9122SOL    HW239003   0.143   1.556   9.143 -1.0917 -1.8874 -2.1067
 9123SOL     OW39004   0.780   1.358  10.085  0.7416 -0.0519  0.2435
 9123SOL    HW139005   0.749   1.447  10.074  0.2130 -0.3375 -0.6023
 9123SOL    HW239006   0.829   1.362  10.167  0.7546 -2.8972  0.3781
 9124SOL     OW39007   0.061   2.978   9.422 -0.8021 -0.0707 -0.0853
 9124SOL    HW139008   0.070   3.015   9.334 -0.1222 -0.8962 -0.3714
 9124SOL    HW239009   4.704   2.997   9.429 -1.4114 -2.7815 -0.6399
 9125SOL     OW39010   2.666   3.970  16.375  0.1476  0.1490  0.3328
 9125SOL    HW139011   2.634   4.049  16.418 -1.0307 -0.4314  0.5213
 9125SOL    HW239012   2.657   4.001  16.285 -1.6587 -1.4130 -0.0387
 9126SOL     OW39013   2.173   3.448   9.410 -0.5615 -0.5736  0.2866
 9126SOL    HW139014   2.082   3.434   9.382 -1.2209  1.8668  1.1310
 9126SOL    HW239015   2.194   3.531   9.366  0.2703 -0.9278  0.0204
 9127SOL     OW39016   2.068   1.363   0.345  0.3790 -0.5159 -0.8725
 9127SOL    HW139017   2.078   1.287   0.288  3.6693  0.6668 -1.8718
 9127SOL    HW239018   2.127   1.418   0.294 -0.5865  2.4630  1.2127
 9128SOL     OW39019   4.013   0.810   0.290  0.1587 -0.1860  0.0322
 9128SOL    HW139020   3.919   0.811   0.270  0.0709  2.2336  0.5799
 9128SOL    HW239021   4.056   0.785   0.208 -0.6689 -0.5599 -0.2853
 9129SOL     OW39022   4.608   3.882   1.986  0.2935  0.1137  0.2648
 9129SOL    HW139023   4.680   3.822   2.001 -0.0331 -0.2616  0.3177
 9129SOL    HW239024   4.540   3.831   2.028  2.3036 -1.5121  1.5195
 9130SOL     OW39025   3.515   3.196   1.877  0.1058  0.4040 -0.2836
 9130SOL    HW139026   3.439   3.145   1.847  0.5071 -0.3988  0.0568
 9130SOL    HW239027   3.522   3.258   1.805 -3.1939 -0.0711 -1.0505
 9131SOL     OW39028   2.510   3.537   7.873 -0.2675 -0.0893  0.1041
 9131SOL    HW139029   2.429   3.560   7.918  0.2675  0.9192  0.5394
 9131SOL    HW239030   2.527   3.462   7.929 -0.2157  0.8308  1.3284
 9132SOL     OW39031   0.738   1.612   1.809  0.0680 -0.5093  0.3777
 9132SOL    HW139032   0.812   1.576   1.761  1.0459  1.3548  0.4566
 9132SOL    HW239033   0.656   1.574   1.777  1.3180 -0.4229 -2.9401
 9133SOL     OW39034   2.182   2.675   8.284 -0.7951 -0.2997  0.7670
 9133SOL    HW139035   2.128   2.745   8.322  0.8507  1.0100  0.6979
 9133SOL    HW239036   2.156   2.685   8.192  2.4343  1.0478  0.0107
 9134SOL     OW39037   0.921   0.609   4.265 -0.2757  0.3216  0.2966
 9134SOL    HW139038   0.926   0.521   4.303  0.0903 -0.4184 -1.4742
 9134SOL    HW239039   1.002   0.646   4.300  0.7837 -0.7862 -0.9836
 9135SOL     OW39040   3.551   2.086   6.109 -0.0861  0.4284 -0.2021
 9135SOL    HW139041   3.571   2.132   6.190 -0.9000  0.6644 -0.1389
 9135SOL    HW239042   3.590   2.147   6.047 -1.7301  1.1226 -0.5472
 9136SOL     OW39043   2.788   4.598   3.214 -0.0001  0.6301 -0.1713
 9136SOL    HW139044   2.729   4.673   3.224 -0.9937 -0.2580  0.5308
 9136SOL    HW239045   2.873   4.632   3.243 -0.1272  1.2645 -0.5253
 9137SOL     OW39046   2.966   1.125   3.071 -0.9338  0.0697  0.0837
 9137SOL    HW139047   2.962   1.197   3.008 -0.8419  0.1652  0.1864
 9137SOL    HW239048   3.051   1.090   3.045 -2.3374 -2.1758 -1.4451
 9138SOL     OW39049   0.113   0.465   5.050  0.0785  0.6420  0.2520
 9138SOL    HW139050   0.045   0.517   5.006  0.5752  0.4444 -0.7372
 9138SOL    HW239051   0.127   0.398   4.983  1.8038  1.2007  0.0649
 9139SOL     OW39052   1.389   1.388   2.289  0.0344  0.1479  0.0586
 9139SOL    HW139053   1.482   1.363   2.285 -0.0338 -0.1152  0.1272
 9139SOL    HW239054   1.349   1.342   2.362  1.1025 -1.4576 -0.3553
 9140SOL     OW39055   3.102   1.026   2.259 -0.1956  0.0183 -0.3604
 9140SOL    HW139056   3.033   0.960   2.261 -0.1768  0.0806  1.8259
 9140SOL    HW239057   3.104   1.045   2.165 -1.4773  0.5320 -0.2758
 9141SOL     OW39058   1.270   4.130   6.923 -0.0993 -0.7155 -0.4287
 9141SOL    HW139059   1.242   4.039   6.933  0.3432 -1.0471 -2.1370
 9141SOL    HW239060   1.241   4.153   6.835  0.2232  0.4001 -0.2349
 9142SOL     OW39061   4.261   0.268   8.014 -0.0092  0.1301  0.4750
 9142SOL    HW139062   4.204   0.230   7.948  0.0452  0.4819  0.2270
 9142SOL    HW239063   4.347   0.228   7.998  0.1661  1.3528 -1.6288
 9143SOL     OW39064   1.481   0.978  10.400 -0.6579  0.3975 -0.4825
 9143SOL    HW139065   1.459   0.885  10.404 -0.4874  0.4282  1.1661
 9143SOL    HW239066   1.544   0.978  10.328  1.2835  2.1088  1.2540
 9144SOL     OW39067   0.319   2.161   4.751  0.1844 -0.0435 -0.2031
 9144SOL    HW139068   0.406   2.184   4.784 -0.1918 -0.6795  1.2290
 9144SOL    HW239069   0.299   2.073   4.783 -0.8585  0.4579  0.5146
 9145SOL     OW39070   4.230   4.307   8.147  0.3087 -0.8533 -0.0782
 9145SOL    HW139071   4.181   4.239   8.101  0.5567  0.0974 -1.7488
 9145SOL    HW239072   4.180   4.308   8.229 -1.8605 -1.7281 -1.3913
 9146SOL     OW39073   2.192   4.579   9.374 -0.3537 -0.5055  0.0572
 9146SOL    HW139074   2.156   4.565   9.286  3.3044  0.2340 -1.5344
 9146SOL    HW239075   2.186   4.487   9.402  2.9554 -0.1705  1.8664
 9147SOL     OW39076   0.711   2.904   2.776  0.0522 -0.2323  0.0168
 9147SOL    HW139077   0.710   2.838   2.845  1.7418 -1.0142 -0.6950
 9147SOL    HW239078   0.774   2.963   2.817 -0.6373  0.0837  0.6221
 9148SOL     OW39079   2.807   4.660   0.931 -0.2792  0.1170 -0.4276
 9148SOL    HW139080   2.767   0.004   0.899 -0.0448  0.6221  0.5467
 9148SOL    HW239081   2.744   4.618   0.990 -2.2426  0.6392 -2.1507
 9149SOL     OW39082   2.448   2.996   3.216  0.3039  0.8839 -0.1964
 9149SOL    HW139083   2.356   3.022   3.227 -0.5817 -2.0140 -0.7242
 9149SOL    HW239084   2.430   2.905   3.240 -0.3663  1.7738  2.6917
 9150SOL     OW39085   2.112   0.046   6.744 -0.2921 -0.1643  0.0193
 9150SOL    HW139086   2.070   4.728   6.678 -0.6272  0.6025 -0.4102
 9150SOL    HW239087   2.159   4.716   6.793 -1.9709 -0.8247  0.7016
 9151SOL     OW39088   0.623   4.632   4.653  0.2647 -0.2814  0.1917
 9151SOL    HW139089   0.557   4.564   4.661  0.6988 -0.8059 -0.6454
 9151SOL    HW239090   0.630   4.642   4.558 -1.5313 -1.0792 -0.0283
 9152SOL     OW39091   1.305   1.682   5.277 -0.0452 -0.0397 -0.4083
 9152SOL    HW139092   1.231   1.735   5.308  0.7795 -0.2811  2.0183
 9152SOL    HW239093   1.350   1.651   5.356 -1.7357 -2.6406 -0.4742
 9153SOL     OW39094   2.418   1.110   8.494 -0.4961  0.2199 -0.2857
 9153SOL    HW139095   2.431   1.181   8.557  0.1182 -1.8814  1.9907
 9153SOL    HW239096   2.335   1.135   8.452  0.9332  2.4216 -1.7389
 9154SOL     OW39097   4.312   1.177  15.148  0.0789 -0.2512 -0.0521
 9154SOL    HW139098   4.293   1.122  15.224  0.4965  0.6702  0.7115
 9154SOL    HW239099   4.287   1.259  15.189  1.8405  1.0812 -1.6219
 9155SOL     OW39100   0.784   4.722   6.185 -0.7471 -0.1522 -0.3160
 9155SOL    HW139101   0.728   0.060   6.201 -0.2412  0.3034 -0.6765
 9155SOL    HW239102   0.737   4.645   6.219 -0.3224  0.3537  1.4000
 9156SOL     OW39103   1.543   0.928   0.024  0.0538  0.0758  0.0821
 9156SOL    HW139104   1.609   0.888   0.081  0.3036  1.2812  0.6484
 9156SOL    HW239105   1.495   0.847   0.007 -0.5595  0.5637 -0.5011
 9157SOL     OW39106   0.725   2.738   4.779 -0.1491  0.2802  0.0853
 9157SOL    HW139107   0.764   2.686   4.849 -0.4265 -2.8299 -2.0629
 9157SOL    HW239108   0.677   2.794   4.840 -1.4003 -1.8687  1.0733
 9158SOL     OW39109   4.548   2.870   8.680 -0.1195 -0.3943 -0.0704
 9158SOL    HW139110   4.636   2.877   8.644 -0.1390  2.9242  0.4864
 9158SOL    HW239111   4.566   2.911   8.765 -1.1316  0.2374 -0.1539
 9159SOL     OW39112   3.839   3.424   2.935 -0.4148  0.1392  0.2859
 9159SOL    HW139113   3.932   3.401   2.930  0.0710  1.7433  1.7385
 9159SOL    HW239114   3.813   3.394   3.023 -0.5436  1.8266  0.8153
 9160SOL     OW39115   1.995   2.552   1.076  0.4352  0.2852 -0.8367
 9160SOL    HW139116   1.983   2.515   0.989  0.1137 -1.5820  0.0103
 9160SOL    HW239117   2.050   2.628   1.056  1.5135  0.4905  2.7734
 9161SOL     OW39118   2.276   0.485   3.184 -0.1089 -0.1774 -0.5146
 9161SOL    HW139119   2.344   0.497   3.117 -0.8506  2.5579 -0.7994
 9161SOL    HW239120   2.309   0.411   3.234 -2.0115 -0.2726  0.6212
 9162SOL     OW39121   2.183   2.606   3.733  0.0578 -0.3808 -0.5094
 9162SOL    HW139122   2.252   2.616   3.799  0.5485 -2.6332 -0.6894
 9162SOL    HW239123   2.156   2.698   3.726  1.5194  0.1351  0.7081
 9163SOL     OW39124   0.111   3.783  14.158  0.2072  0.5294 -0.3098
 9163SOL    HW139125   0.062   3.861  14.182  0.1818  0.6054 -0.6097
 9163SOL    HW239126   0.105   3.786  14.062 -0.5199 -3.3189 -0.3913
 9164SOL     OW39127   4.645   4.681   6.392 -0.3152 -0.3169 -0.3029
 9164SOL    HW139128   4.573   4.698   6.453  1.6441  1.2925  1.5852
 9164SOL    HW239129   4.723   4.702   6.443 -0.1159 -1.4008 -0.1711
 9165SOL     OW39130   3.365   0.391   0.695  0.0448 -0.6059 -0.2939
 9165SOL    HW139131   3.317   0.349   0.766 -0.9619  1.0138 -0.0149
 9165SOL    HW239132   3.397   0.315   0.646 -0.0649 -0.7348 -0.1658
 9166SOL     OW39133   3.825   3.018   3.816  0.1669  0.0766 -0.6618
 9166SOL    HW139134   3.860   2.960   3.748 -0.2483 -1.3885  0.3660
 9166SOL    HW239135   3.750   3.044   3.762  0.8125  1.0199 -1.0925
 9167SOL     OW39136   0.185   4.297   6.350  0.2335  0.2314  0.2044
 9167SOL    HW139137   0.097   4.312   6.316 -0.3968  0.9707  2.1790
 9167SOL    HW239138   0.204   4.209   6.318 -2.2806  0.4357 -1.8720
 9168SOL     OW39139   1.720   4.002   3.132  0.3650  0.2992  0.8255
 9168SOL    HW139140   1.787   3.964   3.075  0.5019  1.2559  0.3619
 9168SOL    HW239141   1.685   3.925   3.178 -1.3650  1.4727  1.4773
 9169SOL     OW39142   0.949   1.569  14.689 -0.3730 -0.2833  0.2325
 9169SOL    HW139143   0.858   1.592  14.671 -0.0222 -0.9383 -2.3759
 9169SOL    HW239144   0.940   1.534  14.777 -2.9350  0.8049  0.3967
 9170SOL     OW39145   0.719   1.829  16.155 -0.0721  0.0099 -0.2229
 9170SOL    HW139146   0.790   1.886  16.185  1.8953 -3.1274  1.0440
 9170SOL    HW239147   0.647   1.892  16.155 -0.0091  0.0841  1.8951
 9171SOL     OW39148   2.716   2.730   4.914  0.0378 -0.2870  0.1539
 9171SOL    HW139149   2.665   2.788   4.970  1.4295  1.3802 -0.3067
 9171SOL    HW239150   2.656   2.656   4.900  2.0176 -1.7249 -0.6757
 9172SOL     OW39151   4.722   4.672   4.644 -0.0740 -0.0217 -0.2121
 9172SOL    HW139152   4.658   4.710   4.704  1.7187 -0.4210  1.9865
 9172SOL    HW239153   0.054   4.652   4.708  1.4130 -0.3516 -1.9035
 9173SOL     OW39154   2.529   1.483   3.694  0.2047 -0.4666 -0.4081
 9173SOL    HW139155   2.590   1.415   3.665  1.0951 -0.1181  0.6085
 9173SOL    HW239156   2.508   1.536   3.618  0.4311 -2.8232 -2.0952
 9174SOL     OW39157   3.703   3.879   1.945  0.4358 -0.0309 -0.0674
 9174SOL    HW139158   3.709   3.885   1.849  1.2070  2.7096  0.1420
 9174SOL    HW239159   3.792   3.881   1.980  1.1071 -4.1057 -1.5775
 9175SOL     OW39160   1.146   0.110  12.333  0.2274  0.0757 -0.4012
 9175SOL    HW139161   1.113   0.200  12.336 -2.0317 -0.7912  1.0093
 9175SOL    HW239162   1.184   0.103  12.245  0.3244  0.8418 -0.4165
 9176SOL     OW39163   1.839   2.272   6.816  0.0393  0.0915 -0.0191
 9176SOL    HW139164   1.846   2.324   6.896  1.1305 -1.0834  0.6623
 9176SOL    HW239165   1.814   2.188   6.854 -0.7483 -0.4688 -1.7816
 9177SOL     OW39166   3.232   2.754  13.964 -0.3399 -0.3079 -0.1507
 9177SOL    HW139167   3.193   2.730  13.879 -0.1351 -1.4942  0.0959
 9177SOL    HW239168   3.259   2.841  13.934 -2.3111  0.7115  1.0774
 9178SOL     OW39169   0.647   4.270   8.005 -0.7070 -0.1370 -0.0241
 9178SOL    HW139170   0.591   4.342   7.977 -0.2174  0.2093 -0.1226
 9178SOL    HW239171   0.689   4.301   8.085  0.0498  2.5472 -1.4520
 9179SOL     OW39172   0.675   3.157   2.111 -0.3644  0.0869 -0.2896
 9179SOL    HW139173   0.750   3.097   2.119 -1.9523 -1.9418 -0.6124
 9179SOL    HW239174   0.697   3.226   2.049 -3.4694  0.4127 -1.0088
 9180SOL     OW39175   3.021   4.608   5.296 -0.1478 -0.6875 -0.7105
 9180SOL    HW139176   3.094   4.580   5.352  1.5324  1.7445 -1.6683
 9180SOL    HW239177   3.002   4.693   5.337 -2.0216 -1.5424  0.1606
 9181SOL     OW39178   1.089   1.533   6.264 -0.3092 -0.0633  0.0909
 9181SOL    HW139179   1.132   1.457   6.303  0.8338  0.5295 -0.0228
 9181SOL    HW239180   1.125   1.525   6.176  1.1332 -1.8099  0.8467
 9182SOL     OW39181   1.798   0.816   3.636 -0.3720 -0.1095 -0.1278
 9182SOL    HW139182   1.851   0.882   3.592  1.2800 -0.7750  0.8661
 9182SOL    HW239183   1.785   0.852   3.724  0.5424  0.1025 -0.0795
 9183SOL     OW39184   4.514   2.713   6.979  0.1409  0.4746  0.0760
 9183SOL    HW139185   4.570   2.785   7.007 -1.0132  1.5198 -0.2975
 9183SOL    HW239186   4.426   2.748   6.996  0.2749  1.3193 -1.0091
 9184SOL     OW39187   4.334   4.092   3.311  0.3845 -0.3470  0.1548
 9184SOL    HW139188   4.302   4.106   3.400  0.6108  0.3671  0.1247
 9184SOL    HW239189   4.282   4.015   3.288 -0.5855  0.5615 -0.7020
 9185SOL     OW39190   3.084   3.169   5.836  0.1641 -0.3526 -0.5072
 9185SOL    HW139191   2.991   3.175   5.858  0.5149  0.4866  0.7348
 9185SOL    HW239192   3.125   3.133   5.915  1.9019 -0.6346 -1.5250
 9186SOL     OW39193   3.930   3.229   1.812  0.2048 -0.1155 -0.4140
 9186SOL    HW139194   3.861   3.290   1.839  0.7169  0.5730 -0.6523
 9186SOL    HW239195   3.965   3.260   1.729  2.5530 -1.2901  0.1366
 9187SOL     OW39196   1.497   4.021   9.641  0.9237  0.0896  0.2762
 9187SOL    HW139197   1.502   4.009   9.736  0.3811 -1.1666  0.1378
 9187SOL    HW239198   1.546   4.102   9.627 -1.6431  2.0000  2.2986
 9188SOL     OW39199   3.001   4.434   2.832 -0.0677 -0.4932  0.1663
 9188SOL    HW139200   2.985   4.526   2.851 -0.6735 -0.4797 -0.3904
 9188SOL    HW239201   3.000   4.434   2.736  0.5276 -0.1098  0.1626
 9189SOL     OW39202   2.145   3.781   4.926  0.5188 -0.8215 -0.2010
 9189SOL    HW139203   2.158   3.785   4.831 -0.9653 -0.2294 -0.3747
 9189SOL    HW239204   2.198   3.704   4.948  0.8565 -0.7133 -0.6181
 9190SOL     OW39205   0.597   4.340  10.774  0.3691  0.0000  0.7727
 9190SOL    HW139206   0.517   4.307  10.732  2.1824  0.7715 -3.2683
 9190SOL    HW239207   0.664   4.282  10.737 -1.6261 -3.0758  1.9344
 9191SOL     OW39208   1.474   0.486   9.829  0.2092 -0.0014  0.0219
 9191SOL    HW139209   1.440   0.567   9.868 -0.0424  0.1496 -0.5057
 9191SOL    HW239210   1.389   0.445   9.814 -0.5995  1.5796  0.2027
 9192SOL     OW39211   0.260   3.054   4.006  0.7404 -0.4738 -0.6488
 9192SOL    HW139212   0.320   2.982   3.987  1.4587  0.0349 -0.3009
 9192SOL    HW239213   0.197   3.013   4.065  1.5140  0.7375  1.0005
 9193SOL     OW39214   1.225   4.036   7.314  0.2660 -1.0404 -0.6020
 9193SOL    HW139215   1.188   4.025   7.401  1.4322  0.7755  0.1234
 9193SOL    HW239216   1.201   4.122   7.280 -1.0235 -0.4893  1.7495
 9194SOL     OW39217   0.083   0.615   5.438 -0.5895  0.3525 -0.1845
 9194SOL    HW139218   0.014   0.590   5.499 -1.5097  0.5671 -1.1286
 9194SOL    HW239219   0.097   0.706   5.464  2.6461 -0.0628 -0.5345
 9195SOL     OW39220   1.161   4.477   7.847  0.4477  0.2368 -0.5175
 9195SOL    HW139221   1.100   4.517   7.910  0.5351  0.6631 -0.6984
 9195SOL    HW239222   1.245   4.489   7.890 -0.2629 -1.4048  1.3058
 9196SOL     OW39223   1.367   1.211  10.426  0.1222  0.1503 -0.2595
 9196SOL    HW139224   1.415   1.140  10.384 -0.0509 -0.0293 -0.1526
 9196SOL    HW239225   1.431   1.240  10.492 -0.9831 -3.1612  2.3094
 9197SOL     OW39226   4.258   4.625   4.753  0.6052 -0.3236  0.2198
 9197SOL    HW139227   4.186   4.655   4.809 -0.3168 -2.1955  0.0523
 9197SOL    HW239228   4.215   4.602   4.671  0.8418  0.2358 -0.0586
 9198SOL     OW39229   4.056   4.034   7.916  0.5214  0.0492 -0.5474
 9198SOL    HW139230   4.076   3.943   7.938 -2.1925 -0.1193  1.1883
 9198SOL    HW239231   3.995   4.030   7.843  1.2594 -0.4077 -1.1426
 9199SOL     OW39232   1.122   0.861   2.038  0.4783  0.2420 -0.3271
 9199SOL    HW139233   1.173   0.781   2.049 -1.7140 -1.1956 -0.6504
 9199SOL    HW239234   1.185   0.923   2.076  1.4146 -0.8700 -0.0358
 9200SOL     OW39235   4.036   3.324  14.399 -0.7600  0.6566 -0.0930
 9200SOL    HW139236   4.121   3.359  14.427 -0.1138 -2.6191  2.0473
 9200SOL    HW239237   3.996   3.408  14.380 -0.0669  0.9098 -0.4419
 9201SOL     OW39238   1.568   0.242  10.711 -0.3048 -0.4669 -0.0735
 9201SOL    HW139239   1.479   0.273  10.693 -0.7663 -3.1088 -2.3010
 9201SOL    HW239240   1.560   0.155  10.750  1.3597  0.4320  2.2808
 9202SOL     OW39241   4.525   2.660   0.080 -0.7773  0.1013  0.0021
 9202SOL    HW139242   4.441   2.704   0.093 -0.9096  0.3294 -1.5698
 9202SOL    HW239243   4.564   2.709   0.008 -0.9718  0.0816 -0.1181
 9203SOL     OW39244   2.949   1.188  12.952  0.2537  0.0709 -0.0217
 9203SOL    HW139245   2.858   1.164  12.936  0.3084 -0.1254 -0.0455
 9203SOL    HW239246   2.992   1.143  12.880  1.7623  1.9377 -0.2952
 9204SOL     OW39247   2.950   1.973   5.395  0.1925 -0.1454 -0.3592
 9204SOL    HW139248   2.891   2.013   5.459  0.5111 -2.1385  1.1769
 9204SOL    HW239249   2.912   1.998   5.311 -2.0141 -0.8697  0.4256
 9205SOL     OW39250   4.449   1.879   1.466  0.6301 -0.4998 -0.3398
 9205SOL    HW139251   4.392   1.844   1.398 -0.1251  1.3502 -0.6376
 9205SOL    HW239252   4.448   1.972   1.444 -2.2032 -0.0666  1.6964
 9206SOL     OW39253   2.958   1.864   1.976 -0.0834  0.0511  0.1274
 9206SOL    HW139254   2.923   1.920   2.045 -1.0305  0.0547 -0.3546
 9206SOL    HW239255   2.903   1.786   1.988 -2.1467  1.3683 -0.7833
 9207SOL     OW39256   4.587   0.580  13.561 -0.4628 -0.0467 -0.8441
 9207SOL    HW139257   4.556   0.591  13.471 -1.9835 -2.6566 -0.6420
 9207SOL    HW239258   4.678   0.553  13.545  0.3990  0.7107  2.6890
 9208SOL     OW39259   3.493   4.492   8.514  0.0418  0.4028  0.0219
 9208SOL    HW139260   3.434   4.416   8.513  0.7541 -0.1427 -0.0122
 9208SOL    HW239261   3.567   4.460   8.565 -0.4376  0.8946  1.0226
 9209SOL     OW39262   0.592   3.479   5.372  0.4894 -0.8299 -0.1882
 9209SOL    HW139263   0.686   3.492   5.357  0.1432  1.8864  0.0227
 9209SOL    HW239264   0.562   3.564   5.404 -2.7581 -1.4786 -1.5256
 9210SOL     OW39265   3.238   1.562   6.622  0.0837 -0.6733 -0.3719
 9210SOL    HW139266   3.295   1.619   6.571 -0.6961  1.6859  1.4344
 9210SOL    HW239267   3.224   1.606   6.705 -0.0264 -1.5133  0.0595
 9211SOL     OW39268   0.886   4.342   5.134  0.1814  0.3407  0.3663
 9211SOL    HW139269   0.843   4.421   5.102 -0.4974 -1.0543 -2.1938
 9211SOL    HW239270   0.964   4.379   5.176  0.2242 -0.6124  1.1517
 9212SOL     OW39271   2.438   0.286  11.866  0.3197 -0.1176 -0.2682
 9212SOL    HW139272   2.391   0.367  11.881 -0.3886 -1.0383  2.4603
 9212SOL    HW239273   2.526   0.313  11.893 -0.5448  1.6321  0.7727
 9213SOL     OW39274   4.067   1.160   4.699 -0.0226  0.4654 -0.5047
 9213SOL    HW139275   4.117   1.208   4.765 -0.6250  1.7495 -0.9796
 9213SOL    HW239276   4.022   1.231   4.653  0.4499 -0.1896 -1.9947
 9214SOL     OW39277   1.334   0.059   8.369 -0.1047  0.4755 -0.2634
 9214SOL    HW139278   1.418   0.046   8.324  0.1059  2.3062 -0.3965
 9214SOL    HW239279   1.360   0.140   8.413  0.0842  0.7582 -0.8989
 9215SOL     OW39280   3.862   0.693   6.954 -0.6155  0.0032 -0.9452
 9215SOL    HW139281   3.771   0.676   6.930 -0.9057  1.9635 -1.2543
 9215SOL    HW239282   3.890   0.717   6.865 -0.4248  1.1200 -0.5752
 9216SOL     OW39283   4.406   0.900  15.461  0.4491 -0.0642 -1.0644
 9216SOL    HW139284   4.423   0.842  15.535  0.8063  0.2502 -0.9050
 9216SOL    HW239285   4.468   0.971  15.478 -1.3652  1.1092  0.6596
 9217SOL     OW39286   1.196   2.426   3.926 -0.5814 -0.6958  0.7185
 9217SOL    HW139287   1.196   2.508   3.975 -1.0281  0.3541 -1.0540
 9217SOL    HW239288   1.239   2.363   3.983 -1.4002 -0.8434  1.1690
 9218SOL     OW39289   1.086   1.661  10.188  0.3095 -0.0452 -0.6366
 9218SOL    HW139290   1.130   1.646  10.104  1.0263  0.2028 -0.3053
 9218SOL    HW239291   1.162   1.694  10.236 -1.6624  0.2766  2.2231
 9219SOL     OW39292   0.226   0.480   2.612 -0.1185 -0.7839 -0.7511
 9219SOL    HW139293   0.270   0.550   2.564  2.9306 -1.6874  0.7781
 9219SOL    HW239294   0.181   0.424   2.549  1.7090 -2.4423 -0.5877
 9220SOL     OW39295   0.057   3.426   3.670 -0.0331 -0.0770  0.0952
 9220SOL    HW139296   0.130   3.488   3.658  0.3042 -0.6898 -0.9585
 9220SOL    HW239297   0.091   3.392   3.753  0.2023  0.4608  0.2197
 9221SOL     OW39298   4.318   0.322   1.838 -0.1123  1.0702  0.2728
 9221SOL    HW139299   4.300   0.351   1.927 -4.6275  0.0216 -0.2728
 9221SOL    HW239300   4.381   0.252   1.856  0.0849  1.7720  2.2656
 9222SOL     OW39301   3.588   2.814   7.840  0.3147  0.1782 -0.7680
 9222SOL    HW139302   3.610   2.875   7.770  3.6928 -1.2524 -0.9451
 9222SOL    HW239303   3.510   2.772   7.801  0.7349 -0.0464 -1.3740
 9223SOL     OW39304   3.322   4.734   2.385 -0.4642 -0.2420 -0.3098
 9223SOL    HW139305   3.288   4.684   2.458 -1.9695  0.1287 -0.7587
 9223SOL    HW239306   3.399   0.041   2.423  0.0505  0.1825 -1.8283
 9224SOL     OW39307   1.305   2.673   6.414  0.4368  0.4030 -0.3560
 9224SOL    HW139308   1.267   2.654   6.328 -1.6043 -0.1741  0.6749
 9224SOL    HW239309   1.379   2.613   6.415 -0.0756 -0.2275 -0.1197
 9225SOL     OW39310   3.060   3.474   6.175 -0.0138 -0.6367  0.2299
 9225SOL    HW139311   3.022   3.561   6.182  1.2295  0.0660 -1.7489
 9225SOL    HW239312   3.105   3.472   6.091  2.1079 -2.1589  1.3769
 9226SOL     OW39313   3.808   1.204  17.746  0.2867 -0.4304  0.0888
 9226SOL    HW139314   3.781   1.127  17.697 -0.1493 -0.7878  0.8925
 9226SOL    HW239315   3.809   1.265  17.672 -2.4380  0.2890  0.6590
 9227SOL     OW39316   3.516   1.533  15.059  0.5003  0.1090 -0.2998
 9227SOL    HW139317   3.551   1.527  14.970  2.7299  1.2251  0.4997
 9227SOL    HW239318   3.515   1.628  15.073  2.2242  0.0723  0.0554
 9228SOL     OW39319   4.217   3.992   2.356  0.0335  0.2453  0.3591
 9228SOL    HW139320   4.232   4.086   2.343 -0.0188  0.1423 -0.4974
 9228SOL    HW239321   4.174   3.986   2.440 -0.2675  1.1881  0.2726
 9229SOL     OW39322   3.030   2.969  12.283  0.2412  0.0060 -0.1997
 9229SOL    HW139323   3.005   2.893  12.230 -0.7514  0.2109 -0.0146
 9229SOL    HW239324   2.988   3.040  12.235 -1.9857 -0.7696  0.6172
 9230SOL     OW39325   1.463   1.825   4.232 -0.7590 -0.0469  0.3321
 9230SOL    HW139326   1.515   1.762   4.182  1.2208  0.1959  2.1466
 9230SOL    HW239327   1.381   1.795   4.191 -0.0541 -0.2302 -0.9661
 9231SOL     OW39328   3.673   3.173   5.614 -0.1771  0.1592 -0.2399
 9231SOL    HW139329   3.747   3.200   5.668 -1.1052  0.1492  1.0383
 9231SOL    HW239330   3.706   3.097   5.565 -0.8468  1.2551 -2.3682
 9232SOL     OW39331   1.004   0.108   8.988 -0.5994  0.2779 -0.1868
 9232SOL    HW139332   1.048   0.028   9.015 -1.4055 -1.1089 -3.0124
 9232SOL    HW239333   0.915   0.077   9.007 -0.1975  0.9753  2.8520
 9233SOL     OW39334   3.550   1.571   6.979  0.6723 -0.3412  0.0564
 9233SOL    HW139335   3.473   1.616   7.016  0.2300  0.3588 -1.7273
 9233SOL    HW239336   3.543   1.603   6.889 -1.3659 -1.8271 -0.3178
 9234SOL     OW39337   1.874   1.319  13.207  0.3381  0.4484 -0.0765
 9234SOL    HW139338   1.873   1.231  13.244  0.3451  0.7354  0.5959
 9234SOL    HW239339   1.819   1.370  13.266  1.1930  0.9238  0.2982
 9235SOL     OW39340   0.210   1.867   8.165  0.3353  0.3408  0.3429
 9235SOL    HW139341   0.184   1.823   8.084 -1.2235  2.0781 -0.0894
 9235SOL    HW239342   0.262   1.943   8.140  0.4667 -0.0765 -0.6277
 9236SOL     OW39343   3.004   0.085   3.218  0.5219  0.9236 -0.3615
 9236SOL    HW139344   3.071   0.143   3.182  2.0973 -1.0071 -0.5649
 9236SOL    HW239345   2.945   0.142   3.266  0.1866  0.1279  0.1818
 9237SOL     OW39346   1.983   4.736  16.176 -0.1108 -0.1388  0.3235
 9237SOL    HW139347   1.917   0.022  16.110 -0.5828  0.4756  1.0040
 9237SOL    HW239348   1.947   0.065  16.236  2.5492  0.9453  0.7504
 9238SOL     OW39349   2.357   1.161   5.701 -0.0292 -0.0983 -0.5238
 9238SOL    HW139350   2.441   1.195   5.672  0.7334 -0.6447  1.0177
 9238SOL    HW239351   2.329   1.235   5.756 -2.0920 -1.1424 -0.1646
 9239SOL     OW39352   3.240   1.214   4.361  0.2444 -0.5117  0.3426
 9239SOL    HW139353   3.148   1.239   4.370  0.0509 -0.9388 -0.5250
 9239SOL    HW239354   3.235   1.176   4.274  2.4479  0.3296 -0.1507
 9240SOL     OW39355   1.695   3.614   5.058  0.4065 -0.4014 -0.0588
 9240SOL    HW139356   1.617   3.640   5.009  0.1321 -2.9646 -0.9798
 9240SOL    HW239357   1.740   3.573   4.983  0.6621  0.1997 -0.2394
 9241SOL     OW39358   3.532   1.858  15.660 -0.1574 -0.0335 -0.0690
 9241SOL    HW139359   3.576   1.867  15.744 -0.7668  1.2116  0.1276
 9241SOL    HW239360   3.532   1.949  15.631 -0.3040 -0.3519 -1.0849
 9242SOL     OW39361   3.351   1.509   6.000 -0.5299 -0.4391  0.0239
 9242SOL    HW139362   3.410   1.544   6.066 -2.1303 -2.2257  2.3961
 9242SOL    HW239363   3.415   1.472   5.939 -1.0827 -0.7016 -0.4092
 9243SOL     OW39364   3.455   1.792  15.332 -0.3032 -0.4086  0.0378
 9243SOL    HW139365   3.509   1.767  15.406 -0.3842  1.0489  0.5862
 9243SOL    HW239366   3.514   1.765  15.262 -1.6325 -0.2008 -1.1718
 9244SOL     OW39367   2.436   0.158   9.564 -0.2504 -0.4939 -0.6224
 9244SOL    HW139368   2.418   0.077   9.611  2.0783 -0.6314  0.0422
 9244SOL    HW239369   2.472   0.209   9.636 -3.0146 -0.7126  0.9065
 9245SOL     OW39370   3.972   2.425   5.940 -0.4103 -0.3464 -0.4043
 9245SOL    HW139371   3.897   2.469   5.979  0.7540  1.6153 -0.3582
 9245SOL    HW239372   4.049   2.451   5.991 -0.8693 -1.2849  0.7679
 9246SOL     OW39373   2.570   1.634   6.985 -0.0101  0.2794  0.3886
 9246SOL    HW139374   2.501   1.629   6.919  0.9906 -0.7380 -0.5836
 9246SOL    HW239375   2.629   1.689   6.934  1.3025 -0.6883  0.8581
 9247SOL     OW39376   0.698   2.142  10.115 -0.7748 -0.1233  0.2612
 9247SOL    HW139377   0.718   2.135  10.209 -0.0988 -0.5009  0.0874
 9247SOL    HW239378   0.768   2.199  10.085 -0.7530  0.0809  0.6862
 9248SOL     OW39379   1.648   3.011   2.517  0.0007 -0.3538 -0.3663
 9248SOL    HW139380   1.719   2.956   2.486  0.6267  1.3268 -1.8808
 9248SOL    HW239381   1.606   3.037   2.435 -1.5914  0.7252  0.7845
 9249SOL     OW39382   1.769   3.014   4.155 -0.6860  0.5221 -0.1548
 9249SOL    HW139383   1.735   2.974   4.075  1.4547 -0.1376 -0.7263
 9249SOL    HW239384   1.772   3.105   4.127  0.6107  0.6569  0.3947
 9250SOL     OW39385   2.882   3.674   1.929  0.0797  0.2817 -0.1803
 9250SOL    HW139386   2.888   3.636   1.842  1.7696 -0.4925  0.2643
 9250SOL    HW239387   2.807   3.635   1.974 -0.6865 -0.0432 -1.7555
 9251SOL     OW39388   1.767   2.891   1.160  0.2308 -0.0278 -0.0876
 9251SOL    HW139389   1.845   2.923   1.115 -0.8113 -0.0444 -1.9216
 9251SOL    HW239390   1.805   2.895   1.247 -2.0522  0.2245  0.9064
 9252SOL     OW39391   0.414   2.365   3.999 -0.4253  0.1997  0.7015
 9252SOL    HW139392   0.326   2.327   4.001 -0.3775  0.0783  0.5701
 9252SOL    HW239393   0.429   2.379   3.905 -1.6391 -0.0794  0.4571
 9253SOL     OW39394   4.731   1.734  10.393  0.3717  0.1305 -0.4134
 9253SOL    HW139395   0.021   1.698  10.478  0.2897 -1.5461 -1.1176
 9253SOL    HW239396   0.049   1.692  10.327 -1.2899  0.2813 -1.8985
 9254SOL     OW39397   3.992   0.307   7.390  0.3405 -0.1098 -0.2029
 9254SOL    HW139398   4.007   0.401   7.382 -0.2250  0.0543  0.6587
 9254SOL    HW239399   3.997   0.284   7.297 -1.2007  1.1303 -0.6062
 9255SOL     OW39400   2.704   1.998   1.601  0.3801 -0.0165  0.7328
 9255SOL    HW139401   2.654   2.054   1.660  0.6036  1.4607 -0.4741
 9255SOL    HW239402   2.763   1.942   1.651  0.9912  0.5682  0.6658
 9256SOL     OW39403   3.932   2.042   2.554 -0.1494  0.1675  0.5316
 9256SOL    HW139404   4.027   2.034   2.546 -0.3370  0.2994 -1.9264
 9256SOL    HW239405   3.931   2.043   2.650 -1.6713 -0.1143  0.5206
 9257SOL     OW39406   3.040   0.250  16.975  0.0930  0.1426 -0.3961
 9257SOL    HW139407   3.095   0.245  17.054 -0.9750 -0.9499  0.2649
 9257SOL    HW239408   2.999   0.333  16.999 -1.7155 -0.8445 -0.1291
 9258SOL     OW39409   0.810   1.912  14.564 -0.1258  0.1397  0.1633
 9258SOL    HW139410   0.741   1.848  14.544 -1.2007  1.3926 -0.1759
 9258SOL    HW239411   0.890   1.877  14.525 -0.0747  0.5623 -0.1138
 9259SOL     OW39412   0.320   0.161  12.336 -0.2968  0.4943 -0.1437
 9259SOL    HW139413   0.259   0.101  12.379 -0.7309  2.2330  1.6768
 9259SOL    HW239414   0.383   0.193  12.401  1.5222 -0.7314 -1.3006
 9260SOL     OW39415   0.646   4.496   6.941  0.0995 -0.1495  0.5811
 9260SOL    HW139416   0.625   4.488   7.034 -0.7885 -3.6584  0.0827
 9260SOL    HW239417   0.563   4.496   6.894  0.2110  0.4853  0.3861
 9261SOL     OW39418   1.151   0.384   6.596 -0.3050  0.0046 -0.1648
 9261SOL    HW139419   1.146   0.372   6.691 -0.7126 -1.9508 -0.4285
 9261SOL    HW239420   1.247   0.385   6.593 -0.3644 -0.8500 -2.4753
 9262SOL     OW39421   3.049   0.929   6.740  0.6766  0.0987 -0.2672
 9262SOL    HW139422   2.996   0.870   6.793  2.9220 -0.5725  1.2609
 9262SOL    HW239423   3.007   1.014   6.758  0.2648  0.4811 -3.1483
 9263SOL     OW39424   4.386   2.196   3.244 -0.1368  0.1655  0.2735
 9263SOL    HW139425   4.352   2.151   3.322 -0.4461 -0.4206 -0.1967
 9263SOL    HW239426   4.478   2.175   3.260 -0.3430 -0.2914  0.8699
 9264SOL     OW39427   1.669   2.444   7.624 -0.0716  0.9429  0.1665
 9264SOL    HW139428   1.600   2.503   7.594 -0.8472  0.0477  0.1740
 9264SOL    HW239429   1.736   2.465   7.560  1.0822  0.3034  1.1609
 9265SOL     OW39430   2.019   4.722   3.048 -0.1788 -0.0810 -0.6674
 9265SOL    HW139431   2.106   0.013   3.020  0.6757 -2.6424 -0.6480
 9265SOL    HW239432   1.960   0.015   2.979 -1.2145  0.6629  0.5563
 9266SOL     OW39433   3.380   3.455   4.639 -0.6268 -0.1572  0.0355
 9266SOL    HW139434   3.367   3.363   4.664 -0.5171 -0.4503 -1.0191
 9266SOL    HW239435   3.295   3.489   4.664  0.2286  0.4855  2.1326
 9267SOL     OW39436   3.706   3.604   6.691  0.0866 -0.1006 -0.3568
 9267SOL    HW139437   3.658   3.596   6.773  1.1896 -0.6751  0.2262
 9267SOL    HW239438   3.772   3.664   6.726 -0.3090  0.9742 -1.4475
 9268SOL     OW39439   1.154   2.312  10.110 -0.6433 -0.2432  0.0730
 9268SOL    HW139440   1.183   2.393  10.068 -0.2679  0.0267  0.8397
 9268SOL    HW239441   1.062   2.303  10.087 -0.6829  1.8009 -0.5529
 9269SOL     OW39442   1.422   3.880   4.499 -0.1656 -0.5444 -0.2038
 9269SOL    HW139443   1.509   3.842   4.495  0.0499 -0.1556  0.6712
 9269SOL    HW239444   1.361   3.808   4.515 -0.1573 -0.5386 -0.1447
 9270SOL     OW39445   2.794   0.288   6.103 -0.1232  0.0594  0.6136
 9270SOL    HW139446   2.814   0.257   6.192  0.5234  0.9944  0.8045
 9270SOL    HW239447   2.741   0.218   6.067 -2.5357  1.3936  1.5324
 9271SOL     OW39448   2.193   1.701   1.555  0.2648  0.0289 -0.0679
 9271SOL    HW139449   2.151   1.786   1.561  1.1026  0.4369  0.0518
 9271SOL    HW239450   2.219   1.706   1.463  1.8926 -0.3925  0.3597
 9272SOL     OW39451   2.806   0.420   3.455 -0.0743  0.4404 -0.6755
 9272SOL    HW139452   2.740   0.466   3.507 -0.5495 -0.8296 -0.1708
 9272SOL    HW239453   2.887   0.463   3.483 -0.3911  0.9285 -0.5153
 9273SOL     OW39454   3.962   1.114  10.720  0.1123  0.0434  0.1431
 9273SOL    HW139455   3.963   1.022  10.746 -1.8360 -0.3044 -0.9785
 9273SOL    HW239456   3.900   1.134  10.790  0.1150 -0.8845  0.4112
 9274SOL     OW39457   3.883   0.527   1.083 -0.2736 -0.3490  0.4903
 9274SOL    HW139458   3.868   0.544   0.990 -0.5267 -0.9936  0.4128
 9274SOL    HW239459   3.793   0.548   1.109  0.5091 -0.2189  3.0261
 9275SOL     OW39460   0.990   1.611   6.868  1.2305  0.6006 -0.1943
 9275SOL    HW139461   1.049   1.540   6.845  1.3360  0.0145  1.9063
 9275SOL    HW239462   0.936   1.578   6.939 -0.3992  2.4016 -0.5948
 9276SOL     OW39463   4.269   4.612   5.473 -0.1676  0.1662  0.2993
 9276SOL    HW139464   4.217   4.614   5.392  0.7086  2.2303 -0.2009
 9276SOL    HW239465   4.346   4.663   5.449  1.1612 -1.8683  0.2592
 9277SOL     OW39466   3.968   0.142  17.557 -0.0145  0.1655 -0.1032
 9277SOL    HW139467   3.939   0.083  17.487 -0.1100  0.7469 -0.5545
 9277SOL    HW239468   4.050   0.093  17.564  0.1101  0.3774 -0.1034
 9278SOL     OW39469   3.696   1.261   4.129  0.1290 -0.7822  0.4988
 9278SOL    HW139470   3.755   1.319   4.080 -1.9313  0.8991  0.0222
 9278SOL    HW239471   3.644   1.312   4.190  0.3171 -1.7986  1.5072
 9279SOL     OW39472   4.383   3.614  13.141 -0.7090  0.3735  0.3724
 9279SOL    HW139473   4.323   3.630  13.214  1.3960  0.7829  2.0320
 9279SOL    HW239474   4.423   3.701  13.138  0.3545 -0.0667  1.7634
 9280SOL     OW39475   1.151   2.562   2.913 -0.1505 -0.3143 -0.2262
 9280SOL    HW139476   1.197   2.636   2.954  1.3113 -0.6553 -1.2700
 9280SOL    HW239477   1.181   2.493   2.971 -1.9232 -2.3923 -1.7963
 9281SOL     OW39478   2.275   1.521   2.728 -0.1503 -0.2718 -0.1147
 9281SOL    HW139479   2.337   1.593   2.745 -2.0139  1.3031  0.0431
 9281SOL    HW239480   2.209   1.527   2.797  0.6038 -4.9711  0.9446
 9282SOL     OW39481   2.464   2.487   9.297  0.6305  0.1217  0.4716
 9282SOL    HW139482   2.546   2.536   9.285  0.3161  0.7019  0.6944
 9282SOL    HW239483   2.425   2.531   9.373 -0.2375  0.1952 -0.0260
 9283SOL     OW39484   0.678   4.073  14.633  0.5232 -0.4185  0.1707
 9283SOL    HW139485   0.750   4.135  14.640 -1.4244  1.6377  1.8011
 9283SOL    HW239486   0.636   4.082  14.719  2.1800 -1.2025  1.0604
 9284SOL     OW39487   3.940   4.144   9.610  0.1276  0.2618 -0.3982
 9284SOL    HW139488   4.032   4.171   9.610 -0.2723  1.6450 -1.0833
 9284SOL    HW239489   3.899   4.217   9.564  0.5683  1.6673  1.4318
 9285SOL     OW39490   2.538   4.562   6.247  0.6233  0.2584  0.4540
 9285SOL    HW139491   2.608   4.500   6.228  0.2590  0.4405 -1.4576
 9285SOL    HW239492   2.575   4.614   6.318 -1.1426 -0.4769  1.9116
 9286SOL     OW39493   3.988   4.138   4.518  0.3057  0.8346  0.3593
 9286SOL    HW139494   4.011   4.210   4.459 -0.8639 -0.0488 -1.1820
 9286SOL    HW239495   3.969   4.191   4.595 -1.0102  0.1088  0.5186
 9287SOL     OW39496   2.291   1.434   1.763  0.6170 -0.1220 -0.3779
 9287SOL    HW139497   2.281   1.380   1.685  2.1108 -0.6235 -0.2367
 9287SOL    HW239498   2.235   1.507   1.737  1.1690 -0.1303 -1.6110
 9288SOL     OW39499   1.741   0.723   6.529  0.3412  0.7658  0.1039
 9288SOL    HW139500   1.704   0.704   6.442 -0.8540 -0.4682  0.8671
 9288SOL    HW239501   1.831   0.695   6.514  0.7703  1.2556  1.7812
 9289SOL     OW39502   4.194   0.402   5.915 -0.1206  0.0237 -0.1272
 9289SOL    HW139503   4.222   0.372   6.001  1.8284  0.5028 -0.5756
 9289SOL    HW239504   4.133   0.336   5.880 -0.6039  1.1889 -1.4858
 9290SOL     OW39505   2.244   3.076   3.806 -0.2445  0.0787 -0.0439
 9290SOL    HW139506   2.271   3.137   3.738 -0.0087 -0.0490 -0.0667
 9290SOL    HW239507   2.305   3.097   3.877  0.4419 -1.3773 -0.2128
 9291SOL     OW39508   1.288   0.034   3.715 -0.3102  0.3334 -0.0129
 9291SOL    HW139509   1.255   0.123   3.726 -0.9942 -0.2196  2.4651
 9291SOL    HW239510   1.259   4.724   3.794 -0.3891  2.0937  0.9941
 9292SOL     OW39511   4.280   1.024   8.775 -0.1004 -0.3940  0.0490
 9292SOL    HW139512   4.312   1.114   8.765 -0.8632 -0.1112  0.1587
 9292SOL    HW239513   4.357   0.995   8.727 -2.2404 -1.9889 -2.4457
 9293SOL     OW39514   0.676   1.723   9.767 -0.7222  0.1454  0.6354
 9293SOL    HW139515   0.712   1.661   9.831 -0.9078  0.5637  1.1531
 9293SOL    HW239516   0.672   1.799   9.825  1.8386 -0.0059  0.9802
 9294SOL     OW39517   2.378   0.162  14.439  0.6520  0.3092  0.0471
 9294SOL    HW139518   2.392   0.093  14.374  0.4704 -1.4377  1.8668
 9294SOL    HW239519   2.284   0.177  14.432  0.4081 -0.4923  1.4970
 9295SOL     OW39520   1.098   0.923   5.242  0.1056  0.6156 -0.0191
 9295SOL    HW139521   1.122   0.830   5.239 -0.4493  0.4947 -0.7671
 9295SOL    HW239522   1.038   0.935   5.168 -0.2907 -0.0345  0.1927
 9296SOL     OW39523   0.957   2.489   1.543 -0.0689  0.0774 -0.2113
 9296SOL    HW139524   0.913   2.473   1.626  1.0642 -0.8260  0.2074
 9296SOL    HW239525   1.017   2.556   1.574  1.5211 -0.2326 -2.5487
 9297SOL     OW39526   0.511   0.986   0.626  0.4957 -0.2262  0.7523
 9297SOL    HW139527   0.563   1.037   0.687 -1.0808  0.8084  1.2329
 9297SOL    HW239528   0.426   1.030   0.633  0.3667 -0.5217  1.0012
 9298SOL     OW39529   1.184   3.963   8.042  0.4200  0.2345  0.2488
 9298SOL    HW139530   1.091   3.944   8.028  0.5955  0.6138 -1.4851
 9298SOL    HW239531   1.218   3.904   7.974  1.3536  0.9898  0.0669
 9299SOL     OW39532   3.239   0.649   4.305 -0.1019  0.1411  0.6055
 9299SOL    HW139533   3.175   0.601   4.253 -0.3333  1.1408 -0.0314
 9299SOL    HW239534   3.304   0.679   4.241 -1.1912 -0.5363 -0.8087
 9300SOL     OW39535   2.108   1.192   3.833  0.2032  0.2717  0.1865
 9300SOL    HW139536   2.201   1.212   3.828  0.3611 -0.1805  1.3239
 9300SOL    HW239537   2.109   1.104   3.872 -1.0618  0.4007  0.5144
 9301SOL     OW39538   2.894   3.207  12.169 -0.1152 -0.6085 -0.2289
 9301SOL    HW139539   2.857   3.275  12.112 -0.4158  0.4371  1.1974
 9301SOL    HW239540   2.813   3.157  12.178 -0.8045  0.9456  2.2091
 9302SOL     OW39541   1.607   3.897   6.297  0.0230 -0.1831  0.5390
 9302SOL    HW139542   1.637   3.876   6.386 -0.6012  1.8747  1.2330
 9302SOL    HW239543   1.601   3.992   6.289 -2.1387 -0.4313 -0.7796
 9303SOL     OW39544   1.705   1.963   2.094 -0.1901  0.0748 -0.4279
 9303SOL    HW139545   1.675   1.992   2.008 -4.4516  2.0647  1.7130
 9303SOL    HW239546   1.627   1.978   2.149  1.7967  0.5962  2.2340
 9304SOL     OW39547   2.993   2.436  17.341 -0.2505  0.5166  0.1676
 9304SOL    HW139548   3.054   2.502  17.310  0.4264 -0.7564 -1.2094
 9304SOL    HW239549   3.019   2.460  17.430  0.4816  0.5577 -0.0637
 9305SOL     OW39550   1.385   0.322  16.315  0.3546 -0.0284 -0.7961
 9305SOL    HW139551   1.425   0.395  16.362  0.3386 -0.4210 -0.1685
 9305SOL    HW239552   1.294   0.317  16.346 -0.0725 -2.4418 -2.3948
 9306SOL     OW39553   1.167   2.558   4.976 -0.2479  0.0785  0.1705
 9306SOL    HW139554   1.259   2.540   4.959 -0.7798 -5.0505  2.6745
 9306SOL    HW239555   1.163   2.568   5.071  2.0057 -2.0098  0.4875
 9307SOL     OW39556   4.263   1.437   8.605 -0.2508  0.2562 -0.1721
 9307SOL    HW139557   4.283   1.525   8.636  1.9061 -0.5103  0.6209
 9307SOL    HW239558   4.334   1.412   8.544 -1.0318 -0.8007 -0.6596
 9308SOL     OW39559   2.453   3.701   0.508  0.2826 -0.3071  0.0490
 9308SOL    HW139560   2.466   3.794   0.487  0.6523 -0.4933 -0.5410
 9308SOL    HW239561   2.514   3.670   0.441 -1.4601 -0.0961 -1.6164
 9309SOL     OW39562   1.796   4.105   6.623  0.0173  0.1770 -0.3163
 9309SOL    HW139563   1.851   4.184   6.628 -1.2639  1.0998 -0.9070
 9309SOL    HW239564   1.708   4.130   6.595 -0.4702 -0.5009  0.5994
 9310SOL     OW39565   1.336   2.374   7.271  0.3094 -0.3570 -0.1474
 9310SOL    HW139566   1.297   2.340   7.190 -0.1592 -0.8326  0.2744
 9310SOL    HW239567   1.419   2.328   7.279  0.5382  0.3283  1.4087
 9311SOL     OW39568   3.804   0.453   0.029  0.1893 -0.1617  0.1829
 9311SOL    HW139569   3.790   0.451   0.124 -0.9252  3.6435  0.0909
 9311SOL    HW239570   3.844   0.367   0.016  0.7151  0.1984 -0.5508
 9312SOL     OW39571   2.269   1.777   3.543  0.2382 -0.2363  0.2887
 9312SOL    HW139572   2.275   1.811   3.633 -0.5070 -1.5598  0.8406
 9312SOL    HW239573   2.199   1.837   3.516  0.9394  0.4671  0.0543
 9313SOL     OW39574   0.952   3.101   5.779  0.1627  0.5158 -0.2071
 9313SOL    HW139575   1.038   3.125   5.746  0.1677 -0.9580 -1.2804
 9313SOL    HW239576   0.955   3.149   5.862  0.2804  2.5909 -1.4213
 9314SOL     OW39577   3.547   2.993   8.437  0.4312  0.1597 -0.1587
 9314SOL    HW139578   3.546   2.958   8.526  1.1243 -1.0225 -0.6028
 9314SOL    HW239579   3.631   2.957   8.408  0.7331 -1.5661  2.8554
 9315SOL     OW39580   2.001   4.000   5.280 -0.2892  0.2265  0.2328
 9315SOL    HW139581   1.953   3.919   5.294 -1.2524  0.8192  0.3502
 9315SOL    HW239582   1.971   4.031   5.195  1.1599 -0.4273 -0.5127
 9316SOL     OW39583   2.362   3.207   3.591  0.1050  0.1184  0.5415
 9316SOL    HW139584   2.436   3.154   3.562 -1.7102 -2.9421  1.5571
 9316SOL    HW239585   2.308   3.211   3.512  1.5040  1.0201 -0.3731
 9317SOL     OW39586   0.977   4.150   9.797 -0.0473 -0.3264 -0.0065
 9317SOL    HW139587   1.032   4.229   9.799  1.8090 -1.6195  0.3928
 9317SOL    HW239588   0.981   4.112   9.709 -1.6021  1.3218 -0.7730
 9318SOL     OW39589   1.337   2.359   9.492 -0.4073 -1.0286 -0.3776
 9318SOL    HW139590   1.430   2.355   9.512 -0.5223 -0.3303  0.2860
 9318SOL    HW239591   1.294   2.347   9.577 -0.2535  2.1034  0.1128
 9319SOL     OW39592   2.100   1.259   9.353  0.2891 -0.1232  0.9439
 9319SOL    HW139593   2.172   1.314   9.321 -0.4977  0.4823  0.2248
 9319SOL    HW239594   2.077   1.312   9.429  0.7132  1.1229  0.2036
 9320SOL     OW39595   4.495   0.072  17.447 -0.4437 -0.0271 -0.0471
 9320SOL    HW139596   4.533   0.010  17.384  0.9696  0.3160  0.4620
 9320SOL    HW239597   4.515   0.148  17.391 -2.4389  0.5350  0.0217
 9321SOL     OW39598   3.787   2.048   3.423  0.5208 -0.6564 -0.5738
 9321SOL    HW139599   3.807   2.024   3.332  0.0988  0.9845 -1.0936
 9321SOL    HW239600   3.840   1.990   3.477 -0.7083 -0.0992  1.2202
 9322SOL     OW39601   2.575   0.886   3.067 -0.4272  0.0165 -0.2684
 9322SOL    HW139602   2.538   0.970   3.038 -0.2516 -0.4256 -1.7457
 9322SOL    HW239603   2.667   0.906   3.054 -0.3658  0.9554  1.5796
 9323SOL     OW39604   4.653   3.544  15.190  0.5862 -0.7776  0.1842
 9323SOL    HW139605   4.586   3.487  15.153  0.0809  0.2033 -0.4181
 9323SOL    HW239606   4.637   3.623  15.137  1.2771 -0.2511  0.7578
 9324SOL     OW39607   0.918   1.485  11.072  0.9443  0.1571 -0.5649
 9324SOL    HW139608   0.955   1.425  11.008  1.3146 -1.1889  0.9327
 9324SOL    HW239609   0.993   1.544  11.079  1.4202 -0.5987  0.6189
 9325SOL     OW39610   1.530   3.819  11.501  0.2774  0.0198 -0.4782
 9325SOL    HW139611   1.552   3.823  11.408  0.4107 -2.0450 -0.5351
 9325SOL    HW239612   1.475   3.895  11.523  0.5705  0.6330 -1.8473
 9326SOL     OW39613   1.843   4.474   4.978 -0.1042 -0.0248 -0.3025
 9326SOL    HW139614   1.856   4.505   4.888 -0.2114  0.2296 -0.2302
 9326SOL    HW239615   1.935   4.452   4.989 -0.0864  0.3096  0.2282
 9327SOL     OW39616   2.511   1.909   8.367  0.1577  0.1848  0.1841
 9327SOL    HW139617   2.549   1.918   8.454 -0.7546  1.6548  0.4444
 9327SOL    HW239618   2.419   1.927   8.388  0.3350 -0.4380  1.4801
 9328SOL     OW39619   2.419   2.949  17.668 -0.2065 -0.0545 -0.1814
 9328SOL    HW139620   2.458   2.893  17.735  0.4953  1.8282  1.0008
 9328SOL    HW239621   2.497   2.972  17.616  1.7894  1.8124  3.6772
 9329SOL     OW39622   2.702   2.033   6.956 -0.3599  0.0314 -0.5250
 9329SOL    HW139623   2.734   1.964   6.899  0.7756 -0.2870  0.4873
 9329SOL    HW239624   2.642   2.084   6.901 -0.4385  0.2222 -0.2643
 9330SOL     OW39625   0.776   1.475   5.684 -0.1763  0.0377 -0.4453
 9330SOL    HW139626   0.793   1.386   5.716 -2.8898 -0.6378 -0.9223
 9330SOL    HW239627   0.685   1.479   5.710 -0.0314  0.6609 -0.0428
 9331SOL     OW39628   4.728   1.492   7.646 -0.0947 -0.2712  0.4141
 9331SOL    HW139629   0.061   1.557   7.649  0.0454 -0.2891 -2.2183
 9331SOL    HW239630   4.655   1.534   7.600  1.0750  0.9173 -0.3627
 9332SOL     OW39631   2.740   3.206   8.425  0.5435  0.8063  0.3030
 9332SOL    HW139632   2.646   3.203   8.404  1.0364  0.3251 -1.8401
 9332SOL    HW239633   2.743   3.159   8.508  0.8181 -0.8695 -0.6486
 9333SOL     OW39634   0.193   2.483  10.766  0.3344 -0.1294  0.5658
 9333SOL    HW139635   0.180   2.396  10.804  1.3068  0.0695  1.3537
 9333SOL    HW239636   0.108   2.525  10.775  0.4541  0.5406 -1.4170
 9334SOL     OW39637   4.437   2.728   5.524 -0.0917 -0.1017  0.0260
 9334SOL    HW139638   4.342   2.726   5.516 -0.0155  0.6029 -1.0812
 9334SOL    HW239639   4.451   2.639   5.558 -1.6783 -0.0132  0.8682
 9335SOL     OW39640   1.789   0.362   9.449  0.0116 -0.6317  0.1321
 9335SOL    HW139641   1.821   0.423   9.516  2.0759 -0.0723 -1.3549
 9335SOL    HW239642   1.866   0.314   9.420 -1.4153 -1.0537 -2.9772
 9336SOL     OW39643   1.099   3.552  16.676  0.5156  0.1491  0.0383
 9336SOL    HW139644   1.095   3.474  16.732 -0.3102 -0.0692 -0.3255
 9336SOL    HW239645   1.019   3.594  16.709  0.3377  0.2249 -0.5035
 9337SOL     OW39646   3.066   4.078   7.084  0.0262 -0.1157 -0.4788
 9337SOL    HW139647   3.016   4.001   7.111  1.2363 -1.0945 -1.0470
 9337SOL    HW239648   3.119   4.101   7.160 -0.4694 -1.9630  0.4245
 9338SOL     OW39649   3.780   1.761   4.111 -0.3755  0.5015 -0.2991
 9338SOL    HW139650   3.826   1.749   4.028 -0.0934  1.2986 -0.2571
 9338SOL    HW239651   3.845   1.815   4.154  0.3895 -0.6206 -0.0391
 9339SOL     OW39652   2.790   2.616   9.566  0.3968 -0.4637 -0.4212
 9339SOL    HW139653   2.705   2.658   9.582  0.7768  1.1059 -2.5941
 9339SOL    HW239654   2.843   2.661   9.632 -1.1775 -0.5500  0.9254
 9340SOL     OW39655   0.157   1.771   6.385 -0.5624 -0.2159 -0.4457
 9340SOL    HW139656   0.190   1.812   6.305 -0.2059 -0.4505 -0.4167
 9340SOL    HW239657   0.168   1.679   6.362 -0.5368 -0.6560  1.2860
 9341SOL     OW39658   3.112   1.599   8.161  0.3180  0.2984 -0.2104
 9341SOL    HW139659   3.076   1.512   8.144  0.5736 -0.2508  2.0951
 9341SOL    HW239660   3.041   1.663   8.157  2.1107  2.3076 -0.1794
 9342SOL     OW39661   1.648   3.215  10.005  0.3900 -0.0558  0.3098
 9342SOL    HW139662   1.672   3.222  10.098 -1.4903 -0.1115  0.7958
 9342SOL    HW239663   1.724   3.253   9.961  0.0809  1.0556  0.7294
 9343SOL     OW39664   2.124   1.148   5.413  0.3913 -0.1028  0.0899
 9343SOL    HW139665   2.142   1.094   5.490 -0.1371 -0.1697  0.1689
 9343SOL    HW239666   2.078   1.221   5.453  2.6832  0.4858  1.6178
 9344SOL     OW39667   0.920   2.619   7.235 -0.0531 -1.0229 -0.0390
 9344SOL    HW139668   0.910   2.555   7.305 -0.1461 -1.9469 -0.8894
 9344SOL    HW239669   0.991   2.670   7.273 -0.3343  0.7326 -1.8622
 9345SOL     OW39670   0.896   3.564   8.949  0.2762 -0.6618 -0.2882
 9345SOL    HW139671   0.842   3.514   8.888  1.2070 -0.2532 -1.4456
 9345SOL    HW239672   0.834   3.616   9.000  0.9560 -0.4877  0.3723
 9346SOL     OW39673   3.712   2.056  14.721 -0.2148  0.0284  0.1549
 9346SOL    HW139674   3.749   2.011  14.646  1.0629  1.6015 -0.1661
 9346SOL    HW239675   3.792   2.101  14.748 -0.6845 -0.2257  1.9690
 9347SOL     OW39676   1.168   1.805   8.279 -0.5496  0.0308 -0.2133
 9347SOL    HW139677   1.126   1.725   8.249  0.0282 -0.2343 -0.3139
 9347SOL    HW239678   1.259   1.775   8.280 -0.7540 -0.6233 -1.2721
 9348SOL     OW39679   0.076   2.456   3.361  0.0434 -0.0029 -0.1366
 9348SOL    HW139680   0.052   2.484   3.272 -1.9303 -0.6467  0.1928
 9348SOL    HW239681   0.071   2.537   3.412  0.5427 -1.4593  2.1886
 9349SOL     OW39682   3.367   0.514   1.965 -0.3946 -0.0574  0.5807
 9349SOL    HW139683   3.338   0.532   1.876  1.7909  0.3126 -0.0557
 9349SOL    HW239684   3.357   0.602   2.003  3.0960  0.4737  0.2989
 9350SOL     OW39685   0.129   1.051   8.146  0.6123  0.0996  0.1407
 9350SOL    HW139686   0.138   0.963   8.184 -0.7183 -0.9999 -2.0769
 9350SOL    HW239687   0.182   1.092   8.214  1.5761 -0.2830 -0.3787
 9351SOL     OW39688   3.534   1.020  14.611  0.3116  0.2096  0.3891
 9351SOL    HW139689   3.534   0.926  14.631  0.7140  0.3216  0.9038
 9351SOL    HW239690   3.589   1.053  14.682 -1.3481  2.2361  0.7606
 9352SOL     OW39691   3.356   4.011   8.760 -0.0954 -0.0907  0.0256
 9352SOL    HW139692   3.420   3.941   8.774 -0.9044 -0.7647  0.3317
 9352SOL    HW239693   3.295   4.000   8.833 -1.9852 -0.8998 -1.6700
 9353SOL     OW39694   1.699   1.012   8.016  0.0001 -0.3900 -0.6424
 9353SOL    HW139695   1.731   1.044   7.932  0.0035  1.9406  0.2368
 9353SOL    HW239696   1.736   0.924   8.019  3.8335  1.1812 -1.8415
 9354SOL     OW39697   3.424   1.580   4.724  0.8142 -0.0591 -0.2102
 9354SOL    HW139698   3.433   1.672   4.749  2.1885  0.0027 -0.8848
 9354SOL    HW239699   3.487   1.575   4.651  0.5580  2.9550 -0.6306
 9355SOL     OW39700   0.404   0.072   4.736 -0.4421 -0.0940  0.1688
 9355SOL    HW139701   0.351   0.022   4.673  0.3776 -0.4786 -0.2102
 9355SOL    HW239702   0.484   0.026   4.713  0.6305  2.3724 -1.0116
 9356SOL     OW39703   2.555   0.411  16.516 -0.4709  0.1059 -0.0705
 9356SOL    HW139704   2.620   0.372  16.458  0.1831  2.0781 -0.6770
 9356SOL    HW239705   2.566   0.501  16.483 -1.9111  0.6215  0.8519
 9357SOL     OW39706   2.430   1.953   2.292  0.0449  0.0517 -0.0315
 9357SOL    HW139707   2.376   2.017   2.339  0.0491  0.0323 -0.0004
 9357SOL    HW239708   2.491   1.944   2.365  1.5275 -2.6005 -1.5810
 9358SOL     OW39709   2.623   0.204   8.932 -0.4341  0.6461  0.5195
 9358SOL    HW139710   2.701   0.251   8.903 -0.1331  0.0503  0.3753
 9358SOL    HW239711   2.629   0.128   8.875  1.4968 -0.6340  2.4619
 9359SOL     OW39712   2.924   0.714   6.875  0.0391  0.1389  0.2307
 9359SOL    HW139713   2.993   0.654   6.903  2.0053  0.3440 -4.1734
 9359SOL    HW239714   2.893   0.682   6.790 -1.0616 -0.1551  0.7462
 9360SOL     OW39715   0.684   0.553   1.541  0.1902  0.2049  0.2774
 9360SOL    HW139716   0.722   0.626   1.590  0.8671 -0.1233  0.2383
 9360SOL    HW239717   0.754   0.488   1.533 -1.2267 -0.8973 -2.8300
 9361SOL     OW39718   4.406   3.692  17.038 -0.1253 -0.0398  0.0370
 9361SOL    HW139719   4.381   3.653  16.954  2.5004 -1.7166  0.0638
 9361SOL    HW239720   4.340   3.663  17.100  1.8173 -2.1095  1.1073
 9362SOL     OW39721   3.401   1.834   4.833  0.0429  0.1973 -0.1879
 9362SOL    HW139722   3.344   1.894   4.881  1.3670  0.8435  0.5999
 9362SOL    HW239723   3.483   1.844   4.882 -0.1011 -2.6707  0.5951
 9363SOL     OW39724   0.233   1.480  11.734 -0.2232 -0.3035 -0.2150
 9363SOL    HW139725   0.250   1.403  11.788 -1.2725  0.1509  0.7677
 9363SOL    HW239726   0.203   1.542  11.801 -0.6860 -1.8076  0.9572
 9364SOL     OW39727   2.262   3.719   4.614 -0.6681 -0.1147 -0.2559
 9364SOL    HW139728   2.197   3.663   4.656 -1.1211  0.6912  0.1383
 9364SOL    HW239729   2.248   3.711   4.520 -1.4695 -2.0890  0.0463
 9365SOL     OW39730   3.252   0.136  17.152  0.3291 -0.1980  0.6449
 9365SOL    HW139731   3.244   0.041  17.164  0.0207 -0.2547  0.0124
 9365SOL    HW239732   3.263   0.167  17.242 -2.6139  1.7542  0.3616
 9366SOL     OW39733   2.637   3.909   5.824  0.0186 -0.7703 -0.1006
 9366SOL    HW139734   2.605   3.835   5.774  0.5377 -1.3286  0.3923
 9366SOL    HW239735   2.599   3.983   5.776  2.7619 -0.3002 -1.5665
 9367SOL     OW39736   0.325   3.094   1.919  0.4659 -0.0024 -0.3207
 9367SOL    HW139737   0.310   3.047   2.001 -0.7269  0.8902 -0.0357
 9367SOL    HW239738   0.235   3.093   1.886  1.3079 -0.1017 -2.6595
 9368SOL     OW39739   0.460   0.553   1.720 -0.0432 -0.6867  0.1407
 9368SOL    HW139740   0.549   0.518   1.715  0.6786  1.0919  0.4735
 9368SOL    HW239741   0.446   0.572   1.813 -2.1743  2.8897 -0.9067
 9369SOL     OW39742   3.361   0.036   4.728  0.4278 -0.1637  0.7766
 9369SOL    HW139743   3.269   0.046   4.752  0.0339  2.2136 -1.6810
 9369SOL    HW239744   3.390   0.123   4.758 -1.4628  0.9754 -0.6559
 9370SOL     OW39745   0.886   3.040  14.959  0.1071 -0.0044  0.2446
 9370SOL    HW139746   0.861   3.069  15.046  2.4985  0.6602  0.7178
 9370SOL    HW239747   0.883   2.945  14.969 -0.7197 -0.0305 -0.3273
 9371SOL     OW39748   3.045   0.910   4.570  0.0106  0.3119  0.2309
 9371SOL    HW139749   3.040   0.830   4.623  1.6121 -0.0351 -0.1523
 9371SOL    HW239750   3.006   0.877   4.489 -2.2164 -2.1219  2.2604
 9372SOL     OW39751   2.581   2.187  10.951 -0.3388  0.0389 -0.4185
 9372SOL    HW139752   2.548   2.245  10.883 -2.5117 -2.4741 -1.5066
 9372SOL    HW239753   2.555   2.241  11.027 -2.0207 -0.9974 -0.2617
 9373SOL     OW39754   0.827   4.631   1.993  0.3624  0.3961  0.0304
 9373SOL    HW139755   0.823   4.629   1.897 -0.8564  1.4229  0.0590
 9373SOL    HW239756   0.844   4.538   2.009 -0.2089  0.0465 -1.3692
 9374SOL     OW39757   2.943   4.577   1.717  0.0684  0.2358 -0.1373
 9374SOL    HW139758   2.957   4.671   1.708 -0.2824  0.3548  0.6217
 9374SOL    HW239759   3.023   4.542   1.757  1.2321  2.2777 -0.6947
 9375SOL     OW39760   3.370   2.338  12.437 -0.5908  0.4441  0.2314
 9375SOL    HW139761   3.391   2.424  12.473 -0.4660  0.3959  0.2715
 9375SOL    HW239762   3.394   2.288  12.514 -0.2101  3.0737  1.8052
 9376SOL     OW39763   2.713   1.222   5.132  0.4141  0.4676 -0.3156
 9376SOL    HW139764   2.621   1.247   5.139  0.1833 -0.6474  0.8245
 9376SOL    HW239765   2.748   1.295   5.082  1.1779  0.9701  0.9439
 9377SOL     OW39766   3.598   3.648   4.412  0.0445  0.2483  0.4908
 9377SOL    HW139767   3.591   3.637   4.507  0.6138  2.8481  0.8492
 9377SOL    HW239768   3.691   3.624   4.403 -0.3173 -2.0469  2.8269
 9378SOL     OW39769   2.758   2.927   8.856  0.3632 -0.1668 -0.9244
 9378SOL    HW139770   2.734   2.916   8.948 -0.9226  1.6324 -1.0529
 9378SOL    HW239771   2.719   2.847   8.821  0.1710 -0.4819  0.0165
 9379SOL     OW39772   2.195   1.327   7.504 -0.0492  0.3036  0.2314
 9379SOL    HW139773   2.111   1.298   7.469 -0.7280  0.7593  1.4895
 9379SOL    HW239774   2.215   1.406   7.454 -1.5327  1.8978  2.1754
 9380SOL     OW39775   2.286   1.703   1.284  0.6390 -0.1516  0.3317
 9380SOL    HW139776   2.371   1.749   1.291 -0.1571  1.5666 -1.1431
 9380SOL    HW239777   2.229   1.758   1.230  0.8415 -1.0928 -0.8367
 9381SOL     OW39778   0.219   2.808   8.830 -0.4824  0.1524  0.3139
 9381SOL    HW139779   0.135   2.778   8.794  0.3346 -0.2658 -1.2542
 9381SOL    HW239780   0.239   2.744   8.899  0.2725 -1.4615 -1.4010
 9382SOL     OW39781   4.181   1.331   7.322  0.2391  0.0653  0.7864
 9382SOL    HW139782   4.201   1.423   7.309  1.3663 -0.0585  1.6260
 9382SOL    HW239783   4.242   1.311   7.394  0.0505  0.3697  1.0310
 9383SOL     OW39784   3.532   1.110   1.337  0.0551  0.1207  1.0332
 9383SOL    HW139785   3.540   1.014   1.339 -0.7892  0.0441  0.3002
 9383SOL    HW239786   3.439   1.128   1.346 -0.3936 -0.8990 -1.5656
 9384SOL     OW39787   4.582   1.665   8.128 -0.2563 -0.9329  0.3932
 9384SOL    HW139788   4.558   1.708   8.046 -1.4074  0.8380  1.6388
 9384SOL    HW239789   4.626   1.584   8.103 -0.8789 -2.1921  3.3713
 9385SOL     OW39790   1.969   1.879   9.161  0.2026  0.2163 -0.6693
 9385SOL    HW139791   1.929   1.817   9.101  0.4590 -1.4639  0.8923
 9385SOL    HW239792   1.977   1.950   9.098  1.2899 -0.2099 -1.0186
 9386SOL     OW39793   1.599   3.519  13.931 -0.0697 -0.3508 -0.6294
 9386SOL    HW139794   1.565   3.572  14.003  0.4872 -2.5559  1.2746
 9386SOL    HW239795   1.678   3.480  13.970 -1.5146 -0.3093  2.3935
 9387SOL     OW39796   0.298   2.850   5.219 -0.6185  0.1887  0.4655
 9387SOL    HW139797   0.344   2.929   5.188 -1.8334  0.4120 -0.7479
 9387SOL    HW239798   0.213   2.859   5.176 -0.4167 -2.2737 -0.4144
 9388SOL     OW39799   0.348   1.737   5.722  0.0328 -0.6897  0.1406
 9388SOL    HW139800   0.336   1.811   5.662  0.1458  1.3384  2.5963
 9388SOL    HW239801   0.289   1.770   5.790  0.0315  0.4443 -0.3939
 9389SOL     OW39802   0.635   0.934   9.839  0.4062  0.1835  1.0958
 9389SOL    HW139803   0.547   0.942   9.803  0.7856  1.5677  0.4635
 9389SOL    HW239804   0.657   1.013   9.889 -0.0381  0.2459  1.1891
 9390SOL     OW39805   3.163   0.693   7.235 -0.0105 -0.3529 -0.1544
 9390SOL    HW139806   3.229   0.665   7.299 -0.9530 -2.1398  0.0527
 9390SOL    HW239807   3.092   0.722   7.292  0.5018 -2.1684  1.4246
 9391SOL     OW39808   0.987   2.194   3.447 -0.4292  0.1161  0.2829
 9391SOL    HW139809   1.078   2.214   3.426 -0.5807 -0.6386 -1.1534
 9391SOL    HW239810   0.934   2.262   3.405  1.3966  1.6682  0.5042
 9392SOL     OW39811   3.611   4.319  17.306 -0.2317 -0.1745 -0.6823
 9392SOL    HW139812   3.571   4.268  17.377  2.2859 -0.7340  0.3450
 9392SOL    HW239813   3.543   4.338  17.242  0.9575  0.1449 -1.8300
 9393SOL     OW39814   2.492   4.508   9.894  1.1058  0.1392 -0.0934
 9393SOL    HW139815   2.587   4.506   9.896  1.1214 -0.3502 -1.2188
 9393SOL    HW239816   2.481   4.573   9.964 -2.0284  0.8653 -1.2234
 9394SOL     OW39817   0.614   4.071   1.564 -0.1369  0.0819  0.1340
 9394SOL    HW139818   0.648   4.062   1.653 -1.8297  2.5606  1.0368
 9394SOL    HW239819   0.693   4.059   1.511  0.3243 -2.0869  1.2928
 9395SOL     OW39820   3.115   4.378  11.809  0.0621  0.6024  0.0941
 9395SOL    HW139821   3.154   4.301  11.767 -0.4709 -0.1480  0.9735
 9395SOL    HW239822   3.026   4.378  11.773  0.2059 -0.6458 -0.2814
 9396SOL     OW39823   3.983   1.781  16.824 -0.3405 -0.2288  0.0604
 9396SOL    HW139824   4.038   1.708  16.798 -1.2582 -0.8717 -0.0667
 9396SOL    HW239825   4.047   1.852  16.825 -2.7628  1.9179  1.5882
 9397SOL     OW39826   4.522   3.027   9.486 -0.2767 -0.3001 -0.3984
 9397SOL    HW139827   4.502   3.090   9.555 -0.4196 -1.7348  0.8533
 9397SOL    HW239828   4.539   2.952   9.543 -1.9447 -1.3279 -1.2866
 9398SOL     OW39829   3.212   4.150   7.312 -0.1807  0.1666  0.1444
 9398SOL    HW139830   3.230   4.121   7.401  0.3426  1.1154  0.3483
 9398SOL    HW239831   3.269   4.227   7.305  0.6743 -0.3389  1.5087
 9399SOL     OW39832   1.439   3.998   5.344  0.0154 -0.2300  0.9374
 9399SOL    HW139833   1.486   3.917   5.365  0.4996 -0.1259  0.2488
 9399SOL    HW239834   1.382   3.957   5.278  0.0899  1.0342  0.0892
 9400SOL     OW39835   1.753   2.807  17.593  0.3096  0.2672 -0.1043
 9400SOL    HW139836   1.800   2.885  17.563  0.6743 -0.0661 -0.4098
 9400SOL    HW239837   1.825   2.744  17.602  0.5568  0.4364 -0.9380
 9401SOL     OW39838   2.472   4.478   2.297  1.2831 -0.1163  0.1824
 9401SOL    HW139839   2.422   4.547   2.255  3.9664  2.4969  1.3195
 9401SOL    HW239840   2.504   4.435   2.218 -0.2256 -2.9689  1.1339
 9402SOL     OW39841   1.059   0.911   8.563 -0.1554  0.4163 -0.1230
 9402SOL    HW139842   1.033   0.978   8.500 -0.1025  1.0840  0.5633
 9402SOL    HW239843   1.060   0.957   8.647  0.2027 -2.0838  1.2248
 9403SOL     OW39844   4.189   2.954   9.409  0.0366  0.6492 -0.0806
 9403SOL    HW139845   4.242   2.887   9.365  1.2258  2.4628 -1.4258
 9403SOL    HW239846   4.223   2.951   9.499  0.0143 -1.6764 -0.1454
 9404SOL     OW39847   0.052   2.142   5.716 -0.4248  0.3507 -0.3760
 9404SOL    HW139848   0.040   2.219   5.661 -1.7994 -0.1352 -0.7668
 9404SOL    HW239849   0.058   2.074   5.649  0.8430 -0.1297  0.2315
 9405SOL     OW39850   2.925   1.573   6.780  0.3490  0.2230 -0.2760
 9405SOL    HW139851   2.947   1.549   6.690 -0.7829 -1.1912 -0.1655
 9405SOL    HW239852   2.955   1.498   6.831 -0.3753 -1.4931 -2.3544
 9406SOL     OW39853   4.457   0.847   2.484  0.4494  1.0338 -0.0106
 9406SOL    HW139854   4.453   0.824   2.391  3.3545 -2.3177  0.7104
 9406SOL    HW239855   4.402   0.925   2.491  0.5616  0.9938  1.3437
 9407SOL     OW39856   4.381   4.645  10.607 -0.0441 -0.3351 -0.2098
 9407SOL    HW139857   4.386   4.622  10.700  1.1533  0.3475 -0.1108
 9407SOL    HW239858   4.359   4.737  10.622 -1.8858 -0.6109 -1.1331
 9408SOL     OW39859   3.448   2.760  10.864  0.5947  0.1246  0.0849
 9408SOL    HW139860   3.441   2.681  10.917  0.3329 -1.3376 -2.1598
 9408SOL    HW239861   3.416   2.827  10.925 -0.6813  0.1903 -0.6673
 9409SOL     OW39862   4.611   4.320   1.978 -0.5454  0.3197  0.1946
 9409SOL    HW139863   4.624   4.258   1.906  4.2146 -0.4104  1.7014
 9409SOL    HW239864   4.531   4.364   1.948 -1.1297  0.1239  1.4910
 9410SOL     OW39865   3.706   2.138   8.430 -0.2301  0.2068  0.0967
 9410SOL    HW139866   3.640   2.170   8.368 -1.3088  0.4988  1.3987
 9410SOL    HW239867   3.715   2.049   8.395 -1.0584 -0.5518  1.8061
 9411SOL     OW39868   0.481   0.549   7.074 -0.3399 -0.1085 -0.6124
 9411SOL    HW139869   0.399   0.598   7.078  0.6902  1.5306  0.1398
 9411SOL    HW239870   0.554   0.601   7.042  0.2893 -0.2522  0.5833
 9412SOL     OW39871   0.062   1.248  11.081 -0.2533  0.0418 -0.6022
 9412SOL    HW139872   4.737   1.316  11.055  0.2747  0.8307  0.1881
 9412SOL    HW239873   0.132   1.252  11.016  2.0305  0.0648  1.8467
 9413SOL     OW39874   2.901   4.339   9.599  0.8253  0.1721 -0.6212
 9413SOL    HW139875   2.989   4.360   9.566  0.9402  2.0395  0.8129
 9413SOL    HW239876   2.850   4.405   9.552  0.9138 -0.7700 -2.0198
 9414SOL     OW39877   3.293   1.246   4.037 -0.4395 -0.2717 -0.3455
 9414SOL    HW139878   3.329   1.304   3.970 -0.1857  0.1622  0.1672
 9414SOL    HW239879   3.374   1.199   4.054 -0.2672 -0.1836 -0.9444
 9415SOL     OW39880   3.145   3.962   3.830  0.1816  0.4705  0.1276
 9415SOL    HW139881   3.202   3.923   3.764 -0.7130 -2.0516  0.8512
 9415SOL    HW239882   3.115   4.042   3.786 -1.2885 -0.4829 -0.5718
 9416SOL     OW39883   2.727   0.562   8.982 -0.6879  0.1016  0.1969
 9416SOL    HW139884   2.637   0.574   8.951 -0.1870  0.4671 -1.1272
 9416SOL    HW239885   2.750   0.648   9.017 -2.1181  0.5720 -0.0061
 9417SOL     OW39886   2.061   1.899   1.138 -0.7899  0.0575 -0.0659
 9417SOL    HW139887   1.994   1.955   1.097  0.1388  0.3217 -1.2006
 9417SOL    HW239888   2.082   1.840   1.066 -0.8955  1.7866 -1.5021
 9418SOL     OW39889   1.363   0.260   7.520  0.0058  0.1882 -0.6104
 9418SOL    HW139890   1.358   0.282   7.613  3.6614  0.3928 -0.4824
 9418SOL    HW239891   1.307   0.329   7.484 -1.5428 -0.3343  0.8066
 9419SOL     OW39892   2.903   3.643   8.683 -0.0028  0.4237 -0.4743
 9419SOL    HW139893   2.857   3.560   8.672  0.7383  0.0106 -0.3885
 9419SOL    HW239894   2.833   3.709   8.680  0.6150  1.1215  0.8049
 9420SOL     OW39895   3.642   0.008   4.820 -0.0564  0.3601  0.1095
 9420SOL    HW139896   3.583   4.731   4.746  0.3851 -0.1302 -0.1517
 9420SOL    HW239897   3.672   0.095   4.794  0.2655  0.0761 -0.4766
 9421SOL     OW39898   3.237   0.326   6.905 -0.0564  0.0596 -0.2957
 9421SOL    HW139899   3.311   0.340   6.963  1.2248 -0.4521 -1.8163
 9421SOL    HW239900   3.274   0.365   6.826 -0.8960 -0.1082 -0.7785
 9422SOL     OW39901   2.953   3.605   4.222  0.1026  0.0288 -0.2849
 9422SOL    HW139902   2.936   3.676   4.160 -0.5814 -0.6873 -0.9186
 9422SOL    HW239903   3.036   3.638   4.256 -0.4349  2.0197 -0.9212
 9423SOL     OW39904   4.060   0.120   7.872  0.0052  0.5730 -0.2167
 9423SOL    HW139905   4.043   0.135   7.779  0.2794 -1.6995 -0.6242
 9423SOL    HW239906   4.020   0.036   7.895  1.9326 -0.2328  0.1809
 9424SOL     OW39907   1.252   0.982   5.607 -0.6045 -0.5043 -0.1837
 9424SOL    HW139908   1.302   1.041   5.663 -3.8723  1.7971  0.2747
 9424SOL    HW239909   1.305   0.902   5.614  1.6912  1.0380  0.1477
 9425SOL     OW39910   1.825   3.358   9.877 -0.4135 -0.3174 -0.3301
 9425SOL    HW139911   1.781   3.433   9.836 -1.6007 -2.0618 -2.2299
 9425SOL    HW239912   1.870   3.320   9.803 -1.7543 -0.9362 -0.8323
 9426SOL     OW39913   3.926   0.817   5.776  0.2785 -0.5446  0.1427
 9426SOL    HW139914   3.853   0.784   5.724  1.8312  0.7238 -2.8600
 9426SOL    HW239915   3.878   0.872   5.838  2.0176 -1.2341  2.0939
 9427SOL     OW39916   3.020   2.858  13.504  0.3098  0.2813  0.0721
 9427SOL    HW139917   3.051   2.872  13.414  0.7665  0.6617  0.2952
 9427SOL    HW239918   2.925   2.864  13.490  0.2981 -0.9199 -0.3769
 9428SOL     OW39919   1.704   2.922   4.885  0.1833 -0.2737 -1.0167
 9428SOL    HW139920   1.612   2.900   4.869 -0.1259 -0.5840  1.1506
 9428SOL    HW239921   1.746   2.901   4.802  1.4536 -1.1486 -0.1450
 9429SOL     OW39922   1.392   1.746   3.837  0.2545 -0.1338 -0.2932
 9429SOL    HW139923   1.388   1.838   3.812 -0.8910 -0.1885 -0.3058
 9429SOL    HW239924   1.383   1.745   3.932  1.2831 -0.2213 -0.1953
 9430SOL     OW39925   2.677   1.789   3.925  0.5781 -0.4091  0.2456
 9430SOL    HW139926   2.660   1.797   3.831  1.3035  0.9282  0.2395
 9430SOL    HW239927   2.677   1.881   3.949  0.9028 -0.2668 -0.3073
 9431SOL     OW39928   3.665   3.085  17.675 -0.2059 -0.3507 -0.2335
 9431SOL    HW139929   3.670   3.066  17.581  0.7927  0.8575 -0.4194
 9431SOL    HW239930   3.643   2.997  17.705 -0.4539  0.1472  0.9992
 9432SOL     OW39931   0.099   3.779   3.676 -0.2961 -0.0494  0.0319
 9432SOL    HW139932   0.009   3.748   3.686  0.8051 -3.3641 -0.2796
 9432SOL    HW239933   0.146   3.698   3.693 -0.1567 -0.3021 -1.5538
 9433SOL     OW39934   3.222   2.333   7.064 -0.2173  0.0964  0.4248
 9433SOL    HW139935   3.201   2.355   7.155 -0.1568  1.1471  0.1875
 9433SOL    HW239936   3.168   2.400   7.022 -1.8113 -0.7539  1.1166
 9434SOL     OW39937   2.016   0.703   7.561  0.2478 -0.1083  0.1564
 9434SOL    HW139938   1.963   0.740   7.491 -0.4714 -3.2350 -0.9303
 9434SOL    HW239939   2.104   0.741   7.553  0.0955  0.2835  0.3268
 9435SOL     OW39940   1.199   4.538   5.730 -0.6124  0.2858  0.0543
 9435SOL    HW139941   1.222   4.457   5.774  0.0678  1.3472  1.6666
 9435SOL    HW239942   1.116   4.543   5.777 -0.7411 -5.5614  0.4518
 9436SOL     OW39943   4.733   2.196   7.098  0.7056 -0.0971  0.1168
 9436SOL    HW139944   4.704   2.229   7.013  0.9295 -1.9395 -0.6981
 9436SOL    HW239945   4.646   2.173   7.131  0.0486  0.1825 -1.4088
 9437SOL     OW39946   3.877   3.830   6.228 -0.0237 -0.2787 -0.0707
 9437SOL    HW139947   3.781   3.830   6.232 -0.0124 -1.9018  0.2231
 9437SOL    HW239948   3.895   3.759   6.166 -0.9070  0.8234 -1.5834
 9438SOL     OW39949   1.599   3.342   2.742 -0.7676 -0.1715  0.0265
 9438SOL    HW139950   1.536   3.408   2.712 -1.8445 -0.6869  1.1486
 9438SOL    HW239951   1.547   3.262   2.732  2.6585 -2.5832  1.5430
 9439SOL     OW39952   2.143   3.391   1.372  0.0078  0.3021 -0.4481
 9439SOL    HW139953   2.226   3.419   1.334  1.2094 -0.0868  1.8781
 9439SOL    HW239954   2.173   3.350   1.453  1.0364  1.1203 -0.4173
 9440SOL     OW39955   1.533   1.443   1.123  0.1376 -0.5686 -0.2494
 9440SOL    HW139956   1.541   1.453   1.217 -1.6136 -0.5511 -0.0983
 9440SOL    HW239957   1.455   1.496   1.107  0.7695  0.1760 -0.8797
 9441SOL     OW39958   3.455   2.133   3.654  0.5685  0.0338 -0.8651
 9441SOL    HW139959   3.511   2.194   3.605  1.1669 -0.3367 -0.6368
 9441SOL    HW239960   3.420   2.073   3.588  1.2580 -1.6515  0.3018
 9442SOL     OW39961   3.508   1.891  11.995 -0.2180  0.3826 -0.3343
 9442SOL    HW139962   3.483   1.975  12.034  2.9895  1.3630 -0.3993
 9442SOL    HW239963   3.467   1.900  11.909 -1.4264  3.4527  0.5611
 9443SOL     OW39964   0.430   0.791   6.881 -0.3970 -0.0762 -0.3216
 9443SOL    HW139965   0.475   0.850   6.942 -0.8538  0.4335 -0.4713
 9443SOL    HW239966   0.354   0.761   6.931 -0.1706 -2.1086 -1.1926
 9444SOL     OW39967   3.222   3.363   7.160 -0.3732 -0.1329  0.4991
 9444SOL    HW139968   3.196   3.271   7.157  0.9733 -0.4904 -0.5469
 9444SOL    HW239969   3.309   3.372   7.120 -0.3042 -0.1123  0.6533
 9445SOL     OW39970   3.770   2.086   5.543  0.4788  0.0898 -0.3990
 9445SOL    HW139971   3.771   2.179   5.524  0.4396 -0.0556 -1.1174
 9445SOL    HW239972   3.695   2.074   5.600  0.1871  1.3185 -0.5300
 9446SOL     OW39973   3.944   2.884   3.602  0.3773  0.5638  0.0566
 9446SOL    HW139974   3.956   2.914   3.512 -1.9804  0.4048 -0.2973
 9446SOL    HW239975   3.946   2.789   3.594  0.6342  0.5720  0.0147
 9447SOL     OW39976   4.467   0.363   4.558 -0.2287  0.3736  0.1939
 9447SOL    HW139977   4.442   0.348   4.467 -1.8159 -1.2705  0.8849
 9447SOL    HW239978   4.437   0.282   4.599  0.5622  1.0270  2.0716
 9448SOL     OW39979   1.725   0.482   6.953 -0.2427 -0.3284  0.2222
 9448SOL    HW139980   1.683   0.464   7.037 -1.9162  1.2606 -0.2752
 9448SOL    HW239981   1.812   0.468   6.990 -1.8577 -4.6514  2.3552
 9449SOL     OW39982   2.149   1.879   3.770  0.2363  0.2612 -0.2924
 9449SOL    HW139983   2.156   1.811   3.837 -1.6662  0.2634 -0.1099
 9449SOL    HW239984   2.083   1.843   3.711  1.6575 -1.5338 -0.7923
 9450SOL     OW39985   0.612   1.969   5.516 -0.5822  0.3171 -0.4717
 9450SOL    HW139986   0.567   2.041   5.561  1.2634  0.0853  1.7668
 9450SOL    HW239987   0.670   1.944   5.588  0.5600 -0.6737 -1.7600
 9451SOL     OW39988   1.807   4.342   3.385  0.0095 -0.3747 -0.1262
 9451SOL    HW139989   1.820   4.354   3.291  2.3054  1.7980  0.4596
 9451SOL    HW239990   1.740   4.409   3.404  0.0370  0.1561 -1.8604
 9452SOL     OW39991   0.559   4.312   4.937  0.4020  0.2788 -0.0463
 9452SOL    HW139992   0.613   4.263   4.999  1.0470 -0.2615 -1.0370
 9452SOL    HW239993   0.493   4.338   5.001  0.1380 -2.5179  0.7817
 9453SOL     OW39994   4.394   0.189   2.814 -0.2753 -0.0616  0.3501
 9453SOL    HW139995   4.401   0.250   2.887 -0.4306  0.6564 -0.2429
 9453SOL    HW239996   4.320   0.135   2.842 -0.4835  0.7164  1.2766
 9454SOL     OW39997   1.042   3.288   2.858  0.5399  0.5214  0.2080
 9454SOL    HW139998   0.955   3.323   2.879 -0.0704 -1.8630  1.7612
 9454SOL    HW239999   1.069   3.274   2.949 -2.4485 -1.0035  0.8880
 9455SOL     OW40000   2.014   1.871   4.404 -0.3509  1.0479 -0.3805
 9455SOL    HW140001   1.987   1.857   4.313 -0.0996  0.7338 -0.4059
 9455SOL    HW240002   2.104   1.841   4.411 -0.3374  1.3338  0.7093
 9456SOL     OW40003   2.327   3.898   8.605  0.1406 -0.5059  0.2190
 9456SOL    HW140004   2.415   3.861   8.613  0.8716  0.7611 -1.8138
 9456SOL    HW240005   2.329   3.968   8.669 -1.4779  0.0487 -0.3267
 9457SOL     OW40006   3.274   0.742   8.000  0.0320  0.0086 -0.2334
 9457SOL    HW140007   3.276   0.700   7.914  0.5445  0.6313 -0.5320
 9457SOL    HW240008   3.336   0.693   8.053 -0.0030  0.2060 -0.0113
 9458SOL     OW40009   1.649   3.284   7.694 -0.0222  0.3737  0.5912
 9458SOL    HW140010   1.594   3.229   7.749 -2.1387  2.0466  0.1507
 9458SOL    HW240011   1.716   3.220   7.671  0.2416  0.8744 -0.0539
 9459SOL     OW40012   2.516   2.747   3.770 -0.1320 -0.2330 -0.0604
 9459SOL    HW140013   2.543   2.832   3.805 -1.0944 -0.1350  0.4254
 9459SOL    HW240014   2.534   2.762   3.677 -1.9354  1.1905 -0.1984
 9460SOL     OW40015   0.055   1.801   2.293  0.0126 -0.3108 -0.6237
 9460SOL    HW140016   0.110   1.843   2.227 -1.6810 -1.2904 -2.6354
 9460SOL    HW240017   0.089   1.848   2.369  0.5485 -0.7421 -0.5939
 9461SOL     OW40018   3.881   2.679   5.517 -0.3572  0.3902 -0.9618
 9461SOL    HW140019   3.902   2.599   5.565 -4.0626  0.1149  0.1938
 9461SOL    HW240020   3.827   2.652   5.443 -0.8459 -2.0179  0.2594
 9462SOL     OW40021   3.271   1.171  14.110  0.1407  0.2619  0.0214
 9462SOL    HW140022   3.306   1.142  14.026  0.9667 -2.5514  1.3293
 9462SOL    HW240023   3.188   1.124  14.122  0.7925 -0.2864  2.3827
 9463SOL     OW40024   2.187   0.756   4.383 -0.1248  0.6794 -0.3756
 9463SOL    HW140025   2.226   0.744   4.469  1.0083  2.0703 -0.6911
 9463SOL    HW240026   2.205   0.670   4.344 -1.4082 -0.7027  2.0667
 9464SOL     OW40027   2.334   4.730   2.186  0.0779  0.4298  0.6485
 9464SOL    HW140028   2.264   0.058   2.195 -0.6139 -0.0560 -1.1610
 9464SOL    HW240029   2.383   0.044   2.123  0.9938 -0.6358  0.4937
 9465SOL     OW40030   3.936   3.425  16.613  0.2141  0.3556  0.1435
 9465SOL    HW140031   3.976   3.396  16.530 -0.4930  0.3055 -0.1802
 9465SOL    HW240032   3.847   3.393  16.597 -0.9276  2.3551  2.6691
 9466SOL     OW40033   2.929   2.277   2.436 -0.2265 -0.2264 -0.7194
 9466SOL    HW140034   2.888   2.224   2.504 -0.6517  1.5467  0.3895
 9466SOL    HW240035   2.928   2.364   2.476 -4.0910 -0.1344 -1.0031
 9467SOL     OW40036   1.573   0.203  12.377  0.3173  0.1426  0.1626
 9467SOL    HW140037   1.617   0.281  12.344 -1.5616  0.9145 -0.4771
 9467SOL    HW240038   1.569   0.220  12.471 -0.6918  0.4637  0.0589
 9468SOL     OW40039   0.034   4.604  11.312  0.6833  0.6832  0.4706
 9468SOL    HW140040   4.727   4.673  11.361 -1.8160 -1.4020  1.1632
 9468SOL    HW240041   0.026   4.639  11.223 -0.4821  1.3034  0.8308
 9469SOL     OW40042   4.385   4.327   0.197  1.2134 -0.0897 -0.2061
 9469SOL    HW140043   4.474   4.323   0.233  0.8326  1.7662  0.9235
 9469SOL    HW240044   4.349   4.239   0.193 -0.6292  0.6766 -0.5397
 9470SOL     OW40045   0.026   2.709   8.369 -0.5066  0.3099 -0.5550
 9470SOL    HW140046   0.021   2.668   8.282 -0.4439  0.9800 -0.8724
 9470SOL    HW240047   0.031   2.631   8.425  0.7107  1.8566  1.4999
 9471SOL     OW40048   0.437   4.073   6.542 -0.4460  0.1249  0.4285
 9471SOL    HW140049   0.526   4.054   6.511 -0.4472  0.9015 -0.0515
 9471SOL    HW240050   0.387   4.012   6.488 -1.6023  0.7637  0.7619
 9472SOL     OW40051   0.936   3.370   1.644  0.1984 -0.2650  0.2128
 9472SOL    HW140052   0.898   3.357   1.732  1.7377  0.8617  1.0410
 9472SOL    HW240053   0.891   3.307   1.588  1.4621 -1.1765  0.2050
 9473SOL     OW40054   1.319   3.658   4.650  0.3208 -0.3377 -0.3764
 9473SOL    HW140055   1.224   3.656   4.661  0.8899  2.0854  4.8359
 9473SOL    HW240056   1.339   3.585   4.592  0.8024 -1.8358  1.6910
 9474SOL     OW40057   3.595   0.779  12.053  0.3468 -0.5054 -0.2951
 9474SOL    HW140058   3.614   0.705  12.110  0.3346 -0.8616 -0.7521
 9474SOL    HW240059   3.595   0.732  11.970 -4.2838 -0.3690 -0.3883
 9475SOL     OW40060   4.397   3.744   4.003 -0.0858  0.1007 -0.4779
 9475SOL    HW140061   4.410   3.662   3.955 -1.3789  1.8532 -3.8456
 9475SOL    HW240062   4.433   3.734   4.091 -0.9669 -1.3423 -0.2902
 9476SOL     OW40063   3.271   3.533   0.083 -0.0894 -0.3870 -0.3199
 9476SOL    HW140064   3.307   3.466   0.141  0.9788  0.2691 -0.2304
 9476SOL    HW240065   3.261   3.595   0.156  2.5166  0.1265 -0.4079
 9477SOL     OW40066   3.131   0.692   0.741 -0.4277 -0.1660  0.5998
 9477SOL    HW140067   3.052   0.712   0.791  0.0477  2.6095  0.2106
 9477SOL    HW240068   3.177   0.773   0.764  1.1620 -0.7751 -0.4391
 9478SOL     OW40069   4.371   4.558   9.064 -0.2327  0.0139 -0.1235
 9478SOL    HW140070   4.397   4.485   9.007 -0.2659 -0.2285  0.1738
 9478SOL    HW240071   4.329   4.505   9.131  1.1451 -0.1085  0.6462
 9479SOL     OW40072   3.391   4.320   3.653  0.0532  0.0838 -0.1399
 9479SOL    HW140073   3.362   4.315   3.744  0.1900  3.0707  0.0483
 9479SOL    HW240074   3.406   4.413   3.636  0.5252 -0.5510 -3.2931
 9480SOL     OW40075   3.803   3.147  11.805  0.5518 -0.3489 -0.0155
 9480SOL    HW140076   3.780   3.217  11.867 -3.0014 -2.2373  0.7886
 9480SOL    HW240077   3.819   3.073  11.864  3.6634 -0.0617 -0.4853
 9481SOL     OW40078   1.035   2.704   5.287 -0.2237 -0.2357 -0.3752
 9481SOL    HW140079   0.978   2.759   5.232  0.5836 -1.1151 -2.0802
 9481SOL    HW240080   1.019   2.751   5.369 -0.9579 -2.0640  0.5222
 9482SOL     OW40081   2.321   0.570   3.847  0.1259 -0.5748 -0.2542
 9482SOL    HW140082   2.304   0.664   3.855  0.4191 -0.4400 -1.1758
 9482SOL    HW240083   2.283   0.558   3.760 -0.4066  0.6388 -0.2034
 9483SOL     OW40084   4.129   3.008   8.904 -0.1415  0.4545  0.1195
 9483SOL    HW140085   4.109   3.060   8.982 -1.4665  0.7252 -0.4106
 9483SOL    HW240086   4.108   3.067   8.832  1.1843 -0.5627 -1.1115
 9484SOL     OW40087   2.233   3.562   7.184 -0.3631 -0.0401 -0.5895
 9484SOL    HW140088   2.171   3.605   7.242  0.1661  2.0312 -1.5371
 9484SOL    HW240089   2.179   3.519   7.118  0.1414 -0.4057 -0.7700
 9485SOL     OW40090   3.446   4.180  12.119  0.4272  0.5974 -0.1114
 9485SOL    HW140091   3.490   4.143  12.196  1.3687  0.7280 -0.5874
 9485SOL    HW240092   3.496   4.258  12.098  4.5595 -1.7191  1.1405
 9486SOL     OW40093   4.453   1.655   0.279 -0.5200 -0.2728 -0.2996
 9486SOL    HW140094   4.508   1.579   0.297 -2.3162 -1.9646 -1.9196
 9486SOL    HW240095   4.445   1.700   0.363  1.6756 -1.6787  0.6581
 9487SOL     OW40096   0.773   0.871  17.195 -0.1851  0.5663 -0.3818
 9487SOL    HW140097   0.727   0.912  17.121 -0.8207 -0.3914 -0.5197
 9487SOL    HW240098   0.789   0.786  17.153  0.9164  0.2699  0.6364
 9488SOL     OW40099   1.007   1.754   7.919 -0.2787 -0.7707 -0.2752
 9488SOL    HW140100   1.088   1.703   7.917  1.0212  1.2646 -0.0596
 9488SOL    HW240101   0.963   1.725   7.999  1.4401  2.1255  1.7422
 9489SOL     OW40102   0.571   3.830   3.036  0.0169 -0.1976 -0.0232
 9489SOL    HW140103   0.645   3.824   3.096 -0.9775  1.6284  1.4147
 9489SOL    HW240104   0.517   3.894   3.084 -1.0788  0.0921 -1.6378
 9490SOL     OW40105   3.743   3.489   9.422 -0.1188 -0.7676 -0.3704
 9490SOL    HW140106   3.649   3.506   9.420  0.3590  2.1126  1.5386
 9490SOL    HW240107   3.759   3.484   9.517  2.3229 -1.2967 -0.8137
 9491SOL     OW40108   1.787   1.471  15.778 -0.7043  0.4026  0.2740
 9491SOL    HW140109   1.795   1.488  15.872  0.9454 -1.1403  0.4210
 9491SOL    HW240110   1.727   1.542  15.754 -0.4114  0.4883 -0.2033
 9492SOL     OW40111   2.683   3.856   2.940 -0.5022 -0.4904 -0.0798
 9492SOL    HW140112   2.743   3.900   3.000 -0.3098 -1.3116  0.3284
 9492SOL    HW240113   2.713   3.887   2.854 -5.8176  0.1325 -1.6972
 9493SOL     OW40114   0.630   3.173   8.319  0.6255 -0.1224  0.1934
 9493SOL    HW140115   0.598   3.115   8.389  0.1554 -2.0448 -1.6226
 9493SOL    HW240116   0.551   3.187   8.267  1.2008  0.7122 -0.4609
 9494SOL     OW40117   1.918   1.912   2.277  0.1563 -0.1105  1.0926
 9494SOL    HW140118   1.973   1.986   2.254  0.1938  0.0041  1.5587
 9494SOL    HW240119   1.849   1.926   2.211  0.7405 -1.9956  0.0640
 9495SOL     OW40120   1.738   2.756   2.784  0.0612  0.0502  0.3715
 9495SOL    HW140121   1.663   2.806   2.815  0.4857 -1.1308  3.3208
 9495SOL    HW240122   1.797   2.826   2.755  1.7612 -1.1078  0.9975
 9496SOL     OW40123   1.277   3.992   5.954  0.1695 -0.5900  0.3370
 9496SOL    HW140124   1.304   3.982   5.863 -0.8041  2.0254 -0.2372
 9496SOL    HW240125   1.349   4.043   5.992 -0.4780  1.0612 -0.6454
 9497SOL     OW40126   0.369   3.477   8.834 -0.0026 -0.3868 -0.0618
 9497SOL    HW140127   0.386   3.445   8.745 -0.8721  0.1194 -0.4039
 9497SOL    HW240128   0.273   3.481   8.831  0.0169 -0.6585 -0.9258
 9498SOL     OW40129   4.648   1.746  13.579  0.2355  0.1983  0.1927
 9498SOL    HW140130   4.644   1.727  13.486 -1.7807 -2.3777  0.8003
 9498SOL    HW240131   4.581   1.814  13.590  1.2609  1.2176  0.0794
 9499SOL     OW40132   0.372   2.074   0.121  0.0636 -0.3644 -0.0296
 9499SOL    HW140133   0.348   2.148   0.177  2.1256  0.0281  0.3511
 9499SOL    HW240134   0.438   2.121   0.068  0.6689 -1.6363 -0.3919
 9500SOL     OW40135   0.782   1.912   5.721  0.4529 -0.2070 -0.1154
 9500SOL    HW140136   0.771   1.843   5.786  0.7763  1.0787  1.2944
 9500SOL    HW240137   0.877   1.922   5.725  0.4175 -0.0843  0.4894
 9501SOL     OW40138   3.065   0.260  13.752 -0.2308 -0.1944 -0.2664
 9501SOL    HW140139   3.159   0.247  13.760 -0.0623  1.5110  0.6014
 9501SOL    HW240140   3.024   0.188  13.800 -0.2547 -0.1707 -0.2512
 9502SOL     OW40141   0.116   3.179  14.508 -0.0406 -0.5025 -0.0566
 9502SOL    HW140142   0.031   3.179  14.465 -0.1227 -0.5744  0.1048
 9502SOL    HW240143   0.169   3.250  14.471 -0.7330  0.0198 -0.0631
 9503SOL     OW40144   3.554   2.156   7.854 -0.7793 -0.1601  0.1780
 9503SOL    HW140145   3.597   2.191   7.932  1.3284 -0.3273 -0.9004
 9503SOL    HW240146   3.628   2.134   7.797  0.3891  0.4914  1.4389
 9504SOL     OW40147   2.379   3.607   5.207  0.5665 -0.0533 -0.0701
 9504SOL    HW140148   2.449   3.572   5.263  1.4538  3.6262  1.0722
 9504SOL    HW240149   2.411   3.693   5.183 -0.1642  0.3274  0.3055
 9505SOL     OW40150   1.614   2.668  15.446  0.3336  0.1145  0.6007
 9505SOL    HW140151   1.608   2.737  15.380  2.4591 -0.1704  0.1332
 9505SOL    HW240152   1.706   2.661  15.471  0.1625  3.2489  2.0291
 9506SOL     OW40153   3.736   1.664  17.714  0.5133  0.1025  0.0030
 9506SOL    HW140154   3.805   1.642  17.652 -0.7310 -2.3708 -0.5066
 9506SOL    HW240155   3.659   1.644  17.661  1.0909 -0.2371 -0.7000
 9507SOL     OW40156   2.916   0.517  13.152  0.3829  0.3213 -0.8061
 9507SOL    HW140157   2.893   0.608  13.170 -0.8055 -0.4585  1.5775
 9507SOL    HW240158   3.007   0.503  13.178 -0.4032  1.1926  2.4216
 9508SOL     OW40159   4.342   3.052   8.093 -0.0492  0.1536  0.1177
 9508SOL    HW140160   4.301   3.027   8.010 -0.2867 -1.7735  0.8140
 9508SOL    HW240161   4.314   2.976   8.144 -0.6583  0.9143  0.9121
 9509SOL     OW40162   0.757   0.330   3.600  0.0250  0.0608 -0.1986
 9509SOL    HW140163   0.725   0.240   3.591 -0.9159  0.3380  0.3614
 9509SOL    HW240164   0.846   0.327   3.566  0.3880  0.8545  0.6821
 9510SOL     OW40165   1.843   4.536  12.554 -0.3856 -0.0983 -0.1206
 9510SOL    HW140166   1.822   4.468  12.618 -3.0359  0.5766 -0.2561
 9510SOL    HW240167   1.786   4.607  12.585 -0.0432 -0.4598  1.3403
 9511SOL     OW40168   0.873   1.320   3.790 -0.3576 -0.3692  0.0209
 9511SOL    HW140169   0.936   1.283   3.852  0.3268 -3.4127 -2.4684
 9511SOL    HW240170   0.877   1.257   3.717 -0.3689 -0.3477  0.0015
 9512SOL     OW40171   3.956   0.147   0.661  0.1178 -0.2208  0.5905
 9512SOL    HW140172   3.929   0.177   0.574  0.3258  0.3750  0.7267
 9512SOL    HW240173   4.014   0.218   0.690 -0.3821  0.4387 -0.0232
 9513SOL     OW40174   0.521   0.326   5.131  0.0477 -0.0144 -0.1805
 9513SOL    HW140175   0.563   0.354   5.049 -1.4747 -1.3178 -1.4031
 9513SOL    HW240176   0.438   0.374   5.131 -0.8751 -1.6426  0.8580
 9514SOL     OW40177   2.248   4.566   4.738  0.1477 -0.2495 -0.1263
 9514SOL    HW140178   2.200   4.606   4.666 -0.4519 -1.3249 -0.3201
 9514SOL    HW240179   2.207   4.613   4.811 -0.1245 -0.0793 -0.3901
 9515SOL     OW40180   2.523   1.077   7.802  0.0254 -0.4105 -0.1631
 9515SOL    HW140181   2.476   1.159   7.791 -0.0478 -0.1824  1.9809
 9515SOL    HW240182   2.459   1.028   7.751 -0.6370  0.2883  0.0019
 9516SOL     OW40183   4.473   2.944  13.475  0.5294 -0.0263  0.4997
 9516SOL    HW140184   4.478   2.891  13.396 -2.4507  0.8220 -0.2388
 9516SOL    HW240185   4.545   2.900  13.522  2.0653  0.5021 -1.3718
 9517SOL     OW40186   1.548   0.238   9.224  0.9844  0.7987  0.3584
 9517SOL    HW140187   1.534   0.260   9.317  0.5670 -0.4998  0.6193
 9517SOL    HW240188   1.519   0.321   9.186  2.1167  1.1699  0.3198
 9518SOL     OW40189   1.880   0.683   2.135  0.7339  0.1766  0.6417
 9518SOL    HW140190   1.842   0.682   2.223  0.2637  0.4542  0.4374
 9518SOL    HW240191   1.906   0.771   2.110  0.5911  0.4315  1.3840
 9519SOL     OW40192   4.673   2.522   7.315  0.7525 -0.3599 -0.1598
 9519SOL    HW140193   4.643   2.515   7.224  0.0832 -1.2443  0.1311
 9519SOL    HW240194   4.629   2.453   7.365 -0.0627 -0.2291 -0.6943
 9520SOL     OW40195   2.331   1.870  13.308  0.6471 -0.0969 -0.2138
 9520SOL    HW140196   2.237   1.887  13.304  0.1510 -2.9479 -0.2678
 9520SOL    HW240197   2.336   1.802  13.241 -1.5481  0.7403 -1.2150
 9521SOL     OW40198   3.260   3.095   7.134 -0.7113  0.0889 -0.6645
 9521SOL    HW140199   3.302   3.124   7.053  1.2640 -1.6215 -0.2422
 9521SOL    HW240200   3.257   3.000   7.129  0.2660 -0.1565  3.2801
 9522SOL     OW40201   1.874   0.251   9.751  0.2241 -0.4736  0.3392
 9522SOL    HW140202   1.796   0.201   9.726  0.6510 -1.5269  1.1369
 9522SOL    HW240203   1.830   0.335   9.759 -0.0908 -0.7067  1.0954
 9523SOL     OW40204   0.633   1.271   2.754  0.6165  0.3533  0.6842
 9523SOL    HW140205   0.708   1.274   2.695 -0.0089  2.2027  0.0131
 9523SOL    HW240206   0.674   1.323   2.823  0.9846  0.4918  0.3619
 9524SOL     OW40207   2.687   2.952  10.668  0.3522  0.7075 -0.0636
 9524SOL    HW140208   2.594   2.956  10.645  0.4979 -2.4767 -1.1259
 9524SOL    HW240209   2.682   3.022  10.734 -0.5420 -0.7480  1.4007
 9525SOL     OW40210   1.633   1.814   8.458 -0.7991 -0.3208 -0.6560
 9525SOL    HW140211   1.559   1.839   8.515  0.1112 -0.4658  0.5910
 9525SOL    HW240212   1.686   1.769   8.524  0.2193  0.6311 -0.8201
 9526SOL     OW40213   2.235   3.691   6.743  0.7228 -0.3893 -0.1655
 9526SOL    HW140214   2.327   3.677   6.762  0.5625 -0.6368  0.4156
 9526SOL    HW240215   2.202   3.752   6.809 -1.2625  0.0404 -1.5487
 9527SOL     OW40216   2.418   3.721  16.241  0.2812  0.5183  0.6752
 9527SOL    HW140217   2.350   3.671  16.286  1.3771 -1.5898 -0.0248
 9527SOL    HW240218   2.373   3.763  16.168 -0.8628  0.9488  1.6371
 9528SOL     OW40219   1.310   3.982   1.727 -0.5145  0.0831  0.5795
 9528SOL    HW140220   1.359   3.966   1.807 -1.2244 -2.2172  0.5705
 9528SOL    HW240221   1.321   4.077   1.722  1.7772 -0.1829  0.9608
 9529SOL     OW40222   4.479   4.087   7.229  0.1755  0.8661 -0.4869
 9529SOL    HW140223   4.414   4.035   7.275 -0.7209  1.5388 -0.9798
 9529SOL    HW240224   4.490   4.155   7.295 -2.1958  0.3338  0.4491
 9530SOL     OW40225   2.021   4.295   3.798  0.4590 -0.3046  0.4965
 9530SOL    HW140226   1.959   4.303   3.870  1.1807 -1.4234  1.2401
 9530SOL    HW240227   2.047   4.203   3.795 -2.1727 -1.0348  0.1669
 9531SOL     OW40228   2.418   2.319   3.842  0.1041  0.2123  0.6604
 9531SOL    HW140229   2.411   2.327   3.937 -0.2063 -2.2394  0.8485
 9531SOL    HW240230   2.333   2.277   3.830 -0.3803  0.9183  1.5696
 9532SOL     OW40231   0.823   1.998   9.293  0.1238 -0.2982 -0.6483
 9532SOL    HW140232   0.802   2.088   9.320  2.1510 -0.4524  1.3796
 9532SOL    HW240233   0.801   1.939   9.365 -1.1039  0.9396  0.0029
 9533SOL     OW40234   3.040   0.957   0.250 -0.3442 -0.0900 -0.1713
 9533SOL    HW140235   2.972   0.946   0.316 -1.2244  0.1963 -1.0241
 9533SOL    HW240236   3.125   0.934   0.287 -0.6391 -0.3842  0.3167
 9534SOL     OW40237   1.325   4.635   6.591  0.3776 -0.1231  0.2319
 9534SOL    HW140238   1.282   4.709   6.548  0.1180 -0.9809 -0.9745
 9534SOL    HW240239   1.281   4.638   6.676 -1.1428 -0.2403 -0.5516
 9535SOL     OW40240   3.727   2.613   6.964 -0.0923  0.0617  0.0058
 9535SOL    HW140241   3.769   2.661   6.893  0.7841 -2.5429 -1.2321
 9535SOL    HW240242   3.806   2.584   7.010  0.5760  0.6336 -0.7902
 9536SOL     OW40243   0.409   2.643   4.568 -0.0525 -0.4042 -0.3048
 9536SOL    HW140244   0.411   2.701   4.492  1.0113 -0.0809 -0.0245
 9536SOL    HW240245   0.437   2.564   4.522 -0.3218 -0.0747 -1.0263
 9537SOL     OW40246   3.489   2.125   0.282 -0.3714  0.1240  0.5288
 9537SOL    HW140247   3.571   2.157   0.244  0.9473 -2.0684  1.5086
 9537SOL    HW240248   3.532   2.043   0.303  0.6051 -0.0268 -2.0126
 9538SOL     OW40249   3.459   3.861  12.745  0.0096 -0.1744  0.0222
 9538SOL    HW140250   3.431   3.803  12.674 -0.8252 -0.5746  0.6708
 9538SOL    HW240251   3.476   3.798  12.815 -0.1589  0.5409  0.7145
 9539SOL     OW40252   1.568   0.160   5.438  0.5228 -0.3632 -0.5681
 9539SOL    HW140253   1.603   0.219   5.371 -0.2407  0.7112 -0.0082
 9539SOL    HW240254   1.554   0.222   5.509 -1.6097 -0.4382 -0.9408
 9540SOL     OW40255   3.479   2.194   4.385 -0.0422  0.0607 -0.0796
 9540SOL    HW140256   3.452   2.228   4.470 -1.8485 -0.3120 -0.4905
 9540SOL    HW240257   3.457   2.269   4.329  0.6535 -0.1843 -0.6897
 9541SOL     OW40258   2.431   1.317   8.889  0.3950  0.3248  0.4224
 9541SOL    HW140259   2.489   1.392   8.875  0.4670  0.0927 -0.5338
 9541SOL    HW240260   2.354   1.348   8.840 -0.0444 -0.1646  0.8002
 9542SOL     OW40261   2.019   3.300  13.137  0.1223 -0.1226 -0.0342
 9542SOL    HW140262   2.056   3.316  13.051  2.9211 -1.3367  0.9374
 9542SOL    HW240263   2.085   3.326  13.201  0.3275  2.8079 -1.4337
 9543SOL     OW40264   2.856   0.294  12.774 -0.2644  0.0539 -0.5374
 9543SOL    HW140265   2.821   0.328  12.856 -2.4682  1.5957 -2.1353
 9543SOL    HW240266   2.824   0.351  12.704 -0.8375  1.4649  0.8774
 9544SOL     OW40267   0.562   2.463   5.273 -0.4148 -0.3605  0.6937
 9544SOL    HW140268   0.473   2.476   5.240 -0.2602 -0.1209  0.3745
 9544SOL    HW240269   0.569   2.548   5.318  0.8343 -1.0514  1.8343
 9545SOL     OW40270   0.496   4.252   6.158  0.2513  0.1702 -0.5460
 9545SOL    HW140271   0.428   4.254   6.091  0.6427  0.7237 -0.9240
 9545SOL    HW240272   0.454   4.185   6.212 -0.5078  0.1671 -1.1505
 9546SOL     OW40273   4.102   0.564   6.195 -0.1712 -0.1929 -0.1275
 9546SOL    HW140274   4.087   0.633   6.131  0.5072  0.1994  0.1361
 9546SOL    HW240275   4.018   0.567   6.242  0.8113 -1.6132  1.7655
 9547SOL     OW40276   2.221   0.629   0.515 -0.0220 -0.2995 -0.2765
 9547SOL    HW140277   2.213   0.724   0.509  2.4779 -0.0854 -0.2211
 9547SOL    HW240278   2.203   0.599   0.604  0.6220 -1.8654 -0.6656
 9548SOL     OW40279   1.687   1.008   6.224  0.0387  0.3125  0.6229
 9548SOL    HW140280   1.690   0.978   6.133  1.9554  1.3459  0.3314
 9548SOL    HW240281   1.698   0.923   6.267 -2.2898  0.4002  1.3550
 9549SOL     OW40282   3.962   1.899   6.047 -0.8218  0.5072 -0.4902
 9549SOL    HW140283   3.939   1.973   5.991  0.3361  1.6419  0.5072
 9549SOL    HW240284   4.004   1.948   6.119 -1.0515 -0.2536  0.1619
 9550SOL     OW40285   1.487   3.085   2.309 -0.1744 -0.1029  0.9403
 9550SOL    HW140286   1.433   3.163   2.294 -0.8052 -0.6293  0.5085
 9550SOL    HW240287   1.431   3.016   2.273 -0.5971  0.2838  0.8525
 9551SOL     OW40288   4.479   3.760   1.777 -0.4674  0.2170 -0.0096
 9551SOL    HW140289   4.528   3.779   1.856 -0.9078  1.7578 -0.1055
 9551SOL    HW240290   4.392   3.732   1.804  0.8198 -1.5093  2.2903
 9552SOL     OW40291   4.365   2.788   5.183  0.1054  0.0073  0.4591
 9552SOL    HW140292   4.442   2.741   5.217 -0.5967  0.1323  2.2438
 9552SOL    HW240293   4.394   2.879   5.192 -0.6794  0.3649 -0.6774
 9553SOL     OW40294   2.287   0.143   8.339  0.1344 -1.0716 -0.3826
 9553SOL    HW140295   2.279   0.230   8.300 -0.2583 -0.6462  0.6370
 9553SOL    HW240296   2.359   0.142   8.401 -0.6073 -2.1370  0.4740
 9554SOL     OW40297   1.700   2.719   6.820  0.3007  0.3964  0.0321
 9554SOL    HW140298   1.656   2.693   6.901  2.6245  0.6263  1.3650
 9554SOL    HW240299   1.695   2.638   6.769 -0.3893  0.0961  0.5762
 9555SOL     OW40300   3.871   2.782  12.273 -0.2331  0.0195  0.3788
 9555SOL    HW140301   3.867   2.852  12.208  0.6866  0.7952  1.1535
 9555SOL    HW240302   3.964   2.762  12.285 -0.9803 -2.0661  2.7176
 9556SOL     OW40303   2.086   4.300   1.672 -0.1966 -0.2196  0.3780
 9556SOL    HW140304   2.157   4.317   1.734 -0.2628 -0.7475  0.5938
 9556SOL    HW240305   2.028   4.371   1.701 -0.5005  0.2712 -1.4448
 9557SOL     OW40306   3.414   4.705   8.676 -0.4525 -0.0101  0.0211
 9557SOL    HW140307   3.398   4.642   8.605  2.1888 -1.5017  0.7408
 9557SOL    HW240308   3.448   4.648   8.744 -1.5360 -0.1421  0.4580
 9558SOL     OW40309   0.444   0.477   7.331  0.6273  0.6228  0.3834
 9558SOL    HW140310   0.450   0.506   7.240  1.8197  3.2450  1.2936
 9558SOL    HW240311   0.356   0.439   7.332  1.3069 -1.0488 -3.8859
 9559SOL     OW40312   3.110   4.565   9.268  0.2935  0.0189 -0.2817
 9559SOL    HW140313   3.192   4.537   9.226  1.0243 -0.2130  1.2845
 9559SOL    HW240314   3.064   4.608   9.196 -0.3242  0.5286  0.4202
 9560SOL     OW40315   2.389   4.434  10.270  0.0442  0.0849 -0.3392
 9560SOL    HW140316   2.449   4.498  10.307 -0.5466  0.6813 -0.3997
 9560SOL    HW240317   2.335   4.421  10.348 -1.0328  2.2743 -0.7350
 9561SOL     OW40318   4.627   3.520  10.793  0.5330 -0.2941  0.0111
 9561SOL    HW140319   4.536   3.516  10.822  1.4899 -1.1534  2.8362
 9561SOL    HW240320   4.640   3.438  10.745  1.0624 -0.5672  0.6277
 9562SOL     OW40321   3.693   3.548   6.174 -0.1993  0.3397 -0.0312
 9562SOL    HW140322   3.620   3.607   6.155  0.0334  0.4179 -0.6746
 9562SOL    HW240323   3.690   3.533   6.268  0.2390 -1.7921 -0.3550
 9563SOL     OW40324   0.650   4.617  17.298 -0.2482  0.2677  0.4257
 9563SOL    HW140325   0.597   4.676  17.244  0.0538 -1.9477 -2.3080
 9563SOL    HW240326   0.730   4.670  17.304 -0.1151  0.4923 -3.1838
 9564SOL     OW40327   4.160   3.749   7.959 -0.1742 -0.1693  0.3196
 9564SOL    HW140328   4.246   3.771   7.922  0.1582 -3.2218 -0.7789
 9564SOL    HW240329   4.158   3.653   7.952 -0.7600 -0.1790  0.6824
 9565SOL     OW40330   1.646   0.146   9.591  0.2399 -0.3029 -0.3278
 9565SOL    HW140331   1.643   0.233   9.552  1.4797  0.7152  1.8052
 9565SOL    HW240332   1.704   0.110   9.524 -0.4770  0.7232 -1.4899
 9566SOL     OW40333   2.684   4.364   9.129 -0.1761  0.3104 -0.0427
 9566SOL    HW140334   2.761   4.367   9.186  0.0966 -0.9945 -0.3482
 9566SOL    HW240335   2.645   4.452   9.132  0.5243  0.6484 -0.6832
 9567SOL     OW40336   1.168   0.660   9.950  0.0261  0.3485 -0.8359
 9567SOL    HW140337   1.146   0.585  10.005  2.4344  0.5046  0.3660
 9567SOL    HW240338   1.152   0.637   9.859  0.5607  0.4717 -0.9642
 9568SOL     OW40339   1.326   0.491   0.709  0.1913 -0.4136  0.4466
 9568SOL    HW140340   1.281   0.507   0.626  0.2112 -3.0124 -0.0476
 9568SOL    HW240341   1.279   0.559   0.757 -0.6347 -1.9077  1.7274
 9569SOL     OW40342   1.048   2.361   9.601 -0.1421 -0.0875 -0.4646
 9569SOL    HW140343   0.987   2.402   9.538 -0.9580 -1.9107 -0.8604
 9569SOL    HW240344   1.102   2.439   9.598  0.7565 -0.6179  2.6366
   4.73713   4.73713  17.74686
